/*--------------------------------*- C++ -*----------------------------------*\
| =========                 |                                                 |
| \\      /  F ield         | OpenFOAM: The Open Source CFD Toolbox           |
|  \\    /   O peration     | Version:  v1906                                 |
|   \\  /    A nd           | Web:      www.OpenFOAM.com                      |
|    \\/     M anipulation  |                                                 |
\*---------------------------------------------------------------------------*/
FoamFile
{
    version     2.0;
    format      ascii;
    class       surfaceScalarField;
    location    "532";
    object      phia;
}
// * * * * * * * * * * * * * * * * * * * * * * * * * * * * * * * * * * * * * //

dimensions      [0 3 -1 0 0 0 0];
oriented        oriented;


internalField   nonuniform List<scalar> 
18240
(
0.000846444867795
-0.000846605567417
0.00173474054538
-0.000888513366364
0.00262100114148
-0.000886412587711
0.00349997456526
-0.00087920364739
0.00436895556896
-0.000869116743043
0.00522521412144
-0.000856499420837
0.00606657502116
-0.000841480197559
0.00689060182147
-0.000824276417164
0.00769546350476
-0.000804964268151
0.00847898309577
-0.000783775922462
0.00923967999427
-0.00076078236315
0.0099756541081
-0.000736235217764
0.0106857801056
-0.000710194534327
0.0113684355462
-0.000682919427239
0.0120228320924
-0.000654448196572
0.0126476016529
-0.000625034623689
0.0132422516019
-0.000594685297085
0.0138056249802
-0.00056363774155
0.0143374658583
-0.000531860240627
0.0148367709586
-0.000499567085354
0.0153034524091
-0.000466685670347
0.0157365987786
-0.000433404351684
0.0161362212012
-0.000399612028017
0.0165014419803
-0.000365473266158
0.0168323108221
-0.000330844893642
0.0171279386569
-0.000295873414947
0.0173883690281
-0.000260393604781
0.0176126742892
-0.000224542678281
0.01780086803
-0.000188145425622
0.0179519804593
-0.000151340513038
0.0180659956853
-0.000113956300547
0.0181419200326
-7.6142067444e-05
0.0181797320417
-3.77439207563e-05
0.0181784632596
1.06238419136e-06
0.0181381408282
4.0398562442e-05
0.0180578927866
8.00537728532e-05
0.0179378694104
0.00012010595123
0.0177773866712
0.000160301312075
0.0175768082809
0.00020066610325
0.0173357393716
0.000240900857006
0.017054852514
0.000280977964829
0.0167341434726
0.000320554822222
0.0163746850057
0.000359551526281
0.0159769584408
0.000397586598792
0.0155425230259
0.000434528733254
0.0150724399528
0.000469958021535
0.0145688467769
0.000503685531838
0.0140334927989
0.000535244924018
0.0134692070454
0.000564375945478
0.0128785602567
0.000590555324993
0.0122652032608
0.000613444125473
0.0116326579434
0.000632473017434
0.0109854839318
0.000647256761122
0.0103281816764
0.000657249988763
0.00966613144775
0.000662126985786
0.00900458739904
0.000661511661466
0.00834935318256
0.000655303258632
0.00770587565718
0.000643463020898
0.0070796770668
0.00062625817396
0.00647558689037
0.0006040883941
0.00589799945181
0.000577635138443
0.0053503023823
0.000547700940498
0.00483509374877
0.000515242738517
0.0043539182307
0.000481179834188
0.00390758752109
0.000446352500399
0.00349616892564
0.000411420250451
0.00311927681487
0.000376904363027
0.00277605802785
0.000343215397348
0.0024653399457
0.000310723263762
0.00218557169646
0.000279759063661
0.00193495499604
0.000250617366092
0.00171142786222
0.000223513577064
0.00151284422099
0.000198582411924
0.00133697477042
0.000175854394367
0.00118167897473
0.000155294846835
0.0010448639502
0.000136800798917
0.000924613841904
0.000120250305679
0.000819113550729
0.000105487612913
0.00072675315876
9.23613618835e-05
0.000646043162224
8.06985491413e-05
0.00057571440331
7.03298269328e-05
0.000514668382073
6.10354958232e-05
0.000462178694848
5.24905287097e-05
0.000418346193063
4.38226196362e-05
0.000382859912553
3.54864089658e-05
0.0003504235477
3.24271388018e-05
0.000319920317179
3.05019333418e-05
0.000293068836453
2.68422042191e-05
0.000266096414849
2.69682162171e-05
0.000236417316121
2.9669398977e-05
0.00020577200056
3.06375275972e-05
0.00017415944413
3.16020551581e-05
0.000138198337514
3.59521449275e-05
9.53814650127e-05
4.28031858068e-05
4.62538188564e-05
4.91033457345e-05
4.6241761256e-05
0.000893685712958
-0.00174047252763
0.00184256181851
-0.00183759498792
0.00278622289004
-0.00183026034414
0.00372126877776
-0.00181445611436
0.0046452589926
-0.00179328800781
0.00555560154467
-0.00176704864287
0.00644990724445
-0.00173596035468
0.00732574880962
-0.00170032354572
0.0081810207632
-0.00166040290796
0.00901358705851
-0.0016165452522
0.00982168621408
-0.00156903955824
0.0106035074731
-0.00151825569534
0.0113576464569
-0.0014644820911
0.0120826175995
-0.00140808480652
0.012777356515
-0.00134932570847
0.0134406750033
-0.00128854132985
0.0140718059572
-0.00122594433641
0.0146698080425
-0.00116182106617
0.0152341493482
-0.00109631884515
0.0157640697856
-0.00102966093848
0.0162592001144
-0.000961922193376
0.0167188905249
-0.000893259590722
0.0171428616451
-0.000823678172384
0.0175305077917
-0.000753275020187
0.0178815762617
-0.000681997122688
0.0181954531158
-0.000609896118657
0.0184718663159
-0.000536879456249
0.018710161289
-0.00046297334625
0.0189100229645
-0.000388068786462
0.0190707473344
-0.000312190122874
0.0191919787215
-0.000235238773713
0.0192729852054
-0.000157263154809
0.0193134015133
-7.82010639099e-05
0.0193125128616
1.84716694324e-06
0.0192700018036
8.28784864768e-05
0.0191852461988
0.000164716217972
0.0190580609518
0.000247269211513
0.0188880133896
0.000330266296256
0.0186751518062
0.000413514092184
0.0184193407763
0.000496639620556
0.0181209678673
0.00057934488987
0.0177803013393
0.000661159064317
0.0173981674822
0.000741686143475
0.0169753354344
0.000820366034608
0.01651316118
0.000896709787853
0.016013008182
0.000970068020401
0.0154768577413
0.00103984838736
0.0149067772843
0.00110529235261
0.0143054968567
0.0011656743829
0.0136759333209
0.00122009654055
0.0130217220479
0.00126767911287
0.012346789204
0.00130739481083
0.0116558046155
0.0013382703941
0.0109537683424
0.00135928635254
0.0102463286293
0.00136960003733
0.0095393402072
0.00136851023468
0.00883901010673
0.00135566937595
0.00815142869709
0.00133106264818
0.00748257237529
0.00129515034056
0.00683785208913
0.00124883059997
0.00622203252057
0.00119348601121
0.00563886536687
0.00113088762111
0.00509105583418
0.00106307560504
0.0045801790148
0.000992070703496
0.00410691057311
0.000919636083699
0.00367119813273
0.000847140834778
0.00327250952718
0.000775600792823
0.00290990131482
0.000705825108252
0.00258207574091
0.000638549821173
0.00228735537206
0.000574474695442
0.0020237474657
0.000514221154877
0.00178899236329
0.000458259708496
0.00158070788498
0.000406860303138
0.00139646972199
0.000360082435696
0.00123393686951
0.000317821268699
0.00109087278811
0.000279855773942
0.000965210173981
0.000245907707984
0.000855029629694
0.000215660337113
0.000758600002481
0.000188786644706
0.000674340425669
0.000164951077066
0.000600837197993
0.000143829069617
0.00053677036718
0.00012509584822
0.000480821038871
0.000108436081278
0.00043112013543
9.35175058769e-05
0.000385760405389
8.08421689592e-05
0.000345482246889
7.26995913903e-05
0.000312653524014
6.33259878011e-05
0.000285026598395
5.44625127138e-05
0.000259268075838
5.2720370236e-05
0.00023284775332
5.60815716729e-05
0.000203376003875
6.0100707973e-05
0.000171717223365
6.32516477674e-05
0.000137545952853
7.01122756872e-05
9.73186954048e-05
8.30177552197e-05
4.78132018663e-05
9.85901603284e-05
9.40432315546e-05
0.000901903206058
-0.00264256144573
0.00185647221182
-0.00279236266863
0.00280685086067
-0.00278083501471
0.00374870124426
-0.00275650578638
0.00467930340712
-0.00272408262648
0.00559602730824
-0.00268396960363
0.00649639056955
-0.00263651161817
0.00737799631027
-0.0025821228059
0.00823865312844
-0.00252124221984
0.00907627930359
-0.00245436011524
0.00988902945725
-0.00238196554081
0.0106751710985
-0.00230458007833
0.0114332197814
-0.0022226990751
0.0121617912359
-0.00213683207452
0.012859744611
-0.00204743899353
0.0135260128921
-0.0019549776646
0.0141597541539
-0.00185983652321
0.0147601635076
-0.0017623899596
0.0153266326035
-0.00166292923638
0.0158585471997
-0.0015617259411
0.0163554560543
-0.00145896233847
0.0168168585973
-0.00135480286102
0.0172423841556
-0.00124932458628
0.0176315741747
-0.00114259569125
0.0179840726049
-0.00103460582872
0.0182994063306
-0.000925350106479
0.0185771863777
-0.000814759004724
0.0188168895188
-0.000702786202864
0.0190180696882
-0.000589337772905
0.0191801432647
-0.000474362783468
0.0193026094665
-0.000357783129771
0.0193848412816
-0.000239583470353
0.0194263141435
-0.00011974169989
0.0194264050836
1.67820502522e-06
0.0193846272878
0.000124598669982
0.0193004384288
0.000248837284866
0.0191734785314
0.000374181175458
0.0190033868442
0.000500300092088
0.0187900380893
0.000626824131909
0.0185333658704
0.000753263360126
0.0182335917571
0.000879088820647
0.0178910528844
0.00100365837779
0.0175064190567
0.00112629778491
0.0170805248565
0.00124622916457
0.0166145743489
0.00136264563828
0.0161099833348
0.00147463635568
0.0155685769076
0.00158124771175
0.0149924531956
0.00168140209609
0.0143841822173
0.00177394616519
0.0137467009014
0.00185757324911
0.0130835122025
0.0019308769177
0.0123986029072
0.00199230916169
0.011696612279
0.00204027808153
0.0109827257909
0.00207318695156
0.0102627438505
0.00208960581739
0.00954288146525
0.00208839460748
0.00882968221913
0.00206889774689
0.00812971945233
0.00203105279821
0.0074494051345
0.00197549640059
0.0067946408821
0.00190362260616
0.00617056608369
0.00181758976204
0.00558119604289
0.00172028010452
0.00502921433721
0.00161507872871
0.00451596866251
0.00150533255883
0.00404176136075
0.00139385752131
0.00360621519516
0.00128269762804
0.00320858389532
0.00117323969913
0.00284784216689
0.00106657061485
0.00252263309418
0.000963759595849
0.00223119786508
0.000865907083729
0.00197138758455
0.000774026644385
0.00174075044408
0.000688889427452
0.0015366939914
0.000610909220602
0.00135663078283
0.000540137097261
0.00119809678412
0.000476347891104
0.00105879254047
0.000419152426785
0.000936606180681
0.000368087829499
0.000829604322727
0.00032265540914
0.000736043522283
0.000282341754664
0.000654350153424
0.000246638021811
0.000583110028896
0.000215063684667
0.000521018784625
0.000187181131106
0.000466818703658
0.000162631096776
0.000419095049638
0.000141235497514
0.000376837116668
0.000123095136098
0.000339369789665
0.000110161365272
0.000303911089032
9.87790625865e-05
0.000270207233431
8.81601031189e-05
0.00024273397836
8.01868668122e-05
0.000220160891708
7.8646569273e-05
0.000191016647944
8.92355576574e-05
0.000156018315166
9.82404527023e-05
0.000119581734745
0.000106541311938
7.96967698329e-05
0.000122890747479
4.06053384685e-05
0.000137664255746
0.000134640295346
0.000910354031773
-0.00355310271983
0.00187294282827
-0.0037551522453
0.00283142787177
-0.00373951812403
0.0037812567875
-0.00370653341723
0.0047195728098
-0.00366259416102
0.00564367470483
-0.00360826698042
0.00655100450848
-0.00354403312728
0.00743913964118
-0.00347044923315
0.00830583720123
-0.00338812637933
0.00914901644876
-0.00329772526827
0.0099667993526
-0.00319992882495
0.0107574793489
-0.00309543951084
0.0115195576588
-0.00298495052353
0.012251699174
-0.00286914561796
0.0129527649873
-0.00274866990959
0.013621756848
-0.00262413334716
0.0142578467711
-0.00249608275485
0.0148603121988
-0.00236501030405
0.0154285644509
-0.00223132843869
0.0159620776813
-0.00209538460664
0.016460418661
-0.00195744037193
0.0169231731586
-0.00181769283595
0.017349979847
-0.00167625809392
0.0177404576053
-0.0015331986261
0.018094245668
-0.00138851017665
0.0184109343435
-0.00124215342354
0.0186901124721
-0.00109404278666
0.0189313030594
-0.000944080795398
0.0191340182757
-0.000792147950846
0.0192977010616
-0.00063813893101
0.0194217878755
-0.000481954318528
0.0195056571401
-0.000323535546186
0.0195487003632
-0.000162858840535
0.0195502791907
2.69397722912e-08
0.019509804332
0.000165009775807
0.0194267011652
0.000331878088126
0.0193004951006
0.000500333299362
0.0191307837878
0.000669958703028
0.0189173248887
0.000840238370664
0.018660010698
0.00101053398542
0.0183589524538
0.00118011114488
0.0180144522643
0.00134812364105
0.0176270787127
0.00151364366873
0.0171976337675
0.001675647493
0.0167272195523
0.00183304026086
0.0162172053924
0.00198463227674
0.0156692948871
0.00212914696423
0.0150855082111
0.0022651794621
0.0144682667943
0.00239118535972
0.013820409348
0.00250543096077
0.0131453056475
0.00260598793556
0.0124469043958
0.00269071999982
0.0117298495166
0.00275734965162
0.0109994976253
0.00280355671261
0.0102619401703
0.00282718814806
0.00952387111725
0.00282648874357
0.00879241780098
0.00280038175523
0.00807484924222
0.00274865243092
0.00737831965926
0.00267205798582
0.00670949169817
0.00257248249585
0.0060741956335
0.00245291344009
0.0054769055809
0.00231759519775
0.00492026414885
0.00217174052392
0.00440513179919
0.00202048277589
0.0039310933551
0.00186791090964
0.00349716030528
0.00171664322548
0.00310228024815
0.00156812937055
0.00274537660337
0.00142347958386
0.00242509055597
0.00128404799248
0.00213956838887
0.00115142750333
0.00188642458366
0.00102716654426
0.00166286994502
0.000912437329564
0.00146596261486
0.000807809246319
0.0012928440903
0.000713247836555
0.00114088094672
0.000628303688806
0.0010076931122
0.000552333436968
0.00089112890279
0.000484645418888
0.00078924095369
0.000424536835882
0.000700289735174
0.000371286394091
0.000622729908267
0.000324191148641
0.00055519248238
0.000282594575593
0.000496455782539
0.000245911483705
0.000445397462252
0.000213683350263
0.000400598231907
0.000186028921234
0.000361468832602
0.000162218835429
0.000323783321015
0.000147841050112
0.000288173068134
0.000134383268552
0.000256397106294
0.000119929364398
0.000224417699406
0.000112159174169
0.00019164388829
0.000111412235732
0.00016692282799
0.00011394865196
0.000133617385703
0.000131537584871
9.50003363597e-05
0.000145148849506
6.23968808851e-05
0.000155486073513
3.22103941956e-05
0.000167838446578
0.000166841942207
0.000921285774743
-0.00447457702688
0.00189504390174
-0.00472910895305
0.00286454364404
-0.00470921824968
0.00382511558419
-0.00466730411012
0.00477379265689
-0.00461146851553
0.0057077843609
-0.0045424543796
0.00662445136857
-0.00446089347094
0.0075213164004
-0.0043675056086
0.00839608684336
-0.00426308511182
0.00924665961546
-0.00414848379461
0.0100711370385
-0.00402458832398
0.0108678215766
-0.00389230312619
0.0116352236835
-0.00375252752152
0.0123720465004
-0.00360613991005
0.0130771859741
-0.00345397620933
0.0137497064297
-0.00329681688383
0.0143888341409
-0.00313536852526
0.0149939255958
-0.0029702557709
0.0155644567017
-0.00280200819273
0.0160999867567
-0.00263105904479
0.016600146681
-0.0024577390656
0.017064602555
-0.002282283022
0.0174930465486
-0.00210483057301
0.0178851636806
-0.00192543968383
0.0182406283522
-0.00174409283236
0.0185590765936
-0.00156071501204
0.0188401093934
-0.00137518291402
0.0190832712248
-0.00118734532526
0.0192880604157
-0.00099703383249
0.019453914329
-0.000804084923866
0.0195802272174
-0.00060835330505
0.0196663428087
-0.00040973271161
0.0197115809895
-0.000208172725538
0.0197152398353
-3.70318578011e-06
0.0196766316247
0.000203552428017
0.0195950945521
0.000413353840298
0.0194700373811
0.000625334625824
0.0193009584669
0.000838985800858
0.019087494667
0.00105365555235
0.018829441864
0.0012685439493
0.0185268006836
0.0014827144073
0.0181797905311
0.0016950995066
0.0177888843397
0.0019045203471
0.0173548107596
0.00210969519452
0.0168785764218
0.00230925355074
0.0163614610584
0.00250173052304
0.0158050396325
0.0026855564572
0.01521119173
0.00285901991698
0.0145821523898
0.00302022262723
0.0139205700445
0.00316701633516
0.0132296160844
0.00329694950454
0.0125131098041
0.00340724034487
0.0117756662202
0.0034948091036
0.0110228193736
0.00355642751051
0.0102610593459
0.00358897136532
0.00949774817272
0.00358983151602
0.00874085646387
0.00355730434314
0.00799862836609
0.00349091530174
0.0072793177964
0.00339140432529
0.00659070868673
0.00326112304287
0.00593982990473
0.00310382388726
0.00533200261204
0.00292544551348
0.00476979142471
0.0027339743131
0.00425309487498
0.0025371974669
0.00378014535643
0.0023408771505
0.00334887684835
0.00214792717277
0.00295787797205
0.0019591391462
0.00260622637479
0.00177513947065
0.00229274128558
0.00159753591491
0.00201551102065
0.00142865797145
0.0017717928958
0.00127088072037
0.00155823616014
0.0011259880402
0.00137132395762
0.000994714115483
0.00120778798962
0.000876776308557
0.00106478760745
0.000771297007807
0.000939877594372
0.00067723662203
0.000830888953451
0.000593627498403
0.000735861879635
0.000519556770836
0.000653074213974
0.000454066905266
0.000581027934724
0.000396229794867
0.000518433311741
0.000345181740189
0.000464223514465
0.000300113999836
0.000417608602611
0.000260291595963
0.000378184431324
0.000225446618875
0.000342771489419
0.000197625536487
0.000308387001536
0.000182219131143
0.000273678827477
0.000169084745446
0.000234395485377
0.000159205771645
0.000197927177266
0.000148619969567
0.000164109473783
0.000145222244628
0.000136253778972
0.000141796071058
0.000111926130551
0.000155857971877
7.87811643131e-05
0.000178288985158
4.84065310692e-05
0.000185852108194
2.43973305906e-05
0.000191835232527
0.00019123387619
0.000935007566676
-0.00540977389764
0.00192306178189
-0.00571736591562
0.00290660889264
-0.00569296599579
0.00388083624983
-0.00564173171649
0.0048426578831
-0.0055734883463
0.00578917386757
-0.00548916704359
0.00671765001008
-0.00538956401304
0.00762553457349
-0.00527558236128
0.00851047748091
-0.00514821731103
0.00937034070992
-0.00500853352322
0.0102032086706
-0.00485763929932
0.0110073886652
-0.00469666284033
0.0117814117585
-0.00452672632699
0.0125240231348
-0.00434892329131
0.0132341737263
-0.0041642943712
0.0139110011103
-0.00397380776538
0.0145538128951
-0.00377833899539
0.0151620598626
-0.00357865705536
0.0157353135398
-0.00337541108078
0.0162732349327
-0.00316912502647
0.0167755503115
-0.00296019368082
0.0172420201826
-0.00274888732864
0.0176724180132
-0.00253535732814
0.0180665038477
-0.00231964951128
0.0184240094229
-0.0021017167808
0.0187446187674
-0.0018814377436
0.0190279607527
-0.00165863263911
0.0192735967652
-0.00143308407791
0.0194810202024
-0.00120455437567
0.0196496509202
-0.000972807790785
0.0197788420783
-0.00073763104221
0.01986788223
-0.000498854560002
0.0199160115228
-0.000256378251159
0.0199224344837
-1.01976409489e-05
0.0198863473536
0.00023957334563
0.0198069627128
0.000492676807657
0.0196835479931
0.000748692722222
0.0195154595727
0.00100702187933
0.0193021875734
0.00126687999443
0.0190433918839
0.0015272961415
0.0187389431225
0.00178712426783
0.0183889488388
0.00204505885455
0.0179937785297
0.0022996602984
0.0175540699701
0.00254937749976
0.0170707330582
0.0027925690686
0.016544939345
0.00302750741283
0.0159781193874
0.00325236508828
0.0153719640201
0.00346516874535
0.0147284597987
0.00366372660529
0.0140499574756
0.00384552226461
0.0133393107946
0.00400760809377
0.0126000599977
0.00414650260025
0.0118366956539
0.00425819743112
0.0110548758253
0.00433826555325
0.0102616099651
0.00438227060396
0.00946514343704
0.00438632537981
0.00867463263838
0.00434785260615
0.00789957297584
0.00426601209115
0.00714975524365
0.00414125741414
0.00643448590809
0.00397642951359
0.00576286896008
0.00377546838418
0.00514194827485
0.00354639277089
0.00457411198788
0.00330183106807
0.00405739622297
0.00305393304092
0.00358743146746
0.00281086012493
0.00316023066304
0.00257514377549
0.00277414762233
0.00234523568826
0.00242901662513
0.002120277877
0.00212427158666
0.00190228553899
0.00185803550073
0.00169489296827
0.00162701860091
0.00150189432336
0.00142690987971
0.0013260896258
0.00125323347742
0.00116838295384
0.0011021266964
0.00102787548619
0.000970552651419
0.00090286351588
0.000856098948964
0.00079168375901
0.000756641373022
0.000693077764115
0.000670199760885
0.000605990937626
0.000595075028639
0.000529183542774
0.000529827331553
0.000461468828349
0.000473223413717
0.000401777147156
0.000424263312257
0.000349065903287
0.000382177837132
0.000302369472794
0.000346301040182
0.000261316330283
0.000310694485641
0.000233225179196
0.00027571049081
0.000217196219998
0.000243585759808
0.000201202283842
0.000213752554833
0.000189031564193
0.000179356211643
0.000183008141632
0.000144069878093
0.000180500561248
0.000108261519656
0.000177598285031
8.44916928582e-05
0.000179621856512
6.46081619612e-05
0.000198164871365
3.94510077986e-05
0.000211003424241
1.96147582627e-05
0.000211663349852
0.000210842182578
0.000951726809152
-0.00636169148547
0.0019572858411
-0.00672312549461
0.00295801947518
-0.00669390257135
0.00394893304102
-0.00663284614948
0.0049267911166
-0.00655154612537
0.00588856126714
-0.0064511348783
0.00683139416945
-0.00633259255882
0.00775264609659
-0.00619702743299
0.00864989761256
-0.00604565927466
0.00952096697034
-0.00587979021553
0.0103639184839
-0.00570077488555
0.0111770651614
-0.00550998993293
0.0119589663248
-0.00530880417745
0.01270841954
-0.0050985490686
0.0134244475822
-0.00488049084256
0.0141062799661
-0.00465580406789
0.0147533300051
-0.00442554848622
0.015365167391
-0.0041906490576
0.0159414878686
-0.00395188142271
0.0164820806111
-0.00370986254985
0.0169867955126
-0.00346504839917
0.017455511209
-0.00321773757162
0.0178881061281
-0.00296808167431
0.0182844327993
-0.00271610023134
0.0186442970334
-0.00246169986613
0.0189674410288
-0.00220469516128
0.0192535311953
-0.00194483100238
0.0195021490114
-0.0016818046778
0.0197127857439
-0.00141528870305
0.0198848396497
-0.00114495393184
0.0200176175504
-0.00087049604913
0.0201103394745
-0.00059165834124
0.0201621502062
-0.000308265848315
0.0201721361187
-2.02553361255e-05
0.0201393501919
0.000272292287216
0.0200628438173
0.000569121041509
0.0199417066572
0.00086977228402
0.0197751115324
0.0011735640021
0.0195623636847
0.00147957915324
0.0193029493131
0.00178666623866
0.0189965806887
0.00209345283373
0.0186432313682
0.00239837254873
0.018243158406
0.00269970199184
0.0177969067016
0.00299560269816
0.0173052960364
0.00328415810609
0.0167693928281
0.00356339447092
0.0161904761804
0.00383127066093
0.0155700138086
0.00408562647257
0.0149096663254
0.00432407333323
0.0142113582952
0.00454383832781
0.0134774251953
0.00474154815711
0.0127109094569
0.00491304021821
0.0119159243708
0.00505319500579
0.0110981606967
0.00515606241331
0.0102651910845
0.00521526091087
0.00942652563673
0.0052250299208
0.00859293227148
0.00518147880382
0.00777537068159
0.00508361327518
0.00698573671071
0.0049309310009
0.00623495578384
0.00472724232516
0.00553597915101
0.00447447725067
0.00489956904697
0.00418282476555
0.00432777335445
0.0038736491047
0.00381495445532
0.00356677114803
0.0033516191056
0.00327421345876
0.00293018993085
0.00299659018728
0.00254947746955
0.00272595978415
0.00221162683435
0.00245813650252
0.0019175363778
0.00219637769357
0.00166551039988
0.0019469176527
0.00145135047987
0.00171604798372
0.00126904556296
0.00150838658713
0.00111243493653
0.00132498466825
0.000976828306588
0.00116347368422
0.000859146199409
0.00102053820802
0.000757291070619
0.000893531591854
0.000669325988682
0.000781035369243
0.000593172432032
0.000682136340854
0.000527157792254
0.000595189153209
0.000469939150353
0.000518677892207
0.0004203284137
0.00045137814246
0.000377394744608
0.00039199026181
0.000340436329525
0.000339319387564
0.000308999373928
0.000292745467679
0.000275898533952
0.000266318250325
0.000245212630992
0.000247874477307
0.000212637459656
0.000233769792097
0.00018108007082
0.000220580994741
0.000148908317691
0.00021517222808
0.000120844307212
0.00020855709978
9.03509488927e-05
0.000208084374896
6.2611591119e-05
0.000207355186761
4.88160138777e-05
0.000211957067568
3.10856643957e-05
0.000228726730326
1.53630848513e-05
0.000227376453806
0.000226201450504
0.000971637802302
-0.00733352086762
0.00199806117902
-0.00774975443434
0.00301927603791
-0.00771532061816
0.00403005125554
-0.00764382418629
0.00502697038143
-0.00754866597687
0.0060068382857
-0.00743120186473
0.00696666772736
-0.00729261879095
0.0079037035928
-0.0071342577052
0.00881544415118
-0.00695759133252
0.00969965503738
-0.00676418959899
0.0105543782899
-0.00655568313033
0.0113779343737
-0.00633372748609
0.0121689195162
-0.0060999667699
0.0129261959125
-0.0058559989603
0.0136488772945
-0.00560334127588
0.0143363071255
-0.0053433986278
0.0149880324691
-0.00507743375805
0.0156037711481
-0.00480654304194
0.0161833763165
-0.00453163681677
0.0167267968735
-0.00425342846871
0.017234038904
-0.00397243049956
0.0177051270509
-0.0036889607573
0.0181400711222
-0.0034031553597
0.0185388361041
-0.00311498969401
0.0189013196585
-0.00282430240922
0.0192273335989
-0.00253082292561
0.0195165918869
-0.00223419762322
0.0197687006147
-0.00193401659423
0.0199831524176
-0.00162983825849
0.0201593216354
-0.00132121583098
0.020296464234
-0.00100772598943
0.0203937196005
-0.000688996105184
0.0204501207827
-0.000364744255657
0.020464610252
-3.48172902158e-05
0.0204360666685
0.00030076832467
0.0203633400027
0.000641784648818
0.0202452983643
0.000987755551844
0.0200808817625
0.00133792648134
0.0198691635028
0.00169124779634
0.019609411255
0.00204637302952
0.0193011452357
0.0024016779194
0.0189441827518
0.00275529841044
0.0185386648784
0.00310518812795
0.0180850552244
0.00344918548284
0.0175841107258
0.00378508138428
0.0170368223088
0.00411066668705
0.0164443402397
0.0044237431328
0.015807893972
0.00472206690619
0.0151287526164
0.00500321760996
0.0144082411599
0.00526435194208
0.0136479218454
0.00550188428131
0.0128499215838
0.00571104731526
0.0120175945498
0.00588555184495
0.0111562895159
0.00601738046234
0.0102742501236
0.00609733793635
0.00938277145463
0.00611653418067
0.00849510528818
0.00606918391508
0.00762339319029
0.00595536395937
0.00678266933211
0.00577169020958
0.00598395957293
0.00552598821068
0.00524789742209
0.00521056634531
0.00459391612948
0.00483683113413
0.00402319324957
0.00444439345467
0.00352284184334
0.00406714438954
0.00307297162401
0.00372410301031
0.00265877150404
0.00341080931014
0.00228202140275
0.00310272186568
0.00195089908965
0.00278926699285
0.00166919644794
0.00247808177136
0.00143542154467
0.00218068890703
0.00124381803655
0.0019076449888
0.00108523990837
0.00166695437719
0.000950366028096
0.00145984906551
0.00083344663542
0.00128038410667
0.00073188285525
0.00112209401755
0.000644599362904
0.000980807319238
0.000570127103521
0.000855499773174
0.000505947863933
0.000746306583315
0.000450409500414
0.000650717952074
0.000402393183339
0.000566683225581
0.00036070679285
0.000493053725328
0.000324467035505
0.000428219696529
0.000292913470495
0.000370863507887
0.000265156187638
0.000320493975588
0.000236347371897
0.000295118574191
0.000209328107367
0.000274885339766
0.000181354809285
0.00026173480024
0.000150294229974
0.000251633612774
0.000121574170561
0.000243884244225
9.24895058405e-05
0.000237634257346
7.17804719117e-05
0.00022878734195
5.00631198009e-05
0.000229066731678
3.40420655538e-05
0.000227970848383
2.39262243692e-05
0.000238838155008
1.14369159236e-05
0.000239859682139
0.000237633193247
0.00099495282214
-0.00832866712933
0.00204581121324
-0.0088008160164
0.00309099349569
-0.00876070879146
0.00412498711483
-0.00867802145921
0.0051441521545
-0.00856803350843
0.0061450991794
-0.00843234924414
0.00712467551824
-0.00827239338426
0.00807999433632
-0.00808977214029
0.00900845669314
-0.00788624652491
0.00990776731773
-0.00766368978293
0.010775942971
-0.0074240449898
0.0116113151343
-0.00716928201325
0.0124125256369
-0.00690135581155
0.0131785167928
-0.00662216433898
0.0139085138392
-0.0063335083225
0.0146020013876
-0.00603705147247
0.0152586916081
-0.00573428472387
0.0158784868706
-0.00542649403403
0.016461435638
-0.00511473649536
0.017007686017
-0.00479982451059
0.0175174372069
-0.00448232233917
0.0179908943267
-0.0041625531201
0.0184282270748
-0.00384061821321
0.0188295367646
-0.00351642400133
0.0191948302395
-0.00318971531445
0.0195240024842
-0.00286010909874
0.019816823863
-0.00252712775406
0.0200729320477
-0.00219022807934
0.0202918244854
-0.00184882889772
0.020472852938
-0.00150233713805
0.0206152186316
-0.00115017955455
0.0207179714214
-0.000791831591731
0.0207800151895
-0.000426865943056
0.0208001228918
-5.49979775721e-05
0.0207769624796
0.000323860276523
0.0207091372503
0.000709546086166
0.0205952392307
0.00110159406039
0.0204339164239
0.00149919426238
0.0202239489513
0.0019011644235
0.0199643304614
0.0023059451813
0.0196543446766
0.00271162169065
0.0192936285406
0.00311597743617
0.0188822075884
0.00351657687302
0.0184204943351
0.00391087218706
0.0179092381556
0.00429631609775
0.0173494291003
0.00467046065252
0.0167421563521
0.00503100476665
0.0160884544925
0.00537576548921
0.0153891519116
0.0057025171469
0.0146448198799
0.00600869322902
0.0138558479853
0.00629085833352
0.013022891233
0.00654402611022
0.0121476944691
0.00676075614222
0.0112346195653
0.00693048637715
0.0102923901074
0.00703958550256
0.00933529755624
0.00707365935773
0.00838101144514
0.00702350146817
0.00744094316197
0.0068954706172
0.00653646030497
0.00667621164665
0.00567036797782
0.00639211352709
0.00488052786283
0.00600043930651
0.00420747079038
0.005509913492
0.00364953797387
0.00500235454514
0.00317961393505
0.00453709183679
0.00275619683015
0.00414754558516
0.00234843958558
0.00381858674019
0.00196934430485
0.0034818381769
0.00164170514538
0.00311691598034
0.00137383250066
0.00274595972098
0.00116378430809
0.00239073578602
0.00100321054558
0.00206821197002
0.00087716740681
0.001792988294
0.000769829828618
0.00156717602059
0.000674472009616
0.00137573345603
0.000590403410971
0.00120615359246
0.000519225328168
0.00105197825918
0.000460490112772
0.000914225857842
0.000409999518043
0.000796788291895
0.000366134465177
0.000694572377503
0.000328461394567
0.000604344517728
0.000295607205679
0.00052589614265
0.000266780333539
0.00045703476503
0.000241273928042
0.000396359460976
0.000215718464246
0.000346039809231
0.000190941756645
0.000319885770016