/*--------------------------------*- C++ -*----------------------------------*\
| =========                 |                                                 |
| \\      /  F ield         | OpenFOAM: The Open Source CFD Toolbox           |
|  \\    /   O peration     | Version:  v1906                                 |
|   \\  /    A nd           | Web:      www.OpenFOAM.com                      |
|    \\/     M anipulation  |                                                 |
\*---------------------------------------------------------------------------*/
FoamFile
{
    version     2.0;
    format      ascii;
    class       surfaceScalarField;
    location    "662";
    object      phia;
}
// * * * * * * * * * * * * * * * * * * * * * * * * * * * * * * * * * * * * * //

dimensions      [0 3 -1 0 0 0 0];
oriented        oriented;


internalField   nonuniform List<scalar> 
18240
(
0.000846934464291
-0.00084704649003
0.00173575182034
-0.000888981115468
0.00262253757761
-0.000886885636823
0.0035020440147
-0.0008796816187
0.00437156311725
-0.000869601556102
0.0052283717953
-0.000856993317461
0.00607029273577
-0.000841985726143
0.00689489767599
-0.000824796874528
0.00770035416423
-0.000805502806082
0.00848449421984
-0.000784336904238
0.00924583689689
-0.000761369431362
0.00998249126593
-0.000736853774527
0.0106933331028
-0.000710848450217
0.0113767485385
-0.000683614986841
0.0120319519871
-0.000655189123952
0.0126575825712
-0.000625827802121
0.0132531519984
-0.000595533858284
0.0138175085225
-0.000564548748136
0.0143504016947
-0.000532835751547
0.014850831061
-0.0005006137712
0.0153187144341
-0.000467804023905
0.0157531408762
-0.000434599888464
0.0161541257109
-0.00040088320896
0.0165207901183
-0.00036682344601
0.0168531838589
-0.000332270104304
0.0171504167974
-0.000297373602683
0.0174125245004
-0.000261962174949
0.0176385813526
-0.000226174673836
0.0178285797291
-0.000189831807392
0.0179815598148
-0.000153069902478
0.0180974646757
-0.000115718211387
0.0181753261719
-7.79175872076e-05
0.0182150543086
-3.95232971749e-05
0.0182157320659
-6.93918302229e-07
0.0181772825989
3.86700084885e-05
0.0180989258365
7.83866257902e-05
0.0179806651947
0.000118493064676
0.0178219665902
0.000158779640591
0.017622997981
0.000199207754909
0.0173835914054
0.000239541592667
0.017104169621
0.000279660679117
0.0167850455267
0.000319311606566
0.0164269804814
0.000358294591979
0.0160308608206
0.000396352188443
0.015597855842
0.000433214644254
0.0151294866655
0.00046863240656
0.0146273893583
0.000502275476023
0.0140937603976
0.000533902871751
0.0135307722298
0.000563124377877
0.012941346143
0.000589688574487
0.0123283010052
0.000613132190945
0.0116953701784
0.000633163021184
0.0110461672219
0.000649239350446
0.01038532876
0.000661028512751
0.00971735106143
0.000667967519505
0.00904771785457
0.000669777213351
0.00838163236423
0.000666037248432
0.00772502023536
0.000656713650039
0.00708320490704
0.00064173981839
0.00646177089668
0.000621499941253
0.00586527861787
0.000596399864848
0.00529805588353
0.000567259547325
0.00476309029917
0.000534864032734
0.00426284535009
0.000500257636982
0.00379850075032
0.000464239659863
0.00337088331281
0.000427607563322
0.00297990557771
0.000390872085607
0.00262524052177
0.000354635209283
0.00230576702832
0.000319370824877
0.00202010240932
0.000285622519711
0.00176625205493
0.000253756430011
0.00154208455521
0.000224121816834
0.00134511130023
0.000196891506443
0.00117285842265
0.000172207815856
0.00102272720199
0.00015006077507
0.000892287305521
0.000130395643646
0.00077918873813
0.000113037172423
0.000681342245107
9.78026486307e-05
0.000596825181402
8.44633080967e-05
0.000523965671225
7.28167155413e-05
0.000461278950965
6.26398535938e-05
0.000407519001122
5.37194235049e-05
0.000361695159164
4.57833697505e-05
0.000323280610037
3.83775202958e-05
0.000293049205985
3.01960656676e-05
0.000266731781149
2.62810643629e-05
0.000241883017616
2.4812642251e-05
0.000220057000962
2.17847489402e-05
0.000198532502741
2.1481067675e-05
0.000175394270584
2.30863467019e-05
0.000151872993441
2.34640275164e-05
0.00012797610374
2.38300531712e-05
0.000101231964651
2.66685608216e-05
6.97523689433e-05
3.13949163639e-05
3.38151487947e-05
3.58421748795e-05
3.37657126293e-05
0.000894203693287
-0.00174137928646
0.00184363684288
-0.00183856554417
0.00278785874729
-0.00183123840097
0.00372347080654
-0.00181544390078
0.00464803377213
-0.00179428895069
0.00555895939384
-0.00176806794445
0.00645385995237
-0.00173700293038
0.00733031302474
-0.00170139632275
0.00818621544691
-0.00166151235247
0.00901943689026
-0.00161770021264
0.0098282192615
-0.00157024791884
0.0106107580326
-0.00151952805748
0.0113656533222
-0.00146582734713
0.012091425847
-0.00140951484867
0.0127870166941
-0.00135084978916
0.0134512434805
-0.00129017193401
0.014083345247
-0.0012276902427
0.0146823854835
-0.00116369444248
0.0152478385956
-0.00109832701151
0.0157789478467
-0.00103181462993
0.0162753497153
-0.000964226144392
0.016736395919
-0.000895721737125
0.017161811076
-0.000826299393628
0.0175509890251
-0.000756058826239
0.0179036777488
-0.000684939161555
0.0182192609965
-0.000612993580125
0.0184974620035
-0.000540121400543
0.0187376226909
-0.000466348687686
0.0189394152643
-0.000391558996203
0.0191021326051
-0.000315774181552
0.0192253953319
-0.000238890501313
0.0193084714826
-0.000160951134758
0.0193509585486
-8.18936079321e-05
0.0193521498481
-1.80986645993e-06
0.0193116751941
7.92886945507e-05
0.0192289361854
0.000161236532723
0.0191036795832
0.000243920989509
0.0189355229112
0.000327084522016
0.0187244333635
0.000410494604887
0.0184703647032
0.000493795417857
0.0181736138948
0.000576630826095
0.0178345871608
0.000658556361803
0.0174540101778
0.000739105519967
0.017032835737
0.000817768568869
0.0165722938739
0.000893993481168
0.0160739466166
0.000967231261063
0.015539582
0.00103686505146
0.0149714134045
0.00110231428753
0.0143718430316
0.00116289120948
0.0137437942647
0.00121795262026
0.0130903851032
0.00126669570729
0.0124153665764
0.00130835490613
0.0117227378136
0.00134197311497
0.0110172298821
0.00136666063788
0.0103038535395
0.00138139936852
0.00958832686811
0.00138537970882
0.00887651223161
0.00137786449798
0.00817470167098
0.00135855848973
0.00748894962393
0.00132747185352
0.00682523519461
0.00128521777199
0.0061887691254
0.00123282322074
0.00558413718444
0.00117187143923
0.0050147222708
0.00110422023367
0.00448293050853
0.00103201257171
0.0039899939575
0.000957106572687
0.00353654241309
0.000881007143271
0.00312253759563
0.000804798208858
0.00274751958361
0.000729588415412
0.00241034122867
0.000656466315944
0.0021093850283
0.000586509330223
0.00184250042844
0.000520561931517
0.00160727199143
0.000459284655458
0.00140101016443
0.000403082699452
0.00122095674513
0.000352201708007
0.0010642963388
0.000306658466411
0.000928348030276
0.0002662891422
0.0008105967823
0.000230731759506
0.00070879183315
0.000199556418905
0.000620905983422
0.000172297648937
0.000545154542451
0.000148520564379
0.00047995350791
0.000127794418453
0.000423905427661
0.000109724081209
0.000375716049705
9.39315119663e-05
0.000333974367607
8.00804838779e-05
0.000296066038872
6.80681299515e-05
0.000262868139949
5.94431863661e-05
0.000236031393518
5.16123542202e-05
0.000213579112026
4.41971826065e-05
0.000192952290505
4.20649757158e-05
0.000172183343425
4.38053393216e-05
0.000149526182648
4.60633213287e-05
0.000125638890676
4.76534271242e-05
0.000100210881608
5.20250421067e-05
7.06642429451e-05
6.08576684378e-05
3.46577639308e-05
7.17594425892e-05
6.83823893691e-05
0.000902420377375
-0.00264393348696
0.00185754397873
-0.00279383175674
0.00280848071711
-0.00278231603532
0.00375089424796
-0.00275800037569
0.00468206585017
-0.00272559659668
0.00559936820003
-0.00268551007936
0.00650032154583
-0.00263808651402
0.00738253244041
-0.00258374199841
0.00824381330451
-0.00252291617537
0.00908208668893
-0.00245610154717
0.0098955121827
-0.00238378738299
0.0106823622454
-0.00230649753499
0.011441158394
-0.00222472697188
0.0121705216699
-0.00213898734441
0.0128693179032
-0.00204973739713
0.0135364853312
-0.00195743676358
0.0141711890341
-0.00186247176135
0.0147726288411
-0.00176521814504
0.0153402032133
-0.00166596399601
0.0158733015779
-0.00156498167437
0.0163714786524
-0.00146244909442
0.0168342359524
-0.00135853066455
0.017261207046
-0.00125329786319
0.0176519333173
-0.00114681777502
0.0180060601517
-0.00103907318244
0.018323111679
-0.000930056747179
0.0186026961793
-0.000819690955063
0.0188442845291
-0.000707925457334
0.0190474222174
-0.000594657696344
0.0192115164497
-0.000479831201971
0.0193360507941
-0.000363359684637
0.0194203864151
-0.000245221439405
0.0194639750024
-0.00012538881877
0.019466181123
-3.92001483133e-06
0.0194264866264
0.000119106740366
0.0193443405828
0.000243511407163
0.0192193472337
0.000369069375817
0.0190511490205
0.000495445802263
0.0188395871128
0.000622243071984
0.0185846215712
0.000748957670719
0.0182864519696
0.000875015778048
0.0179454768793
0.000999757542249
0.0175623623968
0.00112245713255
0.0171380417609
0.0012423353614
0.01667372406
0.00135855813885
0.016170934551
0.0014702719753
0.0156314666931
0.00157657266697
0.0150574659529
0.00167655170084
0.0144513436462
0.00176922693162
0.0138159111918
0.00185358750627
0.0131542876751
0.00192849004637
0.0124700887512
0.00199270825162
0.0117673470185
0.00204483359213
0.0110507265972
0.00208338229311
0.0103254126188
0.00210677887587
0.00959725350527
0.00211358979324
0.00887251326455
0.00210262370744
0.00815783824687
0.00207324474213
0.0074598427584
0.00202545211512
0.00678495570785
0.00196008763508
0.00613890681662
0.00187883443514
0.00552658825565
0.00178415161177
0.00495160469273
0.00167915008693
0.00441613817352
0.0015674268189
0.00392108873974
0.00145209108485
0.00346673616961
0.00133529409926
0.00305301304649
0.00121844484972
0.00267943228374
0.00110309290296
0.00234480092121
0.000991015465089
0.00204729819792
0.000883934702157
0.00178457312816
0.00078320957099
0.00155397356583
0.000689813822522
0.00135262547512
0.000604362775829
0.00117755570735
0.000527209021675
0.00102575634382
0.000458397300277
0.000894365349034
0.000397623735385
0.000780779727601
0.000344262332201
0.000682714900964
0.00029756937717
0.000598154854641
0.000256807270116
0.000525326502782
0.000221300990872
0.000462669582128
0.000190405387465
0.000408814962269
0.000163535270634
0.00036252548075
0.000140180005658
0.000322615909078
0.00011995164069
0.000287663693287
0.000102984055445
0.000256823316271
9.02472552338e-05
0.000228160045696
8.02377329677e-05
0.000201409991736
7.09081703575e-05
0.000179607771565
6.38244108894e-05
0.000161691783692
6.16719925668e-05
0.000139426032179
6.82736220278e-05
0.00011325048094
7.37664251556e-05
8.63300779271e-05
7.88740046934e-05
5.72647211408e-05
8.98511060897e-05
2.90984972894e-05
9.98532742769e-05
9.74422625491e-05
0.000910868020909
-0.00355493709307
0.00187400580406
-0.00375711751043
0.00283304441136
-0.00374149752102
0.00378343028413
-0.00370852992711
0.00472230895581
-0.00366461489676
0.00564698102579
-0.00361032128084
0.00655489149133
-0.00354613161344
0.00744362087622
-0.00347260478633
0.00831093033904
-0.00339035343011
0.00915474334676
-0.0033000405424
0.00997318707021
-0.00320235037409
0.0107645600629
-0.00309798743761
0.0115273696998
-0.00298764569611
0.0122602865903
-0.00287201045515
0.0129621786006
-0.00275172679161
0.0136320533954
-0.00262740550444
0.0142690899538
-0.00249959239261
0.0148725713647
-0.00236877960826
0.0154419155905
-0.00223537742691
0.0159766016387
-0.00209973222872
0.0164762019915
-0.00196210209468
0.0169403058833
-0.00182268178267
0.0173685560089
-0.00168158239541
0.0177605726116
-0.00153886252175
0.0181159963103
-0.00139451120878
0.0184344158434
-0.00124848342137
0.0187154176236
-0.00110068510177
0.0189585191866
-0.000951011131163
0.0191632251274
-0.000799331992042
0.0193289681025
-0.000645533070818
0.0194551705547
-0.000489504305258
0.0195411952324
-0.000331177474708
0.0195864124591
-0.000170519713848
0.0195901633648
-7.57227484948e-06
0.019551831126
0.000157556220721
0.0194708186222
0.000324654940721
0.0193466213888
0.000493416852871
0.0191788198096
0.000663412660694
0.0189671483856
0.000834098831097
0.0187115002972
0.00100480529765
0.0184119852367
0.00117474745567
0.0180689420619
0.00134303063839
0.0176829758522
0.00150866566173
0.0172549738782
0.00167058832871
0.0167861139381
0.00182767331088
0.0162778819167
0.00197875992248
0.0157320511744
0.0021226522187
0.0151507075822
0.00225813433941
0.0145362160294
0.00238393827469
0.0138912741561
0.00249873026726
0.0132189027281
0.00260103398593
0.0125225616476
0.00268919703864
0.0118061984742
0.00276131272893
0.0110744174329
0.00281525162304
0.0103325352581
0.0028487211652
0.0095866656187
0.00285949298215
0.00884360275022
0.00284570075001
0.00811063473763
0.00280620396554
0.00739519094829
0.00274087682335
0.00670452128235
0.00265072495825
0.00604512498653
0.00253819000462
0.00542253450973
0.0024066915584
0.00484072657186
0.00226090144312
0.00430145699782
0.00210663627765
0.00380478159387
0.00194869895408
0.00335034749104
0.00178965507484
0.00293813377858
0.00163057899439
0.00256780715268
0.00147333537988
0.00223810398996
0.00132063449237
0.00194687752961
0.00117507897346
0.00169140290564
0.00103860673266
0.00146867991158
0.000912465452925
0.00127555375766
0.000797421916046
0.00110874897048
0.000693951691493
0.000964922698054
0.00060216441574
0.000840914723756
0.0005215761376
0.000733990891759
0.000451132896633
0.000641861382957
0.000389647955774
0.000562558730797
0.000336060951392
0.00049434904093
0.000289463329682
0.000435728914539
0.000248980392817
0.000385409252206
0.000213811999474
0.000342276635004
0.000183272260428
0.000305318327714
0.000156872140551
0.000273797178153
0.00013446937606
0.000242838655412
0.000121169073985
0.000214335037234
0.000108703455729
0.00018918283663
9.6020852565e-05
0.000164353999407
8.86114611514e-05
0.000139298211026
8.66820790058e-05
0.000120406568936
8.71127104803e-05
9.56786018638e-05
9.84340548233e-05
6.75711339303e-05
0.000106920416389
4.41053253376e-05
0.000113253032752
2.26820365047e-05
0.000121210869382
0.000120093228144
0.000921794466228
-0.00447687017126
0.00189609694024
-0.00473156414652
0.00286614312827
-0.00471169098882
0.00382726463125
-0.0046697957795
0.00477649508782
-0.00461398812357
0.00571104618798
-0.00454501277184
0.00662828111625
-0.00446350395214
0.00752572580834
-0.00437018402825
0.00840109162821
-0.00426584981552
0.00925227993797
-0.00415135577933
0.0100773983327
-0.00402759079331
0.0108747548113
-0.00389546154694
0.0116428661281
-0.00375586890734
0.0123804417298
-0.00360969280054
0.0130863845143
-0.00345776974362
0.0137597654637
-0.00330088074538
0.014399818007
-0.00313973183816
0.0150059051712
-0.00297494703164
0.0155775097218
-0.00280705399317
0.0161141968577
-0.00263648397591
0.0166156034878
-0.00246356424693
0.0170814003511
-0.00228852593669
0.0175112840263
-0.0021115033788
0.0179049421896
-0.0019325489266
0.0182620511586
-0.0017516375426
0.0185822466388
-0.00156868628155
0.0188651278423
-0.00138356186207
0.019110234684
-0.00119610259853
0.0193170585548
-0.00100612768188
0.0194850265453
-0.00081346088382
0.0196135191683
-0.00061794286165
0.0197018627294
-0.000419453817357
0.0197493552668
-0.000217929911395
0.0197552695474
-1.33897097404e-05
0.0197188879171
0.00019405121284
0.0196395169524
0.000404155220827
0.019516531004
0.00061655006979
0.019349397173
0.000830710985974
0.0191377238617
0.00104595542187
0.0188812916739
0.00126143822241
0.0185800994801
0.00147615804248
0.0182343942469
0.00168896988549
0.0178447034169
0.00189860386918
0.0174118558385
0.00210369394796
0.0169369888621
0.00230280312837
0.016421555324
0.00249445768182
0.0158673010061
0.00267716280385
0.0152762617308
0.00284941858563
0.0146507283312
0.00300969620191
0.0139932614839
0.0031563982812
0.0133067030356
0.00328776465104
0.012594274986
0.00340176723481
0.0118597110661
0.00349598439729
0.0111074798655
0.0035675637702
0.0103429730718
0.00361327160098
0.00957268045743
0.00362981229117
0.00880410417727
0.00361426968334
0.00804553007396
0.00356476484783
0.00730551791982
0.00348085213093
0.00659265495356
0.00336354967668
0.00591449989945
0.00321629255749
0.00527780050394
0.00304333548922
0.00468736800851
0.00285127058835
0.00414405798496
0.00264988280525
0.00364599413274
0.00244669074131
0.00319159154681
0.00224397988089
0.00278134760533
0.00204073612362
0.0024155748036
0.00183901984886
0.0020929253863
0.00164319427921
0.00181067013061
0.00145725019178
0.00156543605465
0.0012837629833
0.00135374090856
0.00112408878746
0.00117210210267
0.000978995841308
0.00101686553009
0.000849126236828
0.000884143224424
0.000734829992527
0.000770255503271
0.000635409909748
0.000672308790178
0.000549028765185
0.00058810105904
0.000473806943168
0.000515796021602
0.000408318664038
0.00045371673553
0.000351496481651
0.000400433210175
0.00030221972696
0.000354772356623
0.000259430630099
0.000315771533624
0.000222233512126
0.000282554483172
0.000190052300911
0.000254566217331
0.000162421963035
0.000227466471349
0.000148231920164
0.000200381259852
0.000135750731085
0.000170350890962
0.000126012927266
0.000142656060405
0.000116265799393
0.00011710805387
0.000112185193862
9.62791960162e-05
0.000107893972995
7.83784551886e-05
0.000116280295448
5.46447522052e-05
0.000130593547669
3.33294284268e-05
0.000134514434536
1.67373820646e-05
0.000137750532644
0.000136802096313
0.000935511362427
-0.00541252156992
0.00192410252713
-0.00572030823748
0.00290818942837
-0.00569592580234
0.00388295708345
-0.00564471131442
0.00484532123306
-0.00557649709512
0.00579238323345
-0.00549221766148
0.0067214114794
-0.00539267200495
0.00762985731048
-0.00527876665366
0.00851537467736
-0.00515150009978
0.00937583021548
-0.0050119403426
0.0102093137982
-0.00486119867101
0.0110141387062
-0.00470040604891
0.0117888426148
-0.00453068684642
0.0125321776259
-0.00435313638356
0.0132431020098
-0.0041687963488
0.013920760751
-0.00397863548153
0.0145644690546
-0.00378352898942
0.0151736851271
-0.00358424495856
0.0157479878613
-0.00338143065263
0.0162870452098
-0.00317560745257
0.016790590039
-0.00296716646575
0.01725838875
-0.00275637342585
0.0176902199695
-0.0025433738345
0.0180858478299
-0.00232820655898
0.0184450068788
-0.00211081599055
0.0187673823746
-0.00189107084617
0.019052602369
-0.00166877971663
0.0193002251438
-0.00144371198344
0.0195097378973
-0.00121561494412
0.0196805510788
-0.000984236338165
0.0198120040619
-0.000749344998513
0.0199033673328
-0.000510752851705
0.0199538573113
-0.000268341246082
0.0199626496111
-2.208853483e-05
0.0199289053222
0.000227905076908
0.0198517969376
0.000481389733123
0.0197305473888
0.0007379438364
0.0195644672607
0.000996953634317
0.0193530035267
0.00125760135154
0.0190957823512
0.00151886048234
0.018792659655
0.0017795013325
0.0184437591549
0.00203810808361
0.0180495115546
0.00229310519779
0.0176106753231
0.00254279549935
0.0171283482791
0.0027854027154
0.0166039605127
0.00301911825476
0.0160392469122
0.00324214232152
0.0154362101802
0.00345270685538
0.0147970653927
0.00364907125819
0.0141242084944
0.0038294581883
0.0134202139551
0.00399193196142
0.0126879242724
0.00413419174562
0.0119306649397
0.00425335036968
0.0111525598207
0.00434572897993
0.0103589722593
0.00440690306546
0.00955678927475
0.00443199458925
0.00875452698243
0.00441652734956
0.00796184867179
0.004357400249
0.00718886746668
0.00425379480942
0.00644624663721
0.00410611565348
0.00574275391049
0.00391973247194
0.00508744435761
0.00369858084454
0.00448737677718
0.00345127485562
0.00394142376784
0.00319577038002
0.00344322844994
0.00294481242396
0.00298862929193
0.00269849264139
0.00258031901684
0.00244895438925
0.00222045594405
0.00219878408857
0.00190749332075
0.00195606256724
0.00163749565437
0.0017271592681
0.0014059595056
0.00151521814143
0.00120878918614
0.00132118755928
0.00104227650072
0.00114544124548
0.000902413897603
0.000988928629985
0.000784392819592
0.000852794095869
0.000683534906537
0.000736216780681
0.000596819658258
0.000635695207629
0.000522401270135
0.000548179139836
0.000458759639434
0.000471914456748
0.00040424233983
0.000405969237635
0.000357473537454
0.000348945143834
0.000317426839906
0.000299435994167
0.000283255963043
0.000256365720528
0.000254302224132
0.000218969789384
0.000226389729364
0.000190299408283
0.0001993833598
0.000175202357385
0.000174680940093
0.000160417030662
0.000151812975699
0.000148842820106
0.000125846740057
0.0001421909353
9.99228471734e-05
0.000138065987424
7.40258442364e-05
0.000133745529701
5.70576628364e-05
0.000133199953929
4.3252792099e-05
0.000144349700507
2.61320198573e-05
0.000151585571961
1.29370636923e-05
0.000150896657254
0.00014971663325
0.000952224527028
-0.00636489022989
0.00195831541527
-0.00672654812619
0.00295958015803
-0.00669734373789
0.00395102436388
-0.00663630512102
0.0049294121712
-0.00655503329725
0.00589171277513
-0.00645466377651
0.00683507885096
-0.00633618090682
0.00775686984262
-0.00620069706321
0.00865467033135
-0.00604943634118
0.0095263035083
-0.00588370501851
0.0103698394445
-0.00570486158452
0.011183597617
-0.00551428611032
0.0119661444416
-0.0053133502564
0.0127162850457
-0.00510338768215
0.0134330501478
-0.00488566607515
0.0141156774209
-0.00466136071399
0.0147635884782
-0.00443153118
0.0153763612876
-0.00419710145918
0.0159536997829
-0.0039588452364
0.0164954010691
-0.00371737661291
0.0170013226383
-0.00347314752879
0.0174713501958
-0.00322645147753
0.017905368574
-0.0029774335345
0.0183032357985
-0.00272610532761
0.0186647620068
-0.00247236379232
0.0189896922397
-0.00221601210934
0.0192776937973
-0.00195678156583
0.0195283466888
-0.00169435381487
0.019741137597
-0.00142838323953
0.0199154565478
-0.00115852045103
0.0200505974045
-0.000884438481261
0.0201457618427
-0.000605856599785
0.0202000696143
-0.000322574421344
0.0202125745652
-3.45040331971e-05
0.0201822888011
0.000258296178576
0.0201082139102
0.000555586857707
0.0199893820124
0.000856916476348
0.0198249013166
0.0011615941093
0.019614011894
0.00146867145912
0.0193561388593
0.0017769344089
0.0190509536857
0.00208490888855
0.018698422192
0.00239088118174
0.018298853958
0.00269293338719
0.0178529285605
0.00298899485679
0.0173617094072
0.00327690366923
0.0168266320637
0.0035544800249
0.016249456403
0.00381959291487
0.0156322037994
0.00407022242865
0.0149770410689
0.0043044700327
0.0142861962024
0.0045205137291
0.0135618751688
0.00471642284931
0.0128063475154
0.00488985921815
0.012022181706
0.00503760282137
0.0112128159937
0.00515516205293
0.0103832303345
0.00523650089848
0.00954075242597
0.00527447707816
0.00869523103853
0.0052620072375
0.0078584287077
0.00519416719824
0.00704215423573
0.00507000572443
0.00626078317349
0.00488743538525
0.00552316739567
0.00465728817179
0.00484314796046
0.00437853895615
0.00423420987039
0.00406015500472
0.00369082768143
0.00373908813529
0.00319582374927
0.00343973931779
0.00273925970043
0.00315496494523
0.00233136142496
0.00285674607624
0.00197887563371
0.00255116278375
0.00167925978819
0.00225557311212
0.00142585252796
0.00198047169414
0.00121210286007
0.00172888275748
0.00103325221315
0.00149996190463
0.00088590833769
0.00129271737401
0.00076604672751
0.00110872714799
0.000667209840567
0.000951575705863
0.000582473623201
0.000820902940665
0.000508973684592
0.000709149315596
0.000445929965922
0.000611178217346
0.000392545962806
0.000525255309889
0.000346962886441
0.000451508195691
0.000307755768351
0.000388110121208
0.000274153417942
0.000332997742992
0.000245371139854
0.000285110081438
0.000221105871772
0.000243199850903
0.000195652439484
0.000215718053093
0.000172324359903
0.000198495791025
0.000147781890367
0.000184923948407
0.000124183107145
0.000172404946032
0.000100546936317
0.000165788193569
8.03536280575e-05
0.00015821883628
5.88417841204e-05
0.000155215803026
3.97684394061e-05
0.000152230612817
3.08081371543e-05
0.000153263986181
1.93565021535e-05
0.000162994879344
9.50861655388e-06
0.000160704449049
0.000159202863873
0.000972131511567
-0.00733716772974
0.00199907955532
-0.00775365624717
0.0030208187783
-0.007719237226
0.00403211389763
-0.00764775467311
0.00502954913533
-0.00755261972125
0.00600992971233
-0.0074351934935
0.00697027047999
-0.00729666764929
0.00790781926586
-0.00713838860565
0.00882007854468
-0.00696183442561
0.00970481915232
-0.00676858028696
0.0105600893357
-0.00656026161317
0.0113842165834
-0.00633853823263
0.012175804867
-0.00610505777654
0.0129337246723
-0.00586142098169
0.0136570984408
-0.0056091469234
0.0143452786355
-0.00534964148511
0.0149978214639
-0.00508416740782
0.0156144539774
-0.00481382011028
0.016195038466
-0.00453950793753
0.0167395328835
-0.00426194121177
0.0172479520398
-0.00398162819633
0.0177203290386
-0.00369888119126
0.0181566814975
-0.00341382931686
0.0185569816537
-0.00312643925541
0.0189211332484
-0.00283653907262
0.01924895309
-0.00254384535822
0.0195401581
-0.00224798924313
0.0197943553416
-0.00194854271905
0.0200110349991
-0.00164504315386
0.0201895654804
-0.00133701938276
0.0203291912929
-0.00102402048105
0.0204290345767
-0.000705643145764
0.0204881026115
-0.000381572101591
0.0205053030083
-5.16194381893e-05
0.0204794675377
0.000284232432052
0.020409386644
0.000625785657738
0.0202938547241
0.000972585044804
0.0201317247428
0.00132388069374
0.0199219735032
0.00167860100784
0.0196637690405
0.00203533899938
0.0193565458619
0.00239235560257
0.0190000682595
0.00274760400471
0.0185944945904
0.00309877339534
0.0181404140228
0.00344335773216
0.0176388706062
0.00377874053688
0.0170913448455
0.00410230062342
0.0164996995161
0.00441152805578
0.0158660635222
0.0047041306712
0.0151926606856
0.00497812366417
0.0144815877891
0.00523180061915
0.0137346274433
0.0054635671028
0.0129531745096
0.00567143630306
0.0121385721024
0.00585230547341
0.0112928122976
0.00600095446301
0.0104199130123
0.00610941975516
0.00952736805114
0.00616699596806
0.00862711242084
0.00616223719234
0.00773418383581
0.00608702649116
0.00686134163642
0.00594279449036
0.00603109095077
0.00571762317309
0.00524603587965
0.00544228249594
0.0045306744837
0.00509384337369
0.00391751421875
0.00467324993157
0.00339101362581
0.00426552549977
0.00290680041769
0.00392388008381
0.00244112889115
0.00362053299535
0.00202837325716
0.00326938101983
0.00168528297479
0.00289413423791
0.00140497333854
0.00253576941654
0.00117437979233
0.00221096617807
0.000983235757214
0.00191993830082
0.000826407865835
0.00165671174789
0.000702440130524
0.00141661473387
0.000608628572031
0.0012024760466
0.000535318655022
0.00102483079079
0.000469838121175
0.000886336831457
0.000410670206366
0.000768273245457
0.000359939112137
0.000661868123985
0.000318445665204
0.000566704939415
0.000283216888529
0.000486695056732
0.000252415115187
0.000418870180488
0.000225951739885
0.000359420870432
0.000202757545539
0.000308267424952
0.000182719014755
0.000263203488806
0.000161052487536
0.000237350885585
0.000140871969963
0.000218642776253
0.000120216141994
0.000205545616498
9.77003399963e-05
0.000194885822992
7.74132791105e-05
0.000186039537909
5.71351654697e-05
0.000178459839794
4.31695306057e-05
0.000169142428391
2.89273311963e-05
0.000166432872656
1.89791040115e-05
0.000163175351907
1.33368580008e-05
0.000168597097249
6.27809532109e-06
0.000167723918371
0.00016546369112
0.000995442743311
-0.0083327620307
0.00204682316679
-0.00880519269979
0.00309252214262
-0.00876509725925
0.00412702586905
-0.00868241545495
0.00514669227408
-0.00857244204802
0.00614813256013
-0.00843678660056
0.00712819539587
-0.00827688052781
0.00808399700729
-0.0080943366368
0.00901294274456
-0.00789092277278
0.00991274297884
-0.00766851863263
0.0107814212061
-0.00742907327143
0.0116173166598
-0.00717456175648
0.0124190796822
-0.00690694340128
0.0131856617686
-0.00662811949994
0.0139162977541
-0.00633989311849
0.0146104822148
-0.00604392921389
0.0152679374293
-0.00574171892697
0.0158885760267
-0.00543454731888
0.0164724566902
-0.00512346950532
0.0170197377529
-0.00480929475137
0.0175306284631
-0.00449258294377
0.0180053438477
-0.0041736514728
0.0184440631365
-0.00385259435626
0.018846896767
-0.00352930882479
0.0192138599206
-0.00320352837292
0.0195448549855
-0.00287485614118
0.0198396581429
-0.00254279773899
0.0200979109642
-0.00220678987109
0.0203191117687
-0.00186622733988
0.0205026095259
-0.00152048883924
0.020647597195
-0.00116896810115
0.0207531097598
-0.00081110291644
0.0208180267175
-0.000446423131452
0.0208410852409
-7.45974566129e-05
0.0208209022335
0.000304511475155
0.020756011964
0.000690789246656
0.0206449161688
0.00108381317243
0.02048614882
0.00148280071954
0.0202783547614
0.00188657051153
0.0200203738489
0.00229351832078
0.0197113367828
0.00270161699211
0.0193507477928
0.00310844083242
0.0189385729881
0.00351122085899
0.0184752933124
0.00390692813782
0.017961948134
0.00429238969279
0.0174001262415
0.00466443215229
0.016791899694
0.00502005655583
0.0161396859321
0.00535663665671
0.0154459562609
0.00567211442095
0.014712874149
0.00596511869758
0.0139417867946
0.00623483096376
0.0131329571653
0.00648040823969
0.0122856605795
0.00669967063489
0.0113992952794
0.00688736777683
0.0104754362889
0.00703327692898
0.00952114649813
0.00712127324064
0.00855168584067
0.00713163998507
0.00758878155654
0.00704987753102
0.00664052731505
0.00689097005321
0.00575356771827
0.00660450037326
0.00489750943542
0.0062982715444
0.00412321042411
0.00586806435385
0.00351929490458
0.00527707444362
0.00304712095368
0.00473765823286
0.00259099349938
0.0043799209498
0.00209172506478
0.00411968556832
0.00165999992494
0.00370100465152
0.00133089737233
0.00322310966017
0.00108122639223
0.00278534687758
0.000883102904283
0.00240899249742
0.000719872177951
0.0020830927639
0.000587203023822
0.00178930534472
0.000489822277224
0.00151393338037
0.00043068474502
0.0012615528187
0.000393908806423
0.00106155978522
0.000350281594637
0.000929917300313
0.000304180891595
0.000814335102274
0.00026527955528
0.000700724596085
0.000237891150766
0.000594051817151
0.000214844996292
0.000509699150488
0.000192841494869
0.000440831881025
0.000174320603013
0.000377902500888
0.000156877166018
0.00032567332312
0.00014019602715