/*--------------------------------*- C++ -*----------------------------------*\
| =========                 |                                                 |
| \\      /  F ield         | OpenFOAM: The Open Source CFD Toolbox           |
|  \\    /   O peration     | Version:  v1906                                 |
|   \\  /    A nd           | Web:      www.OpenFOAM.com                      |
|    \\/     M anipulation  |                                                 |
\*---------------------------------------------------------------------------*/
FoamFile
{
    version     2.0;
    format      ascii;
    class       surfaceScalarField;
    location    "381";
    object      phi;
}
// * * * * * * * * * * * * * * * * * * * * * * * * * * * * * * * * * * * * * //

dimensions      [0 3 -1 0 0 0 0];
oriented        oriented;


internalField   nonuniform List<scalar> 
18240
(
-0.000198814687239
0.000198839063269
-0.00040701980576
0.000208238701574
-0.00061383821455
0.000206841146799
-0.00081761608779
0.00020381391897
-0.0010173229068
0.00019972692429
-0.00121199682384
0.000194712387841
-0.00140084630934
0.000188867054657
-0.00158310972714
0.000182304288332
-0.00175821018438
0.000175115455553
-0.00192558387241
0.000167416898301
-0.00208486566724
0.000159294085955
-0.00223567809231
0.000150857917569
-0.00237784732439
0.000142178739513
-0.002511153822
0.000133354202393
-0.00263558105021
0.000124433781934
-0.00275102962991
0.000115498405132
-0.00285760123322
0.00010657509295
-0.00295527767282
9.77282529905e-05
-0.00304424146899
8.89639908023e-05
-0.00312452062398
8.03327855367e-05
-0.003196346802
7.18229224932e-05
-0.00325976602748
6.34744506738e-05
-0.00331503448931
5.52614754774e-05
-0.00336219518241
4.7217252977e-05
-0.00340151116519
3.93050976896e-05
-0.00343300824201
3.15546653011e-05
-0.0034569448546
2.39215514545e-05
-0.00347332122508
1.64346608811e-05
-0.00348238512667
9.04455231181e-06
-0.00348410843373
1.7819428059e-06
-0.00347872703745
-5.4052308038e-06
-0.00346618595601
-1.24824620757e-05
-0.00344671273684
-1.95015252372e-05
-0.0034202333668
-2.64211544844e-05
-0.00338697577376
-3.32904311283e-05
-0.00334685894827
-4.00594115208e-05
-0.00330012408477
-4.6772071588e-05
-0.00324669988294
-5.33680533662e-05
-0.00318685705823
-5.9884341587e-05
-0.00312055338519
-6.62493326531e-05
-0.0030481067338
-7.2492229155e-05
-0.00296952425151
-7.85306559981e-05
-0.00288518772054
-8.43860707165e-05
-0.0027951727446
-8.99665404695e-05
-0.00269994000409
-9.52860015733e-05
-0.00259965211472
-0.000100243904296
-0.00249486351289
-0.000104845476039
-0.00238584422492
-0.000108980803213
-0.00227326075146
-0.000112643586394
-0.00215751528864
-0.000115713260794
-0.00203940738131
-0.000118170750952
-0.00191949295695
-0.000119888767476
-0.00179871324591
-0.000120844416803
-0.00167777171846
-0.000120922082875
-0.00155771617336
-0.000120121267232
-0.00143933073849
-0.000118371305464
-0.00132366842172
-0.000115728072759
-0.00121146550361
-0.000112192953667
-0.00110363947797
-0.000107891082653
-0.00100074289738
-0.000102889994201
-0.000903446889636
-9.73600390645e-05
-0.000812046252984
-9.13971975978e-05
-0.000726933122919
-8.51763459505e-05
-0.000648145121362
-7.87878466558e-05
-0.000575819612794
-7.23880868216e-05
-0.000509775945096
-6.60469608793e-05
-0.000449946556456
-5.98914088992e-05
-0.000395991282775
-5.39622437893e-05
-0.000347701447598
-4.8351204356e-05
-0.000304642849022
-4.30693538203e-05
-0.000266526458553
-3.81769942878e-05
-0.000232878419301
-3.36623663165e-05
-0.00020337698085
-2.95609052699e-05
-0.000177551701092
-2.58426106019e-05
-0.000155088464719
-2.25211025581e-05
-0.000135555911369
-1.9552184625e-05
-0.000118677273454
-1.69344614637e-05
-0.000104080563423
-1.46179447438e-05
-9.15395467552e-05
-1.2594481317e-05
-8.07477801437e-05
-1.08137929713e-05
-7.1536086996e-05
-9.26241257052e-06
-6.36772886279e-05
-7.88129920829e-06
-5.71081241869e-05
-6.61727782792e-06
-5.18911918781e-05
-5.23954816702e-06
-4.75039437873e-05
-4.43326846083e-06
-4.32424348213e-05
-4.28837872507e-06
-3.94615579734e-05
-3.82939756161e-06
-3.62063112656e-05
-3.29160553383e-06
-3.29639282113e-05
-3.29970852913e-06
-2.93561601732e-05
-3.66117385158e-06
-2.56202225421e-05
-3.81007395868e-06
-2.17374038786e-05
-3.95951618478e-06
-1.72778197967e-05
-4.55079502353e-06
-1.19320024736e-05
-5.44976237165e-06
-5.80431814787e-06
-6.2471357819e-06
-5.86468661931e-06
-0.000210337866329
0.000409204413577
-0.00043319666495
0.000431129136447
-0.000653836236571
0.000427508992558
-0.000870996266015
0.000421005834729
-0.0010836808749
0.000412439192829
-0.00129092672499
0.000401990609763
-0.00149187839755
0.000389845766009
-0.00168575515864
0.000376213939714
-0.00187191714073
0.000361303755161
-0.00204980159871
0.000345334699277
-0.00221899169959
0.000328509707572
-0.00237913257597
0.000311032513108
-0.00253000769614
0.000293078467988
-0.00267143799169
0.000274818501156
-0.00280336893549
0.000256388327449
-0.00292575528004
0.000237918922772
-0.00303866127783
0.000219503521277
-0.00314213278425
0.000201233949988
-0.00323631217612
0.000183164487921
-0.00332129873679
0.000165353367745
-0.00339727897269
0.000147822704412
-0.00346437552395
0.000130604626059
-0.00352279296922
0.000113696694494
-0.0035726551756
9.71124309851e-05
-0.00361416633068
8.08319730648e-05
-0.00364743656264
6.48569345675e-05
-0.00367265778504
4.91562090643e-05
-0.00368991757779
3.37252722889e-05
-0.00369938936967
1.85272228121e-05
-0.00370113470235
3.55659013515e-06
-0.00369530758578
-1.12242158343e-05
-0.00368194600923
-2.58164935812e-05
-0.00366118896701
-4.0253389737e-05
-0.00363305766696
-5.45269321908e-05
-0.00359768537718
-6.8660609697e-05
-0.00355508932516
-8.2632197524e-05
-0.00350541171582
-9.64507728237e-05
-0.00344868322639
-0.000110075786484
-0.00338507344092
-0.000123498506061
-0.00331464692312
-0.00013665790137
-0.00323762073305
-0.000149526256099
-0.00315411425799
-0.00016202239843
-0.00306441108975
-0.000174100744014
-0.00296870457193
-0.000185662085689
-0.00286736152392
-0.000196644580852
-0.00276066674446
-0.000206932153436
-0.00264908657525
-0.000216445572315
-0.00253301691125
-0.000225049042744
-0.00241304468989
-0.000232640384643
-0.00228970335767
-0.000239058647364
-0.00216372795034
-0.000244175233668
-0.00203581739913
-0.000247808713092
-0.00190687324787
-0.000249821591212
-0.00177776078597
-0.000250048684335
-0.00164951742089
-0.000248400701562
-0.00152310413538
-0.000244802441492
-0.00139957984451
-0.000239290356623
-0.00127985097678
-0.000231942167174
-0.00116483044957
-0.000222950555376
-0.00105520838211
-0.000212534071898
-0.000951621170851
-0.000200986742792
-0.00085446117309
-0.000188580802566
-0.000764059526486
-0.000175618209358
-0.00068052169573
-0.000162351096545
-0.000603907160426
-0.000149043715317
-0.00053408024304
-0.000135901254039
-0.000470884363763
-0.000123129389107
-0.000414008181157
-0.000110867871189
-0.00036315146185
-9.92510851137e-05
-0.000317900842059
-8.8351564386e-05
-0.000277879695199
-7.82422837209e-05
-0.000242630231765
-6.89453635836e-05
-0.000211748181906
-6.0487676676e-05
-0.00018477581337
-5.28498280527e-05
-0.000161324759996
-4.60168067851e-05
-0.000140977710025
-3.99347105995e-05
-0.000123395074514
-3.45611422361e-05
-0.000108221404791
-2.98271784754e-05
-9.51768333851e-05
-2.56820643111e-05
-8.39692877196e-05
-2.20564985199e-05
-7.43723998954e-05
-1.89009519475e-05
-6.61385530462e-05
-1.61498830903e-05
-5.90414355836e-05
-1.37545632897e-05
-5.26652464812e-05
-1.16495172263e-05
-4.71398982416e-05
-9.99622860347e-06
-4.23364173069e-05
-9.12740353092e-06
-3.83943542654e-05
-7.81352803753e-06
-3.5109823846e-05
-6.61853251033e-06
-3.20609000341e-05
-6.39871487956e-06
-2.8912417373e-05
-6.86747437609e-06
-2.53485142631e-05
-7.44389120854e-06
-2.14780908328e-05
-7.90600781573e-06
-1.7268227466e-05
-8.84906833616e-06
-1.22680789912e-05
-1.05542019917e-05
-6.06130803155e-06
-1.25653175384e-05
-1.19791135589e-05
-0.00021320208885
0.000622434721167
-0.000438351349679
0.000656308432321
-0.000661461105194
0.000650648687138
-0.000881017361159
0.000640592626399
-0.0010959372684
0.000627388721523
-0.00130522871684
0.000611312724959
-0.00150800729012
0.000592653728614
-0.0017034926668
0.000571730050515
-0.00189103113253
0.000548871358101
-0.00207007713943
0.000524411428152
-0.00224021012392
0.000498671488038
-0.00240110485162
0.00047195786928
-0.00255254633417
0.00044454833154
-0.00269439257563
0.00041669518154
-0.00282659098223
0.000388614575454
-0.0029491364616
0.000360494533834
-0.00306209191407
0.000332486155509
-0.0031655436091
0.000304715314255
-0.00325962720662
0.000277274415606
-0.00334448130914
0.000250236490724
-0.00342027959678
0.000223646284928
-0.00348718269349
0.000197535868633
-0.00354537633044
0.000171914328936
-0.00359502128846
0.00014678441451
-0.00363629731759
0.000122130473648
-0.00366935081528
9.79360688203e-05
-0.00369434410864
7.41701623939e-05
-0.00371140064843
5.08057982239e-05
-0.00372065944384
2.78046426492e-05
-0.00372221774647
5.13696953329e-06
-0.00371619041437
-1.72352175023e-05
-0.00370265023344
-3.93367357852e-05
-0.00368169226854
-6.11974897154e-05
-0.00365337208795
-8.28295250601e-05
-0.0036177748208
-0.000104246676926
-0.00357495159072
-0.000125440371891
-0.00352499297385
-0.000146400979299
-0.00346796368129
-0.000167092756693
-0.00340397952162
-0.000187477250203
-0.00333314013447
-0.000207487938741
-0.00325560824254
-0.000227055947478
-0.00317154005067
-0.000246084580713
-0.00308116528063
-0.000264476939171
-0.00298471531002
-0.000282109901479
-0.00288250316109
-0.000298862291478
-0.00277485070103
-0.000314587001418
-0.00266216896959
-0.000329137663177
-0.00254488758457
-0.000342338016558
-0.00242353705181
-0.0003540065105
-0.00229868358636
-0.00036392521681
-0.00217101289554
-0.00037186674838
-0.00204126851952
-0.000377571463867
-0.00191032827081
-0.000380787333908
-0.00177913312283
-0.000381266778762
-0.00164873751596
-0.000378825569697
-0.00152021187068
-0.000373354398897
-0.00139465838957
-0.000364875555
-0.00127309534765
-0.000353533425618
-0.00115646411996
-0.000339614632169
-0.00104552797303
-0.000323499514941
-0.000940906816687
-0.000305641486032
-0.000843021375511
-0.000286496780216
-0.000752158354919
-0.000266515924328
-0.000668431877403
-0.00024610943404
-0.000591846843206
-0.000225664702784
-0.000522263693284
-0.000205517707676
-0.00045946468516
-0.000185965646621
-0.000403128441839
-0.000167238986878
-0.000352897376692
-0.000149520779054
-0.00030835299693
-0.000132932606409
-0.000269071695646
-0.000117563664804
-0.000234594780877
-0.000103460477914
-0.000204476069918
-9.06474392347e-05
-0.000178257227286
-7.91076480833e-05
-0.000155515180628
-6.88000704612e-05
-0.00013583882174
-5.96501554514e-05
-0.000118865627781
-5.15751832304e-05
-0.000104253173991
-4.44783935487e-05
-9.17065240706e-05
-3.82688905372e-05
-8.09486793542e-05
-3.28524825421e-05
-7.17411441007e-05
-2.81477294125e-05
-6.38508713023e-05
-2.40776016036e-05
-5.70556684863e-05
-2.05882417976e-05
-5.10478807371e-05
-1.76929684153e-05
-4.58532595354e-05
-1.52276506974e-05
-4.14666840067e-05
-1.35523868406e-05
-3.72476030356e-05
-1.20750772152e-05
-3.32214483388e-05
-1.0688752361e-05
-2.99892370957e-05
-9.68084572389e-06
-2.7386078517e-05
-9.52929055866e-06
-2.38963983323e-05
-1.10019798361e-05
-1.96117000509e-05
-1.22672306549e-05
-1.51223384447e-05
-1.34252473229e-05
-1.01490118873e-05
-1.56201661123e-05
-5.22013370817e-06
-1.75892582414e-05
-1.72483824192e-05
-0.000216634742537
0.000839097862714
-0.000445150691303
0.000884855225172
-0.000671550382741
0.000877078507268
-0.000894221676858
0.00086329443453
-0.00111201489544
0.000845212048274
-0.00132389472911
0.000823222955075
-0.00152894547255
0.000797734515942
-0.00172637570002
0.000769190611189
-0.00191552652852
0.000738052086054
-0.00209586530344
0.000704780415456
-0.0022669851215
0.000669820989515
-0.00242858976578
0.000633592527568
-0.00258048838908
0.000596476325116
-0.00272257578834
0.000558812302063
-0.00285482620576
0.000520893954916
-0.00297727234676
0.000482969985635
-0.00309000107514
0.00044524329081
-0.00319313321597
0.000407876202878
-0.00328682256373
0.000370991458143
-0.00337123725124
0.000334679178628
-0.00344656238659
0.000298998187564
-0.00351298291877
0.000263983435694
-0.00357068964237
0.000229646676354
-0.0036198631251
0.000195983728559
-0.0036606825944
0.000162974162474
-0.00369331043781
0.000130588287366
-0.00371790357061
9.87858744284e-05
-0.00373459818298
6.75230823866e-05
-0.00374352334433
3.67504871023e-05
-0.00374478589215
6.42024944386e-06
-0.00373848622883
-2.35163016954e-05
-0.00372470347008
-5.31009136267e-05
-0.003703513632
-8.23710624981e-05
-0.00367497523256
-0.000111351681379
-0.00363914996543
-0.000140058144984
-0.00359608895454
-0.000168487640678
-0.00354585584124
-0.000196622935024
-0.00348851354045
-0.000224423999925
-0.00342414919203
-0.000251833268179
-0.00335286077938
-0.000278768230542
-0.00327478279376
-0.000305128750496
-0.00319007160936
-0.00033079098311
-0.00309893044181
-0.000355616543517
-0.00300159258408
-0.000379446914229
-0.0028983449584
-0.00040211268859
-0.00278950982986
-0.000423426035186
-0.00267546849761
-0.000443186926298
-0.00255664505721
-0.000461170899497
-0.00243353461214
-0.000477130665781
-0.00230669443789
-0.000490780710713
-0.00217678016513
-0.000501800447377
-0.00204454417272
-0.000509828340667
-0.00191087110657
-0.000514484979679
-0.00177676514183
-0.000515398504086
-0.00164335540146
-0.000512263996841
-0.00151184013556
-0.000504898941986
-0.00138344115181
-0.000493305676721
-0.00125931436303
-0.000477690950172
-0.00114049278326
-0.000458468194538
-0.00102781073693
-0.000436212850929
-0.000921894782361
-0.000411590148104
-0.000823161768123
-0.000385262168945
-0.000731861799119
-0.000357849690733
-0.00064808438292
-0.000329920603937
-0.00057178457928
-0.000301999562302
-0.000502782427607
-0.000274554791891
-0.00044079616638
-0.000247988164236
-0.000385455998105
-0.000222615387714
-0.000336345293694
-0.000198669201753
-0.000293010769809
-0.000176305069284
-0.000254987277961
-0.000155626520319
-0.000221791570459
-0.000136695663008
-0.000192938741004
-0.000119540627081
-0.000167945408027
-0.000104140949874
-0.00014635735547
-9.04285106171e-05
-0.000127753139045
-7.82941541141e-05
-0.000111757512886
-6.76108272126e-05
-9.80317821137e-05
-5.82434797692e-05
-8.62792840403e-05
-5.00607713476e-05
-7.6234281319e-05
-4.29361998328e-05
-6.76650879839e-05
-3.67554527325e-05
-6.03635809639e-05
-3.14171078957e-05
-5.4145981892e-05
-2.68432509276e-05
-4.88083224673e-05
-2.3067312589e-05
-4.39588363918e-05
-2.01141942724e-05
-3.94812840079e-05
-1.80704807135e-05
-3.52726908437e-05
-1.63274857986e-05
-3.15459795165e-05
-1.44617732722e-05
-2.7769103613e-05
-1.3508538095e-05
-2.38654974739e-05
-1.34894382354e-05
-2.09935312121e-05
-1.39390880414e-05
-1.69501989809e-05
-1.63856999583e-05
-1.21440755553e-05
-1.83106619207e-05
-8.06198465588e-06
-1.97845914731e-05
-4.21372347095e-06
-2.1523169201e-05
-2.15051663446e-05
-0.000221216660842
0.00106034325031
-0.000454419307816
0.00111808781758
-0.000685329300635
0.00110801919697
-0.000912241010529
0.00109023656942
-0.00113392884817
0.00106693034404
-0.00134930115534
0.0010386256886
-0.00155740410488
0.00100586780498
-0.00175742915292
0.000969246019112
-0.00194871609719
0.000929369244195
-0.00213074804208
0.000886842581784
-0.00230314389577
0.000842246860256
-0.00246564454709
0.000796123182134
-0.00261809969155
0.000748961212823
-0.00276045039771
0.000701192701695
-0.00289271501108
0.000653187928338
-0.00301497211487
0.000605256355476
-0.00312734860403
0.00055764863116
-0.00323000516878
0.000510561458097
-0.00332312779957
0.000464142258788
-0.00340691632888
0.000418495640991
-0.00348157937379
0.000373688532834
-0.00354732554687
0.000329756575388
-0.00360436122022
0.000286708552056
-0.00365288369213
0.000244531971369
-0.00369308107334
0.000203196423295
-0.00372512675451
0.000162658307477
-0.00374918085724
0.00012286328965
-0.00376538558792
8.37504879645e-05
-0.00377386800095
4.52544318971e-05
-0.00377473613077
7.30917395653e-06
-0.00376808305807
-3.01498400053e-05
-0.00375398402345
-6.71812296148e-05
-0.00373250212298
-0.000103835593264
-0.00370368669412
-0.00014015063406
-0.00366758095678
-0.000176148841403
-0.00362422200657
-0.00021183250986
-0.0035736505245
-0.000247181852976
-0.00351591228336
-0.000282150741863
-0.00345106942561
-0.000316666275703
-0.00337920264091
-0.000350626387976
-0.00330042268443
-0.000383901933916
-0.00321487152296
-0.000416336866438
-0.003122732096
-0.000447752883555
-0.00302422659485
-0.000477951227954
-0.00291962317935
-0.000506717584203
-0.00280923141977
-0.0005338217161
-0.00269340791659
-0.00055901753628
-0.00257255373802
-0.000582035098521
-0.00244712643955
-0.000602571355108
-0.00231764945343
-0.000620274042314
-0.00218474009183
-0.000634729401914
-0.00204913587917
-0.000645454866082
-0.00191173242542
-0.000651913718272
-0.00177360220607
-0.000653556241479
-0.00163599546216
-0.00064990067337
-0.00150028989884
-0.000640635557509
-0.00136790636815
-0.000625721221299
-0.00124020134634
-0.000605427912183
-0.00111836350764
-0.000580338137297
-0.00100331500386
-0.000551293456394
-0.00089568545685
-0.000519252182301
-0.00079585709673
-0.00048512372097
-0.000704030280251
-0.000449710560672
-0.000620249872639
-0.000413735503642
-0.000544413771116
-0.000377870875735
-0.000476275184114
-0.000342728864234
-0.000415468353642
-0.000308831128146
-0.000361541924674
-0.000276578391046
-0.000314003578358
-0.000246245100562
-0.000272346559332
-0.000218000588076
-0.000236062736356
-0.000191949815984
-0.00020463305912
-0.000168165363629
-0.00017752609506
-0.000146688041752
-0.000154212659516
-0.000127494560075
-0.000134199099793
-0.000110482231656
-0.000117044625574
-9.54884930712e-05
-0.000102365441727
-8.23297297006e-05
-8.98255087043e-05
-7.08227898151e-05
-7.91333126057e-05
-6.07921511499e-05
-7.00349599081e-05
-5.20732419232e-05
-6.23129678193e-05
-4.45157497261e-05
-5.57858003479e-05
-3.79819563012e-05
-5.03178677299e-05
-3.23487646334e-05
-4.58995480694e-05
-2.75223222138e-05
-4.16736541163e-05
-2.43789440585e-05
-3.76048269765e-05
-2.21815853076e-05
-3.35598366367e-05
-2.0417624295e-05
-2.89057742607e-05
-1.91633882284e-05
-2.45937305862e-05
-1.78715090903e-05
-2.05948983008e-05
-1.75454457494e-05
-1.7318874222e-05
-1.72766471227e-05
-1.44459639608e-05
-1.93287702623e-05
-1.02955755244e-05
-2.25375106363e-05
-6.39267090296e-06
-2.37611357361e-05
-3.26375714152e-06
-2.47253807838e-05
-2.48067248716e-05
-0.000227092268218
0.00128746426468
-0.000466366315044
0.00135739311141
-0.000703098540937
0.00134478196559
-0.000935460112434
0.00132262893061
-0.00116213088918
0.00129363169338
-0.00138194756554
0.00125847298086
-0.00159391046289
0.00121786124118
-0.00179719105845
0.00117255713468
-0.00199113224275
0.0011233408617
-0.00217524065756
0.00107098137298
-0.00234917401716
0.00101621047517
-0.00251272390189
0.000959703226436
-0.0026657971116
0.000902064413617
-0.00280839566114
0.000843821104289
-0.002940598157
0.000785420054078
-0.00306254176114
0.00072722939222
-0.00317440701388
0.000669543018709
-0.00327640388707
0.000612587198345
-0.00336876106336
0.000556527918945
-0.00345171619929
0.000501478903765
-0.00352550916193
0.000447509134567
-0.00359037562277
0.000394650222656
-0.00364654320704
0.000342902726717
-0.00369422733092
0.000292242126733
-0.00373362924807
0.000242623657605
-0.0037649332488
0.000193986965545
-0.00378830591289
0.000146259786283
-0.00380389415699
9.93618040776e-05
-0.00381182538111
5.32077940119e-05
-0.00381220625665
7.71134107133e-06
-0.00380512384471
-3.72119901708e-05
-0.00379064544186
-8.16402952429e-05
-0.0037688211331
-0.00012564168138
-0.0037396851517
-0.000169269378685
-0.00370326048665
-0.000212557461556
-0.00365956233847
-0.000255515666297
-0.00360860512901
-0.000298125365266
-0.00355040813261
-0.00034033519959
-0.0034850045141
-0.000382058808213
-0.00341244817591
-0.000423172994842
-0.00333282314028
-0.000463518958943
-0.00324624923297
-0.00050290444041
-0.00315288884513
-0.000541109083362
-0.00305294828017
-0.000577889794087
-0.00294667920915
-0.000612987420534
-0.00283437452728
-0.000646130020973
-0.00271636619079
-0.000677032908619
-0.00259302158877
-0.00070538994177
-0.00246474939819
-0.000730857451802
-0.00233201318251
-0.000753027296989
-0.00219536508874
-0.00077139794068
-0.00205549390445
-0.00078534963047
-0.00191328842327
-0.000794145627096
-0.00176989310398
-0.000796981222584
-0.00162672661731
-0.000793098361683
-0.00148542893212
-0.000781966041614
-0.00134772256428
-0.000763460498734
-0.00121526762564
-0.00073791535223
-0.0010894974067
-0.000706140922969
-0.00097144654122
-0.000669376008598
-0.000861710326104
-0.000629021052349
-0.00076057955049
-0.000586288052353
-0.000668177928593
-0.00054214655911
-0.000584495316021
-0.000497453170559
-0.000509365572299
-0.000453036270288
-0.00044245100923
-0.000409678989055
-0.00038326840275
-0.000368050027513
-0.000331244233744
-0.000328639042379
-0.000285783489664
-0.000291743681941
-0.00024631286608
-0.000257510002384
-0.000212286597224
-0.000226015955523
-0.000183150371134
-0.00019734226082
-0.000158312247046
-0.000171566807731
-0.000137169476033
-0.000148677721769
-0.000119170680542
-0.00012852112536
-0.000103851222173
-0.00011084783951
-9.08252988457e-05
-9.53953963059e-05
-7.97638210884e-05
-8.19236926806e-05
-7.03859030299e-05
-7.02091880763e-05
-6.24511951185e-05
-6.0046697301e-05
-5.57540081536e-05
-5.12511705719e-05
-5.01197640321e-05
-4.36539447241e-05
-4.53775712002e-05
-3.71282979979e-05
-4.13286232066e-05
-3.16085724022e-05
-3.73757195332e-05
-2.83713624654e-05
-3.34420171036e-05
-2.6157538035e-05
-2.98642819261e-05
-2.40403026082e-05
-2.65458873342e-05
-2.2530596233e-05
-2.25863031984e-05
-2.18853751668e-05
-1.84056578428e-05
-2.178377571e-05
-1.4055602124e-05
-2.16863404731e-05
-1.11908373676e-05
-2.22572718504e-05
-8.72001849371e-06
-2.50761865993e-05
-5.39987048918e-06
-2.71486845019e-05
-2.72213499117e-06
-2.74694860242e-05
-2.75623089153e-05
-0.000234407143446
0.00152190057173
-0.000481253336463
0.00160426952123
-0.000725228160306
0.00158878795497
-0.000964343186044
0.00156177474205
-0.00119715625419
0.0015264756622
-0.00142241543628
0.00148376296017
-0.00163906669938
0.0014345432896
-0.00184626132528
0.00137978249344
-0.00204335248298
0.00132046269219
-0.0022298828411
0.00125754233081
-0.00240556566958
0.00119192380279
-0.00257026173208
0.00112442968062
-0.00272395456753
0.00105578749903
-0.00286672575214
0.000986622385649
-0.00299873192842
0.000917456131372
-0.0031201841347
0.000848711288677
-0.00323133031392
0.00078071862681
-0.00333244066484
0.00071372669295
-0.00342379613229
0.000647912186135
-0.00350567922905
0.000583390429082
-0.00357836728989
0.000520225189067
-0.00364212720438
0.000458437661928
-0.00369721178204
0.000398014293607
-0.00374385683041
0.00033891359547
-0.00378227925621
0.000281071870125
-0.00381267535289
0.000224408178503
-0.00383521975507
0.000168828573461
-0.00385006431848
0.000114229988591
-0.00385733757513
6.05038563206e-05
-0.0038571441189
7.53983866697e-06
-0.00384956469013
-4.47703599886e-05
-0.00383465653842
-9.65283139195e-05
-0.00381245480907
-0.000147824231551
-0.00378297459716
-0.000198731407515
-0.00374621458168
-0.000249300311893
-0.00370216173947
-0.000299552426163
-0.00365079794675
-0.000349474191032
-0.00359210777822
-0.000399011637434
-0.00352608790776
-0.000448066249117
-0.00345275703086
-0.000496492935752
-0.00337216605737
-0.000544100615856
-0.00328440694128
-0.000590656157435
-0.00318961930748
-0.000635891470395
-0.00308799299074
-0.000679513436587
-0.00297976601263
-0.000721214665437
-0.0028652171736
-0.000760682498128
-0.00274465537404
-0.000797601815271
-0.00261840899152
-0.000831647286045
-0.00248682170205
-0.000862459044404
-0.00235026522682
-0.000889601763375
-0.00220917836579
-0.0009125062397
-0.00206414186268
-0.000930410732409
-0.00191598828159
-0.000942327931152
-0.00176591846984
-0.000947081635171
-0.00161557676685
-0.000943473537
-0.00146699021827
-0.000930586245688
-0.00132232895201
-0.000908155025993
-0.00118372006204
-0.000876557278204
-0.00105299083427
-0.000836901536283
-0.000931324802524
-0.000791073574251
-0.000819166656804
-0.000741211194298
-0.000716599361176
-0.00068888888655
-0.00062363344
-0.000635147178507
-0.000540216265637
-0.000580905952454
-0.000466126286365
-0.000527161657662
-0.000400911046915
-0.000474930264332
-0.000343915486352
-0.000425081307346
-0.000294383300366
-0.000378208068717
-0.00025157327357
-0.000334591465312
-0.000214840064726
-0.000294282602145
-0.00018362756274
-0.000257269166982
-0.000157369220052
-0.000223641843659
-0.000135391919098
-0.000193585413884
-0.00011696582067
-0.000167144305959
-0.000101448213546
-0.000144078970197
-8.83532571725e-05
-0.000123983056944
-7.73113305389e-05
-0.000106477264965
-6.80106484255e-05
-9.1264079384e-05
-6.01885108102e-05
-7.80706931478e-05
-5.36241941112e-05
-6.66499423065e-05
-4.81299939327e-05
-5.67837174585e-05
-4.35537767221e-05
-4.82680616553e-05
-3.97814917177e-05
-4.09381195197e-05
-3.63350373618e-05
-3.50932335269e-05
-3.28628496825e-05
-3.18838431309e-05
-2.96714951396e-05
-2.93920714147e-05
-2.6176841384e-05
-2.75810463798e-05
-2.27423317917e-05
-2.60149215688e-05
-1.91202641185e-05
-2.55615163414e-05
-1.58928082872e-05
-2.50677018506e-05
-1.21945500132e-05
-2.54436863748e-05
-8.69410251745e-06
-2.58169319697e-05
-6.92964667036e-06
-2.69013392529e-05
-4.50464165657e-06
-2.96355427112e-05
-2.26312004961e-06
-2.97708483997e-05
-2.98563470225e-05
-0.000243336622654
0.00176526635735
-0.00049941831373
0.00186038304285
-0.000752203355302
0.0018416039833
-0.00099949508641
0.00180909775677
-0.00123969841545
0.0017667100442
-0.00147145251686
0.00171554815886
-0.00169364145552
0.00165676326434
-0.0019053992007
0.00159157124728
-0.00210610119045
0.00152119563106
-0.00229534454703
0.00144681656785
-0.00247292074694
0.0013695307947
-0.0026387841257
0.00129032374423
-0.00279301939185
0.00121005332186
-0.00293581051402
0.0011294439134
-0.00306741270693
0.00104908855208
-0.00318812839835
0.000969456999235
-0.00329828756615
0.000890907570803
-0.0033982322471
0.000813700871537
-0.00348830485468
0.00073801397154
-0.00356883963064
0.000663954021675
-0.00364015667386
0.000591570640454
-0.00370255783396
0.000520866781039
-0.00375632403657
0.000451807954832
-0.00380171346415
0.000384329941792
-0.00383896038104
0.000318345111397
-0.00386827417617
0.000253747672955
-0.00388983863359
0.000190418048182
-0.00390381111005
0.000128226778256
-0.00391032185197
6.70381492354e-05
-0.00390947323314
6.71400043074e-06
-0.0039013393348
-5.28823127283e-05
-0.00388596587985
-0.000111880650208
-0.00386337101691
-0.000170398875427
-0.00383354697925
-0.000228536106029
-0.00379646348156
-0.000286365449946
-0.00375207259137
-0.000343925926861
-0.00370031601988
-0.000401214496183
-0.00364113418019
-0.000458178355492
-0.00357447767845
-0.000514709003233
-0.00350031981699
-0.000570638507749
-0.00341867005279
-0.000625739886451
-0.0033295858478
-0.000679731850378
-0.00323318194212
-0.000732289350313
-0.00312963348905
-0.00078305869374
-0.00301917207684
-0.00083167628468
-0.00290207197312
-0.000877786339649
-0.00277862901615
-0.000921052586653
-0.00264913381507
-0.000961153632442
-0.00251385221939
-0.000997756091022
-0.0023730222746
-0.00103045027371
-0.00222689601679
-0.00105865487268
-0.00207584246735
-0.00108149102064
-0.00192052736379
-0.00109767190502
-0.00176215279218
-0.00110548977439
-0.00160264706001
-0.00110301279311
-0.00144463835257
-0.0010886287152
-0.00129093799009
-0.00106188874199
-0.00114440280924
-0.00102312367811
-0.00100755059056
-0.000973784912027
-0.000881773688886
-0.000916879686674
-0.000767058709114
-0.000855957062881
-0.00066303198641
-0.000792948748726
-0.00056956592381
-0.000728647861981
-0.000486644995319
-0.000663861755967
-0.000414044953844
-0.00059979767267
-0.000351168101935
-0.000537841861617
-0.000297099073819
-0.000479186665801
-0.00025078883868
-0.000424554559988
-0.000211279209666
-0.000374139569332
-0.000177855304253
-0.000327746946712
-0.000150032398074
-0.00028513349455
-0.000127311532058
-0.000246405329689
-0.000108900849731
-0.000212037843281
-9.38251891754e-05
-0.000182260968371
-8.12824169241e-05
-0.0001566625184
-7.07905012015e-05
-0.000134515665292
-6.20465407042e-05
-0.00011526188192
-5.47707821487e-05
-9.85800318124e-05
-4.87262925314e-05
-8.41548904875e-05
-4.37191655992e-05
-7.16964201646e-05
-3.95769383329e-05
-6.09647723501e-05
-3.6157452275e-05
-5.17257503111e-05
-3.33285801991e-05
-4.38052021569e-05
-3.05199862326e-05
-3.79408911464e-05
-2.78545631782e-05
-3.45908644801e-05
-2.53444208735e-05
-3.19462821854e-05
-2.26084233375e-05
-3.03645909374e-05
-1.93375759963e-05
-2.93367457346e-05
-1.61805125953e-05
-2.87720667309e-05
-1.27999400642e-05
-2.85039912506e-05
-1.03293368418e-05
-2.79711096551e-05
-7.52710307544e-06
-2.86763750724e-05
-5.33326925183e-06
-2.91512477494e-05
-3.82066372195e-06
-3.12054294945e-05
-1.86914762445e-06
-3.17785315518e-05
-3.1753657864e-05
-0.000254100827882
0.00201939693161
-0.000521299558736
0.00212761244592
-0.00078465032002
0.0021049865245
-0.00104169429351
0.00206617307372
-0.00129064380527
0.00201569105118
-0.00153000766926
0.00195494340563
-0.00175860177519
0.00188538875762
-0.00197555084871
0.00180855165896
-0.00218027163732
0.00172594771353
-0.00237244242022
0.00163901857949
-0.00255196378455
0.00154908330714
-0.00271891566321
0.0014573066737
-0.00287351473009
0.00136468332097
-0.00301607517382
0.00127203514943
-0.00314697475018
0.00118001875341
-0.00326662695364
0.00108913963283
-0.003375459368
0.000999770187148
-0.00347389765928
0.000912169101634
-0.00356235437709
0.000826500326706
-0.00364122157992
0.000742850520683
-0.00371086633271
0.000661244308116
-0.00377162821749
0.000581657155534
-0.00382381814572
0.000504025908643
-0.00386771792192
0.000428257234819
-0.00390358012619
0.000354234289941
-0.0039316280364
0.000281821968978
-0.00395205535623
0.000210871138681
-0.00396502568028
0.000141222213769
-0.00397067162438