/*--------------------------------*- C++ -*----------------------------------*\
| =========                 |                                                 |
| \\      /  F ield         | OpenFOAM: The Open Source CFD Toolbox           |
|  \\    /   O peration     | Version:  v1906                                 |
|   \\  /    A nd           | Web:      www.OpenFOAM.com                      |
|    \\/     M anipulation  |                                                 |
\*---------------------------------------------------------------------------*/
FoamFile
{
    version     2.0;
    format      ascii;
    class       volScalarField;
    location    "67";
    object      pa;
}
// * * * * * * * * * * * * * * * * * * * * * * * * * * * * * * * * * * * * * //

dimensions      [0 2 -2 0 0 0 0];


internalField   nonuniform List<scalar> 
9216
(
18835.6253576
18830.5221079
18820.0610398
18804.2305724
18783.1016312
18756.7621917
18725.3218375
18688.9095018
18647.6718311
18601.771126
18551.3835822
18496.6970984
18437.909511
18375.2264101
18308.8595122
18239.0246185
18165.9402339
18089.8257553
18010.9003944
17929.3816386
17845.4844928
17759.4202156
17671.3958649
17581.6132882
17490.2689361
17397.5530711
17303.6498055
17208.7364876
17112.9839172
17016.5558695
16919.6094421
16822.2946756
16724.7549756
16627.1267192
16529.5398429
16432.1185812
16334.9805513
16238.2370894
16141.9938295
16046.3505189
15951.4016165
15857.2361077
15763.9381006
15671.5866443
15580.2563165
15490.0170422
15400.9346677
15313.0707787
15226.4832563
15141.2260942
15057.3499344
14974.9018836
14893.9260267
14814.4632439
14736.5517008
14660.2266666
14585.5209812
14512.4648757
14441.086415
14371.4113232
14303.4634018
14237.2643602
14172.8342095
14110.1911004
14049.3516922
13990.3309985
13933.1427321
13877.7991593
13824.3114211
13772.6893965
13722.9420001
13675.0770554
13629.1015684
13585.0216121
13542.8425758
13502.5690606
13464.2051058
13427.7540951
13393.2189592
13360.6020947
13329.9055419
13301.130916
13274.2795618
13249.3524955
13226.3505374
13205.2742642
13186.1241185
13168.9003721
13153.6032118
13140.2327106
13128.7888852
13119.2716607
13111.6808564
13106.0160263
13102.2791982
13100.4411271
18840.8967668
18835.8729395
18825.4811206
18809.7428254
18788.7318222
18762.5360413
18731.2632874
18695.0400022
18654.0098102
18608.3317259
18558.1783893
18503.7340941
18445.1929729
18382.7570352
18316.6344563
18247.0377577
18174.1823044
18098.2847116
18019.5616102
17938.2283185
17854.4978954
17768.5800826
17680.6806352
17591.0005155
17499.7354718
17407.0754517
17313.2043908
17218.2998081
17122.5327631
17026.0675957
16929.062016
16831.6669546
16734.0267607
16636.279206
16538.555813
16440.9809379
16343.6732439
16246.7452769
16150.3037944
16054.4497995
15959.2788825
15864.8812692
15771.3421667
15678.7418162
15587.1558357
15496.655272
15407.306936
15319.1734506
15232.3135751
15146.7822475
15062.6308959
14979.907475
14898.6567622
14818.9203888
14740.7371209
14664.1428845
14589.1710313
14515.8523589
14444.2153612
14374.2862439
14306.0891605
14239.6462237
14174.9777267
14112.102152
14051.0363783
13991.7956865
13934.3939532
13878.8436554
13825.1560494
13773.3411747
13723.4080201
13675.3645265
13629.2177394
13584.9738125
13542.6381463
13502.2153922
13463.7095783
13427.1241132
13392.4618999
13359.7253397
13328.9164334
13300.0367858
13273.0876942
13248.0701536
13224.9849331
13203.8325809
13184.6134884
13167.3278964
13151.9759455
13138.5576838
13127.0731068
13117.5221703
13109.9048369
13104.221187
13100.4762706
13098.6253195
18851.6177521
18846.6377759
18836.141981
18820.2567224
18799.0505043
18772.6140208
18741.0581987
18704.5132013
18663.126704
18617.0620442
18566.4963008
18511.618272
18452.6265097
18389.7273351
18323.132995
18253.0598548
18179.7267855
18103.3536174
18024.1598145
17942.3632217
17858.1790414
17771.8188715
17683.4899665
17593.3945415
17501.7292836
17408.6848828
17314.4457517
17219.1897414
17123.0880272
17026.3049681
16928.9981205
16831.3182063
16733.4092324
16635.4085995
16537.4472254
16439.6492611
16342.1327346
16245.0096339
16148.3861084
16052.3626009
15957.0340919
15862.4902508
15768.8156867
15676.0901019
15584.3885405
15493.7815383
15404.3353645
15316.1121648
15229.1701934
15143.563948
15059.3443903
14976.5590719
14895.2523429
14815.4654682
14737.2368239
14660.602005
14585.5940091
14512.2433354
14440.5781571
14370.6244122
14302.4059642
14235.9446859
14171.260609
14108.3720013
14047.2955061
13988.0462124
13930.6377854
13875.0825307
13821.3915148
13769.5746249
13719.6406798
13671.5974849
13625.4519345
13581.210062
13538.8771338
13498.4576954
13459.9556566
13423.3743334
13388.7165255
13355.984554
13325.1803304
13296.305391
13269.3609578
13244.3479687
13221.2671304
13200.1189453
13180.9037561
13163.6217692
13148.273092
13134.8577532
13123.3757357
13113.8269976
13106.2115086
13100.5292814
13096.7860109
13094.9174906
18867.9325962
18863.0430677
18852.3978147
18836.3032366
18814.8199741
18788.0433251
18756.0888378
18719.0921071
18677.2066671
18630.6019992
18579.4614298
18523.9799813
18464.3622605
18400.8203887
18333.5720532
18262.8386608
18188.8436606
18111.8109991
18031.9637624
17949.522957
17864.7064749
17777.7281853
17688.7971969
17598.1172254
17505.8861095
17412.295409
17317.5301288
17221.7684989
17125.1818608
17027.9345875
16930.1840905
16832.0808414
16733.7684667
16635.3838431
16537.0571733
16438.9123915
16341.0670356
16243.6325335
16146.7144188
16050.4125211
15954.8211868
15860.0294697
15766.1213526
15673.1759376
15581.267664
15490.4664927
15400.8381171
15312.4441391
15225.3422702
15139.5864979
15055.2272757
14972.3116793
14890.883585
14810.9838154
14732.6503062
14655.9182419
14580.8202114
14507.3863336
14435.6444028
14365.6200046
14297.3366515
14230.8158898
14166.0774262
14103.1392263
14042.0176319
13982.7274531
13925.2820759
13869.6935478
13815.9726778
13764.1291147
13714.1714398
13666.1072393
13619.943189
13575.6851214
13533.3381031
13492.9064959
13454.3940279
13417.8038488
13383.1385942
13350.4004354
13319.5911375
13290.7121038
13263.7644269
13238.7489282
13215.6662025
13194.5166526
13175.3005269
13158.0179494
13142.6689515
13129.253498
13117.7715143
13108.2229086
13100.6075968
13094.9254889
13091.1833965
13089.2934792
18889.9093149
18885.1481639
18874.2992148
18857.9198298
18836.0593337
18808.8196244
18776.3225747
18738.7111981
18696.1470364
18648.8079638
18596.88585
18540.5842158
18480.1159396
18415.7010499
18347.5646557
18275.9350244
18201.0418418
18123.1146458
18042.3814523
17959.0675546
17873.3945028
17785.5792399
17695.8333956
17604.3627092
17511.3665848
17417.0377474
17321.5620043
17225.118082
17127.8775434
17030.0047593
16931.6569397
16832.9841984
16734.1296671
16635.2296644
16536.4138145
16437.8052155
16339.5205795
16241.6704997
16144.3596512
16047.6869994
15951.7460176
15856.6248957
15762.4067567
15669.1698619
15576.9878217
15485.9297935
15396.0606835
15307.4413347
15220.1287186
15134.1761122
15049.6332784
14966.5466314
14884.9594056
14804.9118102
14726.4411863
14649.5821508
14574.3667425
14500.824556
14428.9828772
14358.8668074
14290.4993896
14223.9017231
14159.093081
14096.0910162
14034.9114707
13975.5688735
13918.0762418
13862.4452723
13808.6864338
13756.8090523
13706.8213968
13658.7307567
13612.5435217
13568.2652528
13525.9007554
13485.4541443
13446.9289104
13410.32798
13375.653775
13342.9082666
13312.0930293
13283.2092889
13256.2579702
13231.2397399
13208.1550478
13187.0041644
13167.7872159
13150.5042167
13135.1550988
13121.7397391
13110.2579847
13100.7096705
13093.0946424
13087.4127115
13083.6723293
13081.7549707
18917.6508913
18913.0572253
18901.9466165
18885.202419
18862.8585901
18835.0259804
18801.834808
18763.4378329
18720.0070714
18671.7313311
18618.8135707
18561.4682933
18499.9190231
18434.3959163
18365.1335463
18292.3688835
18216.3394891
18137.2819214
18055.4303562
17971.0154082
17884.2631452
17795.3942759
17704.6234979
17612.1589865
17518.2020108
17422.9466568
17326.5796477
17229.280242
17131.220203
17032.5638228
16933.4679957
16834.0823243
16734.5492688
16635.0043797
16535.5763975
16436.3874656
16337.5532714
16239.1833451
16141.3812745
16044.2449279
15947.8666787
15852.3336257
15757.7278128
15664.1264427
15571.6020884
15480.2228973
15390.0527922
15301.151664
15213.5755607
15127.3768688
15042.6044897
14959.3040088
14877.5178608
14797.2854863
14718.6434855
14641.6257641
14566.2636757
14492.5861575
14420.6198621
14350.3892836
14281.9168799
14215.2231893
14150.3269446
14087.2451807
14025.9933406
13966.585375
13909.0338409
13853.3499938
13799.5438784
13747.6244145
13697.5994808
13649.4759939
13603.2599854
13558.9566752
13516.5705416
13476.1053886
13437.5644104
13400.9502519
13366.2650677
13333.5105766
13302.6881146
13273.7986836
13246.8429985
13221.8215304
13198.7345476
13177.5821531
13158.3643198
13141.0809226
13125.7317679
13112.3166203
13100.8352266
13091.2873312
13083.6727011
13077.9910507
13074.2529947
13072.3015843
18951.2890081
18946.9053047
18935.4704429
18918.2757866
18895.3351252
18866.7709717
18832.7241887
18793.3599301
18748.8634654
18699.4373703
18645.2984992
18586.6750458
18523.8037365
18456.9272168
18386.2916671
18312.1446686
18234.733329
18154.3026637
18071.0942232
17985.3449501
17897.2862465
17807.1432306
17715.1341611
17621.4700075
17526.3541477
17429.9821727
17332.5417828
17234.2127592
17135.1669997
17035.5686037
16935.5739996
16835.3320988
16734.984493
16634.6657575
16534.5035227
16434.6187067
16335.125727
16236.1328033
16137.7421898
16040.0504136
15943.1485086
15847.1222468
15752.0523641
15658.0147807
15565.0808163
15473.3173984
15382.7872643
15293.5491567
15205.6580131
15119.1651473
15034.1184259
14950.5624376
14868.5386568
14788.0856005
14709.23898
14632.0318468
14556.4947327
14482.6557855
14410.5408987
14340.1738369
14271.5763568
14204.7683231
14139.7678208
14076.5912627
14015.2534935
13955.7678898
13898.1464563
13842.3999188
13788.537813
13736.5685709
13686.499603
13638.3373775
13592.0874967
13547.7547698
13505.3432832
13464.8564668
13426.2971586
13389.6676652
13354.9698199
13322.2050382
13291.3743692
13262.4785457
13235.5180302
13210.4930585
13187.4036804
13166.2497972
13147.0311973
13129.7475873
13114.3986222
13100.9839309
13089.5031408
13079.9558896
13072.3418577
13066.6606539
13062.9255684
13060.9332991
18990.9861764
18986.8595097
18975.0318624
18957.2937332
18933.6331144
18904.1873945
18869.1107602
18828.5838348
18782.8083375
18732.0038364
18676.4042345
18616.2544161
18551.8070992
18483.3199556
18411.053035
18335.2665078
18256.2187265
18174.1645933
18089.3542129
18002.0318061
17912.4348554
17820.7934535
17727.3298281
17632.2580163
17535.7836644
17438.1039322
17339.4074825
17239.8745408
17139.6770088
17038.978623
16937.9351441
16836.6945674
16735.3973761
16634.1769199
16533.1594642
16432.4644197
16332.2046711
16232.4868631
16133.4116569
16035.0739826
15937.5632864
15840.9637705
15745.3546281
15650.8102695
15557.4005416
15465.19094
15374.2428133
15284.6135601
15196.3568187
15109.5226495
15024.157711
14940.3054283
14858.0061558
14777.2973333
14698.2136362
14620.7871201
14545.0473596
14471.0215824
14398.7347979
14328.2099209
14259.4678913
14192.527789
14127.4069445
14064.1210454
14002.6842399
13943.1092348
13885.4073917
13829.5888185
13775.6624581
13723.6361731
13673.5168282
13625.3103686
13579.0218957
13534.6557399
13492.2155298
13451.7042589
13413.1243494
13376.4777126
13341.7658072
13308.9896938
13278.150087
13249.247405
13222.2818153
13197.2532787
13174.1615896
13153.0064138
13133.7873234
13116.5038286
13101.1554071
13087.7415298
13076.261685
13066.7153889
13059.1022257
13053.4216782
13049.6902346
13047.65023
19036.9387634
19033.122023
19020.8256305
19002.4417116
18977.9258838
18947.4342963
18911.1376438
18869.2356503
18821.9502148
18769.5216133
18712.2043759
18650.2634312
18583.970552
18513.6011718
18439.4316001
18361.7366415
18280.7876067
18196.850688
18110.1856663
18021.0449115
17929.6726371
17836.3043724
17741.1666162
17644.4766408
17546.4424185
17447.2626458
17347.1268448
17246.2155247
17144.7003884
17042.7445734
16940.5029135
16838.1222134
16735.741567
16633.4928073
16531.5005538
16429.8823927
16328.7493904
16228.2063337
16128.3520154
16029.279501
15931.076389
15833.8250621
15737.602929
15642.4826578
15548.5323997
15455.8160043
15364.393226
15274.3199223
15185.648244
15098.4268173
15012.7009195
14928.5126462
14845.9010729
14764.9024099
14685.5501506
14607.8752146
14531.906085
14457.6689404
14385.187782
14314.484556
14245.5792711
14178.4901122
14113.2335496
14049.8244444
13988.2761499
13928.6006094
13870.8084507
13814.909077
13760.9107543
13708.8206957
13658.6451428
13610.3894436
13564.0581277
13519.6549783
13477.1831012
13436.6449913
13398.0425955
13361.3773736
13326.6503557
13293.8621969
13263.0132292
13234.1035107
13207.1328719
13182.1009588
13159.0072735
13137.8512123
13118.6320998
13101.3492213
13086.0018518
13072.5892819
13061.1108419
13051.5659097
13043.9539627
13038.2743332
13034.5472427
13032.4526019
19089.3805936
19085.9338456
19073.0835013
19053.9398503
19028.4184433
18996.6989623
18958.9724575
18915.4621036
18866.4143873
18812.094619
18752.7820561
18688.7654433
18620.3389878
18547.7988375
18471.4400811
18391.5542568
18308.42734
18222.3381628
18133.5572154
18042.3457754
17948.9553123
17853.6271215
17756.5921409
17658.0709162
17558.27368
17457.4005184
17355.6416041
17253.1774751
17150.1793474
17046.8094485
16943.2213605
16839.5603667
16735.9638475
16632.5617844
16529.4768287
16426.8243955
16324.7134238
16223.2465399
16122.5203764
16022.6258529
15923.6484504
15825.6684728
15728.7612969
15632.9976114
15538.4436454
15445.1613858
15353.2087863
15262.6399659
15173.505399
15085.8520978
14999.7237856
14915.1610641
14832.2015724
14750.8801401
14671.2289344
14593.2776004
14517.0533967
14442.5813255
14369.8842575
14298.9830526
14229.8966755
14162.6423075
14097.2354544
14033.6900499
13972.018556
13912.2320594
13854.3403645
13798.3520834
13744.2747225
13692.1147656
13641.8777547
13593.5683669
13547.1904894
13502.7472904
13460.2412884
13419.6744173
13381.0480901
13344.3632585
13309.6204706
13276.8199253
13245.961524
13217.0449198
13190.0695634
13165.0347467
13141.9396428
13120.7833441
13101.564897
13084.2833334
13068.9377004
13055.5270855
13044.0506416
13034.5075927
13026.8972971
13021.218905
13017.4969292
13015.3407482
19148.5874149
19145.5795018
19132.0784872
19112.0466739
19085.3505418
19052.1992409
19012.8088978
18967.4314142
18916.3431305
18859.8394738
18798.2291558
18731.8289983
18660.9593737
18585.9403237
18507.0883531
18424.713861
18339.1191509
18250.5969492
18159.4293576
18065.887166
17970.22946
17872.7034615
17773.544551
17672.9764279
17571.2113722
17468.4505786
17364.8845392
17260.6934576
17156.0476789
17051.1081261
16946.0267304
16840.9468592
16736.0038154
16631.3253614
16527.0317764
16423.2359453
16320.0443464
16217.5571228
16115.8684375
16015.0667692
15915.2352004
15816.4516892
15718.7893263
15622.3165796
15527.0975262
15433.1920724
15340.6561631
15249.5419812
15159.8981368
15071.7698482
14985.1991143
14900.2248792
14816.8831896
14735.2073459
14655.228046
14576.973524
14500.4696832
14425.7402238
14352.8067657
14281.6889664
14212.4046354
14144.9698435
14079.3990288
14015.7050986
13953.8995281
13893.9924554
13835.9927732
13779.9082172
13725.745452
13673.5101533
13623.2070873
13574.8401874
13528.4126282
13483.9268959
13441.3848569
13400.787823
13362.136614
13325.4316176
13290.6728466
13257.8599931
13226.9924802
13198.0695108
13171.0901137
13146.0531869
13122.9575378
13101.8019212
13082.5850738
13065.3057461
13049.9627314
13036.5548923
13025.0811846
13015.5406609
13007.9325483
13002.2557828
12998.5397422
12996.3151234
19214.8824763
19212.3929482
19198.1301724
19177.0636955
19149.0003731
19114.1862937
19072.8685299
19025.3341824
18971.8957924
18912.8849143
18848.6451864
18779.526325
18705.8789765
18628.0504753
18546.381466
18461.2033173
18372.8362271
18281.5879183
18187.7528178
18091.6116263
17993.4311915
17893.464612
17791.9515123
17689.1184378
17585.1793306
17480.3360566
17374.7789588
17268.6874205
17162.2304258
17055.5671059
16948.8472583
16842.2118673
16735.7938158
16629.7181708
16524.1023103
16419.0563037
16314.6837867
16211.0820739
16108.3425301
16006.5508848
15905.7875305
15806.1278043
15707.642251
15610.3968723
15514.4533613
15419.8693238
15326.6984881
15234.9909036
15144.7931286
15056.1484098
14969.0968521
14883.675581
14799.918897
14717.8584242
14637.5232509
14558.9400661
14482.133289
14407.1251945
14333.936033
14262.5841461
14193.0860786
14125.4566855
14059.7092358
13995.855513
13933.9059113
13873.8695296
13815.7542613
13759.5668819
13705.3131329
13652.9978036
13602.6248095
13554.1972678
13507.7175709
13463.1874563
13420.6080744
13379.9800535
13341.3035617
13304.578367
13269.8038935
13236.9792763
13206.1034123
13177.1750093
13150.192632
13125.154745
13102.0597533
13080.90604
13061.692001
13044.4160771
13029.0767826
13015.672732
13004.2026647
12994.665445
12987.0601567
12981.3854826
12977.6762637
12975.3763258
19288.6435167
19286.7649945
19271.6113327
19249.341062
19219.6890368
19182.9477967
19139.4027474
19089.3842065
19033.2486222
18971.3708164
18904.1356978
18831.9313111
18755.1430706
18674.1491891
18589.3172041
18501.0014708
18409.5414725
18315.2607994
18218.4666571
18119.4497818
18018.4846579
17915.829951
17811.7290883
17706.4109314
17600.0904998
17492.9697167
17385.2381518
17277.0737486
17168.6435241
17060.1042324
16951.6029714
16843.2778179
16735.2588555
16627.6678399
16520.6187111
16414.2184528
16308.5674283
16203.7597542
16099.8836529
15997.0217824
15895.2515448
15794.6453741
15695.2710048
15597.1917237
15500.4666062
15405.1507374
15311.2954213
15218.9483774
15128.1539269
15038.9531687
14951.3841468
14865.4820092
14781.2791591
14698.8053999
14618.0880731
14539.1521906
14462.0205615
14386.7139143
14313.251014
14241.6487748
14171.9223695
14104.0853339
14038.1496686
13974.125937
13912.0233602
13851.8499084
13793.6123897
13737.3165362
13682.9670864
13630.567866
13580.1218652
13531.6313134
13485.0977519
13440.5221032
13397.9047383
13357.2455407
13318.543969
13281.7991154
13247.0097629
13214.1744389
13183.2914667
13154.3590141
13127.3751393
13102.3378342
13079.2450646
13058.0948079
13038.8850882
13021.6140079
13006.2797769
12992.8807392
12981.4153976
12971.8824107
12964.2807068
12958.6086766
12954.9072378
12952.5251217
19370.3115716
19369.1526689
19352.9562018
19329.2844908
19297.7858803
19258.8116149
19212.6948397
19159.8191067
19100.5941802
19035.4466508
18964.8100391
18889.1168085
18808.7919932
18724.2483867
18635.8831036
18544.075304
18449.1848616
18351.5517715
18251.4961165
18149.3184393
18045.3003964
17939.705594
17832.7805331
17724.7556039
17615.846092
17506.2531662
17396.1648288
17285.7568183
17175.1934562
17064.628432
16954.2055128
16844.0593049
16734.3163706
16625.0947823
16516.5045784
16408.6490927
16301.6250332
16195.5229359
16090.4275248
15986.4180551
15883.5686297
15781.948492
15681.6222983
15582.6503703
15485.0889311
15388.9903258
15294.4032274
15201.3728316
15109.9410389
15020.1466273
14932.0254159
14845.6104194
14760.9319959
14678.0179872
14596.8938531
14517.5827999
14440.1059036
14364.4822283
14290.7289399
14218.8614165
14148.8933535
14080.8368668
14014.7025909
13950.4997752
13888.2363766
13827.9191491
13769.5537309
13713.1447285
13658.6957987
13606.2097271
13555.6885052
13507.1334036
13460.5450441
13415.9234686
13373.2682053
13332.5783329
13293.8525419
13257.0891939
13222.2863776
13189.4419628
13158.5536515
13129.6190266
13102.6355979
13077.6008448
13054.5122572
13033.367373
13014.163813
12996.8993129
12981.5717527
12968.1791828
12956.7198495
12947.1921889
12939.5949616
12933.9262207
12930.2335979
12927.7624764
19460.402152
19460.0911171
19442.6708447
19417.3638055
19383.7148656
19342.14995
19293.0620504
19236.9005627
19174.1400983
19105.2691332
19030.7782489
18951.1510712
18866.8573844
18778.3482534
18686.0528355
18590.3765584
18491.7003586
18390.3807066
18286.7501918
18181.1184843
18073.7735298
17964.9828712
17854.9950176
17744.0408074
17632.3347267
17520.0761614
17407.4505685
17294.630562
17181.7769102
17069.0394412
16956.5578651
16844.4626803
16732.8762743
16621.9124963
16511.6768996
16402.2686913
16293.7804942
16186.2988642
16079.9046574
15974.6733858
15870.6755383
15767.9768767
15666.6387092
15566.7181416
15468.2683117
15371.3386061
15275.9748635
15182.2195642
15090.1120081
14999.6884829
14910.9824222
14824.024556
14738.8430526
14655.4636553
14573.9098111
14494.2027958
14416.3618321
14340.404205
14266.3453711
14194.1990657
14123.9774051
14055.6909859
13989.3489815
13924.9592354
13862.528351
13802.0617801
13743.5639076
13687.0381344
13632.4869571
13579.9120465
13529.3143221
13480.694026
13434.0507927
13389.3837182
13346.6914254
13305.9721276
13267.2236901
13230.4436882
13195.629464
13162.7781794
13131.886868
13102.9524828
13075.9719428
13050.9421757
13027.8601586
13006.7229557
12987.5277532
12970.2718919
12954.9528956
12941.5684986
12930.1166711
12920.5956079
12913.0038905
12907.3391896
12903.6565013
12901.0895855
19559.5195792
19560.2088704
19541.3462638
19514.1234645
19477.9621161
19433.3839091
19380.8574254
19320.913874
19254.1068624
19180.9987432
19102.1467794
19018.0930789
18929.3574183
18836.4326025
18739.7818539
18639.8377612
18537.0023685
18431.6480576
18324.1189464
18214.7325917
18103.7818417
17991.5367269
17878.2463154
17764.1404838
17649.4315756
17534.3159331
17418.9752967
17303.5780773
17188.2805009
17073.2276241
16958.5542706
16844.3861934
16730.8410149
16618.0274183
16506.046067
16394.9915346
16284.9519072
16176.0093423
16068.2404488
15961.7166473
15856.5044942
15752.6659776
15650.2587875
15549.3365649
15449.9491311
15352.1427
15255.9600757
15161.4408358
15068.6215046
14977.5357141
14888.2143571
14800.6857309
14714.9756749
14631.1077005
14549.1031155
14468.9811437
14390.759039
14314.4521954
14240.0742532
14167.6372019
14097.1514789
14028.6260657
13962.0685815
13897.4853738
13834.8816057
13774.2613425
13715.6276341
13658.9825963
13604.3274893
13551.6627944
13500.9882879
13452.3031134
13405.6058514
13360.8945873
13318.1669762
13277.4203067
13238.6515608
13201.8574731
13167.0345862
13134.1793045
13103.2879455
13074.3567876
13047.3821167
13022.3602693
12999.2876727
12978.1608834
12958.9766216
12941.7318042
12926.4235735
12913.0493244
12901.6067304
12892.0937287
12884.5087094
12878.8489089
12875.1773615
12872.5079122
19668.3755873
19670.2476497
19649.6750895
19620.1955787
19581.0847847
19532.9883502
19476.4711118
19412.1663985
19340.7241466
19262.7946736
19179.0126784
19089.9864438
18996.2907985
18898.4632063
18797.002215
18692.3676069
18584.9817033
18475.231396
18363.4705834
18250.0227835
18135.1837629
18019.224081
17902.3914841
17784.9131185
17666.9975451
17548.8365582
17430.6068131
17312.4712779
17194.5805157
17077.0737796
16960.0801174
16843.7202926
16728.1057319
16613.3389901
16499.5159378
16386.7258096
16275.0516701
16164.5708428
16055.355301
15947.4720234
15840.9833148
15735.9470976
15632.4171771
15530.4434838
15430.0722962
15331.3464459
15234.3055071
15138.985974
15045.4214246
14953.6426762
14863.6779302
14775.5529098
14689.2909904
14604.9133237
14522.4389564
14441.8849436
14363.2664581
14286.5968958
14211.8879774
14139.1498463
14068.3911646
13999.6192057
13932.8399442
13868.0581436
13805.2774421
13744.5004357
13685.7287593
13628.9631661
13574.2036043
13521.4492926
13470.6987931
13421.9500825
13375.2006207
13330.4474184
13287.6871014
13246.9159734
13208.1300766
13171.3252496
13136.4971834
13103.641475
13072.753678
13043.8293518
13016.8641068
12991.8536483
12968.7938173
12947.6806279
12928.5103031
12911.279307
12895.9843742
12882.6225374
12871.1911533
12861.6878828
12854.1109136
12848.456996
12844.7978888
12842.019224
19787.8138215
19791.0884089
19768.4730325
19736.3160358
19693.7213295
19641.4966883
19580.3305402
19510.9842015
19434.2250368
19350.8076188
19261.4557489
19166.8515409
19067.6292684
18964.3729382
18857.6164785
18747.8456607
18635.5010707
18520.9816306
18404.6483222
18286.827882
18167.8163227
18047.8822006
17927.2695904
17806.2007574
17684.8785331
17563.4884144
17442.2004089
17321.1706524
17200.5428128
17080.4492911
16961.012526
16842.3469128
16724.5572404
16607.7395581
16491.9838893
16377.3737189
16263.9866174
16151.8946492
16041.1647661
15931.8591558
15824.0355557
15717.7475357
15613.0447546
15509.9731932
15408.5753673
15308.890523
15210.9548174
15114.8014859
15020.460998
14927.9612028
14837.327467
14748.5828037
14661.7479958
14576.841713
14493.8806238
14412.879503
14333.8513352
14256.807415
14181.7574434
14108.7096221
14037.6707447
13968.6462859
13901.6404879
13836.6564455
13773.6961889
13712.7607642
13653.8503131
13596.9641497
13542.1008362
13489.2582568
13438.4336893
13389.6238754
13342.825089
13298.0332023
13255.2437502
13214.4519927
13175.6529747
13138.8415845
13104.0126092
13071.160788
13040.2808639
13011.3676317
12984.4159841
12959.4209558
12936.3777637
12915.2818455
12896.128895
12878.9148948
12863.6361459
12850.2892949
12838.8713614
12829.3797129
12821.8123236
12816.1653981
12812.5201276
12809.6256363
19918.8426594
19923.7861005
19898.7067286
19863.3444677
19816.6031381
19759.5050435
19692.8985771
19617.7059173
19534.8372154
19445.1696314
19349.5280959
19248.6754466
19143.3083736
19034.057582
18921.4906404
18806.1163923
18688.3901276
18568.7189724
18447.4671534
18324.9609365
18201.4931352
18077.327149
17952.7005353
17827.8281363
17702.9048007
17578.1077411
17453.598571
17329.5250617
17206.0226319
17083.2156517
16961.2190308
16840.1399825
16720.0756173
16601.1147914
16483.3410685
16366.8316713
16251.6581998
16137.8870337
16025.5797212
15914.793316
15805.5806793
15697.9907496
15592.0687862
15487.8565894
15385.3927013
15284.7125887
15185.8488122
15088.8311825
14993.6869052
14900.440717
14809.1150131
14719.7299681
14632.3036503
14546.8521313
14463.3895905
14381.9284162
14302.4793025
14225.0513438
14149.6521267
14076.2878185
14004.9632546
13935.682024
13868.4465518
13803.2581813
13740.117254
13679.0231878
13619.9745544
13562.9691542
13508.0040904
13455.0758417
13404.1803327
13355.3130031
13308.4688752
13263.6426199
13220.8286201
13180.0210328
13141.2138492
13104.4009524
13069.5761732
13036.7333435
13005.8663477
12976.969171
12950.0359462
12925.0609969
12902.038879
12880.964419
12861.8327497
12844.6393429
12829.3800395
12816.0510772
12804.6491178
12795.1712163
12787.6151228
12781.9764382
12778.3465032
12775.3296548
20062.6800811
20069.6168995
20041.5302421
20002.2888791
19950.567107
19887.6745816
19814.6681674
19732.672348
19642.7698293
19545.980048
19443.2403528
19335.3992343
19223.2162274
19107.3662097
18988.4460962
18866.9826007
18743.4401965
18618.2287553
18491.7105833
18364.2067261
18236.0025167
18107.3523942
17978.4840511
17849.6019827
17720.8905123
17592.5163634
17464.6308483
17337.3717157
17210.8646636
17085.2248275
16960.5594269
16836.9663964
16714.5338255
16593.3438316
16473.4725873
16354.9904977
16237.9627009
16122.4494699
16008.5065754
15896.1856051
15785.5342466
15676.5965396
15569.4131027
15464.0213368
15360.4556102
15258.7474276
15158.9255845
15061.0163107
14965.0434028
14871.028349
14778.9904453
14688.9469071
14600.9129736
14514.9020091
14430.9255995
14348.9936461
14269.1144557
14191.2948293
14115.5401478
14041.8544562
13970.2405458
13900.700036
13833.233453
13767.8403086
13704.5191775
13643.2677728
13584.0830212
13526.9611362
13471.8976907
13418.8876878
13367.9256307
13319.0055906
13272.121274
13227.2660874
13184.4332009
13143.6156098
13104.8061949
13067.9977794
13033.1831856
13000.355288
12969.5070645
12940.6316457
12913.7223614
12888.7727843
12865.7767716
12844.7285036
12825.62252
12808.4537525
12793.2175556
12779.9097338
12768.5265704
12759.064791
12751.5219101
12745.8928587
12742.2798649
12739.1342249
20220.8164677
20230.143579
20198.3333719
20154.3356841
20096.5681017
20026.729982
19946.1511247
19856.2096462
19758.1943138
19653.286245
19542.5437932
19426.9021889
19307.1801017
19184.0901204
19058.2507315
18930.1983817
18800.3988131
18669.2572824
18537.1275253
18404.3194787
18271.1058525
18137.7276759
18004.3989528
17871.310559
17738.6334986
17606.5216264
17475.1139243
17344.5363883
17214.9035732
17086.3203469
16958.8846482
16832.684153
16707.7976688
16584.2994387
16462.2577638
16341.7357086
16222.7914936
16105.4788812
15989.8475086
15875.9431817
15763.8081335
15653.4812536
15544.9982934
15438.3920501
15333.6925325
15230.9271131
15130.1206663
15031.2956963
14934.4724567
14839.6690611
14746.9015886
14656.1841832
14567.5291489
14480.947041
14396.4467546
14314.0356098
14233.7194354
14155.5026505
14079.3883446
14005.3783562
13933.4733511
13863.6728983
13795.9755465
13730.3788989
13666.8796873
13605.4738457
13546.1565827
13488.9224533
13433.7654294
13380.6789701
13329.6560895
13280.689425
13233.7713028
13188.8938026
13146.0488214
13105.228134
13066.4234538
13029.62649
12994.8290035
12962.0228611
12931.2000866
12902.3529104
12875.4738162
12850.5555853
12827.5913383
12806.5745744
12787.4992074
12770.3595995
12755.1505917
12741.8675318
12730.5063039
12721.0632843
12713.5357424
12707.9178734
12704.3235379
12701.04278
20395.104989
20407.3079687
20370.8060679
20320.8854353
20255.6888515
20177.450405
20087.8573951
19988.6030017
19881.2169141
19767.0577601
19647.307511
19522.9825945
19394.9508057
19263.950486
19130.6093766
18995.4619047
18858.9643706
18721.5079372
18583.4295448
18445.0209803
18306.5363548
18168.1982462
18030.2027315
17892.7235099
17755.9152829
17619.916532
17484.8518006
17350.8335304
17217.9636531
17086.3358899
16956.0375628
16827.1446895
16699.7265028
16573.8484498
16449.5704788
16326.9478194
16206.0313451
16086.8679293
15969.5007435
15853.9695182
15740.310772
15628.558013
15518.7419179
15410.8904932
15305.0292191
15201.1811812
15099.3671906
14999.6058953
14901.9138834
14806.3057801
14712.7943397
14621.3905328
14532.1036308
14444.941287
14359.9096152
14277.0132675
14196.25551
14117.6382972
14041.1623464
13966.8272105
13894.6313514
13824.5722115
13756.6462863
13690.8491958
13627.1757557
13565.6200483
13506.1754929
13448.8349155
13393.5906184
13340.4344484
13289.3578644
13240.3520043
13193.4077505
13148.5157941
13105.6666979
13064.8509582
13026.0590639
12989.2815553
12954.5090794
12921.7324449