/*--------------------------------*- C++ -*----------------------------------*\
| =========                 |                                                 |
| \\      /  F ield         | OpenFOAM: The Open Source CFD Toolbox           |
|  \\    /   O peration     | Version:  v1906                                 |
|   \\  /    A nd           | Web:      www.OpenFOAM.com                      |
|    \\/     M anipulation  |                                                 |
\*---------------------------------------------------------------------------*/
FoamFile
{
    version     2.0;
    format      ascii;
    class       volScalarField;
    location    "374";
    object      pa;
}
// * * * * * * * * * * * * * * * * * * * * * * * * * * * * * * * * * * * * * //

dimensions      [0 2 -2 0 0 0 0];


internalField   nonuniform List<scalar> 
9216
(
981.781430378
981.41857602
980.681243464
979.566343354
978.077499096
976.219039449
973.996296258
971.415717735
968.484575854
965.21115985
961.604429383
957.674255607
953.431021083
948.885909712
944.050460073
938.936907214
933.557696658
927.925880353
922.054598409
915.957529394
909.64834557
903.14121563
896.450238122
889.589991768
882.574950155
875.420072576
868.140202403
860.750688847
853.266770694
845.704217829
838.078703017
830.406449658
822.703591808
814.986816378
807.272714891
799.578403301
791.920868131
784.317550028
776.785688567
769.342856178
762.006306797
754.793449918
747.721208852
740.806428132
734.065245149
727.513428787
721.165764182
715.036326155
709.137872228
703.482064889
698.078869331
692.936757014
688.062117852
683.459503821
679.13108873
675.077027642
671.29500922
667.78078582
664.527837677
661.528063505
658.771524234
656.247221157
653.942861155
651.845643585
649.942021541
648.21845691
646.661169567
645.256824156
643.992251024
642.855036839
641.833211133
640.915733099
640.092149007
639.352983332
638.689381358
638.093423488
637.557772438
637.075930697
636.6419071
636.250430669
635.896639302
635.576242113
635.285197515
635.019058665
634.779532737
634.573312079
634.400925572
634.26066519
634.151742679
634.070653267
634.013016889
633.973349069
633.946663848
633.930389968
633.922164828
633.919288293
982.143684698
981.779676907
981.041097431
979.923133327
978.42998861
976.566113144
974.336955839
971.74899805
968.809617176
965.527126589
961.91060235
957.969934529
953.715630373
949.158883218
944.311359087
939.185288177
933.793241198
928.148247357
922.263565802
916.152832427
909.829830355
903.308665794
896.603539668
889.728950394
882.699466983
875.529954463
868.235347324
860.830891552
853.331916432
845.754085986
838.113166429
830.425278174
822.706657142
814.973898701
807.243708176
799.533127483
791.859272897
784.239534801
776.691300967
769.232121719
761.879418626
754.650609833
747.562805506
740.632890607
733.877208511
727.311600416
720.951076631
714.809813636
708.900810655
703.23585025
697.825141859
692.677266392
687.798826051
683.194420669
678.866352363
674.814706966
671.037176792
667.529307358
664.284465526
661.294241984
658.548522846
656.035967766
653.744102182
651.659792628
649.769327865
648.058869928
646.514513364
645.122680786
643.870133424
642.744285667
641.733156747
640.825600503
640.011203145
639.280437411
638.624521724
638.035519633
637.506182602
637.03001616
636.601123486
636.214253917
635.864661181
635.54815501
635.26102164
635.000127877
634.763474673
634.557852788
634.38797825
634.251028426
634.143395227
634.062894628
634.006781699
633.968278355
633.941979099
633.926559634
633.919164514
633.91616117
982.882133634
982.514947607
981.772132726
980.647809986
979.146228118
977.271885598
975.030338391
972.428160181
969.472861321
966.172860899
962.537383081
958.576427512
954.300654499
949.721360396
944.850358631
939.699965973
934.282885457
928.612208461
922.701304537
916.563842596
910.213690861
903.664958474
896.931906728
890.029009919
882.970876806
875.772327518
868.448322583
861.014051024
853.484863185
845.876364277
838.204347012
830.484883257
822.734251403
814.969020408
807.205965752
799.462137489
791.754759979
784.10127657
776.519228717
769.026271512
761.640029827
754.378081582
747.257790907
740.296258396
733.510132157
726.915525043
720.52780297
714.361467599
708.429918334
702.745299276
697.318234036
692.157647778
687.270493861
682.661595603
678.33342472
674.286049347
670.517055642
667.02168181
663.792928322
660.821868658
658.097889922
655.609074212
653.34244063
651.284297976
649.420465618
647.736609982
646.218442094
644.852003466
643.62379795
642.520996019
641.53149146
640.64402424
639.848168919
639.13438635
638.493960354
637.919004024
637.402373326
636.937652031
636.519061283
636.141438545
635.800158352
635.491127108
635.210758771
634.956020567
634.724198394
634.523770744
634.362129593
634.231711621
634.12653836
634.048260658
633.995077726
633.957834757
633.933183006
633.918991318
633.911450173
633.907685138
984.004221126
983.633363085
982.884026487
981.749919372
980.235378224
978.34499972
976.084481761
973.460553151
970.480907651
967.154148211
963.489704168
959.497769819
955.189214922
950.575524106
945.668707722
940.481248627
935.026019726
929.316243714
923.365422429
917.187313576
910.795875167
904.205260959
897.429780751
890.483913676
883.382282648
876.139682339
868.771064188
861.291574408
853.716545004
846.061536359
838.342329813
830.57496775
822.775741369
814.961223891
807.148246268
799.353914877
791.595569044
783.89077595
776.257264072
768.712889868
761.275543817
753.963086688
746.79322817
739.783433491
732.95077645
726.311817318
719.882429604
713.677645548
707.711449308
701.996580435
696.54428369
691.364068259
686.463426254
681.847587152
677.519278203
673.478587889
669.722901745
666.247003494
663.043260532
660.101953103
657.411633759
654.959523534
652.731820731
650.71401422
648.891157467
647.248185716
645.770180707
644.442633158
643.251622461
642.18398288
641.227393491
640.370458774
639.602720027
638.914658167
638.29764397
637.743898568
637.246422473
636.798943789
636.395844103
636.03210583
635.703245632
635.40527029
635.134638672
634.88794451
634.664333284
634.474874179
634.32283933
634.199129011
634.101335122
634.02817392
633.976232088
633.941041966
633.918311785
633.904623642
633.896932521
633.893141408
985.512948888
985.137376752
984.379219559
983.231852953
981.69975069
979.787658327
977.501464188
974.848114587
971.835548218
968.472626614
964.769053328
960.735297469
956.382507731
951.722435673
946.767351976
941.52997654
936.023403804
930.261045953
924.25657299
918.023873719
911.577014139
904.930218339
898.097845915
891.094391791
883.934480369
876.63288069
869.204512971
861.664474056
854.028051184
846.310752228
838.528322249
830.696771204
822.832386285
814.951753549
807.071757928
799.20958916
791.38272231
783.608899872
775.906085591
768.292416684
760.786127031
753.405467759
746.168600645
739.093489777
732.197769092
725.498608165
719.012554348
712.755367155
706.741822763
700.985495871
695.498501633
690.291202385
685.371878455
680.746390922
676.417862619
672.386452567
668.649259082
665.200415675
662.031346397
659.131177796
656.487251603
654.085604956
651.911308951
649.948742959
648.181890629
646.594683971
645.171325069
643.896565072
642.755902497
641.735736127
640.823458631
640.007518483
639.277426556
638.623724642
638.037915471
637.512392055
637.040357018
636.615750695
636.233172467
635.887811373
635.57537289
635.292008732
635.034244397
634.798170041
634.586922121
634.411641896
634.270953064
634.156690742
634.065145498
633.99713518
633.949509306
633.916855967
633.895241994
633.882072223
633.874458523
633.870664699
987.412956474
987.03147425
986.262130222
985.097919489
983.543504248
981.603831784
979.285038187
976.594353853
973.540032915
970.131273545
966.378131804
962.291434439
957.882688025
953.163991424
948.14794815
942.847586267
937.276281551
931.447691955
925.375698069
919.074357661
912.557867655
905.840541279
898.93679225
891.861133284
884.628179499
877.252663837
869.74945434
862.133580696
854.420259637
846.624926891
838.763266473
830.851240485
822.905115044
814.941485218
806.977288436
799.029813576
791.116693502
783.255888554
775.465649222
767.764466706
760.171000874
752.703996422
745.38217833
738.224139172
731.248209912
724.472325794
717.913876247
711.589544075
705.515116574
699.705263624
694.173261373
688.930651842
683.986835231
679.34861
675.019715768
671.000470373
667.287592623
663.874313926
660.750711155
657.90426423
655.320643766
652.984354885
650.879051284
648.98769951
647.292876529
645.777192575
644.423699619
643.216205265
642.139479116
641.179386594
640.322975789
639.558529256
638.875558425
638.264728937
637.717748844
637.227259879
636.786741647
636.390422705
636.033192097
635.71051775
635.41836877
635.153140676
634.911584966
634.690092195
634.495086943
634.335477295
634.20516897
634.099159855
634.016680437
633.957418173
633.913575394
633.883185939
633.863353636
633.849761379
633.841987726
633.83805882
989.710054733
989.321369681
988.538362664
987.353567423
985.771885503
983.798521221
981.439922517
978.703676914
975.598432961
972.133810462
968.320305221
964.169191173
959.692420521
954.902525693
949.812523573
944.435825853
938.786155856
932.877475507
926.723922408
920.339760102
913.739340541
906.937080801
899.947451722
892.784979355
885.464255757
877.999959384
870.406881264
862.69995735
854.894303548
847.005254125
839.048401934
831.039635264
822.995176148
814.931614027
806.86593187
798.815523801
790.798199113
782.832171638
774.93603006
767.128689396
759.429321237
751.85726573
744.431925657
737.172648685
730.098599446
723.228627569
716.581129083
710.173899113
704.023963082
698.147362654
692.558877203
687.271632345
682.296597391
677.641950264
673.312397466
669.308575148
665.626724995
662.258845807
659.193103311
656.4146022
653.906732935
651.652131077
649.632825915
647.83006051
646.224599643
644.797339187
643.529870005
642.404849366
641.406180501
640.519108677
639.73028892
639.027843055
638.401350731
637.841707704
637.340934203
636.892018263
636.488805823
636.125901931
635.798566384
635.502624155
635.234378472
634.99052462
634.767887267
634.564481885
634.388206952
634.244007125
634.12584578
634.031330583
633.959352502
633.905968981
633.865936717
633.837842713
633.819771941
633.806561367
633.798889127
633.795073888
992.411326357
992.014058233
991.214775033
990.005456157
988.39129724
986.377819847
983.971855557
981.181430313
978.015675782
974.484727728
970.59961918
966.372170183
961.814876276
956.940798396
951.763456152
946.296727357
940.554755714
934.55186957
928.302513268
921.821193431
915.122440576
908.220787022
901.130759741
893.8668875
886.443719416
878.87585346
871.177971734
863.36488153
855.451559781
847.453200699
839.385266804
831.263536085
823.104153275
814.923676486
806.73911719
798.567971257
790.428235442
782.338407086
774.317461576
766.384807401
758.560215353
750.863726294
743.315537775
735.935879838
728.744882842
721.762450131
715.008133368
708.50101462
702.259572672
696.301512293
690.643501154
685.300758767
680.286437615
675.610754945
671.279953244
667.295282593
663.652393743
660.341622909
657.348424059
654.654314507
652.239525501
650.084624167
648.170058952
646.475043216
644.977967144
643.657475077
642.493339184
641.466867213
640.560997549
639.760287627
639.0509467
638.420954961
637.86008254
637.359634857
636.912102181
636.510933413
636.150441902
635.825711205
635.532463707
635.266968843
635.025958621
634.80654271
634.605877152
634.423241534
634.267564451
634.139627933
634.035386884
633.952822266
633.889853365
633.841514888
633.806686703
633.780905855
633.763522073
633.752430833
633.744869651
633.741349461
995.525204011
995.117876044
994.299536878
993.061510551
991.409347818
989.34895537
986.887629435
984.033926317
980.797560842
977.189290895
973.220796205
968.904553747
964.253711859
959.281966027
954.003438543
948.432565017
942.583990429
936.472477702
930.112831566
923.5198399
916.708234167
909.692669173
902.487721483
895.107904263
887.567695859
879.881578629
872.064085227
864.129849802
856.093662979
847.970529635
839.775731979
831.524888494
823.234020723
814.919615645
806.598683395
798.288805258
790.00816701
781.775571705
773.610427416
765.532705602
757.56286899
749.721770021
742.030525403
734.510376639
727.182548205
720.068120408
713.187923644
706.562463627
700.211855977
694.155737907
688.413089989
683.001846591
677.938190295
673.235393205
668.902171727
664.940965394
661.346614528
658.107358275
655.204771411
652.614531763
650.312289535
648.27683268
646.487802441
644.922013472
643.554536612
642.360964285
641.318821815
640.407949645
639.610314711
638.909741501
638.291917098
637.744663328
637.258169706
636.82446661
636.436745849
636.089031669
635.776200686
635.493940001
635.238528133
635.006765159
634.795902014
634.603543829
634.427183225
634.268018657
634.133981767
634.023025561
633.933224554
633.862545662
633.80796758
633.7663485
633.735206826
633.712808348
633.696774893
633.687592445
633.680179401
633.677080881
999.061560068
998.642581651
997.802206574
996.530992355
994.8349153
992.720344725
990.195134474
987.268475904
983.950781015
980.253549998
976.189233257
971.771089675
967.013044
961.929545849
956.535433046
950.845802323
944.875890737
938.640971558
932.156268172
925.436889325
918.49778772
911.353742769
904.019366207
896.509127802
888.837396732
881.01849408
873.066751981
864.996576759
856.822514683
848.559320698
840.222033603
831.826048784
823.387202368
814.921853492
806.446963623
797.980167434
789.539827469
781.145065866
772.815764852
764.572531186
756.436619652
748.429818323
740.574300024
732.892456509
725.40673227
718.139488318
711.112913737
704.349010177
697.869629061
691.696546602
685.851452611
680.355725077
675.229747278
670.491375148
666.153499695
662.220762902
658.686708233
655.537269309
652.748732563
650.28613911
648.117875178
646.222838731
644.582517681
643.170578155
641.956863194
640.912585661
640.012600395
639.23539232
638.56215363
637.976008066
637.461870587
637.007283804
636.603251414
636.243154746
635.921226401
635.632105805
635.371282094
635.135229028
634.920867986
634.725603808
634.547311728
634.384190745
634.234277333
634.100180741
633.987248911
633.89362585
633.819062947
633.760997441
633.715830694
633.680851546
633.653115792
633.632957521
633.619845711
633.611809975
633.605296699
633.602447865
1003.03181192
1002.59945695
1001.73382534
1000.42458666
998.678223769
996.501659082
993.903411207
990.893427314
987.482946923
983.68434977
979.510997666
974.977073314
970.097418065
964.887371607
959.36261583
953.539026375
947.432535821
941.059013192
934.434164981
927.573462018
920.492095825
913.204965286
905.72669252
898.071663322
890.254086138
882.288062083
874.187660012
865.966992542
857.640292624
849.221992387
840.726809922
832.169836599
823.566641547
814.933377447
806.28688781
797.644807063
789.025644573
780.448841647
771.934791514
763.504811789
755.18106376
746.986416005
738.944260633
731.078299295
723.412330266
715.970078952
708.775114418
701.850897993
695.220974653
688.90928008
682.940492314
677.340188877
672.134426007
667.348147045
663.001314775
659.103107532
655.643570011
652.607952325
649.966271197
647.661670638
645.649376847
643.915088033
642.449637045
641.220930102
640.189292673
639.31936451
638.583147726
637.958485711
637.42651655
636.969724028
636.571657611
636.218949578
635.904232113
635.623576558
635.372743103
635.146728585
634.941508713
634.754744842
634.584039034
634.427417476
634.283522646
634.151224271
634.029340408
633.920865216
633.829207148
633.75439044
633.695388878
633.648812219
633.611909983
633.583173862
633.560760603
633.543679635
633.532170141
633.525407259
633.520553482
633.5179135
1007.4490474
1007.0014264
1006.10703094
1004.75450512
1002.95093463
1000.70390054
998.02271174
994.918210801
991.402615166
987.489340891
983.192821762
978.528325527
973.511769858
968.159539763
962.488308805
956.51486743
950.255963187
943.728159101
936.94771718
929.930513956
922.691993262
915.247158574
907.61060303
899.796570966
891.819041153
883.691820534
875.428638718
867.043237839
858.549458007
849.96132376
841.293139856
832.559593317
823.775880566
814.957842128
806.12210497
797.286221464
788.468792438
779.689560622
770.969458493
762.330596108
753.796175614
745.390326862
737.13786862
729.064017878
721.194088327
713.553245076
706.166387716
699.058258634
692.253790859
685.778797353
679.660835091
673.930194473
668.620412522
663.767196392
659.403289428
655.547807976
652.178777303
649.289070638
646.845444733
644.740399023
642.900762544
641.341065027
640.081144738
639.073253249
638.258267671
637.59079164
637.040957432
636.588082381
636.215022368
635.903819593
635.634991319
635.392169329
635.171240528
634.974299505
634.799291776
634.640335711
634.493258548
634.358134446
634.233041191
634.116461151
634.00809688
633.90745407
633.814216382
633.731725393
633.662338445
633.606627828
633.561786456
633.52568073
633.496907621
633.474912761
633.457838806
633.445364858
633.435918905
633.42997917
633.427250592
633.425221212
1012.32817493
1011.86320333
1010.93619285
1009.53460934
1007.66625391
1005.3394923
1002.56457067
999.353390348
995.719320146
991.676992497
987.24209582
982.431166381
977.261379974
971.750344964
965.915897255
959.775900649
953.348058035
946.649741633
939.697852573
932.508719887
925.098047861
917.480915687
909.671827892
901.684806181
893.533507762
885.231351928
876.791639229
868.227654953
859.552758964
850.780473278
841.924581565
832.99924412
824.01914997
814.999686983
805.957129059
796.908825915
787.873379559
778.870788775
769.922540228
761.051622586
752.282442405
743.640624536
735.152697816
726.845682262
718.746640695
710.882275307
703.278715006
695.961600533
688.956633509
682.290607506
675.993128891
670.098891192
664.650347311
659.699422495
655.302730546
651.50505094
648.23730029
645.534479219
643.38093989
641.540830931
639.867241086
638.478254562
637.469268069
636.7380475
636.183657566
635.748597935
635.405678267
635.141367161
634.943723039
634.795372283
634.670156882
634.542643424
634.414584895
634.303329667
634.209326723
634.12151922
634.033300891
633.95144933
633.87339377
633.797289053
633.724892735
633.656012782
633.591874249
633.534982684
633.487719233
633.44900883
633.417699362
633.39273279
633.373400973
633.358614125
633.346963898
633.338546468
633.332543686
633.327831451
633.327284814
633.325898326
1017.68610202
1017.20145887
1016.23757361
1014.78055567
1012.83905876
1010.42238292
1007.5418869
1004.21072195
1000.4436099
996.256605471
991.666859513
986.69238426
981.351820354
975.66420367
969.648731036
963.324526898
956.71041732
949.824722408
942.685081771
935.308329045
927.71042963
919.906489879
911.91083663
903.737154034
895.398654041
886.908250676
878.27871167
869.522773709
860.653226943
851.682990789
842.625206547
833.49336094
824.301465617
815.064271068
805.797511372
796.518160672
787.24468163
777.997242609
768.79787405
759.670530559
750.641021529
741.736778439
732.986438926
724.4192619
716.064432083
707.950390086
700.104365702
692.55237409
685.319778059
678.4327281
671.920580816
665.820155863
660.182030811
655.080626863
650.617805191
646.92205986
643.736576274
641.274506361
639.603291589
638.136132184
636.440951866
635.024782653
634.312849556
633.968525653
633.761537331
633.614314112
633.518794515
633.48337072
633.512090785
633.591203785
633.674119407
633.688354778
633.645176034
633.618694867
633.613161818
633.601810527
633.567979155
633.540740659
633.511388008
633.474596994
633.437998931
633.399988254
633.364087112
633.331878823
633.304812009
633.282750491
633.265098052
633.252294071
633.242841749
633.235435072
633.229741537
633.225794899
633.222921428
633.220798845
633.221651165
633.221063865
1023.5419498
1023.03503071
1022.02951925
1020.50996715
1018.48604398
1015.96816673
1012.96901571
1009.50321887
1005.58708495
1001.23832678
996.475791698
991.319200977
985.7888931
979.905565296
973.690007432
967.162828555
960.34418289
953.25351006
945.909311193
938.328985376
930.528750319
922.52366253
914.327738727
905.954160555
897.415525185
888.72409234
879.891980704
870.931290229
861.854161607
852.672816388
843.399622894
834.047220757
824.628730688
815.158024469
805.650043599
796.121142661
786.589433496
777.075103889
767.600672815
758.191135509
748.873940377
739.678736884
730.636846287
721.780433593
713.141447359
704.75047996
696.635861153
688.82333032
681.336505684
674.198242316
667.433495729
661.074939483
655.174301845
649.828148588
645.214271134
641.754075974
638.277109964
635.785186482
635.183179181
634.630082265
634.050217141
633.761383183
633.660112455
633.619768992
633.577365501
633.521213165
633.466966049
633.425512946
633.384832759
633.303253873
633.119767786
632.874885014
632.773273256
632.836006128
632.972786922
633.088717738
633.100167517
633.132276954
633.155694484
633.152578989
633.151859645
633.142093226
633.132582406
633.123168448
633.115559334
633.110226673
633.107186115
633.106602419
633.106344385
633.106144769
633.107017495
633.108144206
633.109299308
633.110071455
633.111282263
633.112003852
1029.9173079
1029.38516166
1028.33268632
1026.74263357
1024.62589312
1021.99422035
1018.8618719
1015.24522196
1011.16243972
1006.63316391
1001.67819947
996.319233882
990.578562997
984.478811323
978.042634045
971.292396211
964.249836044
956.935732288
949.369606826
941.569500988
933.551864486
925.331586067
916.922174645
908.336067675
899.58500914
890.680412121
881.633622247
872.456035732
863.159096688
853.754256087
844.252977778
834.666850823
825.007836998
815.288614645
805.522994214
795.72637154
785.916196386
776.112429245
766.337943259
756.61880841
746.984371671
737.467033767
728.101611746
718.92421159
709.970623621
701.274447349
692.865383886
684.76842331
677.003891717
669.588264074
662.535831152
655.862873765
649.592431386
643.755380027
638.279560521
636.022849258
634.691178854
634.556162401
634.657971301
634.592527765
634.434178852
634.276098815
634.154315747
634.053990319
633.955490808
633.854753451
633.75529142
633.657066915
633.553109434
633.427226015
633.27334694
633.127978882
633.05045419
633.037341957
632.985834233
632.755991129
632.569258163
632.689045536
632.813122509
632.831786274
632.872508454
632.885163882
632.900728864
632.911276379
632.923295452
632.933664695
632.945630081
632.956019888
632.96437918
632.972673168
632.980833148
632.987421263
632.992777549
632.996431087
632.998661483
633.000598628
1036.83654289
1036.27579837
1035.17030969
1033.50074913
1031.27947454
1028.51985698
1025.23804084
1021.45247328
1017.18350354
1012.45299908
1007.28400708
1001.70045801
995.72688699
989.388144779
982.709071589
975.714121647
968.426944305
960.869947842
953.063891667
945.027565332
936.777618626
928.328596076
919.69320102
910.882764387
901.907829089
892.778706486
883.505846711
874.099931281
864.571734296
854.931918511
845.190923052
835.359048179
825.446756312
815.465123149
805.426379187
795.344498622
785.235820386
775.119687651
765.019059566
754.961018548
744.977053628
735.102965768
725.378191455
715.844342436
706.542844525
697.511899927
688.783395624
680.38149219
672.322384215
664.61428931
657.257435693
650.241264146
643.495065709
636.633096925
635.544198537
635.366845393
635.276963288
635.250019746
635.289436966
635.257404259
635.166207933
635.033919357
634.887753772
634.745105111
634.608743126
634.479722851
634.353985835
634.223742088
634.079304449
633.905759535
633.7006911
633.492809983
633.322462178
633.191729532
633.060648465
632.932090471
632.872559702
632.828653212
632.61793235
632.46242559
632.596270914
632.628595473
632.671981222
632.699707531
632.731059879
632.756237279
632.781952161
632.802564541
632.821182468
632.838486704
632.85370566
632.865949376
632.875159207
632.882112776
632.886004974
632.888924448
1044.32716684
1043.73393172
1042.56852369
1040.8091883
1038.4700686
1035.56649609
1032.11689535
1028.14218656
1023.66527731
1018.71060084
1013.30374725
1007.47117333
1001.23994779
994.637476335
987.691158977
980.427953585
972.873848533
965.053278971
956.988551138
948.699363339
940.202526832
931.511982942
922.6391776
913.593776508
904.384593344
895.020482697
885.510899276
875.865920287
866.095827535
856.210586328
846.219520828
836.13135437
825.954609038
815.698223564
805.372263832
794.988664037
784.562022255
774.11046643
763.656557234
753.22813476
742.85896256
732.588953042
722.463639847
712.532455562
702.845377322
693.448059515
684.376017272
675.652980371
667.29118362
659.29190477
651.641430147
644.265084469
636.610329022
635.733663491
635.960972926
636.101131605
636.139925984
636.129038722
636.119454358
636.083437931
636.006055487
635.886741533
635.741269032
635.585174027
635.426873718
635.269934235
635.110276367
634.941224717
634.755083056
634.542176607
634.302695667
634.056752236
633.830440481
633.625427295
633.41974034
633.21565212
633.046269475
632.904624982
632.794176618
632.736794524
632.600065309
632.348552248
632.436076427
632.488077771
632.543095091
632.579926227
632.620022239
632.650756324
632.679437709
632.705216854
632.727156718
632.745113433
632.758775542
632.768814702
632.774814917
632.778684309
1052.42028745
1051.79003075
1050.5567431
1048.69583589
1046.22362649
1043.15784902
1039.51970893
1035.33310561
1030.62395632
1025.41963025
1019.74855763
1013.6399869
1007.12380458
1000.23031963
992.989928595
985.43261438
977.587276623
969.480936814
961.137908224
952.579059709
943.82133647
934.877706572
925.757667316
916.468336397
907.015957224
897.407402864
887.651093515
877.756864478
867.734973973
857.59498132
847.345052826
836.991961944
826.541692386
816.000347375
805.375084118
794.675000089
783.912092385
773.102388321
762.2672313
751.434617434
740.640421685
729.929276481
719.354602188
708.976980154
698.859651701
689.060808258
679.621537889
670.565334273
661.901867242
653.626651851
645.679052826
637.540159969
636.49012426
636.706052863
636.966413296
637.054436072
637.073020881
637.068587609
637.056590518
637.02133606
636.949651013
636.838109295
636.694156325
636.527921128
636.349279056
636.161702357
635.963024029
635.750908281
635.520940552
635.268878296
634.997080838
634.718441475
634.448025762
634.188195424
633.92982532
633.673648573
633.434045019
633.210339422
633.005934236
632.835704241
632.696407758
632.61565913
632.496750139
632.270675321
632.353882823
632.402019598
632.462452295
632.500407286
632.537383071
632.572323687
632.602033708
632.626145135
632.64495534
632.657999041
632.666528184
632.671113843
1061.15114982
1060.47854235
1059.16812493
1057.19197384
1054.56907143
1051.32011362
1047.46975329
1043.04553009
1038.07692414
1032.5946339
1026.63018818
1020.21582581
1013.38448375
1006.16971929
998.605428305
990.725281412
982.561868003
974.145602217
965.503510243
956.658080265
947.626421686
938.420020376
929.045367718
919.505603419
909.802999821
899.94160526
889.928907161
879.775370507
869.492254482
859.089351938
848.573684234
837.949523153
827.219451996
816.385817339
805.451965132
794.423179644
783.307729421
772.118272858
760.873632216
749.600781013
738.336927052
727.131540206
716.047758876
705.161880964
694.558023715
684.316828579
674.486499534
665.088967014
656.127912638
647.549822722
638.844005
637.77302034
637.963806203
638.120361549
638.15519008
638.161315825
638.156400966
638.141637623
638.116636773
638.068254072
637.986211465
637.866126735
637.710372699
637.525259499
637.320079881
637.098731105
636.860899711
636.607128471
636.335995819
636.046641581
635.742040106
635.430185507
635.11955655
634.812852736
634.508338485
634.208299827
633.919417227
633.642242853
633.377111191
633.130394798
632.905168059
632.717715786
632.570481331
632.493140943
632.384073867
632.20209282
632.312059389
632.348385208
632.394074722
632.440910281
632.479547299
632.510341831
632.534232578
632.550852197
632.561736713
632.567022237
1070.55979736
1069.83854639
1068.44011831
1066.33275342
1063.5386483
1060.082175
1055.99235238
1051.30127556
1046.04268663
1040.25101147
1033.9610269
1027.20800808
1020.0280484
1012.45825243
1004.53658345
996.301247092
987.789594625
979.036611516
970.073140857
960.924078382
951.606892925
942.130938061
932.498093296
922.705163415
912.748005076
902.626361106
892.347180838
881.923479313
871.369589863
860.696767211
849.91090989
839.012840373
828.000388805
816.870927704
805.622990958
794.256960303
782.775964544
771.187543828
759.506035046
747.755347281
735.972109766
724.209486028
712.541337277
701.06529489
689.898598168
679.166493641
668.923398297
659.178845311
649.878273772
640.500783606
639.403756782
639.665205656
639.753082069
639.629471432
639.51277146
639.439975832
639.387826008
639.339195345
639.282558434
639.204227386
639.094252031
638.947363047
638.763416359
638.546809709
638.306323746
638.046243153
637.767402143
637.472341662
637.161739947
636.836466674
636.499239565
636.154996516
635.808657699
635.462677735
635.118015892
634.777303478
634.444460565
634.121425895
633.810146932
633.51402635
633.234504469
632.97782617
632.752718149
632.576265249
632.445991097
632.36695381
632.251360587
632.180752403
632.246910882
632.313888309
632.362315547
632.399298
632.427801149
632.448335677
632.461230692
632.467439727
1080.69185152
1079.91455214
1078.41512352
1076.1577662
1073.16835477
1069.4758018
1065.11484971
1060.1235022
1054.54069331
1048.40493358
1041.75415739
1034.62641545
1027.06081014
1019.09817293
1010.78115755
1002.15359127
993.259070821
984.138884792
974.829430489
965.35940382
955.747224153
945.999400806
936.110822046
926.068026224
915.856016588
905.46736215
894.909480215
884.202061359
873.366574141
862.417911133
851.360693833
840.190446055
828.897934961
817.473949146
805.911351623
794.204620696
782.350079462
770.347808655
758.204890618
745.938989583
733.582433427
721.188258778
708.838993563
696.658545386
684.815137069
673.536452495
662.86501944
652.72419501
642.565623623
641.367962737
641.693420775
641.780832628
641.512806089
641.207523411
640.987390048
640.83880996
640.728727567
640.632050401
640.530071365
640.407696754
640.254607664
640.064960458
639.837595817
639.576446753
639.290454681
638.984126882
638.659589124
638.320963178
637.970362294
637.609404819
637.240132515
636.865343313
636.487721834
636.109016746
635.730611112
635.354680543
634.983925578
634.620670857
634.267615887
633.928021496
633.604873349
633.302739237
633.026664471