/*--------------------------------*- C++ -*----------------------------------*\
| =========                 |                                                 |
| \\      /  F ield         | OpenFOAM: The Open Source CFD Toolbox           |
|  \\    /   O peration     | Version:  v1906                                 |
|   \\  /    A nd           | Web:      www.OpenFOAM.com                      |
|    \\/     M anipulation  |                                                 |
\*---------------------------------------------------------------------------*/
FoamFile
{
    version     2.0;
    format      ascii;
    class       surfaceScalarField;
    location    "132";
    object      phia;
}
// * * * * * * * * * * * * * * * * * * * * * * * * * * * * * * * * * * * * * //

dimensions      [0 3 -1 0 0 0 0];
oriented        oriented;


internalField   nonuniform List<scalar> 
18240
(
0.000930010062492
-0.000936909594736
0.00179649569956
-0.000873687450025
0.00269194164297
-0.000901382394373
0.00359000689562
-0.000905477516964
0.00448625620657
-0.000901807427931
0.00537393591478
-0.000895175190934
0.00625429018268
-0.000885468805967
0.00712144345749
-0.000874626095107
0.00797802430332
-0.000861202871345
0.00881773019734
-0.00084706079923
0.00964398461224
-0.000830346456575
0.0104499506229
-0.000813121170748
0.0112396732403
-0.000793268907872
0.0120058431775
-0.000773055116825
0.0127530035752
-0.000750152206272
0.013473442174
-0.000726995711739
0.0141720807281
-0.000701084282736
0.0148408836387
-0.000674984865839
0.0154850327597
-0.000646059955572
0.0160962317112
-0.00061697055938
0.0166798103215
-0.000584979562632
0.017227281679
-0.000552807594331
0.0177440259444
-0.000517659751494
0.0182214399848
-0.000482300099047
0.0186648848498
-0.000443909604842
0.0190657214218
-0.000405265372352
0.0194292410719
-0.000363564731796
0.0197468591725
-0.000321589747975
0.0200237891953
-0.000276593562495
0.020251620503
-0.000231350144488
0.0204355131351
-0.000183207052899
0.0205673683126
-0.000134929329656
0.0206523546497
-8.39888668884e-05
0.0206828759664
-3.31602499059e-05
0.0206642297945
1.99245790364e-05
0.0205895043461
7.25109716734e-05
0.0204642578347
0.000126771092036
0.0202824937505
0.000179963679052
0.0200501829894
0.000234052354071
0.0197624599284
0.00028632593559
0.0194258493983
0.00033853636837
0.0190368045122
0.000388040220112
0.0186024890765
0.000436396760029
0.0181207915866
0.000481072483144
0.0175995382305
0.000523457414778
0.0170380744491
0.000561202269081
0.0164447818487
0.000595588374822
0.0158203454587
0.000624515737852
0.0151734875759
0.00064920991636
0.0145059793885
0.000667897537602
0.0138265432135
0.000681809278606
0.0131376440508
0.000689558286368
0.0124475722245
0.000692428313134
0.011759011157
0.000689442760369
0.0110793654362
0.000681951722386
0.0104110500038
0.000669369693808
0.00976018937703
0.000653085998035
0.00912854319699
0.000632825029992
0.00852072991997
0.0006099359265
0.00793765717946
0.000584333565628
0.00738242569485
0.000557236747399
0.00685509588654
0.000528637227297
0.00635742343335
0.000499553754544
0.00588877037736
0.000469978703491
0.00544981172699
0.000440714622221
0.00503940889347
0.000411724152352
0.00465743544445
0.000383606775631
0.00430244032145
0.00035629395559
0.00397373702448
0.000330218880058
0.00366971144895
0.00030528717825
0.00338932813836
0.000281787798105
0.00313094064832
0.000259600264833
0.00289333719672
0.000238904669796
0.0026749279815
0.000219565429555
0.00247444812194
0.000201687679485
0.00229041738561
0.000185127226228
0.00212160891109
0.000169933742007
0.00196669509072
0.000155948579595
0.00182462729111
0.000143119767435
0.00169456605122
0.000131033899444
0.00157676939142
0.000118785613409
0.00147477362721
0.000102919888569
0.00138861337834
8.71330197171e-05
0.00130562690697
8.39623366785e-05
0.00121765976504
8.90340163867e-05
0.00113128083741
8.74645482918e-05
0.00105623853096
7.6230884794e-05
0.000992327777479
6.52269672727e-05
0.000921380497381
7.24799304776e-05
0.000832520652871
9.06415409406e-05
0.000734644343299
9.99767748131e-05
0.000628583409854
0.000108450840297
0.000500617642825
0.00013064143187
0.000343390443987
0.000160216995332
0.000164357704334
0.000182393086083
0.000166051812112
0.000870080233937
-0.00181351175352
0.00187212308779
-0.00188287278278
0.00284587996603
-0.00188190948147
0.00380755130992
-0.00187427300303
0.00476130427567
-0.0018621396184
0.00570537861026
-0.00184624710985
0.00663981453016
-0.00182620476104
0.00756139724739
-0.00180299522479
0.00847016917779
-0.00177592199701
0.00936260802398
-0.00174599829382
0.0102390423755
-0.00171231947103
0.0110957596305
-0.00167598655608
0.0119333517092
-0.00163594806493
0.0127479429804
-0.00159339423543
0.0135403379682
-0.00154715498793
0.0143065221566
-0.00149849041255
0.0150474489621
-0.00144612151766
0.0157589756694
-0.00139135900141
0.0164421429092
-0.00133283481969
0.0170926881755
-0.00127188553341
0.0177116808325
-0.00120707891678
0.0182947575206
-0.0011397709915
0.0188429646805
-0.00106848424731
0.0193518501194
-0.000994592487189
0.019822410774
-0.000916614171279
0.0202501485739
-0.000835939901052
0.0206360077714
-0.000751116548228
0.0209755016525
-0.000663564852145
0.021269545
-0.000571901615746
0.0215137452062
-0.000477593637524
0.0217090424283
-0.000379367417797
0.0218512597874
-0.000278771720439
0.0219414808563
-0.000174696975189
0.021975895157
-6.88014070257e-05
0.0219558570995
3.98254347108e-05
0.0218781204967
0.000149398718517
0.0217444973927
0.000260582344198
0.021552518462
0.00037145236419
0.0213046402324
0.000482419589355
0.0209993855496
0.000591429964606
0.0206400341446
0.000698654398856
0.0202262873165
0.000801957213848
0.0197623822011
0.000901322180896
0.0192493062459
0.000994619469999
0.0186922806213
0.00108173210593
0.0180935906614
0.00116064141337
0.0174593744896
0.00123125403274
0.0167930795335
0.00129181032894
0.0161015343158
0.00134237231286
0.0153890664306
0.00138158096557
0.0146628341228
0.00140978804759
0.013927615839
0.00142616607395
0.0131904213733
0.00143145596497
0.0124559638218
0.00142541752236
0.0117305833065
0.00140920905753
0.0110184057878
0.00138314595495
0.0103246489838
0.00134872396025
0.00965243866139
0.00130667337946
0.00900558050234
0.00125864695044
0.00838600567913
0.00120555082886
0.00779608572132
0.00114895699839
0.00723661951934
0.00108972407598
0.00670871789147
0.00102918697385
0.00621225225899
0.000968024541959
0.00574735052829
0.000907269396124
0.00531320729157
0.000847393863978
0.00490923699415
0.00078914590788
0.0045341854331
0.000732808648807
0.00418699734646
0.000678888599406
0.00386616603824
0.000627511412308
0.00357036547081
0.000578981825885
0.00329798059308
0.000533303404821
0.00304756684269
0.000490624782981
0.0028175239389
0.000450850506989
0.00260640624784
0.000414028796161
0.00241269511895
0.000380006684962
0.00223499708771
0.000348778085954
0.00207184972648
0.000320193308773
0.00192182102025
0.000294223617552
0.00178316595199
0.000270719315894
0.00165333988353
0.000249625275005
0.00152687110805
0.000230365110034
0.00140411292595
0.000210864006077
0.00129422232402
0.000194842425025
0.00119846002645
0.000185837998217
0.00110797327862
0.000179042791534
0.00103142600372
0.00015396458035
0.000966949821355
0.000130996430778
0.000902754965555
0.000138132081457
0.000830433095617
0.000164711299068
0.000739173562492
0.000193326012668
0.000633482102902
0.000216425236327
0.00051396550871
0.000252749432677
0.000366918913711
0.000310287047486
0.000179991110881
0.000372506174038
0.000347529488745
0.000904591547307
-0.00272480338705
0.00188485168383
-0.00287021548409
0.00285926304519
-0.00286335383101
0.00382613608104
-0.00284819993287
0.00478517172727
-0.00282804092261
0.00573482654496
-0.00280277789269
0.00667413465952
-0.00277212759025
0.00760097658638
-0.00273644978976
0.00851428908198
-0.00269552628786
0.009411807248
-0.00264979353129
0.0102925559159
-0.00259897433958
0.0111542227481
-0.00254353726544
0.0119959439534
-0.00248314330102
0.0128153843776
-0.0024182809987
0.0136117680661
-0.00234854483884
0.0143827233365
-0.00227442352092
0.0151275359219
-0.00219545141163
0.0158437912869
-0.00211210406286
0.0165307879865
-0.00202384774745
0.0171860496507
-0.00193114052027
0.017808851027
-0.00183339571525
0.0183966394503
-0.00173105699378
0.0189486401545
-0.00162350583554
0.0194622207508
-0.00151118399376
0.0199365396144
-0.00139347481683
0.0203689037806
-0.00127084283735
0.0207584121099
-0.0011427055788
0.0211023438874
-0.00100958271464
0.0213997814378
-0.000870982219894
0.021648054702
-0.000727521652947
0.0218462992143
-0.000578840305608
0.0219919904653
-0.000425709683103
0.0220844314773
-0.000267977263743
0.0221213891309
-0.000106620508147
0.0221024930881
5.82481693598e-05
0.0220259968883
0.000225396074349
0.0218920507856
0.000394397025475
0.0216996128129
0.000563733059759
0.021449568394
0.000732653292267
0.0211417979651
0.000899364170562
0.0207781273538
0.00106281308876
0.0203595590504
0.00122099083978
0.0198890092789
0.00137263843638
0.019368719115
0.00151565574221
0.018802763121
0.00164870966584
0.0181946329662
0.00176977516052
0.0175495004552
0.00187763733985
0.0168719798304
0.00197056314428
0.0161681258017
0.00204767352754
0.0154433733281
0.00210775815067
0.0147042764382
0.00215048880732
0.0139566561229
0.00217535952659
0.0132070582005
0.00218276809222
0.0124611188365
0.00217303017258
0.0117248027688
0.00214730325362
0.0110029895802
0.00210668584698
0.0103005401279
0.00205297212254
0.00962112757524
0.00198782581294
0.00896817968308
0.0019133783706
0.00834396984482
0.00183148180889
0.00775046725002
0.0017442017141
0.00718865802654
0.00165321314879
0.00665927831574
0.00156025073164
0.00616229726809
0.0014666293821
0.00569752136563
0.00137366080712
0.00526419597093
0.00128227750568
0.00486148488705
0.00119339721137
0.00448815772964
0.00110762196412
0.00414296258946
0.0010255442165
0.00382438988659
0.000947493600215
0.0035309595083
0.000873790475001
0.00326105638696
0.000804536546084
0.00301313602464
0.000739840767324
0.00278560050379
0.000679636574522
0.00257695345548
0.000623891620921
0.00238567785869
0.000572456668136
0.00221035367123
0.000525242844727
0.00204953093183
0.000482118404212
0.00190173318757
0.000443091205759
0.00176516907488
0.000408320577526
0.00163711100594
0.000378693406222
0.00151221870426
0.000356241566193
0.00139328642557
0.000330782227224
0.00128763743818
0.000301503629431
0.00119270004933
0.000281833742756
0.00110912963573
0.000263749302578
0.00101956686447
0.000244745917523
0.000926102739108
0.000225740227328
0.000853442130105
0.000212235620128
0.000798603744706
0.000221277014173
0.000708934649717
0.000285000485138
0.000588547498957
0.000339074539768
0.00046021459502
0.000383631113567
0.000312922247269
0.000460219699123
0.000160953599743
0.000527177199137
0.000509898521188
0.000918375958563
-0.00365000666858
0.00189751765534
-0.00385659022394
0.00287493420702
-0.00384792673451
0.00384652795463
-0.00382692255894
0.00481067478243
-0.00379918722104
0.00576567861288
-0.00376470167418
0.00671011124931
-0.00372331036121
0.00764217564633
-0.00367514906274
0.00856041454127
-0.00362018801201
0.00946298708744
-0.0035586454843
0.0103484799804
-0.00349049955041
0.0112150639035
-0.00341598794908
0.0120613930513
-0.00333506431599
0.012885657957
-0.00324795672492
0.0136865651683
-0.00315456871938
0.0144623188616
-0.00305510243201
0.0152116533772
-0.00294940435558
0.0159327553055
-0.00283762817144
0.0166243504087
-0.00271955302104
0.0172845798557
-0.00259528315692
0.0179121240018
-0.00246454102706
0.0185050492625
-0.00232739002424
0.0190619627768
-0.0021835206289
0.0195808494336
-0.00203298469818
0.0200602303638
-0.0018754720014
0.020498004718
-0.00171105495943
0.0208926196052
-0.00153947252718
0.0212419287843
-0.00136087511781
0.0215443439593
-0.00117510804572
0.0217977191465
-0.000982449203206
0.0220005074784
-0.000782923141465
0.0221506716069
-0.000577020228591
0.0222468167748
-0.000365025410027
0.0222871557751
-0.000147724340785
0.0222706115482
7.42564371137e-05
0.0221958408665
0.000299760095739
0.0220622992361
0.000527747334748
0.0218693133115
0.000756648866322
0.0216171186728
0.00098498000965
0.0213059742592
0.00121075490903
0.0209371122565
0.00143211132434
0.0205119090471
0.00164673795907
0.0200327927208
0.00185247586803
0.0195024334901
0.00204683687213
0.0189245509907
0.00222757734316
0.018303134643
0.00239226896407
0.0176431392346
0.00253885644379
0.0169497467174
0.00266526026293
0.0162289441176
0.00276990533644
0.015486809325
0.00285138690646
0.0147299559818
0.00290893385053
0.0139648565905
0.00294209432335
0.0131982004283
0.00295112806003
0.0124362516903
0.00293670454213
0.0116851108347
0.00290020900795
0.010950163785
0.00284340033168
0.0102363093235
0.00276860798187
0.00954752197827
0.00267838059008
0.00888710846867
0.00257555413506
0.00825742567251
0.00246290089921
0.0076601871064
0.00234315868736
0.00709631381777
0.00221877200967
0.00656624114227
0.00209198314903
0.00606982484529
0.00196466918867
0.00560659966222
0.00183847857218
0.00517570201191
0.00171472943626
0.00477607078654
0.00159454828613
0.00440637701123
0.00147879577723
0.0040651853177
0.00136817910636
0.00375090492437
0.00126317638469
0.00346191769271
0.00116414170635
0.00319653572925
0.00107124132634
0.00295311124307
0.000984549238956
0.00273000766466
0.000903983873088
0.00252567462435
0.00082943090378
0.00233860479986
0.000760694613762
0.0021673952298
0.00069758463879
0.00201070981606
0.000639900449
0.00186734647505
0.000587518642564
0.00173630555145
0.000540393622831
0.00161723616306
0.000498769860777
0.0015111863554
0.000463283932541
0.00140450453114
0.000438473907496
0.0012950792332
0.000411971760189
0.00119268313428
0.000385325028216
0.00109356153079
0.000364044161343
0.000994747043763
0.000344808551395
0.000905473193396
0.000316330933306
0.000809071955088
0.000310065488328
0.000705176447638
0.000326764528148
0.00063448178013
0.000357562694873
0.000521988243115
0.000453752548381
0.000378253344368
0.000529627517178
0.000255397209
0.000585431138045
0.000134836218066
0.000650209001943
0.000645959133142
0.000928261996502
-0.00458523495729
0.00191288880078
-0.00484850341126
0.00289620460152
-0.00483855663367
0.00387427722497
-0.00481222283464
0.00484513881238
-0.00477718076191
0.00580700186913
-0.00473357754766
0.00675821286933
-0.00468138890129
0.00769704598783
-0.00462069423076
0.00862188795876
-0.00455155824399
0.00953103639928
-0.00447413256933
0.0104229261982
-0.00438851307323
0.011295899673
-0.00429486871303
0.012148450834
-0.00419328473095
0.0129789665086
-0.00408390542722
0.0137859948119
-0.0039667756405
0.0145679545186
-0.00384199238468
0.0153234133804
-0.00370952968816
0.0160507869309
-0.00356941383015
0.0167486265353
-0.0034215370965
0.0174153000837
-0.00326584720073
0.0180492964735
-0.00310216197646
0.0186489075878
-0.00293037648865
0.019212535222
-0.00275026320054
0.01973836313
-0.00256168731902
0.020224683896
-0.00236441618137
0.0206695762538
-0.00215834159848
0.0210712380013
-0.00194328826502
0.0214276616048
-0.00171923669177
0.0217369834624
-0.00148614002968
0.0219971643461
-0.00124413752761
0.0222063414453
-0.000993392563966
0.0223625346665
-0.000734316914431
0.022463995165
-0.000467387038363
0.0225089387312
-0.000193392954042
0.0224959137546
8.67469153221e-05
0.0224235449533
0.000371758401991
0.0222909127192
0.000660188530548
0.0220973068619
0.000950217453136
0.0218425810897
0.00123983819287
0.0215269488326
0.00152666426054
0.0211513432683
0.00180815450385
0.0207171913637
0.00208146437844
0.0202267182653
0.00234367482396
0.0196827302161
0.00259167928221
0.0190888629365
0.00282243955962
0.0184493565704
0.00303288865239
0.0177692591918
0.00322019403837
0.0170541553091
0.00338170786652
0.0163102949277
0.00351521711869
0.0155442896945
0.00361892578909
0.014763166966
0.00369167178207
0.0139740340499
0.00373289825697
0.0131840522785
0.00374283273428
0.0124001086412
0.00372239831559
0.0116287524301
0.00367334225691
0.0108758667126
0.00359806355884
0.0101466254248
0.0034996330654
0.00944523040253
0.00338154063623
0.00877497944755
0.00324755916065
0.00813815947083
0.00310144532772
0.00753623995547
0.00294678028204
0.00696990541265
0.00278677398307
0.0064392669291
0.00262426097474
0.00594391286123
0.00246162523448
0.00548308884031
0.00230087330102
0.00505570720032
0.00214364292431
0.00466046703576
0.00199128635783
0.00429586240092
0.00184485920941
0.00396025907001
0.00170520483223
0.00365191024222
0.00157290883756
0.00336903261901
0.00144836470627
0.00310982597641
0.00133175467972
0.00287253242295
0.00122311083823
0.00265543586045
0.00112231062152
0.00245692152236
0.00102913799733
0.00227546893462
0.000943303894342
0.00210968565593
0.00086448893735
0.00195829966682
0.00079237378417
0.00182015037911
0.0007267219652
0.00169413001438
0.000667440256873
0.00157868933461
0.000615210034293
0.00147182716395
0.000571134492544
0.00137327046113
0.000538049296716
0.00128542936858
0.000500879677003
0.00119524082308
0.000476649966102
0.00110046620283
0.000460043703622
0.000996039959757
0.000450514502222
0.000864582801311
0.000449103518988
0.000741962245745
0.000434088262848
0.000629709213817
0.000440600942037
0.000540029234201
0.000448947784884
0.000462898110259
0.000532883552786
0.000335892108266
0.000658854696927
0.000209647619675
0.00071374483384
0.000107914213664
0.000754012870228
0.000754968405498
0.000937945459627
-0.00553028763932
0.00193105659806
-0.00584913243039
0.00292275660618
-0.00583769705444
0.00390928314048
-0.00580613238503
0.00488867976086
-0.00576384099226
0.00585910220539
-0.005711143808
0.00681881116321
-0.00564808676816
0.00776606689247
-0.00557477592776
0.00869920086428
-0.00549132425764
0.00961653201387
-0.00539789822265
0.0105164585222
-0.0052946475771
0.011397366886
-0.00518176075802
0.01225772683
-0.00505937719406
0.0130959903532
-0.00492765836337
0.0139106931533
-0.00478670051018
0.0147003319465
-0.0046365983565
0.0154634700529
-0.0044773588217
0.016198605792
-0.00430898068562
0.0169042790871
-0.00413136369805
0.0175789414214
-0.00394440345325
0.0182210628143
-0.00374790337012
0.0188290002833
-0.00354168006339
0.0194011096595
-0.00332547346251
0.0199356197448
-0.00309905329321
0.0204307490284
-0.00286214781928
0.020884594587
-0.00261455607629
0.0212952496316
-0.00235607275492
0.0216606924851
-0.00208658834218
0.0219789094826
-0.00180604101856
0.0222477985939
-0.00151450341891
0.0224652910255
-0.00121215226558
0.0226292799834
-0.000899379114741
0.0227377657512
-0.000576751056035
0.0227887944156
-0.000245118333436
0.0227806084981
9.44176412776e-05
0.0227116182558
0.000440403865685
0.0225805510502
0.000791080942274
0.022386458131
0.00114429636595
0.0221288850031
0.00149755769422
0.0218078572248
0.00184799136782
0.0214240511459
0.00219241251916
0.0209787807439
0.00252733252594
0.0204741192095
0.00284907925813
0.0199128815022
0.00315379809694
0.0192987368739
0.00343760173241
0.01863613055
0.00369664079922
0.0179303307591
0.00392726302414
0.0171873196805
0.0041261018539
0.0164137785293
0.00429024328898
0.0156169312061
0.00441734842875
0.0148044324618
0.00450581818216
0.0139841408045
0.00455489551166
0.0131639429495
0.00456477666037
0.01235150335
0.00453661211165
0.011554049206
0.00447258039014
0.0107781013207
0.00437580059703
0.0100292535228
0.00425025615889
0.00931198034548
0.0041005752278
0.0086295629576
0.00393171014567
0.00798414005316
0.00374857637176
0.00737683555084
0.00355575884644
0.00680792433922
0.00335732891376
0.00627709282075
0.00315669987561
0.00578354922836
0.00295674332852
0.0053261755909
0.00275978417513
0.00490360350563
0.00256771766214
0.00451424817593
0.00238210681271
0.00415635666615
0.00220418045811
0.00382806393813
0.00203489044848
0.00352742284643
0.00187490688527
0.00325245224948
0.00172465575815
0.00300118497587
0.00158430564921
0.00277171755562
0.00145382570845
0.00256223065766
0.00133300837438
0.00237103606865
0.00122150850567
0.00219659992524
0.00111888067729
0.00203754214341
0.0010246536441
0.00189265464961
0.000938335238514
0.00176092084622
0.000859500323724
0.00164146228917
0.000787914220231
0.00153320391926
0.000724461198509
0.0014344746868
0.00067085703851
0.00133278831041
0.000640774070585
0.00123419799611
0.000600549752524
0.00113836581091
0.0005736278931
0.00103344085162
0.000566178926277
0.000934744192693
0.000550460375787
0.000842874730651
0.000542319609921
0.000727445253633
0.000551007855451
0.000597666748301
0.000571951634047
0.000460516468809
0.00058773874197
0.000374106533296
0.000621070154377
0.000298555578553
0.000736300286206
0.000185801526108
0.000828414604793
9.39931749334e-05
0.000847719755546
0.000849903715424
0.000948599279016
-0.00648617310029
0.00195239983231
-0.00686054056662
0.00295455548781
-0.00684749459867
0.00395150720797
-0.00681061899347
0.00494128549778
-0.00676105255551
0.00592204775177
-0.00669919771486
0.0068919969166
-0.00662517323617
0.00784938012681
-0.00653911432983
0.00879248406353
-0.00644118869539
0.0097196344952
-0.00633158934084
0.0106292045354
-0.00621053193292
0.0115196101098
-0.00607823135612
0.0123893136967
-0.00593489657605
0.0132368264535
-0.00578071699347
0.0140606909342
-0.00561584685654
0.0148594778787
-0.0054403854146
0.0156317711379
-0.0052543810278
0.0163761532756
-0.00505780604328
0.0170911864546
-0.00485056815793
0.0177753965092
-0.00463250216614
0.018427261993
-0.00440339044702
0.0190451929663
-0.00416295843611
0.0196275235838
-0.00391089341592
0.0201725053787
-0.00364686267484
0.020678314283
-0.00337053836801
0.0211430389824
-0.00308161539213
0.0215646861802
-0.00277982256303
0.0219411803573
-0.0024649541943
0.022270369808
-0.00213688469727
0.0225500288218
-0.00179560206198
0.0227778994216
-0.00144125963811
0.0229516913289
-0.00107420942567
0.0230691376703
-0.000695046690132
0.0231280130611
-0.000304659631978
0.0231262263055
9.57155645182e-05
0.0230618564543
0.000504455108011
0.0229332538875
0.000919531938457
0.0227391250656
0.00133843349097
0.022478655229
0.00175819535884
0.0221515681042
0.00217539850431
0.0217582353709
0.00258621889929
0.0212997513382
0.00298643655422
0.0207780495197
0.003371549061
0.0201959170352
0.00373683893887
0.0195570588291
0.00407750889401
0.0188660948333
0.00438878566792
0.0181285909197
0.00466607655635
0.0173509891744
0.00490512787642
0.0165405630918
0.00510220069068
0.0157052545167
0.00525427455594
0.0148535443992
0.00535921813416
0.0139942349118
0.00541594806617
0.013136185135
0.0054246024097
0.0122880575113
0.0053865338474
0.0114580137072
0.00530442637756
0.0106534179819
0.00518218200663
0.00988050317108
0.00502494699158
0.00914405787517
0.00483876123946
0.00844736792047
0.00463011656199
0.00779218813496
0.00440543310569
0.00717913875404
0.00417045408031
0.00660792091895
0.00393015409293
0.00607764190415
0.00368855268548
0.00558700473694
0.00344891533481
0.00513446168306
0.00321382760283
0.00471826031003
0.00298538005286
0.00433652311075
0.00276527129567
0.00398720782721
0.00255488709186
0.00366817086468
0.00235528476289
0.00337720111695
0.00216720084166
0.00311208271009
0.00199106362694
0.0028706480996
0.0018269968277
0.00265081258639
0.0016748828977
0.00245062869333
0.00153438088653
0.00226831212551
0.00140497940963
0.00210227480223
0.00128604027582
0.00195113928545
0.00117687849895
0.00181376615938
0.00107676810017
0.00168931642064
0.000984979984554
0.00157735520051
0.000900881373927
0.00147718893471
0.000825612588063
0.00138205715686
0.000766992129451
0.00129116089951
0.000732721797952
0.00119329705824
0.000699511777294
0.00109152551501
0.000676557733108
0.000994551245851
0.000664368291578
0.000884647272893
0.000661643603553
0.000776586136753
0.000651740568991
0.000659805434467
0.000669251112915
0.000553118793029
0.000680161169989
0.000428600433303
0.000713847935435
0.000307859759891
0.000743429166249
0.000248449185203
0.000797421261042
0.000162933752468
0.000915651402227
8.19104578424e-05
0.000930417554485
0.000932711769405
0.000960737649787
-0.00745437738013
0.00197707642294
-0.00788478314726
0.00299169508139
-0.00786992432433
0.00400098199127
-0.00782764970612
0.00500301960935
-0.00777069943555
0.00599593135183
-0.00769958114272
0.00697790096806
-0.00761444131911
0.00794713809908
-0.00751546459507
0.00890190855955
-0.00740285660278
0.00984051555279
-0.00727687063237
0.0107613321317
-0.00713777203445
0.011662773161
-0.0069858444245
0.0125433349834
-0.00682135423688
0.0134015505283
-0.00664455795526
0.0142360202292
-0.00645565025882
0.0150453668939
-0.006254785036
0.0158282501833
-0.00604201909404
0.0165833121973
-0.00581733957068
0.0173091913279
-0.00558062232147
0.0180044663426
-0.00533167298071
0.0186676723258
-0.00507020387219
0.0192972441029
-0.00479586776246
0.0198915393541
-0.00450825077428
0.020448806596
-0.00420693498556
0.020967211293
-0.00389148848127
0.021444796694
-0.00356150429979
0.0218795147272
-0.0032166020513
0.022269191995
-0.00285646702553
0.0226115574807
-0.00248086154243
0.0229042362912
-0.00208968242772
0.0231447684558
-0.00168298719848
0.0233306231205
-0.00126106514476
0.023459229048
-0.000824464342856
0.0235280288404
-0.000374090732835
0.0235345357698
8.87519487858e-05
0.0234763955678
0.000562307509665
0.0233515209164
0.00104428202383
0.0231581763942
0.00153181389232
0.0228950799303
0.00202148326561
0.0225615274763
0.00250929747436
0.0221575300451
0.00299071377788
0.0216839038425
0.00346071137727
0.0211423744119
0.00391387448293
0.0205356317008
0.00434452458599
0.019867412085
0.00474681424984
0.0191425332046
0.00511488897702
0.0183669016228
0.0054430628317
0.0175474750674
0.00572603197894
0.0166922130485
0.00595904400149
0.0158099795435
0.00613818301707
0.0149102975475
0.00626063810515
0.0140031408287
0.00632489299414
0.0130986160986
0.00633094047927
0.0122066716529
0.00628030601537
0.0113367176187
0.00617619476817
0.010497295357
0.00602340483261
0.00969555860553
0.00582844706715
0.00893670227038
0.00559934629868
0.00822382368845
0.0053446800426
0.00755818994517
0.00507271554391
0.0069396220969
0.00479062818873
0.00636696911112
0.00450437888109
0.00583853576037
0.00421851686454
0.00535235553007
0.00393658947505
0.00490637676606
0.00366125957662
0.00449846929364
0.00339470610303
0.00412639467844
0.00313872778387
0.00378779932762
0.00289483179119
0.00348021233763
0.00266418943067
0.00320112682207
0.00244757359791
0.00294802773866
0.00224541987196
0.00271848280753
0.00205776716375
0.00251021531046
0.00188434543294
0.00232110572832
0.00172465269586
0.00214925315952
0.0015779640666
0.00199298132651
0.00144341216097
0.00185088245406
0.00132004813746
0.00172182249636
0.0012068692584
0.00160495303646
0.00110286718207
0.00149959972109
0.00100722522128
0.00140548967
0.000920703966294
0.00130643135456
0.000867056978035
0.00121255995614
0.000827643312632
0.00112241381708
0.000790757515726
0.00103184245925
0.000768289716036
0.00094341618029
0.000754012225951
0.000845768782206
0.000760593710295
0.000727007096337
0.000771880195288
0.000608945373265
0.00078874361794
0.000484031937226
0.000806560614381
0.00039221914977
0.000807190181389
0.000287074075511
0.000850133524727
0.000203813325523
0.000882200760362
0.000146956236362
0.000974126883906
7.15588873279e-05
0.00100742008394
0.0010050586786
0.000974494292767
-0.0084365687982
0.00200531579944
-0.00892363630741
0.0030342717917
-0.00890694735855
0.0040578196103
-0.00885914137647
0.00507398943177
-0.00879469651475
0.00608090100077
-0.0087141582057
0.00707669117
-0.00861772126448
0.008059543639
-0.00850559963628
0.00902768304266
-0.00837805823481
0.00997940082761
-0.0082354017446
0.0109130475107
-0.0080779775601
0.0118270594063
-0.00790613435098
0.0127199397521
-0.00772023453038
0.0135902798274
-0.00752059612787
0.0144367273366
-0.00730750418395
0.0152579970706
-0.00708114891269
0.0160528177986
-0.00684163775538
0.0168199401171
-0.00658894686531
0.0175580732425
-0.00632294724993
0.0182658952198
-0.00604338142199
0.0189419875582
-0.0057498987419
0.019584843776
-0.00544203478132
0.0201928362637
-0.00511928371023
0.0207642348572
-0.00478109959481
0.0212971750446
-0.00442694067937
0.0217896781258
-0.00405626400336
0.0222396169193
-0.00366856136006
0.0226447379692
-0.0032633729343
0.023002643983
-0.0028403342118
0.0233107964975
-0.00239918567421
0.0235665116592
-0.00193985244796
0.023766979541
-0.00146248645282
0.0239092913814
-0.00096754481757
0.0239904810338
-0.000455869801272
0.0240075814846
7.12339080896e-05
0.0239577412346
0.000611895229655
0.023838325772
0.00116360762947
0.0236470098248
0.00172319553644
0.0233819464035
0.00228677020127
0.0230419067013
0.00284971136782
0.0226264294041
0.00340672111625
0.0221359321816
0.00395188756633
0.0215718514954
0.00447878875714
0.0209367432827
0.004980614383
0.0202343561098
0.00545033287191
0.0194696673487
0.00588085129404
0.0186489342832
0.0062652085547
0.0177797172469
0.00659678326859
0.0168708117367
0.00686959814797
0.0159321403902
0.00707858345541
0.0149745523542
0.00722002440607
0.0140094756737
0.00729181540026
0.0130485829696
0.00729369482379
0.0121034514603
0.00722730414571
0.0111851485104
0.0070963529908
0.0103038747949
0.00690647752436
0.00946810299093
0.00666598246462
0.00868359376493
0.00638555279883
0.00795321074745
0.00607671953871
0.0072772442647
0.00575028618279
0.00665425217203
0.0054151876223
0.00608180907893
0.00507834827055
0.00555713735895
0.00474467477786
0.00507747862198
0.00441769282593
0.00464020667205
0.00409993859273
0.00424281089551
0.00379346891893
0.00388275240623
0.00350012198285
0.00355733433795
0.00322155457171
0.00326372392515
0.00295907509594
0.00299900920846
0.00271353756014
0.00276034835825
0.00248530007974
0.00254499296038
0.0022743174041
0.00235039470282
0.00208010728454
0.00217424974599
0.00190193390452
0.00201451758679
0.00173880117834
0.00186943047324
0.00158957718587
0.00173751295528
0.00145301384208
0.00161762476225
0.00132778203305
0.00150894867481
0.00121254162642
0.00141070808513
0.0011064454663
0.00132241507582
0.00100997169779
0.0012301153747
0.000960368277584
0.00113656399821
0.000922249374794
0.00104167033462
0.000886755502506
0.000950332056245
0.000860771803009
0.000856177093616
0.000849368703936
0.000765419877497
0.00085262887738
0.000670041101735
0.000868629182017
0.00057457496961