/*--------------------------------*- C++ -*----------------------------------*\
| =========                 |                                                 |
| \\      /  F ield         | OpenFOAM: The Open Source CFD Toolbox           |
|  \\    /   O peration     | Version:  v1906                                 |
|   \\  /    A nd           | Web:      www.OpenFOAM.com                      |
|    \\/     M anipulation  |                                                 |
\*---------------------------------------------------------------------------*/
FoamFile
{
    version     2.0;
    format      ascii;
    class       surfaceScalarField;
    location    "623";
    object      phia;
}
// * * * * * * * * * * * * * * * * * * * * * * * * * * * * * * * * * * * * * //

dimensions      [0 3 -1 0 0 0 0];
oriented        oriented;


internalField   nonuniform List<scalar> 
18240
(
0.00134690938466
-0.00134698473422
0.00282144253237
-0.00147462637333
0.00429493277744
-0.00147356534931
0.00574965779174
-0.00145482152692
0.0071776527908
-0.00142806484042
0.00857211650258
-0.00139456253534
0.00992705389617
-0.00135500181406
0.0112369420102
-0.00130998852523
0.0124969693317
-0.00126008606507
0.0137027782482
-0.00120591016666
0.0148507684991
-0.0011480430049
0.0159377825213
-0.00108711542073
0.0169614353001
-0.00102369942957
0.0179197370856
-0.000958402697193
0.0188114469361
-0.000891750271902
0.0196356410057
-0.000824293923209
0.0203920923955
-0.000756485647426
0.0210807953688
-0.000688801243443
0.0217023740287
-0.000621606770384
0.0222575724574
-0.000555294652787
0.0227476938435
-0.000490143549428
0.0231740650602
-0.000426464978667
0.0235385056507
-0.000364456933767
0.0238427734014
-0.000304358697939
0.0240890609482
-0.000246298370718
0.0242794269946
-0.00019045386934
0.0244163164527
-0.000136894969545
0.0245019807689
-8.5748764743e-05
0.0245390173403
-3.7037137254e-05
0.0245297823562
9.15412362527e-06
0.0244769468426
5.28396389694e-05
0.0243828969724
9.39727628243e-05
0.0242502940771
0.000132611312661
0.0240814877288
0.000168733140051
0.0238790879662
0.000202412196938
0.0236453689393
0.000233649818253
0.023382841856
0.000262543122697
0.0230936640002
0.000289112722197
0.0227802117739
0.000313471582947
0.0224444961722
0.000335654576491
0.0220887325608
0.000355785872748
0.0217147649322
0.000373910724103
0.0213246293757
0.00039016043555
0.0209199894335
0.000404587134157
0.0205026908798
0.000417325651598
0.0200742102837
0.000428431843608
0.0196361986442
0.000438040680805
0.0191899450963
0.000446208779283
0.0187369074912
0.000453068215335
0.0182781928887
0.000458673734876
0.0178150730417
0.000463151770351
0.0173484830892
0.000466552879166
0.01687952035
0.000468995633722
0.0164089623111
0.000470524647463
0.0159377469883
0.000471248958919
0.0154665110888
0.000471206061349
0.0149960506114
0.000470494552102
0.0145268798081
0.000469144390779
0.0140596706032
0.000467243520073
0.0135948328627
0.000464814617823
0.0131329316475
0.00046193551274
0.012674289163
0.00045862252403
0.0122193788486
0.000454944433326
0.011768449373
0.000450912549813
0.0113218950032
0.000446588103021
0.0108799019617
0.000441979037451
0.0104427945429
0.000437140647723
0.010010704189
0.000432079164631
0.00958389120783
0.000426845552162
0.00916243688958
0.000421445852036
0.00874654068329
0.000415928038848
0.00833623569577
0.000410299154617
0.00793166146719
0.000404605205723
0.00753280312849
0.000398855050958
0.00713973986509
0.000393093310652
0.00675240798769
0.000387331029522
0.00637082534644
0.000381611633442
0.0059948784774
0.000375948335734
0.00562452313569
0.000370383162058
0.00525959565043
0.000364931111431
0.00489998983159
0.000359632299726
0.00454549261243
0.00035450284079
0.00419593749547
0.000349580117813
0.0038510646466
0.000344880347217
0.00351065121037
0.000340436896272
0.00317439634664
0.000336264271283
0.00284202949292
0.000332388900581
0.00251322285229
0.000328818116588
0.00218768387983
0.000325559770872
0.00186511055737
0.00032258664237
0.00154531066204
0.000319819046411
0.00122831006059
0.000317015092771
0.000914810511456
0.000313515715839
0.00060781447345
0.000307011491617
0.000319164058468
0.000288669697758
0.000319174275308
0.00148904425083
-0.00283611238967
0.00315119638625
-0.00313687195574
0.00480425776052
-0.00312671406921
0.00643351449542
-0.00308417134529
0.00803156486512
-0.00302620036095
0.00959144479261
-0.00295453480428
0.0111065895729
-0.00287022901513
0.0125709179289
-0.00277440798863
0.013979015068
-0.0026682623308
0.0153260714457
-0.00255305581762
0.0166080192864
-0.00243006622935
0.0178214128282
-0.00230059586372
0.0189635511799
-0.00216590902789
0.0200323164583
-0.00202725204023
0.0210262913659
-0.00188579202511
0.0219445651114
-0.00174264851026
0.0227868525148
-0.00159883526173
0.0235532772257
-0.00145530324594
0.0242444985171
-0.00131288551587
0.0248614803943
-0.00117235001376
0.0254056307646
-0.00103434651273
0.0258785631533
-0.000899466838457
0.026282250696
-0.000768192205199
0.0266187848222
-0.000640958140011
0.0268905441598
-0.000518100576526
0.0270999522959
-0.00039992306782
0.0272496598251
-0.000286640597399
0.0273423018933
-0.000178447595803
0.0273806907236
-7.54593833299e-05
0.0273675726625
2.22197355959e-05
0.027305825937
0.000114557475826
0.0271982255609
0.000201524978672
0.027047656696
0.000283155678603
0.0268568651332
0.000359480791594
0.0266286665807
0.00043059044512
0.0263657115734
0.000496565087828
0.0260707005011
0.000557537908141
0.0257461496364
0.000613627929475
0.0253946070015
0.000665001720453
0.0250184224248
0.000711807454793
0.0246199634014
0.000754235982299
0.024201390069
0.000792456182912
0.0237648698471
0.000826675079481
0.0233123581092
0.000857074667485
0.0228458105473
0.000883870748384
0.0223669702441
0.000907251447186
0.0218775767806
0.000927434536256
0.0213791603627
0.000944607822986
0.0208732468198
0.000958984777928
0.020361159299
0.000970747024266
0.0198442182891
0.000980098174223
0.0193235512697
0.000987208618111
0.0188002869497
0.000992267496561
0.0182753730737
0.000995430004336
0.0177497640143
0.000996867468998
0.0172242468127
0.000996717312527
0.0166996213284
0.000995131182975
0.0161765344626
0.00099222768995
0.0156556520756
0.000988138530702
0.0151375013089
0.000982964020368
0.014622633626
0.000976817107469
0.0141114751357
0.000969781684867
0.013604480204
0.00096195437809
0.0131019897515
0.000953405549983
0.0126043750935
0.000944218719902
0.0121119042458
0.000934454171182
0.0116248757774
0.000924185874295
0.0111434932629
0.000913467579217
0.0106679891285
0.000902367127395
0.0101985074454
0.000890934943132
0.00973521783991
0.000879235659391
0.00927820688337
0.000867318929365
0.00882758226062
0.000855248324118
0.00838337301432
0.00084307443027
0.0079456241803
0.000830861018763
0.00751430614025
0.000818660408457
0.00708939997679
0.000806536933446
0.00667081614136
0.000794544584999
0.00625847073464
0.000782747824368
0.00585221365848
0.000771201516336
0.00545189602496
0.000759969138467
0.00505730791486
0.000749105021334
0.00466823705552
0.000738669974054
0.00428441629962
0.000728715791962
0.00390557371726
0.000719298211192
0.00353138989149
0.000710463446785
0.00316153943328
0.000702257969991
0.00279565768356
0.000694716037393
0.00243337177647
0.000687864324372
0.00207426877144
0.000681706633527
0.00171788794944
0.000676217607941
0.00136359821327
0.000671321358435
0.00101025970706
0.000666871728141
0.000654702259713
0.000662585904152
0.000287816859263
0.000655572213525
0.000607000092193
0.00151534657947
-0.00435154428999
0.00319878151501
-0.0048203981356
0.00487557847312
-0.00480360193981
0.00652846287816
-0.00473714713632
0.00814927935712
-0.00464710599774
0.00973075439374
-0.00453609990533
0.0112661321867
-0.00440569379908
0.0127492254562
-0.00425758936148
0.0141745108014
-0.00409363200901
0.0155371397864
-0.00391577035929
0.0168329924337
-0.00372600002909
0.0180586439482
-0.00352632989134
0.0192113904836
-0.00331873313122
0.0202891841086
-0.00310512471773
0.0212906407919
-0.00288732232725
0.0222149536565
-0.00266703663449
0.0230618920281
-0.00244584305688
0.0238317022278
-0.00222518464062
0.0245251055115
-0.00200635380222
0.0251431944285
-0.00179050586343
0.0256874358754
-0.00157864842745
0.0261595689064
-0.0013716623929
0.0265616165353
-0.00117029566133
0.0268957881879
-0.000975187826113
0.0271645012447
-0.000786864817546
0.0273702887701
-0.000605764094826
0.0275158296297
-0.000432227989966
0.027603860701
-0.000266527650273
0.0276372137302
-0.000108854377426
0.0276187310254
4.06579387142e-05
0.0275513077431
0.000181943300823
0.0274378099924
0.000314982631193
0.0272811225524
0.000439810032408
0.0270840697708
0.000556497792075
0.0268494650488
0.000665166344545
0.026580035405
0.000765963140757
0.0262784740169
0.000859074555997
0.0259473680038
0.000944706406305
0.025589253049
0.00102309586818
0.0252065441658
0.00109449269025
0.0248015918701
0.00115917119052
0.0243766159487
0.00121741217499
0.0239337626362
0.00126951484625
0.0234750414746
0.00131577942357
0.0230023831414
0.00135651884307
0.0225175794847
0.00139204202868
0.0220223416133
0.00142266527997
0.0215182432204
0.00144869625915
0.0210067786616
0.00147044507597
0.0204893095846
0.00148820905715
0.0199671225941
0.00150228356738
0.0194413791415
0.00151294772166
0.0189131724015
0.0015204750607
0.0183834802244
0.00152512032093
0.0178532206924
0.00152713004696
0.0173232078655
0.00152673055562
0.0167942055234
0.00152413856394
0.0162668853407
0.00151955036982
0.0157418782402
0.00151315247751
0.0152197346597
0.00150511198426
0.0147009730743
0.00149558714184
0.0141860420375
0.00148471881742
0.0136753654672
0.00147264083991
0.0131693062705
0.0014594723887
0.0126682081931
0.00144532796132
0.0121723609339
0.00143031047759
0.011682038444
0.00141452067524
0.0111974655877
0.00139805075835
0.0107188529737
0.00138099306983
0.0102463652984
0.00136343411106
0.00978015284571
0.00134546236458
0.00932032174625
0.00132716259088
0.00886696239787
0.00130862274423
0.00842012188726
0.00128992847845
0.0079798295668
0.00127116913719
0.00754607190279
0.00125243247479
0.007118815478
0.0012338097575
0.00669798448126
0.00121539071985
0.00628348133501
0.00119726783153
0.00587516701321
0.00117953155007
0.00547287947481
0.00116227382397
0.0050764169243
0.0011455836849
0.00468555414137
0.0011295500327
0.00430002873419
0.00111425758867
0.00391955535508
0.00109978894187
0.00354381474963
0.00108622076712
0.00317246532719
0.0010736249582
0.00280513374936
0.00106206486053
0.00244142067693
0.00105159526073
0.00208088555278
0.00104225927027
0.0017230302853
0.00103409077515
0.00136724435785
0.00102712417016
0.00101270735585
0.00102142485062
0.000658316407521
0.00101699487841
0.000304550475558
0.00100935655689
0.00091155894327
0.00153868076064
-0.00589031137247
0.00324514185923
-0.0065269527645
0.00494508816931
-0.00650364025529
0.0066204458898
-0.00641259701991
0.00826258722472
-0.00628933807182
0.00986391908548
-0.0061375221534
0.0114174574002
-0.00595932090679
0.0129168633722
-0.00575708351516
0.0143565054813
-0.00553336034658
0.0157314870631
-0.00529083737035
0.0170376706239
-0.00503226672989
0.018271666343
-0.00476040779798
0.019430824294
-0.00447797067865
0.0205131936974
-0.00418757265942
0.0215174934039
-0.00389169774204
0.022443052421
-0.00359267021584
0.0232897686749
-0.00329263083673
0.0240580406244
-0.00299352692349
0.0247487232921
-0.00269710361405
0.0253630593693
-0.00240490785695
0.0259026395846
-0.00211829124427
0.0263693392645
-0.00183842344402
0.026765287218
-0.0015663015976
0.0270928104795
-0.00130276784585
0.0273544125506
-0.00104852020385
0.0275527259933
-0.00080412966056
0.0276904984668
-0.000570049133894
0.0277705512895
-0.000346627986386
0.0277957710734
-0.000134118224512
0.02776907257
6.73134843149e-05
0.0276933946498
0.00025758167584
0.0275716653697
0.000436673421049
0.0274068025162
0.000604637769125
0.0272016822277
0.000761583955354
0.0269591418635
0.000907675882023
0.0266819522734
0.00104312283428
0.0263728229175
0.00116817723563
0.0260343772337
0.00128312627004
0.0256691602234
0.00138829017274
0.025279616424
0.0014840145716
0.0248680994887
0.00157066921573
0.0244368525176
0.00164864094488
0.023988019329
0.00171833271184
0.0235236270367
0.00178015702934
0.0230455988138
0.00183453513008
0.0225557386574
0.00188189080532
0.0220557455124
0.00192264965001
0.0215472001989
0.00195723328116
0.0210315807534
0.00198605869396
0.0205102514307
0.00200953295803
0.0199844790649
0.00202805282132
0.0194554239765
0.00204200003534
0.0189241570504
0.00205174137559
0.0183916522442
0.00205762478232
0.0178588039793
0.00205997997638
0.0173264208523
0.00205911555301
0.0167952428566
0.00205532029511
0.0162659358281
0.00204886128014
0.0157391079948
0.00203998591021
0.0152153047058
0.00202892097088
0.0146950238562
0.00201587527161
0.0141787105069
0.00200103950082
0.0136667708378
0.00198458929197
0.0131595663997
0.00196668563226
0.0126574263945
0.00194747810107
0.0121606414391
0.00192710556528
0.0116694741236
0.00190569933684
0.011184152324
0.00188338388961
0.0107048781343
0.00186027970304
0.0102318208774
0.00183650379087
0.00976512461083
0.00181217206705
0.00930490107725
0.00178739954031
0.00885123605068
0.00176230210583
0.00840418249914
0.00173699634292
0.00796376605242
0.00171160071565
0.00752997865332
0.00168623497489
0.00710278341569
0.00166102080624
0.00668210899983
0.00163608089371
0.0062678540778
0.00161153909724
0.00585988261975
0.00158751926165
0.00545802812733
0.00156414502087
0.00506208994067
0.00154153844568
0.00467183731055
0.00151981956744
0.00428700672915
0.00149910494188
0.00390730576017
0.00147950696464
0.00353241112771
0.00146113242028
0.00316197174914
0.00144408169302
0.00279560649561
0.00142844754958
0.00243290453918
0.00141431500416
0.00207341962955
0.00140176203202
0.00171666311212
0.00139086443786
0.0013620954297
0.00138170869785
0.00100913765131
0.00137440045425
0.000657373726566
0.00136877596065
0.000308579925616
0.00135816794471
0.00122014819116
0.00156863749227
-0.00745903677169
0.00330696006967
-0.00826536827133
0.00503817376269
-0.0082349480156
0.00674357693479
-0.00811809320943
0.0084140965948
-0.00795995010105
0.010041770971
-0.00776528793794
0.0116193266806
-0.00753696688857
0.0131402168601
-0.00727806282491
0.0145986719463
-0.00699190309649
0.015989727936
-0.00668197962609
0.0173092375351
-0.00635186084964
0.0185538587942
-0.00600511195897
0.0197210317247
-0.00564522454464
0.0208089374843
-0.0052755575498
0.0218164517721
-0.00489928900839
0.0227430861166
-0.00451937959604
0.0235889292834
-0.00413854674813
0.0243545814441
-0.00375924977539
0.0250410936673
-0.00338368412556
0.0256499042189
-0.00301378457473
0.0261827841587
-0.0026512348777
0.0266417822591
-0.0022974830679
0.0270291812151
-0.00195375955603
0.0273474536298
-0.00162109708097
0.0275992291518
-0.00130035001253
0.0277872600834
-0.000992212697946
0.0279143967217
-0.00069723534594
0.0279835594035
-0.000415838092188
0.0279977189748
-0.000148322717206
0.0279598728383
0.000105116816184
0.027873028985
0.000344385191961
0.0277401838373
0.000569480292456
0.0275643115232
0.000780474220053
0.0273483444411
0.000977517179526
0.0270951639635
0.00116082485199
0.0268075856931
0.00133067152348
0.0264883524254
0.00148738318972
0.0261401222791
0.0016313309513
0.0257654641908
0.00176292497926
0.025366848452
0.00188260878185
0.0249466443186
0.00199085390275
0.0245071126291
0.00208815484866
0.0240504052556
0.00217502428127
0.0235785596497
0.00225198838431
0.0230935000354
0.00231958236104
0.0225970338258
0.00237834608232
0.0220908544977
0.00242881980203
0.0215765398591
0.00247154008081
0.0210555565645
0.00250703578557
0.0205292601525
0.00253582439825
0.0199989010502
0.00255840847269
0.0194656261968
0.00257527255609
0.0189304862806
0.00258688035952
0.018394438613
0.0025936725331
0.0178583551748
0.00259606478589
0.0173230262843
0.00259444672426
0.0167891689556
0.00258918107854
0.0162574308242
0.00258060368204
0.0157283982623
0.00256902381296
0.0152026000429
0.00255472525367
0.0146805147301
0.00253796761617
0.0141625736412
0.00251898826499
0.0136491671288
0.00249800435852
0.0131406465523
0.00247521533108
0.0126373292525
0.00245080531726
0.0121394994103
0.00242494583216
0.0116474116701
0.0023977982244
0.0111612909379
0.00236951622253
0.0106813347856
0.00234024811285
0.0102077123713
0.00231013887427
0.00974056585361
0.00227933185413
0.00928000871399
0.00224797031978
0.00882612649012
0.00221619851272
0.00837897480937
0.00218416253868
0.00793857974939
0.00215201077421
0.00750493588928
0.00211989411622
0.00707800658929
0.00208796579892
0.00665772231545
0.00205638108334
0.00624398106249
0.00202529659169
0.00583664714786
0.00199486956438
0.00543555193708
0.00196525684758
0.00504049321492
0.00193661385311
0.00465123627227
0.00190909333987
0.00426751385235
0.00188284422096
0.0038890275254
0.0018580102873
0.00351544799767
0.00183472903525
0.00314641640767
0.00181313058759
0.00278154452197
0.00179333697977
0.00242041518759
0.00177546200537
0.0020625822192
0.001759612608
0.00170757218952
0.00174589237796
0.00135489112665
0.00173440671778
0.0010040571851
0.00172525022488
0.00065477730691
0.00171807420485
0.000308745585732
0.00170421859033
0.00152890218379
0.00160651765785
-0.00906564353138
0.00338602431138
-0.0100449715305
0.00515747154914
-0.0100064903216
0.00690138385367
-0.00986210047476
0.00860816615478
-0.00966682620012
0.0102694125267
-0.00942662729185
0.011877495137
-0.00914514126639
0.0134256076879
-0.00882626595424
0.0149078139101
-0.00847419840788
0.0163190713419
-0.00809332467166
0.0176552331896
-0.00768810855167
0.0189130285901
-0.00726299150444
0.0200900271325
-0.00682230524163
0.0211845883666
-0.00637019904705
0.0221958024155
-0.00591058115072
0.0231234218871
-0.00544707512411
0.0239677911684
-0.00498298977299
0.0247297727497
-0.00452130295884
0.0254106765423
-0.00406465710781
0.0260121911173
-0.00361536612241
0.0265363222558
-0.00317543050582
0.0269853365122
-0.00274655955602
0.0273617139925
-0.00233019675087
0.0276681064568
-0.00192754698285
0.0279073036837
-0.00153960214677
0.0280822030912
-0.00116716474415
0.0281957851057
-0.000810867484595
0.0282510892531
-0.000471190118664
0.0282511939885
-0.000148472846023
0.0281991959068
0.000157071711825
0.028098192394
0.000445347957698
0.0279512621766
0.000716371922249
0.027761452507
0.000970247690324
0.0275317624908
0.0012071730936
0.0272651316785
0.00142742387598
0.0269644279634
0.00163134547587
0.0266324388109
0.00181934481244
0.0262718619912
0.0019918821823
0.0258852993195
0.00214946419962
0.0254752496868
0.0022926368152
0.0250441048263
0.00242197920143
0.0245941442775
0.00253809758802
0.0241275329315
0.00264161974303
0.0236463177965
0.00273318928532
0.0231524272607
0.00281346047417
0.022647669661
0.00288309279996
0.0221337342951
0.00294274597454
0.0216121918339
0.00299307477999
0.0210844970935
0.00303472433165
0.020551991264
0.00306832535182
0.0200159063529
0.00309448995035
0.0194773690644
0.00311380762013
0.0189374066531
0.00312684186885
0.0183969520997
0.00313412728402
0.0178568509393
0.00313616734626
0.0173178672195
0.0031334328405
0.0167806907272
0.00312636105763
0.0162459431225
0.00311535567041
0.0157141849496
0.00310078735142
0.0151859213468
0.0030829950279
0.0146616082849
0.0030622877334
0.0141416573543
0.0030389469721
0.013626440818
0.00301322946402
0.0131162951528
0.00298537021257
0.0126115246961
0.00295558570381
0.0121124038189
0.00292407722063
0.0116191791498
0.00289103404757
0.011132070456
0.00285663659704
0.0106512716056
0.00282105922707
0.0101769503853
0.00278447283738
0.00970924848906
0.00274704702189
0.00924828060033
0.00270895191655
0.00879413375967
0.00267035953887
0.00834686607
0.00263144480572
0.00790650580082
0.0025923860414
0.00747305005677
0.00255336519797
0.00704646393495
0.00251456761219
0.00662667943843
0.00247618154491
0.00621359493151
0.00243839733525
0.0058070745018
0.00240140642369
0.00540694787516
0.00236540008254
0.00501301033661
0.00233056810897
0.00462502317159
0.00229709732309
0.0042427141512
0.00226517012394
0.00386577845682
0.00223496296074
0.00349387961088
0.00220664498424
0.00312665072404
0.0021803767763
0.00276369570794
0.00215630948385
0.00240459100404
0.00213458446742
0.0020488879604
0.00211533355502
0.00169611696405
0.0020986803451
0.00134579881978
0.00208474166278
0.000997470179385
0.00207359694593
0.000650813288327
0.00206474819679
0.000307356769164
0.00204769271138
0.00183626843231
0.001653148087
-0.0107188829537
0.00348361853174
-0.0118755382422
0.0053047952043
-0.0118277647319
0.00709620451429
-0.0116536062328
0.00884759635121
-0.0114183139156
0.0105500224055
-0.0111291480625
0.012195425679
-0.010790638159
0.0137766908035
-0.0104076233307
0.0152876899356
-0.00998528835949
0.0167233000387
-0.00952902394157
0.0180793932259
-0.00904428920337
0.0193528048356
-0.00853648867476
0.0205412831453
-0.00801086719731
0.0216434252717
-0.00747242271193
0.0226586025252
-0.00692583785914
0.0235868792495
-0.006375429041
0.0244289278869
-0.00582511339454
0.0251859440869
-0.00527839176489
0.025859564292
-0.00473834761903
0.0264517892612
-0.00420765894343
0.0269649151385
-0.00368862188006
0.0274014742638
-0.00318318167775
0.0277641855347
-0.00269296863411
0.0280559145041
-0.00221933404892
0.0282796410426
-0.00176338439648
0.0284384333171
-0.00132601022026
0.028535425269
-0.00090791026947
0.0285737966167
-0.000509609819745
0.0285567535078
-0.000131475757507
0.0284875099804
0.000226271661529
0.0283692698981
0.000563546752122
0.0282052111125
0.000880391809955
0.027998467605
0.00117695453422
0.0277521177648
0.00145348859683
0.027469170784
0.00171033868457
0.0271525562963
0.00194793003695
0.0268051150839
0.00216675818015
0.0264295914839
0.00236738009438
0.0260286265579
0.00255040543077
0.0256047526346
0.002716489099
0.0251603883781
0.00286632371161
0.0246978350519
0.00300063311597
0.0242192732481
0.00312016553701
0.0237267607883
0.00322568756641
0.0232222311392
0.00331797761995
0.0227074930393
0.0033978201076
0.0221842307236
0.00346599905907
0.0216540054024
0.00352329245516
0.0211182574031
0.00357046612738
0.0205783095476
0.00360826846415
0.020035371177
0.00363742490413
0.019490543294
0.0036586334208
0.0189448242251
0.00367256006548
0.0183991161565
0.00367983569414
0.0178542319448
0.00368105299914
0.0173109024625
0.00367676486008
0.0167697839005
0.00366748314958
0.0162314652184
0.00365367886908
0.015696475219
0.00363578276179
0.015165289407
0.00361418713434
0.0146383361914
0.0035892480456
0.0141160025845
0.00356128846699
0.0135986390551
0.00353060160214
0.0130865637096
0.0034974548744
0.0125800655599
0.00346209381758
0.0120794070701
0.00342474631084
0.0115848258376
0.00338562646626
0.0110965356223
0.00334493857245
0.0106147266518
0.00330288048965
0.0101395654235
0.00325964687897
0.00967119398377
0.00321543176047
0.00920972889846
0.00317043077235
0.00875525992461
0.00312484272287
0.00830784857017
0.00307887079206
0.00786752656688
0.00303272306599
0.00743429440715
0.00298661274175
0.00700811997213
0.00294075775859
0.00658893735608
0.00289538016349
0.00617664591336
0.00285070503094
0.0057711095889
0.00280695920533
0.00537215655201
0.00276436973843
0.00497957915016
0.00272316224495
0.0045931341995
0.00268355909604
0.00421254358144
0.00264577763003
0.0038374951777
0.00261002834455
0.0034676440475
0.00257651321354
0.00310261394953
0.00254542415716
0.00274199920423
0.0025169417864
0.00238536690433
0.00249123439425
0.0020322603735
0.00246845762029
0.00168220464546
0.00244875406406
0.00133471358595
0.00243224966978
0.000989308296651
0.00241901774871
0.000645627010287
0.00240844798941
0.0003050748596
0.00238826398583
0.00214135160626
0.0017093444019
-0.0124283203005
0.0036012856843
-0.0137675805187
0.00548238544866
-0.0137089636687
0.00733090994409
-0.0135022298245
0.00913579742984
-0.0132232992231
0.010887439181
-0.0128808867318
0.0125772678853
-0.012480562475
0.0141978102148
-0.012028259952
0.0157427288067
-0.0115302996526
0.0172068282308
-0.0109932144358
0.0185860306731
-0.0104235808429
0.0198773264913
-0.00982787181348
0.0210787061919
-0.0092123321128
0.0221890777522
-0.00858287742109
0.0232081744902
-0.0079450154619
0.0241364561619
-0.0073037893673
0.0249750079888
-0.00666374145814
0.0257254400478
-0.00602889774849
0.0263897918723
-0.00540277085904
0.0269704444868
-0.00478838059394
0.0274700440907
-0.00418828795339
0.0278914380093
-0.00360463965181
0.0282376247717
-0.00303921686031
0.0285117159164
-0.0024934842337
0.0287169085057
-0.00196863343306
0.0288564637623
-0.00146561951419
0.028933690021
-0.000985187995357
0.0289519260649
-0.000527894951772
0.0289145248328
-9.41210810932e-05
0.0288248357329
0.000315916544624
0.028686185086
0.000702155668104
0.0285018648175
0.00106467263561
0.0282751117135
0.00140367062435
0.0280090948737
0.00171947064522
0.0277069041046
0.00201249701434
0.0273715395026
0.00228326434426
0.0270059033895
0.0025323662634
0.0266127929355
0.00276046457453
0.0261948945049
0.00296828005289
0.0257547782409
0.0031565835139
0.0252948940313
0.00332618812956
0.0248175675848
0.0034779416239
0.024324997817
0.00361271930571
0.023819254422
0.00373141670306
0.0233022768138
0.00383494278555
0.0227758734085
0.00392421269257
0.0222417223688
0.00400014096409
0.0217013728491
0.00406363434196
0.0211562477573
0.00411558514113
0.0206076471119
0.00415686441093
0.0200567528706
0.00418831586969
0.0195046343161
0.00421074995929
0.0189522547134
0.0042249389468
0.018400478329
0.00423161249975
0.0178500783704
0.00423145454925
0.0173017449602
0.00422510089346
0.0167560935833
0.00421313820304
0.0162136731797
0.00419610387621
0.0156749742509
0.00417448723778
0.0151404362472
0.00414873151625
0.0146104545736
0.00411923694189
0.0140853866046
0.00408636440245
0.0135655570487
0.00405043987936
0.0130512621845
0.00401175912717
0.012542773326
0.00397059274154
0.0120403391696
0.00392719113363
0.0115441873941
0.00388178951735
0.011054525282
0.00383461250504
0.0105715397322
0.00378587841175
0.0100953965228
0.00373580295718
0.00962623917426
0.00368460247826
0.00916418733313
0.00363249643518
0.008709334987
0.0035797093416
0.00826174846628
0.00352647199144
0.00782146448822
0.00347302211861
0.00738848821974
0.00341960443612
0.00696279154835
0.00336647018566
0.00654431154989
0.00331387620008
0.00613294927548
0.00326208359174
0.00572856885551
0.00321135611025
0.00533099697857
0.00316195825617
0.0049400227513
0.00311415322475
0.00455539794415
0.00306820073538
0.00417683762794
0.00302435484394
0.0038040211834
0.00298286176421
0.0034365936794
0.00294395781721
0.00307416762759
0.0029078674947
0.00271632511143
0.00287480176307
0.00236262059761
0.00284495665194
0.00201258439703
0.0028185117337
0.00166572659095
0.00279562867015
0.00132154473633
0.00277644824885
0.000979535742565
0.00276104505122
0.000639291245684
0.00274870941687
0.000302135364409
0.00272543730623
0.00244349653836
0.00177605569174
-0.0142044719036
0.00374094160727
-0.0157325673142
0.00569304604836
-0.0156611707121
0.00760908926572
-0.0154183741737
0.00947701253507
-0.0150913230232
0.0112864153308
-0.0146903887568
0.0130281328239
-0.014222377998
0.0146942893322
-0.0136945129692
0.0162783298954
-0.0131144351613
0.0177750098382
-0.0124899874982
0.0191803489558
-0.0118290112346
0.0204915597791
-0.0111391718212
0.0217069561066
-0.0104278155616
0.0228258484173
-0.0097018545579
0.0238484295013
-0.00896767914424
0.0247756551963
-0.00823109521397
0.0256091227234
-0.00749728679074
0.0263509518388
-0.00677080211662
0.0270036719296
-0.00605556377673
0.0275701208539
-0.00535489972578
0.028053358226
-0.00467159306292
0.0284565971918
-0.00400794370154
0.0287831540094
-0.00336583627498
0.0290364150609
-0.00274680522235
0.0292198160208
-0.00215209185108
0.0293368294541
-0.00158268776081
0.0293909544279
-0.00103936532908
0.0293857058441
-0.000522696119276
0.0293246003155
-3.30628920573e-05
0.0292111399866
0.000429332100874
0.0290487916427
0.000864461606354
0.0288409763539
0.00127244803274
0.0285910468147
0.00165356257906
0.0283022753535
0.00200820696676
0.027977842215
0.00233689724549
0.0276208267169
0.00264024929484
0.0272341995293
0.00291896504938
0.0268208169666
0.00317382099963
0.0263834155335
0.00340565739881
0.0259246078154
0.00361536930135
0.0254468782727
0.00380389768596
0.0249525802212
0.00397222172836
0.0244439327723
0.00412135063822
0.0239230190598
0.00425231621148
0.0233917846382
0.00436616471241
0.0228520373341
0.00446394928136
0.0223054475127
0.00454672165433
0.0217535499572
0.00461552440846
0.0211977463708
0.00467138269495
0.020639309567
0.00471529668651
0.0200793883642
0.00474823387439
0.0195190140711
0.00477112242239
0.0189591075586
0.00478484483555
0.0184004876127
0.00479023305847
0.0178438795531
0.00478806431032
0.0172899246498
0.00477905860925
0.0167391893597
0.00476387728297
0.0161921748026
0.00474312321783
0.0156493255885
0.00471734211135
0.0151110383665
0.0046870252853
0.0145776693357
0.00465261330164
0.0140495410836
0.00461450077556
0.0135269481465
0.00457304163717
0.0130101616795
0.00452855512241
0.0124994327871
0.00448133179042
0.0119949949282
0.00443163978438
0.0114970650896
0.00437973071548
0.01100584416
0.00432584536758
0.0105215163102
0.00427021871066
0.0100442478065
0.00421308443036
0.00957418514163
0.00415467858343
0.00911145287985
0.00409524260836
0.00865615114102
0.00403502541803
0.00820835307082
0.00397428481908
0.0077681022372
0.00391328808592
0.00733541023449
0.00385231193205
0.00691025444169
0.00379164178584
0.00649257614263
0.00373157059181
0.00608227895868
0.00367239710485
0.00567922773132
0.00361442386286
0.00528324780987
0.00355795485062
0.00489412481615
0.00350329299639
0.00451160485469
0.00345073754915
0.00413539517442
0.00340058143094
0.00376516528919
0.00335310863584
0.00340054848208
0.00330859171807
0.00304114377883
0.00326728946378
0.00268651835992
0.00322944472497
0.00233621023081
0.00319528235922
0.00198973179648
0.00316500761127
0.0016465744194
0.00313880410845
0.00130621174771
0.00311682783755
0.000968110734366
0.00309916124068
0.000631828184714
0.00308501054896
0.000298621655825
0.00305866306046
0.00274212638006
0.00185444224765
-0.0160590121487
0.00390495282779
-0.017783184568
0.00594025520559
-0.0176965776381
0.00793518176312
-0.0174134052239
0.00987646794298
-0.0170327122579