/*--------------------------------*- C++ -*----------------------------------*\
| =========                 |                                                 |
| \\      /  F ield         | OpenFOAM: The Open Source CFD Toolbox           |
|  \\    /   O peration     | Version:  v1906                                 |
|   \\  /    A nd           | Web:      www.OpenFOAM.com                      |
|    \\/     M anipulation  |                                                 |
\*---------------------------------------------------------------------------*/
FoamFile
{
    version     2.0;
    format      ascii;
    class       volScalarField;
    location    "40";
    object      p;
}
// * * * * * * * * * * * * * * * * * * * * * * * * * * * * * * * * * * * * * //

dimensions      [0 2 -2 0 0 0 0];


internalField   nonuniform List<scalar> 
9216
(
318.367719181
318.475171217
318.727459478
319.099254019
319.59349219
320.210083561
320.948090385
321.803730518
322.77541979
323.860981394
325.05694675
326.355526889
327.755873395
329.25042383
330.833993954
332.508740219
334.275935062
336.135600629
338.07792851
340.093919046
342.186460616
344.338248213
346.536687785
348.787048734
351.084984035
353.430742937
355.81056061
358.217643723
360.656084989
363.114170361
365.587638258
368.054182067
370.509582056
372.994553615
375.487747208
377.972889347
380.445153072
382.886270295
385.291140074
387.657695855
389.979245396
392.250921508
394.453330449
396.585074582
398.655526736
400.663642281
402.59424079
404.445894187
406.211136246
407.884793321
409.461603828
410.943232618
412.324538636
413.603830601
414.776000401
415.843265437
416.804797344
417.662003211
418.413095371
419.058441897
419.604971694
420.065362365
420.451539398
420.776296512
421.049065684
421.277701313
421.470930967
421.640135973
421.791809527
421.929384083
422.055599572
422.173403813
422.284811547
422.392660075
422.497684257
422.599314826
422.697798625
422.794559003
422.889679758
422.981797618
423.069971375
423.154927676
423.2376184
423.317154141
423.39096312
423.459774102
423.524451338
423.582109604
423.628538482
423.663391901
423.687545981
423.70408095
423.716098711
423.723774681
423.727345626
423.728171342
318.259995995
318.367718298
318.611449407
318.982196096
319.477215634
320.095285839
320.835211692
321.69314329
322.666517994
323.753797018
324.951110067
326.255154548
327.660682907
329.158854505
330.746340312
332.426612548
334.199764534
336.061812533
338.006008608
340.02171736
342.113961089
344.274974961
346.485524292
348.741302219
351.040132867
353.383657283
355.764339725
358.177137151
360.623149417
363.090029244
365.562035238
368.039910351
370.523335059
373.01584421
375.511374918
378.000341987
380.475357327
382.919610983
385.328649564
387.69842725
390.019487277
392.29211103
394.506417578
396.650543038
398.7246852
400.733918254
402.669669188
404.525989903
406.297954909
407.976813286
409.557923574
411.042078037
412.427051166
413.706242838
414.874968567
415.938632048
416.898246181
417.754351881
418.501226359
419.13819935
419.675493745
420.126068273
420.502091358
420.817726423
421.08375475
421.305849489
421.492889075
421.656284665
421.803963824
421.939197776
422.063747456
422.17969535
422.289470153
422.395843913
422.50022592
422.600845715
422.698294057
422.794091452
422.889318972
422.982139104
423.070764535
423.154995456
423.236513418
423.316050953
423.390984641
423.460287059
423.524340048
423.581251847
423.629200526
423.665756457
423.689416025
423.705556
423.718027334
423.725175161
423.728111293
423.729124942
318.006411773
318.124041651
318.369278398
318.742221294
319.240104393
319.86118686
320.604531904
321.467116758
322.445789882
323.538969221
324.741735668
326.050060208
327.461614068
328.972720628
330.569308287
332.254893475
334.038082673
335.907281609
337.858477838
339.885068394
341.984158812
344.148460838
346.371424103
348.639397145
350.949599816
353.304430528
355.691721992
358.108469177
360.554973463
363.031366421
365.521165451
368.022266791
370.526013595
373.028472539
375.535801794
378.036381822
380.518409728
382.971606453
385.391237309
387.77241403
390.107317373
392.392582776
394.613371028
396.76943968
398.857577859
400.875385032
402.820393682
404.68624708
406.47158805
408.154489131
409.73771675
411.225542404
412.612116156
413.890542629
415.059977916
416.120682186
417.073667456
417.919648151
418.656666494
419.28390984
419.806402031
420.239847115
420.599081529
420.898532156
421.149092933
421.358052
421.535187487
421.690931808
421.832228728
421.960978323
422.078190374
422.189430829
422.295611634
422.399921144
422.504830465
422.604548854
422.702006841
422.798082015
422.891721712
422.982471488
423.070959598
423.155499129
423.236833199
423.316428766
423.392106369
423.462172516
423.523705919
423.578913439
423.629091697
423.6681375
423.691635944
423.708466543
423.720830884
423.727541351
423.731153324
423.733041026
317.629466486
317.750782375
317.998997351
318.375349096
318.878082987
319.504729281
320.25443921
321.124391946
322.11104689
323.211431805
324.423310563
325.742117395
327.164547133
328.682588303
330.291495926
331.993899914
333.788873293
335.670389631
337.634387499
339.674581578
341.789052564
343.966395349
346.200532053
348.484774246
350.805277077
353.166946871
355.56356018
357.998676807
360.46279665
362.948178223
365.456565684
367.979174035
370.507617157
373.036731053
375.566796931
378.092585475
380.591113079
383.05696406
385.493593007
387.899257442
390.250449752
392.53765467
394.760907371
396.922429345
399.025743351
401.058017872
403.018706256
404.90028028
406.69606507
408.403293945
410.004436008
411.499665834
412.894750449
414.175555842
415.345801305
416.402543718
417.345351744
418.175253157
418.89543766
419.505715743
420.005254862
420.41167021
420.741160387
421.013108014
421.241603337
421.43359051
421.59619746
421.738926529
421.869446997
421.989960609
422.101475623
422.207699121
422.308431951
422.409347987
422.510556142
422.608570325
422.706354509
422.803222716
422.897349942
422.989210978
423.077283001
423.158954655
423.23834648
423.317904554
423.394241253
423.463850865
423.524480492
423.580013081
423.628752871
423.66745713
423.695705769
423.713904188
423.72593048
423.733275294
423.737190087
423.739095335
317.123962921
317.247990807
317.499973042
317.881009929
318.390248139
319.024882582
319.783611192
320.663143853
321.660419661
322.773038507
323.99765327
325.331079999
326.764185059
328.293639853
329.919739619
331.639796108
333.451922721
335.350384854
337.333675793
339.392043634
341.520785999
343.718242657
345.970184178
348.267223786
350.597731461
352.973636518
355.391346691
357.841514811
360.328387502
362.843066969
365.379254846
367.93478713
370.49230138
373.044694946
375.601375251
378.149596268
380.676002422
383.178898188
385.63104656
388.020284085
390.368623107
392.677821974
394.933199255
397.134671561
399.261367372
401.307492981
403.290706524
405.194753208
407.008376704
408.730760328
410.351538614
411.876359076
413.284123754
414.564467089
415.737043561
416.791621108
417.724215382
418.53774992
419.234085472
419.813358602
420.277192656
420.641900701
420.923807606
421.157191686
421.356783436
421.523955676
421.668639839
421.79465734
421.912115167
422.021172177
422.124659244
422.224742869
422.321761486
422.416567837
422.511766954
422.608084447
422.709348395
422.809492113
422.904533367
422.997694582
423.085682631
423.166816051
423.246242573
423.32557608
423.400795609
423.468659715
423.528099387
423.582159153
423.631858033
423.671615472
423.701046561
423.721649
423.734529038
423.742300635
423.746318632
423.748472909
316.488044501
316.61456773
316.871220843
317.258658277
317.775821825
318.420656564
319.190770275
320.082707036
321.094147306
322.222040943
323.463291058
324.811371894
326.260828815
327.808165405
329.45308149
331.193441495
333.028299191
334.948088847
336.948741241
339.030139608
341.187197189
343.405302794
345.672208649
347.982206775
350.328952796
352.723206163
355.16724484
357.650476698
360.167296738
362.717884051
365.285309696
367.862909932
370.455201351
373.049122014
375.647323735
378.235187789
380.76533759
383.264075872
385.730232878
388.147702851
390.533849308
392.881380074
395.165617694
397.382350685
399.538153708
401.621424745
403.642926436
405.57185279
407.40299358
409.149915285
410.793670045
412.340812544
413.762045275
415.051451235
416.235813871
417.280956107
418.202516373
418.987943013
419.651524776
420.193565286
420.579758927
420.866740327
421.077505391
421.261991928
421.427316355
421.572059713
421.696055626
421.810344965
421.922304888
422.029243
422.133161914
422.234037477
422.33096605
422.425000487
422.516499634
422.612637135
422.718172254
422.815300904
422.908569132
423.003155226
423.092365149
423.174051413
423.252335068
423.330174594
423.407127941
423.475488523
423.537824659
423.594455529
423.642210762
423.678849554
423.70884727
423.731956172
423.745702347
423.755295999
423.759962821
423.762542995
315.719048617
315.848247927
316.110351916
316.506152435
317.033596101
317.691051294
318.475394918
319.382445612
320.410919898
321.557501142
322.818485989
324.185345635
325.65371077
327.225126455
328.89335717
330.655059788
332.511522537
334.456617991
336.484997228
338.593707895
340.78012752
343.02227177
345.301179211
347.624471933
349.998264873
352.426977621
354.904635388
357.426666916
359.97632746
362.551404281
365.156485106
367.779673848
370.419130406
373.05298411
375.685215655
378.288108345
380.829873258
383.350516904
385.84890071
388.318435201
390.73909339
393.103167851
395.423981775
397.696375816
399.886603081
401.995016538
404.041492241
406.005376716
407.883031777
409.656722842
411.320898222
412.888826699
414.326797025
415.633063521
416.813323881
417.846804127
418.756571024
419.527469887
420.109008598
420.480762571
420.752587934
420.958292562
421.124393878
421.290490237
421.432250062
421.561010379
421.684461286
421.803934967
421.916158318
422.024055993
422.130263903
422.233919237
422.334189623
422.431952036
422.52829119
422.628713513
422.731584853
422.82763205
422.921646685
423.015680774
423.100234617
423.180326494
423.259234387
423.335116943
423.410599419
423.482854985
423.550151513
423.607913973
423.655176094
423.693320378
423.723804722
423.747142481
423.762255415
423.772663938
423.778154864
423.780806022
314.814320291
314.946239164
315.214675529
315.620774865
316.15946145
316.832013595
317.634485469
318.560731779
319.609305812
320.77901597
322.061457377
323.450883147
324.944416369
326.540152633
328.233713762
330.024200333
331.908362235
333.881801616
335.940364855
338.082072904
340.293827009
342.55699746
344.855022386
347.203621725
349.614455353
352.080675297
354.599129818
357.153241052
359.737219521
362.358749586
365.010077049
367.683279468
370.360528145
373.040688856
375.698439063
378.305094284
380.888519121
383.466409283
386.000806353
388.492265162
390.954534304
393.370634887
395.742564088
398.045476799
400.268408145
402.430247324
404.524147017
406.523285819
408.422142017
410.232183753
411.931729227
413.515834308
414.970291312
416.290899355
417.472041644
418.509298802
419.418228808
419.957115777
420.311637993
420.575627761
420.795297453
420.972571371
421.123749955
421.266756342
421.400884137
421.53089872
421.658237772
421.782182163
421.900848655
422.015172858
422.126442114
422.234552756
422.339497805
422.441997836
422.543103221
422.645196486
422.746388085
422.843390364
422.938206284
423.030054621
423.115332939
423.195418519
423.27223849
423.349862431
423.425869431
423.497364128
423.563709635
423.620876129
423.67085412
423.714303969
423.745098017
423.769066559
423.785614857
423.794367666
423.801470213
423.80403552
313.769882047
313.90491504
314.180369056
314.598088062
315.151655707
315.840991637
316.664007055
317.613669947
318.686758902
319.882393719
321.192259322
322.609620761
324.129467324
325.752749132
327.477166774
329.29894316
331.214722751
333.220579579
335.312761209
337.488489526
339.72523471
342.006952042
344.336753152
346.723064474
349.174111792
351.684194841
354.237790153
356.829096496
359.463038809
362.135373328
364.842737759
367.556764509
370.283396177
372.997616344
375.664574195
378.316186388
380.96571763
383.579590751
386.149740776
388.699509196
391.224410117
393.683303851
396.078918038
398.427201391
400.723428591
402.929837504
405.048992223
407.095346116
409.037835475
410.872949349
412.595602189
414.210015814
415.68188623
417.032953094
418.233271239
419.190122196
419.747030541
420.084592249
420.362535965
420.586124734
420.771216256
420.931265307
421.078382768
421.22231597
421.362081905
421.498542351
421.631999395
421.761829434
421.887072253
422.007888791
422.124552314
422.237253741
422.346570858
422.453199496
422.557726122
422.66097386
422.762304164
422.86041313
422.95576025
423.047658859
423.134697226
423.217361108
423.297228129
423.375095095
423.448387482
423.516991315
423.581987903
423.641376113
423.69380388
423.738112341
423.772195982
423.797168899
423.813804384
423.82133802
423.829755615
423.831895813
312.580392545
312.720179633
313.004320683
313.434670682
314.006242446
314.716637268
315.563881106
316.540279885
317.641842607
318.865830111
320.20650275
321.654759802
323.208594353
324.864196155
326.622603958
328.479135121
330.430348057
332.472578179
334.604570678
336.812556108
339.074120875
341.37792384
343.744877377
346.178149197
348.676206788
351.224815151
353.818692187
356.463336821
359.149736407
361.88195779
364.644490513
367.404432434
370.163159508
372.900170027
375.617584488
378.341066195
381.034046091
383.691161311
386.326779277
388.941067465
391.505679403
394.006344835
396.464262504
398.874899502
401.212122289
403.467933373
405.635293142
407.71905683
409.689563537
411.55240524
413.321611743
414.969973858
416.479856364
417.88211834
418.871631361
419.445929548
419.834513545
420.102433231
420.337102564
420.529025365
420.700397459
420.86325848
421.019809887
421.172858152
421.322009198
421.467124121
421.608106429
421.744638346
421.876313623
422.003133087
422.124983486
422.242116708
422.355424203
422.465670423
422.573289011
422.678654899
422.781544194
422.881328893
422.97789948
423.070806367
423.159450651
423.243936243
423.324836963
423.402337727
423.475474955
423.544701513
423.609260371
423.666963384
423.718321415
423.763985228
423.803005143
423.832960768
423.848221536
423.855063492
423.862156488
423.865089322
311.241951138
311.387757026
311.682442134
312.128451754
312.720651734
313.455719157
314.331320079
315.339044074
316.475093502
317.73271784
319.107292507
320.589056501
322.17825613
323.872598347
325.66904207
327.563929602
329.553935456
331.63564107
333.809952243
336.044773267
338.331314266
340.678318664
343.088693085
345.570894779
348.109625565
350.701190576
353.351247112
356.056099644
358.796715824
361.572512304
364.392249611
367.198697131
369.997886021
372.794648521
375.57995155
378.351215301
381.095159492
383.835059328
386.52810095
389.17641213
391.798418113
394.385614143
396.894329212
399.334528243
401.732296297
404.035983639
406.25341225
408.374818984
410.394923921
412.302959268
414.108879894
415.787513825
417.370644378
418.539192071
419.090009049
419.483753461
419.800471227
420.042044833
420.250193399
420.435974475
420.614428294
420.788343153
420.957500101
421.122126989
421.281856105
421.436392376
421.58557777
421.729289245
421.867437914
422.000083582
422.127029897
422.248575394
422.365825957
422.47966711
422.590525871
422.69860675
422.803779709
422.90566307
423.003999709
423.098461017
423.188717218
423.274706644
423.356558357
423.434247539
423.507417807
423.576037106
423.639515257
423.696893681
423.748825254
423.795723368
423.838036443
423.871747118
423.891212875
423.896071367
423.89985351
423.904475996
309.751090509
309.903564233
310.209788755
310.67423414
311.290598424
312.0545746
312.963139412
314.006933728
315.181424197
316.479364318
317.89332577
319.415128611
321.043230834
322.778599567
324.616386393
326.552865012
328.584617571
330.709374408
332.919724032
335.1924796
337.508487485
339.897082642
342.363890153
344.889188875
347.472033755
350.120723907
352.831667674
355.587811665
358.383544838
361.237683989
364.094388288
366.946485933
369.806886633
372.66586122
375.513202365
378.342247824
381.174975519
383.968613934
386.716852409
389.442241744
392.14121408
394.777897922
397.332818673
399.846538475
402.283283217
404.638516808
406.902733351
409.074211778
411.137663694
413.090428579
414.925440376
416.678564699
418.054933157
418.712338502
419.087740035
419.418512381
419.686171138
419.913676076
420.125814965
420.326893822
420.521435739
420.710512534
420.893778921
421.070940541
421.241718317
421.405945295
421.563583423
421.714685116
421.859371708
421.997816065
422.129852621
422.255855649
422.377124545
422.49469296
422.608995883
422.720151344
422.828049992
422.932414582
423.032973494
423.129447111
423.221581544
423.309228951
423.392319983
423.470725279
423.544203834
423.612545743
423.675391335
423.732438303
423.784165417
423.831352827
423.874140125
423.910959232
423.936483602
423.94400605
423.943130866
423.94775009
308.094855802
308.256267177
308.580261967
309.066286155
309.711261287
310.509198357
311.456148093
312.541574338
313.759484199
315.101970462
316.560968937
318.127940328
319.800833988
321.581406121
323.464359042
325.44587463
327.523389237
329.696113856
331.933590693
334.240601549
336.606330497
339.04117291
341.556279041
344.135211984
346.771276665
349.480645046
352.243839217
355.054887451
357.923405892
360.832175468
363.748071049
366.659048111
369.585702061
372.508553974
375.42046731
378.345209211
381.238965882
384.095033689
386.944218243
389.737107
392.479119212
395.193311212
397.817935667
400.364017166
402.857308776
405.262752481
407.583747459
409.804688386
411.922539353
413.916159524
415.791246447
417.458114501
418.217636965
418.63904775
418.98590669
419.275738567
419.527375251
419.764233987
419.992342038
420.212593951
420.425583485
420.631254321
420.829252769
421.019323954
421.201366167
421.375411549
421.541608496
421.700191274
421.851457653
421.995699854
422.132835955
422.263346328
422.38873316
422.510189449
422.628135522
422.742640962
422.853600477
422.960787347
423.063943473
423.162808282
423.257137681
423.346727917
423.431402652
423.510957195
423.585140403
423.653701817
423.71640118
423.773150753
423.824279904
423.870415863
423.912163976
423.949456481
423.979446815
423.997871144
423.991113523
423.994213721
306.264046738
306.435893836
306.781927618
307.298628486
307.977185759
308.815180633
309.807027994
310.940892674
312.207965453
313.599832033
315.110342181
316.728223912
318.451045605
320.280989977
322.212764654
324.242205116
326.364696833
328.581396784
330.861605057
333.20106402
335.61933286
338.110196305
340.670699769
343.298872558
346.001392228
348.764738397
351.58539468
354.47163535
357.404527448
360.368976395
363.336711656
366.328603092
369.326141849
372.31656553
375.330692064
378.322834508
381.285407834
384.247044716
387.158107352
390.01530446
392.858442759
395.6256109
398.316678977
400.922676468
403.441890547
405.907631448
408.284540357
410.567625183
412.746669841
414.815192194
416.730346924
417.614353207
418.09145304
418.482651902
418.803967178
419.084129833
419.349589229
419.606306196
419.85547243
420.096423235
420.328466662
420.551105042
420.764030467
420.967148556
421.160555534
421.34449271
421.519306067
421.685415999
421.843288131
421.993336516
422.135558397
422.270613154
422.400273146
422.525812294
422.647604741
422.765693477
422.879977955
422.99025845
423.096294214
423.197832926
423.29462396
423.386423439
423.472989573
423.554061067
423.629357953
423.698611321
423.761610126
423.818293455
423.868871513
423.913817729
423.953823862
423.98957517
424.020720175
424.044022472
424.042611127
424.043073916
304.253784067
304.439116258
304.805908704
305.35913705
306.083161146
306.967871034
308.012541819
309.204230587
310.526098505
311.975275018
313.541309981
315.216587415
316.994555224
318.878311653
320.863986201
322.940855157
325.112258753
327.368968212
329.697203978
332.077580486
334.540500137
337.086036537
339.704826099
342.395048921
345.15093912
347.970428657
350.867447879
353.818226216
356.799375238
359.8258466
362.87722695
365.948513296
369.03281223
372.119819339
375.206620575
378.274699865
381.352005462
384.381453561
387.360699468
390.332700996
393.236352244
396.071545988
398.82280185
401.491776503
404.06249545
406.549669287
409.001208908
411.346653342
413.63458117
415.850468339
416.894768422
417.442027934
417.886636869
418.253668771
418.571744894
418.871790083
419.161943986
419.443738548
419.716483112
419.978994266
420.230364171
420.470088767
420.698007397
420.914220734
421.119034456
421.312896436
421.496352694
421.670010157
421.8345
421.990355483
422.137646702
422.2773235
422.411493591
422.541365745
422.667228712
422.78911687
422.906939721
423.020519217
423.129633387
423.234040996
423.333486574
423.42770155
423.516402104
423.599286329
423.676043148
423.74638087
423.810073373
423.867027564
423.917359414
423.961433454
423.999891761
424.033674552
424.063342814
424.087132833
424.099755137
424.095334815
302.049371432
302.249416643
302.646620278
303.237949992
304.016618008
304.961509193
306.067906153
307.328090772
308.715763325
310.228566129
311.855564356
313.594413743
315.432414484
317.373301141
319.411277046
321.54284984
323.76266981
326.06115703
328.432675838
330.86796152
333.384604318
335.976837517
338.644180704
341.396224197
344.219471995
347.10828076
350.075897554
353.078150003
356.131533494
359.229565052
362.361676191
365.51791961
368.692505159
371.870963937
375.043832838
378.237106218
381.394911327
384.499638368
387.596177113
390.638604145
393.619344984
396.52113922
399.340837459
402.061797061
404.672070432
407.240032109
409.719789717
412.128361539
414.569095605
416.044611127
416.709097967
417.198228572
417.613167557
417.977055449
418.319355217
418.649062031
418.968781907
419.278041472
419.575539179
419.860101658
420.130977885
420.387860998
420.630802752
420.860127332
421.076357143
421.28015265
421.472261596
421.653479395
421.824601834
421.986268434
422.138627621
422.283096797
422.42214135
422.556675833
422.6868776
422.8127905
422.934344755
423.05138612
423.163719285
423.27112245
423.373347195
423.470114794
423.561118431
423.646027612
423.724504199
423.79622941
423.860947311
423.918520034
423.968993168
424.012652616
424.050104233
424.082322745
424.110062859
424.132011018
424.155969229
424.149426558
299.637088996
299.850962124
300.285904503
300.931004359
301.772082524
302.791515122
303.971507749
305.308093358
306.776193441
308.363912654
310.059545223
311.863792497
313.768181888
315.771701776
317.863150438
320.047725465
322.31700903
324.657286363
327.068202537
329.561182188
332.128221085
334.780543223
337.505634333
340.311312525
343.194142024
346.149509622
349.180374852
352.270989908
355.39034887
358.568137361
361.78421664
365.033237658
368.300548241
371.573781569
374.881488749
378.167949624
381.42952927
384.642846649
387.799075032
390.938898115
393.999296126
396.980758235
399.86589541
402.654748122
405.329415294
407.903854825
410.424910166
412.845550482
415.038538336
415.896220092
416.420974336
416.878498062
417.290487542
417.681019684
418.056802923
418.420419331
418.771709098
419.109382286
419.432112025
419.738955842
420.029446509
420.303538312
420.561531661
420.803984835
421.031646477
421.245393192
421.446179731
421.634993897
421.812789821
421.98028345
422.137782101
422.28744738
422.431902923
422.571507351
422.706367539
422.836561308
422.962046336
423.082700188
423.19836363
423.30884813
423.413925801
423.513324553
423.606729992
423.693796418
423.77416456
423.84749055
423.913484724
423.971962183
424.022905572
424.066538987
424.103407831
424.134400352
424.160368789
424.182048621
424.210935828
424.204587321
296.993627024
297.229355148
297.7063982
298.417176112
299.337703573
300.449589047
301.720635457
303.14561803
304.703628627
306.378753615
308.156454888
310.032220701
312.005059283
314.069166344
316.22152564
318.458652698
320.777661339
323.16672814
325.620228722
328.163452708
330.781034032
333.488468182
336.270992191
339.134127188
342.078112792
345.102284795
348.211746187
351.358945185
354.566127744
357.82955506
361.1387574
364.482745161
367.847578556
371.262540599
374.670915973
378.068839549
381.437740191
384.765453636
388.030883652
391.222521525
394.381636969
397.440323723
400.40258021
403.248303494
405.984566427
408.607934766
411.169977897
413.613552691
414.880908756
415.545417487
416.04147023
416.502754634
416.946255579
417.374159189
417.787808234
418.186954355
418.570358227
418.936623131
419.284659218
419.613844364
419.924010141
420.215382973
420.488507221
420.74417461
420.983356866
421.207147188
421.416709563
421.613224163
421.797787742
421.971149361
422.134158732
422.289849966
422.440353138
422.585491379
422.725384025
422.860156934
422.98980021
423.114230012
423.233335779
423.346974767
423.454955326
423.557026562
423.652882741
423.742175226
423.82453413
423.899595792
423.967040851
424.026641269
424.078325501
424.12226044
424.158935871
424.18919315
424.214355015
424.236418334
424.260626578
424.259725829
294.095743813
294.362516248
294.895454205
295.684053701
296.700993718
297.923562655
299.314594178
300.846512366
302.506156448
304.278501623
306.147083522
308.10347488
310.150857688
312.276580486
314.48339932
316.770003148
319.135356007
321.575142999
324.080089538
326.665212469
329.338843819
332.094308445
334.948569129
337.859853034
340.863187431
343.951734424
347.124398361
350.371291837
353.654718702
357.011216107
360.413952092
363.857628535
367.365799125
370.888706424
374.415703675
377.928265471
381.421206825
384.862442825
388.245804129
391.547727153
394.751459783
397.907173291
400.941645633
403.852657729
406.62701553
409.2998237
411.944240719
413.636857921
414.489819587
415.073909603
415.598546102
416.103425915
416.590348339
417.060153063
417.512810492
417.947332636
418.362415353
418.756917088
419.130086411
419.481602759
419.811561691
420.120414246
420.408917083
420.678067136
420.929044173
421.163149603
421.381754489
421.586227366
421.777789489
421.95726641
422.12668252
422.289626026
422.446868961
422.598058524
422.74341322
422.883116465
423.017189758
423.145595816
423.268282413
423.385166091
423.496103733
423.600880659
423.699213063
423.790763534
423.875162121
423.952035598
424.021042267
424.081918489
424.134543557
424.179032258
424.215815823
424.245687436
424.270107381
424.291444556
424.310854249
424.316708713
290.919947352
291.22507652
291.83080901
292.720875503
293.859305937
295.212781739
296.745640038
298.412588139
300.192689907
302.073968355
304.041388734
306.084612592
308.205791478
310.404359411
312.666592249
315.000336603
317.402446101
319.881397892
322.445365099
325.072108624
327.789276239
330.595353206
333.496816846
336.484848118
339.542855738
342.699728995
345.947450253
349.257133227
352.642871314
356.097253561
359.593741729
363.185056916
366.80008341
370.453207925
374.101865952
377.744355368
381.367985041
384.939985046
388.437762833
391.863376282
395.176050343
398.36681226
401.50102198
404.468685913
407.282203396
409.964521146
412.288081129
413.320673208
413.969664813
414.565678876
415.141146388
415.694968078
416.227217906
416.7385673
417.228837032
417.697239638
418.142850953
418.564919438
418.962992664
419.336969023
419.687097295
420.013963839
420.318457105
420.601725254
420.865120805
421.110136412
421.338342864
421.551285382
421.750319321
421.936695967
422.114321321
422.285909319
422.450606767
422.60839184
422.759694815
422.90474248
423.043579349
423.176217751
423.302674614
423.422935268
423.536917271
423.644452898
423.745293708
423.83912506
423.925589868
424.004315651
424.074949622
424.137202747
424.190916425
424.236161775
424.27334119
424.30320711
424.327135774
424.34792698
424.367302122
424.374934522
287.425858585
287.78190131
288.484003267
289.506553029
290.800507194
292.31982984
294.017814566
295.843274183
297.767279514
299.774313355
301.850671267
303.98826832
306.183299719
308.44052779
310.761414005
313.142208785
315.593890937
318.104038089
320.700631931
323.38909945
326.142381369
328.995440035
331.954701351
334.982721403
338.108789908
341.337365268
344.642482909
348.044369097
351.527886862
355.09616527
358.727708056
362.421367477
366.166553682
369.948291861
373.73268287
377.480392555
381.277552128
384.985557159
388.613487094
392.163264916
395.599566838
398.898475939
402.089745388
405.092750973
407.9929201
410.705650323
411.987853993
412.730290983
413.395555813
414.04821703
414.677352649
415.278918748
415.853886281
416.40350606
416.928281484
417.428140597
417.902746653
418.351708408
418.774747228
419.171793751
419.543075361
419.889148232
420.210910636
420.509567623
420.78658706
421.043627672
421.282436672
421.504728876
421.712140132
421.907996975
422.096522434
422.277592148
422.450352167
422.615342279
422.773172667
422.924067121
423.068081152
423.205285076
423.335773638
423.459611003
423.576782693
423.687178187
423.790593563
423.886748957
423.975310413
424.055918303
424.128218939
424.191908166
424.246797463
424.29292333
424.330660827
424.360742561
424.384417233
424.40473636
424.425023983
424.432252484
283.561451209
283.987122863
284.819473553
286.01783689
287.513711906
289.243744274
291.14669792
293.159825216
295.247473978
297.396160596
299.590061093
301.823785501
304.101385489
306.416831444
308.783079954
311.19807812
313.682321918
316.23867273
318.863715848
321.580865559
324.390895112
327.280816881
330.27894721
333.37746625
336.559097587
339.838654183
343.221141511
346.71131409
350.293943821
353.974748924
357.737318309
361.550290578
365.435023919
369.369186852
373.312347902
377.243120279
381.160661136
385.005984289
388.733258526
392.45638809
396.011317823
399.416155291
402.683146437
405.759493663
408.743776219
410.469492993
411.368971494
412.096135516
412.821327701
413.529652305
414.206398973
414.849326629
415.460599122
416.042723142
416.59746164
417.125743313
417.627813808
418.103479821
418.55235697
418.974112441
419.368655224
419.736268527
420.077668234
420.393990561
420.686740753
420.957705688
421.208841526
421.442240776
421.661034447
421.870347135
422.071517863
422.262752805
422.444299096
422.61730223
422.782413015
422.939794502
423.089517986
423.231727469
423.366610277
423.494316914
423.614908911
423.728338892
423.834456848
423.93302596