/*--------------------------------*- C++ -*----------------------------------*\
| =========                 |                                                 |
| \\      /  F ield         | OpenFOAM: The Open Source CFD Toolbox           |
|  \\    /   O peration     | Version:  v1906                                 |
|   \\  /    A nd           | Web:      www.OpenFOAM.com                      |
|    \\/     M anipulation  |                                                 |
\*---------------------------------------------------------------------------*/
FoamFile
{
    version     2.0;
    format      ascii;
    class       surfaceScalarField;
    location    "330";
    object      phi;
}
// * * * * * * * * * * * * * * * * * * * * * * * * * * * * * * * * * * * * * //

dimensions      [0 3 -1 0 0 0 0];
oriented        oriented;


internalField   nonuniform List<scalar> 
18240
(
-0.000199743128807
0.000199735857872
-0.000407591692877
0.000207831457933
-0.000614379467244
0.000206784338654
-0.000818253342259
0.000203853991952
-0.00101806226739
0.000199809065681
-0.00121289007881
0.000194805152576
-0.00140185899246
0.000188972298878
-0.00158429082868
0.000182406508991
-0.0017595103401
0.000175226103335
-0.00192705872143
0.000167520513899
-0.00208645455528
0.000159405721271
-0.0022374446414
0.000150959777713
-0.00237971996353
0.000142288508435
-0.00251320398886
0.000133451351932
-0.00263772582986
0.000124538416789
-0.00275334785473
0.000115587048129
-0.00285999807695
0.000106670189909
-0.00295783863132
9.78033322478e-05
-0.00304685893735
8.9043788151e-05
-0.00312728600147
8.03876525897e-05
-0.00319913881149
7.18798290568e-05
-0.00326268087318
6.35005219709e-05
-0.00331793601466
5.52858518549e-05
-0.00336518323889
4.72036196335e-05
-0.00340443350266
3.92846861929e-05
-0.00343596677319
3.14876747407e-05
-0.0034597697124
2.38412191213e-05
-0.00347611472461
1.62975059899e-05
-0.00348495835884
8.8857377121e-06
-0.00348656203126
1.55436583294e-06
-0.00348085151058
-5.66451183238e-06
-0.00346807831138
-1.28241525562e-05
-0.00344814192653
-1.98866010034e-05
-0.00342129080352
-2.69034786584e-05
-0.00338740851465
-3.38287374636e-05
-0.00334675186465
-4.07100454219e-05
-0.00329920392494
-4.74908459576e-05
-0.00324504557197
-5.42122510141e-05
-0.00318417946905
-6.08055536907e-05
-0.00311692967343
-6.73034941996e-05
-0.00304324145835
-7.36245338229e-05
-0.00296350209767
-7.97920344514e-05
-0.00287772330612
-8.57121903508e-05
-0.00278637526878
-9.13988834508e-05
-0.00268955911152
-9.6747164625e-05
-0.00258784618664
-0.000101761438651
-0.00248144854084
-0.000106326720934
-0.00237105665961
-0.000110438133192
-0.00225701284687
-0.000113971793424
-0.00214014239496
-0.000116915432637
-0.00202092948355
-0.000119140627551
-0.00190033889409
-0.000120636048324
-0.00177898602865
-0.000121280783859
-0.00165795037997
-0.000121082924413
-0.00153792791629
-0.000119949933677
-0.00142004343562
-0.000117933571795
-0.00130497938243
-0.000114990265546
-0.00119379691687
-0.000111231623338
-0.00108704933713
-0.000106671520631
-0.000985615594685
-0.000101479726907
-0.000889817769665
-9.57185050646e-05
-0.000800261765678
-8.95952858829e-05
-0.00071698387895
-8.31946423068e-05
-0.000640288433381
-7.6725707343e-05
-0.000569942362702
-7.02596967861e-05
-0.000505991388451
-6.397198141e-05
-0.000448008537106
-5.78953458679e-05
-0.000395867294363
-5.21546528428e-05
-0.000349041396725
-4.67398480478e-05
-0.000307320328835
-4.17292799078e-05
-0.000270155811921
-3.70817942567e-05
-0.000237315499288
-3.2845134305e-05
-0.000208273562611
-2.89635265527e-05
-0.000182807311335
-2.54685433149e-05
-0.000160433381762
-2.22998620971e-05
-0.000140954051319
-1.94793299977e-05
-0.000123938490723
-1.69455700159e-05
-0.00010922269524
-1.47136259539e-05
-9.64335580223e-05
-1.27229555824e-05
-8.54469552567e-05
-1.09828800701e-05
-7.59543479163e-05
-9.43047157358e-06
-6.78923575158e-05
-8.05667880184e-06
-6.10839226375e-05
-6.74957365246e-06
-5.5810717094e-05
-5.26652536217e-06
-5.11692055804e-05
-4.58708390152e-06
-4.65781174676e-05
-4.57926216031e-06
-4.25209811007e-05
-4.00336653417e-06
-3.90903145459e-05
-3.4095116035e-06
-3.56149647571e-05
-3.41705767751e-06
-3.17517425768e-05
-3.8269313576e-06
-2.77042980363e-05
-3.97706541932e-06
-2.35100467081e-05
-4.13491601385e-06
-1.86610213673e-05
-4.77582682374e-06
-1.28309586122e-05
-5.73906394375e-06
-6.14399571538e-06
-6.56420142178e-06
-6.08521599339e-06
-0.000209965291482
0.000409691774053
-0.000433392257598
0.000431244702841
-0.000654282026611
0.000427665375001
-0.000871628747651
0.000421187380166
-0.00108446921094
0.000412641665844
-0.00129188077891
0.000402203043753
-0.00149298254429
0.000390067090774
-0.00168702727793
0.000376437150179
-0.00187333863539
0.000361531514905
-0.00205139317703
0.000345560631261
-0.00222073027378
0.000328737970387
-0.00238104114737
0.000311255972211
-0.00253205829841
0.000293301994115
-0.00267365551494
0.000275033699201
-0.00280572004045
0.000256600489998
-0.00292826618187
0.000238118183917
-0.00304129258818
0.000219695435349
-0.00314491131522
0.000201406976293
-0.00323919166123
0.000183324301642
-0.00332430569716
0.000165486587134
-0.00340035924934
0.000147934973942
-0.0034675542595
0.000130680481362
-0.0035260069161
0.000113741574078
-0.00357592680203
9.71085715698e-05
-0.00361742188801
8.07844140175e-05
-0.0036506942916
6.47453320988e-05
-0.00367583182871
4.8985009565e-05
-0.00369302016928
3.34713495297e-05
-0.00370232076524
1.81942797569e-05
-0.00370389913033
3.11855180644e-06
-0.00369778960277
-1.17643927946e-05
-0.00368413984346
-2.64876961572e-05
-0.00366296187148
-4.1053160523e-05
-0.00363439209524
-5.54865219482e-05
-0.00359843034723
-6.97772867508e-05
-0.00355521466226
-8.39382980963e-05
-0.00350474880427
-9.79416025844e-05
-0.00344719030998
-0.000111782323577
-0.00338256777422
-0.000125410970243
-0.00331107986995
-0.000138801603421
-0.00323280385667
-0.000151881193958
-0.00314800261475
-0.000164601628364
-0.0030568264175
-0.000176866619306
-0.00295962471257
-0.000188606649078
-0.00285664378446
-0.000199703784906
-0.00274834042062
-0.000210068324892
-0.00263507860761
-0.000219561870841
-0.00251744282611
-0.000228075109818
-0.00239593583303
-0.000235450353923
-0.00227128928044
-0.000241561902252
-0.00214416069853
-0.000246240275493
-0.00201543785037
-0.000249359056385
-0.00188592768149
-0.000250762569755
-0.00175665024272
-0.000250361551664
-0.00162851110303
-0.00024806128677
-0.00150258546324
-0.000243861085356
-0.00137977321584
-0.000237774419114
-0.0012610816541
-0.000229924452362
-0.00114727229112
-0.000220450776974
-0.00103915136489
-0.000209598920375
-0.000937222352756
-0.000197613135183
-0.00084198849958
-0.000184821448168
-0.000753628149989
-0.000171514698141
-0.000672311550993
-0.000158026999121
-0.000597909822933
-0.000144615292031
-0.00053031569611
-0.000131543851246
-0.000469181373556
-0.000118979640934
-0.000414225628351
-0.00010708360383
-0.000364990508983
-9.59237738605e-05
-0.000321121963819
-8.55690160063e-05
-0.000282138034626
-7.60154685511e-05
-0.000247678322318
-6.72757334431e-05
-0.000217282189574
-5.93112245663e-05
-0.000190612148455
-5.2109836204e-05
-0.000167246650065
-4.56188653672e-05
-0.000146884304567
-3.98132471789e-05
-0.000129152628844
-3.46324399432e-05
-0.000113794288242
-3.00437054183e-05
-0.000100490142875
-2.59838220776e-05
-8.90275968758e-05
-2.24173474462e-05
-7.91344193472e-05
-1.92820106113e-05
-7.06212609157e-05
-1.65414183804e-05
-6.31955060323e-05
-1.41350271634e-05
-5.63909951631e-05
-1.20427729855e-05
-5.05487166885e-05
-1.03928149016e-05
-4.55723205537e-05
-9.52559089917e-06
-4.14117707997e-05
-8.12421310777e-06
-3.79544071465e-05
-6.83179611755e-06
-3.47200614646e-05
-6.6070888941e-06
-3.13706629471e-05
-7.12776625998e-06
-2.75372122202e-05
-7.75092056041e-06
-2.33548376517e-05
-8.25540040584e-06
-1.87794817264e-05
-9.27329307438e-06
-1.33115364583e-05
-1.11158755512e-05
-6.49778986373e-06
-1.32723080128e-05
-1.25247368788e-05
-0.000213178274448
0.00062286007125
-0.000438582776994
0.000656638774021
-0.000661895341397
0.000650967250678
-0.000881632721173
0.000640913685301
-0.00109671888557
0.000627717821243
-0.00130617562348
0.000611648648183
-0.00150911367064
0.00059299560632
-0.00170476286071
0.000572075307969
-0.0018924598588
0.000549219472456
-0.00207166984898
0.000524759802716
-0.00224196009691
0.000499019755754
-0.00240301759663
0.000472302941981
-0.00255461300249
0.000444889558014
-0.00269661812999
0.000417028643506
-0.00282896384443
0.000388939052789
-0.00295166045051
0.000360805001899
-0.00306475205097
0.00033278060408
-0.00316834181494
0.000304987400612
-0.00326254426327
0.000277521114741
-0.00334751637216
0.000250449857873
-0.00342340822865
0.0002238220264
-0.00349040018704
0.000197664164294
-0.00354865181888
0.000171989319018
-0.00359834493713
0.000146794031811
-0.00363963042819
0.000122066963961
-0.00367267686245
9.77847816412e-05
-0.0036976148846
7.39211121484e-05
-0.00371459118126
5.04413743319e-05
-0.00372371015188
2.7312356757e-05
-0.0037250931744
4.4960580487e-06
-0.00371881756433
-1.80398071852e-05
-0.00370498111604
-4.03288633196e-05
-0.0036836385095
-6.23944734749e-05
-0.00365487119705
-8.42576731153e-05
-0.00361872150102
-0.000105924479494
-0.00357526770534
-0.000127394922596
-0.00352455601663
-0.000148649469298
-0.00346668036998
-0.000169659553094
-0.00340171234971
-0.000190373578372
-0.00332978468238
-0.000210729268197
-0.0032510189087
-0.000230639646456
-0.00316561117923
-0.00025000729345
-0.00307375769347
-0.000268710406142
-0.00297574139775
-0.000286618314785
-0.00287185567218
-0.000303577081938
-0.00276249126826
-0.000319425172138
-0.00264805982177
-0.000333977992925
-0.00252908123131
-0.000347043300838
-0.00240610848418
-0.000358405527276
-0.00227981475272
-0.000367843423066
-0.0021509181995
-0.000375118472087
-0.00202026410586
-0.000380000785327
-0.00188874178788
-0.000382266965109
-0.00175735369862
-0.000381738352326
-0.00162711293694
-0.000378284699669
-0.00149909798155
-0.00037186610895
-0.00137432962833
-0.000362525543086
-0.00125382243124
-0.000350421497527
-0.00113845328173
-0.000335801323095
-0.00102901955057
-0.000319018918426
-0.000926115850496
-0.000300493836478
-0.00083020216253
-0.000280714789448
-0.000741506702198
-0.000260180064428
-0.000660118183638
-0.000239387541255
-0.00058592112981
-0.000218775184408
-0.000518707199425
-0.000198723558658
-0.000458127581859
-0.000179517527878
-0.000403804178264
-0.000161369502401
-0.000355283660781
-0.000144401085538
-0.000312134818183
-0.000128679949857
-0.000273894763862
-0.000114212893405
-0.000240147260782
-0.000100986283941
-0.00021046033607
-8.89571462629e-05
-0.000184451977359
-7.8082511544e-05
-0.000161730559252
-6.83009772615e-05
-0.000141955893111
-5.95532929397e-05
-0.000124785289864
-5.17650603249e-05
-0.000109927955414
-4.48670718125e-05
-9.70942407352e-05
-3.87804788326e-05
-8.60422380459e-05
-3.34357704724e-05
-7.65280632833e-05
-2.87598812208e-05
-6.8340172795e-05
-2.46959556926e-05
-6.12409877932e-05
-2.11978206562e-05
-5.4927912306e-05
-1.83239619757e-05
-4.93587637777e-05
-1.59272971292e-05
-4.47243772238e-05
-1.41253697332e-05
-4.0230664433e-05
-1.25783490799e-05
-3.59229886669e-05
-1.11001367058e-05
-3.24783770447e-05
-1.00072967144e-05
-2.97251943334e-05
-9.8296302894e-06
-2.59736531952e-05
-1.14403071551e-05
-2.13335008664e-05
-1.28294181323e-05
-1.64646008553e-05
-1.40741733692e-05
-1.10363985158e-05
-1.64571369845e-05
-5.60011223939e-06
-1.86085326377e-05
-1.80769480474e-05
-0.000216710478755
0.000839560862725
-0.000445407157483
0.000885323333641
-0.000671985300111
0.000877535062248
-0.000894830165117
0.00086374757869
-0.00111279055595
0.000845667958204
-0.00132483558195
0.000823683089197
-0.00153004912113
0.000798199104664
-0.00172764283906
0.000769658720672
-0.00191695579753
0.000738522751819
-0.00209745792343
0.000705251968443
-0.00226873925074
0.000670291847326
-0.0024305061462
0.000634060286366
-0.00258256392204
0.000596938612278
-0.00272481009141
0.000559265722305
-0.00285721430349
0.000521335091159
-0.00297981209033
0.000483394201054
-0.00309268491944
0.000445645863038
-0.00319595651715
0.000408250958402
-0.00328977440949
0.00037133207103
-0.00337430962366
0.000334977623097
-0.00344974002646
0.000299246186936
-0.00351625338136
0.000264170706943
-0.00357403215987
0.000229762576394
-0.00362325954467
0.000196015277884
-0.00366410521677
0.000162907886932
-0.00369673386872
0.000130407998683
-0.00372129150492
9.84747773645e-05
-0.00373791615924
6.70613118009e-05
-0.0037467244704
3.61175033327e-05
-0.00374782453748
5.59213699978e-06
-0.00374130271015
-2.45639982273e-05
-0.00372723868407
-5.43961325333e-05
-0.00370569273331
-8.3941940636e-05
-0.00367672329975
-0.000113229553279
-0.00364037482141
-0.000142273569332
-0.00359669795364
-0.000171073330241
-0.00354573809002
-0.00019960886487
-0.00348755806456
-0.000227839987988
-0.00342222703691
-0.000255702779625
-0.00334984499179
-0.000283110209443
-0.00327053120828
-0.000309949749726
-0.00318444944362
-0.000336085851344
-0.00309179502325
-0.000361358638222
-0.0029928196824
-0.000385587632586
-0.00288781697129
-0.000408570383336
-0.00277714688159
-0.000430085739199
-0.00266122108447
-0.000449890723964
-0.00254052908147
-0.000467722189744
-0.00241562602642
-0.000483292348258
-0.00228716174304
-0.000496292155095
-0.00215587084313
-0.000506391686793
-0.00202259964592
-0.000513256005976
-0.00188828875722
-0.000516560709682
-0.00175398301233
-0.00051602941467
-0.00162079002631
-0.000511462297444
-0.00148986482674
-0.00050277841906
-0.00136234655325
-0.000490030054601
-0.00123933296648
-0.000473422706968
-0.00112181053572
-0.000453308686774
-0.00101063742929
-0.000430176271886
-0.000906479147578
-0.00040463112936
-0.00080980175556
-0.000377368683875
-0.000720836166618
-0.000349116007448
-0.000639610311568
-0.000320581037855
-0.000565955530011
-0.000292392542263
-0.000499567595306
-0.000265072795349
-0.000440028866118
-0.000239014553683
-0.000386869729498
-0.000214487416103
-0.000339585377074
-0.000191643034603
-0.00029768194858
-0.000170542216605
-0.000260677079812
-0.000151176677141
-0.000228122494577
-0.000133501493858
-0.000199586933799
-0.000117453627703
-0.000174668288407
-0.000102964025213
-0.00015297855134
-8.99536608385e-05
-0.000134161205886
-7.83351451528e-05
-0.000117879950683
-6.80106091892e-05
-0.000103833227366
-5.88792040492e-05
-9.17418490031e-05
-5.08368273784e-05
-8.13597677966e-05
-4.37836385197e-05
-7.24612688712e-05
-3.76239626867e-05
-6.48485132976e-05
-3.22746041901e-05
-5.83407826394e-05
-2.76717132759e-05
-5.27752854678e-05
-2.38555441467e-05
-4.7554529443e-05
-2.11140206525e-05
-4.2713774041e-05
-1.89280167442e-05
-3.81774566807e-05
-1.70730848294e-05
-3.41688633141e-05
-1.50651072839e-05
-3.00998431123e-05
-1.40281977929e-05
-2.58899621413e-05
-1.39856751823e-05
-2.28042718469e-05
-1.4468007682e-05
-1.84431544175e-05
-1.71255920767e-05
-1.32116191356e-05
-1.9230757675e-05
-8.74989661608e-06
-2.08457152859e-05
-4.52187119062e-06
-2.27535882173e-05
-2.25481096867e-05
-0.000221329843613
0.00106088054409
-0.000454692292589
0.00111867609168
-0.000685769211336
0.00110860079706
-0.000912847682466
0.0010908156273
-0.00113470098555
0.00106751070425
-0.00135023779925
0.00103920955654
-0.00155850465602
0.00100645576615
-0.00175869384526
0.000969837827636
-0.00195014491258
0.000929963985052
-0.00213234145932
0.000887438804959
-0.00230490161656
0.000842842599303
-0.00246756650849
0.000796715907898
-0.00262018464206
0.000749547812884
-0.00276269709838
0.000701769391454
-0.0028951206353
0.000653750212732
-0.00301753361919
0.000605798917049
-0.00313006092278
0.000558165294944
-0.00323286273489
0.000511045053802
-0.00332612252444
0.000464584572967
-0.00341003927769
0.000418887242283
-0.00348481850445
0.000374018729946
-0.00355066752353
0.000330013199339
-0.00360778890273
0.000286877906218
-0.00365637809308
0.00024459856485
-0.00369661856717
0.000203142943464
-0.00372868115793
0.000162465309177
-0.00375272035236
0.000122509188766
-0.00376887493228
8.32112207077e-05
-0.00377726513812
4.45035276521e-05
-0.00377799450839
6.31742318215e-06
-0.00377114795534
-3.14141380372e-05
-0.00375679499356
-6.87526006025e-05
-0.00373498900486
-0.000105750932919
-0.00370577222138
-0.000142449242463
-0.00366917656956
-0.000178871577276
-0.00362523072802
-0.000215021382537
-0.00357396271552
-0.000250878443845
-0.00351540901027
-0.000286394971293
-0.00344961855463
-0.000321493657978
-0.00337666322921
-0.000356065410729
-0.00329664214377
-0.00038996950132
-0.00320969206005
-0.000423033620893
-0.00311599038876
-0.000455056277534
-0.00301576409645
-0.000485808368057
-0.0029092905342
-0.000515036101122
-0.00279690509771
-0.000542461278335
-0.00267900189024
-0.000567781446226
-0.00255604355804
-0.000590665842278
-0.00242856731089
-0.000610751977907
-0.00229720106687
-0.000627640139803
-0.00216267852971
-0.000640895755643
-0.00202585610231
-0.000650058905097
-0.00188772538662
-0.000654673635411
-0.00174940536039
-0.000654331422015
-0.00161212208281
-0.000648729874252
-0.00147716021916
-0.000637726749573
-0.0013458104797
-0.000621366449336
-0.00121931388753
-0.000599908402952
-0.00109879387793
-0.000573814926797
-0.000985222370296
-0.000543731816234
-0.000879352947327
-0.00051047974114
-0.000781680865939
-0.000475014237833
-0.000692419749329
-0.000438345333198
-0.000611520176685
-0.000401443991121
-0.000538711155667
-0.000365161181789
-0.000473561133251
-0.000330180121436
-0.000415532494997
-0.000296999059823
-0.000364038734463
-0.000265936696083
-0.000318485940575
-0.00023715148165
-0.000278310414349
-0.00021067483717
-0.000242992442136
-0.000186452144775
-0.000212062844549
-0.000164391158834
-0.000185083475356
-0.000144394064398
-0.00016164161072
-0.000126369102923
-0.000141342006886
-0.000110217381665
-0.000123817460786
-9.58251102906e-05
-0.00010872915381
-8.30646685874e-05
-9.57718129046e-05
-7.18027443976e-05
-8.4670959232e-05
-6.1903955875e-05
-7.51845592377e-05
-5.32364111198e-05
-6.71003923729e-05
-4.5674570854e-05
-6.02398467333e-05
-3.91023488021e-05
-5.44515780168e-05
-3.34257446926e-05
-4.97482197391e-05
-2.85256784445e-05
-4.52382817293e-05
-2.5587308047e-05
-4.08472283081e-05
-2.32789374034e-05
-3.64585869097e-05
-2.14177855425e-05
-3.1387838309e-05
-2.00882485259e-05
-2.66933492548e-05
-1.86719322186e-05
-2.23602381121e-05
-1.82635850486e-05
-1.88200235243e-05
-1.7948307163e-05
-1.57142764578e-05
-2.01678452289e-05
-1.12088759646e-05
-2.36753231105e-05
-6.93194532984e-06
-2.5048693517e-05
-3.49614719512e-06
-2.61060436346e-05
-2.60061660038e-05
-0.000227219121182
0.00128809002829
-0.000466649087835
0.00135809371574
-0.000703541594644
0.00134548295605
-0.000936066059276
0.00132332919832
-0.00116290004221
0.00129433433889
-0.00138288047765
0.00125917958777
-0.0015950075523
0.00121857267476
-0.00179845309774
0.00117327330427
-0.00199255994751
0.00112406100274
-0.00217683483735
0.00107170401377
-0.00235093515168
0.00101693349916
-0.00251465228677
0.000960423803772
-0.00266789241041
0.000902778992399
-0.00281065708843
0.000844525308407
-0.00294302398082
0.000786108656598
-0.00306512950947
0.000727896188114
-0.00317715291852
0.000670180778632
-0.0032793031099
0.000613187511992
-0.0033718070633
0.000557081136304
-0.00345490096102
0.00050197394509
-0.00352882247692
0.000447933406353
-0.00359380531707
0.000394989387095
-0.00365007431314
0.000343140603585
-0.00369784229414
0.000292360422585
-0.00373730697346
0.000242601849028
-0.00376864928078
0.000193801989818
-0.00379203132533
0.000145885935802
-0.0038075956822
9.87703960456e-05
-0.00381546412387
5.23670982965e-05
-0.00381573776043
6.58626395341e-06
-0.00380849661526
-3.86597875294e-05
-0.00379380092325
-8.34527507789e-05
-0.00377169197743
-0.000127864043891
-0.00374219514851
-0.000171950207699
-0.00370532260428
-0.000215747933721
-0.00366107863092
-0.000259269101195
-0.00360946462221
-0.000302495751773
-0.00355048689553
-0.000345375798396
-0.00348416364186
-0.000387819297214
-0.00341053450031
-0.000429696427475
-0.00332966800587
-0.000470836648318
-0.00324167101422
-0.000511030232137
-0.00314669410871
-0.000550030818906
-0.00304493855734
-0.000587559800071
-0.00293665777669
-0.000623309871175
-0.00282216170903
-0.000656947846605
-0.00270181671627
-0.000688113400985
-0.00257605312061
-0.000716413870806
-0.00244537271281
-0.000741413745862
-0.00231036979144
-0.000762622496058
-0.00217175649038
-0.000779486868615
-0.00203039567467
-0.000791396688995
-0.00188732903139
-0.000797717475331
-0.00174378047737
-0.000797858108599
-0.00160113220491
-0.000791358446708
-0.00146085337255
-0.000777989023337
-0.00132444374962
-0.000757761708946
-0.00119334420403
-0.000730996120186
-0.00106886434036
-0.000698281261226
-0.000952146247537
-0.000660432448974
-0.00084407291158
-0.000618529259179
-0.000745190824527
-0.000573865487414
-0.000655676540357
-0.00052782216938
-0.000575365320798
-0.000481712766329
-0.00050382419288
-0.000436655896811
-0.000440440756468
-0.00039351552467
-0.000384501353741
-0.000352889381652
-0.000335261543092
-0.000315127841866
-0.000292002246117
-0.000280362933782
-0.000254073528749
-0.000248556935779
-0.000220915774343
-0.000219566137095
-0.000192049588875
-0.00019321638547
-0.000167040209677
-0.000169365175123
-0.000145468211065
-0.000147905390597
-0.000126925475662
-0.000128726050559
-0.000111031396532
-0.000111686060381
-9.74413794352e-05
-9.66222115875e-05
-8.58477657203e-05
-8.33638506012e-05
-7.59794934225e-05
-7.17395548049e-05
-6.7600303959e-05
-6.15826603217e-05
-6.05068512733e-05
-5.27353896711e-05
-5.45229015007e-05
-4.50532828203e-05
-4.9439279562e-05
-3.84760965499e-05
-4.49050107951e-05
-3.30252391043e-05
-4.07010279075e-05
-2.97538225295e-05
-3.64362746875e-05
-2.75033386535e-05
-3.25396160622e-05
-2.52691125886e-05
-2.89282717534e-05
-2.36501763638e-05
-2.46168095617e-05
-2.29272084274e-05
-2.00411947571e-05
-2.27801363166e-05
-1.52941819365e-05
-2.26399737104e-05
-1.21714341248e-05
-2.32324102386e-05
-9.47536403163e-06
-2.63011212265e-05
-5.84898590499e-06
-2.86111382839e-05
-2.91254163322e-06
-2.8975658396e-05
-2.88758450327e-05
-0.000234540037489
0.0015226196966
-0.000481539181441
0.00160508337747
-0.00072567231127
0.0015896046823
-0.000964947161353
0.00156259363389
-0.00119792187467
0.00152729837409
-0.0014233439072
0.00148459126659
-0.00164015944015
0.00143537791857
-0.00184751974776
0.00138062353639
-0.00204477806909
0.00132130940504
-0.0022314769984
0.00125839325452
-0.00240732965299
0.00119277665765
-0.00257219649956
0.00112528140631
-0.00272606067428
0.00105663412782
-0.00286900319464
0.000987459056895
-0.00300118002831
0.000918276929814
-0.00312280136722
0.000849509242411
-0.00323411417533
0.000781485513157
-0.00333538747275
0.000714453017986
-0.00342690086714
0.000648586948674
-0.00350893529796
0.000584001074339
-0.00358176632726
0.00052075733116
-0.00364565878077
0.000458875007858
-0.00370086314799
0.000398338316003
-0.00374761255573
0.000339103424233
-0.00378612089389
0.000281103922689
-0.00381658097924
0.000224256027144
-0.00383916352958
0.000168462535436
-0.00385401589806
0.000113616986584
-0.00386126153765
5.96069988691e-05
-0.00386099919817
6.31831616174e-06
-0.00385330305242
-4.63615542656e-05
-0.00383822277911
-9.85385531342e-05
-0.00381578497206
-0.000150307441642
-0.00378599490841
-0.000201745782618
-0.0037488401965
-0.000252908221059
-0.00370429515169
-0.0003038195933
-0.00365232743513
-0.000354468886547
-0.00359290552478
-0.000404802804184
-0.00352600826998
-0.000454721321057
-0.0034516346943
-0.000504074017821
-0.00336981467438
-0.000552659760444
-0.00328061839134
-0.000600228098164
-0.00318416438606
-0.000646484532062
-0.00308062469364
-0.000691096656463
-0.00297022646418
-0.00073370214155
-0.00285325143502
-0.000773913345381
-0.00273003309642
-0.000811318334647
-0.00260095842615
-0.000845471272654
-0.0024664754442
-0.00087587558538
-0.00232711828867
-0.000901955306338
-0.0021835473814
-0.000923030828528
-0.00203660702978
-0.000938306665171
-0.00188738695971
-0.000946908598568
-0.00173724132646
-0.000947970868964
-0.00158777265308
-0.00094080116644
-0.00144069323062
-0.000925042654639
-0.00129779576566
-0.00090063814651
-0.00116078758788
-0.00086799086631
-0.0010312162618
-0.000827834790414
-0.000910479135477
-0.00078114877464
-0.000799660600136
-0.000729318243103
-0.000699388374473
-0.000674098571659
-0.000609775177948
-0.000617389666461
-0.000530470881698
-0.000560965053535
-0.000460797213712
-0.000506275355353
-0.000399881337644
-0.000454375412082
-0.000346766164467
-0.000405949037426
-0.00030049222542
-0.000361346212553
-0.000260173720039
-0.000320627883543
-0.000225055507506
-0.000283625510606
-0.000194543072093
-0.000250031789197
-0.000168179440474
-0.000219539682738
-0.000145559111802
-0.000191949233923
-0.000126261624381
-0.000167168971045
-0.000109854116431
-0.000145101556294
-9.59346880034e-05
-0.000125574605214
-8.4150070017e-05
-0.000108375783361
-7.4191566064e-05
-9.32909473225e-05
-6.57927383359e-05
-8.01065467631e-05
-5.87264016343e-05
-6.86161002552e-05
-5.28058264039e-05
-5.86229750024e-05
-4.78905676136e-05
-4.99357082874e-05
-4.39245489642e-05
-4.24079888703e-05
-3.99510240408e-05
-3.69624916867e-05
-3.60584984467e-05
-3.36079935088e-05
-3.25193301179e-05
-3.09998679649e-05
-2.86589113968e-05
-2.90832135549e-05
-2.48808358712e-05
-2.73763166297e-05
-2.09033157518e-05
-2.68485686737e-05
-1.73459070657e-05
-2.62790558353e-05
-1.32885496917e-05
-2.66352074635e-05
-9.45121587185e-06
-2.70102767031e-05
-7.50790304966e-06
-2.81932342104e-05
-4.86412212194e-06
-3.11874191151e-05
-2.40881175949e-06
-3.1358058331e-05
-3.12528106437e-05
-0.000243470167381
0.00176608010984
-0.00049970539049
0.00186130571028
-0.000752645666487
0.00184253447512
-0.00100009558425
0.00181003238973
-0.00124045882802
0.00176765108125
-0.00147237505939
0.00171649689328
-0.00169472818258
0.00165772068364
-0.00190665234914
0.00159253745584
-0.00210752297301
0.00152217000955
-0.00229693718187
0.00144779761363
-0.00247468628725
0.0013705161629
-0.0026407244232
0.00129131013108
-0.00279513591364
0.00121103647234
-0.00293810429463
0.00113041848324
-0.00306988414559
0.00105004809725
-0.00319077720283
0.000970393804747
-0.00330111252766
0.00089181261626
-0.00340123117076
0.000814563618756
-0.00349147430061
0.000738822302409
-0.00357217481604
0.000664693977471
-0.00364365116861
0.000592226321953
-0.00370620342009
0.000521420032473
-0.0037601103368
0.00045223822433
-0.00380562773552
0.000384613907014
-0.00384298705137
0.000318456496037
-0.00387239454793
0.00025365681355
-0.00389403028842
0.000190091678796
-0.0039080474846
0.000127627547647
-0.00391457146694
6.61243908561e-05
-0.00391369908345
5.43922379703e-06
-0.00390549790088
-5.45694688109e-05
-0.00389000624139
-0.000114037140748
-0.0038672334778
-0.000173087213135
-0.00383716185159
-0.000231824667757
-0.00379974922596
-0.000290328192398
-0.00375493410409
-0.00034864228404
-0.00370264212839
-0.000406768387524
-0.0036427953168
-0.000464657158544
-0.00357532262103
-0.000522201127359
-0.0035001728004
-0.000579230451474
-0.00341732696941
-0.000635510980642
-0.00332681156515
-0.000690747489527
-0.00322870733787
-0.000744590247783
-0.0031231559356
-0.000796646823931
-0.00301035825842
-0.000846494491561
-0.00289057013695
-0.000893692395113
-0.00276408943812
-0.000937784545018
-0.0026312510045
-0.000978291202863
-0.00249242395716
-0.00101467829264
-0.00234804219076
-0.00104630866982
-0.00219865829253
-0.00107237975694
-0.00204504917584
-0.0010918793823
-0.00188832282603
-0.00110359085631
-0.00173000873113
-0.0011062454094
-0.00157201483209
-0.00109875329744
-0.00141637472566
-0.00108064663102
-0.00126529954996
-0.00105168552743
-0.00112082509354
-0.00101244446772
-0.000984786464633
-0.000963853539873
-0.000858964110919
-0.000906943169499
-0.00074478287569
-0.000843461475092
-0.000643003593472
-0.000775829695174
-0.000553621074922
-0.00070671461454
-0.000475981993957
-0.000638543686924
-0.000409027879521
-0.000573164844817
-0.000351521667552
-0.000511818613965
-0.000302175480406
-0.000455232438671
-0.000259744945315
-0.000403714186691
-0.000223120950757
-0.000357195141201
-0.000191413066369
-0.000315277407324
-0.00016402020682
-0.000277377700096
-0.000140572410895
-0.000242949105376
-0.000120757925203
-0.000211729298622
-0.000104160315153
-0.000183735403612
-9.02863117504e-05
-0.00015894504363
-7.86942365894e-05
-0.000137137071692
-6.90240194605e-05
-0.000118016406879
-6.0967453539e-05
-0.000101315938584
-5.42643238862e-05
-8.67768176615e-05
-4.86957044108e-05
-7.41508281837e-05
-4.40774490226e-05
-6.32069784306e-05
-4.02565072652e-05
-5.37222606425e-05
-3.70838918586e-05
-4.55449980196e-05
-3.38627516795e-05
-4.01460465547e-05
-3.08173082489e-05
-3.66125417579e-05
-2.79759976889e-05
-3.37969138992e-05
-2.49075680595e-05
-3.21030001081e-05
-2.12627638345e-05
-3.09678341169e-05
-1.77418451307e-05
-3.03116997128e-05
-1.39989317088e-05
-2.99619386538e-05
-1.12549861067e-05
-2.93211672575e-05
-8.17043180158e-06
-3.00369642161e-05
-5.75620077297e-06
-3.05420886766e-05
-4.10649215621e-06
-3.27810168881e-05
-1.98008479463e-06
-3.34265916596e-05
-3.31944842419e-05
-0.000254234648815
0.00202030385357
-0.000521583659384
0.00212864507815
-0.000785088904459
0.00210602774987
-0.00104228873969
0.00206722142598
-0.00129139691081
0.00201674811389
-0.00153092193381
0.00195601115495
-0.00175968013213
0.00188646817059
-0.00197679625216
0.00180964310173
-0.00218168718719
0.00172705061943
-0.00237403117504
0.00164013152149
-0.00255372876218
0.00155020384826
-0.00272085966457
0.00145843139136
-0.00287564031774
0.00136580766478
-0.00301838447959
0.00127315344976
-0.00314946945147
0.00118112404878
-0.00326930806113
0.00109022365827
-0.00337832719913
0.00100082315941
-0.00347695159697
0.000913179678512
-0.00356559283199
0.00082745533926
-0.00364464170778
0.000743734893051
-0.00371446397075
0.000662040729498
-0.0037753975418
0.000582345951844
-0.00382775156069
0.000504584645809
-0.00387180563548
0.000428660534621
-0.00390780996374
0.000354453360467
-0.00393598489791
0.000281824363802
-0.00395652091702
0.00021062021032