/*--------------------------------*- C++ -*----------------------------------*\
| =========                 |                                                 |
| \\      /  F ield         | OpenFOAM: The Open Source CFD Toolbox           |
|  \\    /   O peration     | Version:  v1906                                 |
|   \\  /    A nd           | Web:      www.OpenFOAM.com                      |
|    \\/     M anipulation  |                                                 |
\*---------------------------------------------------------------------------*/
FoamFile
{
    version     2.0;
    format      ascii;
    class       surfaceScalarField;
    location    "449";
    object      phi;
}
// * * * * * * * * * * * * * * * * * * * * * * * * * * * * * * * * * * * * * //

dimensions      [0 3 -1 0 0 0 0];
oriented        oriented;


internalField   nonuniform List<scalar> 
18240
(
-0.000352426651657
0.000352379917998
-0.000738318210897
0.000385840615231
-0.001123862252
0.000385494640775
-0.00150444845365
0.000380534612461
-0.00187799423232
0.000373496738551
-0.00224277044999
0.000364724113761
-0.00259724726396
0.000354428261967
-0.00294008233136
0.000342782354357
-0.00327009543828
0.000329965130602
-0.0035862926403
0.000316143795565
-0.00388783465316
0.00030149475159
-0.00417406405604
0.000286175246108
-0.00444445889827
0.000270348461876
-0.00469866408047
0.000254150249023
-0.00493643087246
0.000237721519547
-0.00515765686082
0.0002211702881
-0.00536231273157
0.000204611947305
-0.00555049489587
0.000188125745333
-0.00572234016103
0.000171802994001
-0.00587809415393
0.000155696945024
-0.00601801345503
0.000139878982812
-0.00614245189409
0.000124380896165
-0.00625174903676
0.000109259138785
-0.006346335625
9.45287273304e-05
-0.00642660681084
8.0235834373e-05
-0.00649304746769
6.63827007077e-05
-0.00654608860701
5.30088364337e-05
-0.00658625299381
4.01066000551e-05
-0.0066139933054
2.77114076852e-05
-0.0066298584303
1.58078177844e-05
-0.00663431289934
4.42936987814e-06
-0.00662792207223
-6.44730464128e-06
-0.00661114965061
-1.67933781375e-05
-0.00658456713089
-2.6637771172e-05
-0.00654863328547
-3.59502703797e-05
-0.00650392124092
-4.47656380935e-05
-0.00645087735137
-5.30554839583e-05
-0.00639006850726
-6.08603038629e-05
-0.00632192225887
-6.81526663564e-05
-0.00624699293506
-7.4978142124e-05
-0.00616568404269
-8.13098977451e-05
-0.00607853177457
-8.71978983231e-05
-0.00598591146822
-9.26156249551e-05
-0.00588833663139
-9.76167111848e-05
-0.00578615150915
-0.000102174610166
-0.00567984328257
-0.000106345752192
-0.00556972346228
-0.000110103311221
-0.00545625040031
-0.00011350564676
-0.00533970246654
-0.000116525412908
-0.00522050755716
-0.000119221964334
-0.00509891164911
-0.000121567361691
-0.00497531151974
-0.000123621103849
-0.00484992244298
-0.000125354662428
-0.00472310999036
-0.00012682684486
-0.00459506114411
-0.000128008750534
-0.00446611073825
-0.000128957805772
-0.00433642027083
-0.000129645060147
-0.00420629443334
-0.000130125943997
-0.00407587216104
-0.000130371976244
-0.00394542868045
-0.000130436145046
-0.0038150830733
-0.000130291022307
-0.00368508152089
-0.000129986794994
-0.00355552553413
-0.00012949777216
-0.00342663245699
-0.000128871117227
-0.00329848789752
-0.000128083514864
-0.00317128021854
-0.000127178936805
-0.00304508014097
-0.00012613703615
-0.00292004673796
-0.000124998501264
-0.00279623622123
-0.000123746379701
-0.00267377795703
-0.000122418002693
-0.00255271352322
-0.000121000076183
-0.0024331423057
-0.000119526538551
-0.00231509077544
-0.000117987796582
-0.00219862833585
-0.000116414375483
-0.0020837657297
-0.000114800237211
-0.0019705428319
-0.000113172511174
-0.00185895406206
-0.000111528382597
-0.0017490107492
-0.000109891636289
-0.0016406905839
-0.000108262213719
-0.00153397791722
-0.000106660647693
-0.00142883362806
-0.000105089060595
-0.00132521725244
-0.000103564848625
-0.00122307323757
-0.000102091657251
-0.00112233909691
-0.000100683828141
-0.00102294394357
-9.93457326254e-05
-0.000924807001106
-9.80884753381e-05
-0.000827844742534
-9.69157851615e-05
-0.000731964674167
-9.58339834253e-05
-0.000637079687681
-9.48415060302e-05
-0.000543106368197
-9.39300498318e-05
-0.000449999357457
-9.30666532716e-05
-0.000357798475494
-9.21607383545e-05
-0.000266797861509
-9.09632992481e-05
-0.000178158356528
-8.8605474498e-05
-9.62412014874e-05
-8.18799995617e-05
-9.62192578381e-05
-0.000389554551063
0.00074188455091
-0.000824471249708
0.000820704081921
-0.00125691807813
0.00081788833515
-0.00168306485133
0.000806627680792
-0.00210098384464
0.000791362667937
-0.00250889766888
0.000772584055872
-0.00290514636124
0.000750623988793
-0.00328824140341
0.000725823317177
-0.00365687498748
0.000698545866329
-0.00400993889637
0.000669153415828
-0.00434650979407
0.000638012968251
-0.00466585852615
0.000605469502413
-0.00496742213198
0.000571859658116
-0.00525081052333
0.000537484038538
-0.0055157694651
0.00050262845514
-0.00576218941838
0.000467535613491
-0.00599006254739
0.00043243366084
-0.00619949740675
0.000397506092709
-0.00639067178808
0.000362926760249
-0.00656385563071
0.000328826573026
-0.00671936030053
0.000295334102804
-0.00685757093541
0.000262537836619
-0.00697889178703
0.000230531784116
-0.0070837883668
0.000199372391655
-0.00717272795189
0.000169128886374
-0.00724623142531
0.00013983433396
-0.00730480785313
0.00011154073628
-0.00734901570677
8.42640151191e-05
-0.00737939048752
5.80440430064e-05
-0.00739651486666
3.28835190753e-05
-0.00740093790927
8.81301847897e-06
-0.00739325605195
-1.41756960113e-05
-0.00737402648317
-3.60591802023e-05
-0.00734385274481
-5.68554888248e-05
-0.00730328773497
-7.65479658366e-05
-0.00725293078951
-9.51635833563e-05
-0.00719332353792
-0.000112691456082
-0.00712505460819
-0.00012916680795
-0.00704864762928
-0.000144584012887
-0.00696467377904
-0.000158985686451
-0.00687363262793
-0.000172370655048
-0.00677607202661
-0.000184787846577
-0.00667246254239
-0.000196239586809
-0.00656332393374
-0.000206779856816
-0.00644909408807
-0.000216413434347
-0.00633026112844
-0.000225197980484
-0.00620722794512
-0.000233139661424
-0.00608044874515
-0.00024029841477
-0.00595029042314
-0.000246680801192
-0.00581717216995
-0.000252347685096
-0.00568142510919
-0.000257305181339
-0.00554343337049
-0.000261613869896
-0.00540349353736
-0.000265278800969
-0.00526195544246
-0.000268359260193
-0.00511908311776
-0.000270858893601
-0.00497519343076
-0.000272834943942
-0.00483052027652
-0.000274289615112
-0.00468534912637
-0.000275277634936
-0.00453988626657
-0.000275800030395
-0.00439438732596
-0.000275908824351
-0.00424903330261
-0.000275604382591
-0.00410405124627
-0.000274936058248
-0.00395959875135
-0.000273904250437
-0.00381587514323
-0.000272555846067
-0.00367301590342
-0.000270892032765
-0.00353119299466
-0.000268957496808
-0.0033905204583
-0.000266754925345
-0.00325114285548
-0.000264327060189
-0.00311315290796
-0.000261678639815
-0.00297666745145
-0.000258850621979
-0.00284175761891
-0.000255850128046
-0.00270851213878
-0.000252716374075
-0.0025769800949
-0.000249458931852
-0.0024472218554
-0.000246115180493
-0.00231926401605
-0.000242696964269
-0.00219313866437
-0.00023923962796
-0.00206884967545
-0.00023575689284
-0.00194640138945
-0.000232281794945
-0.00182577507896
-0.000228829381748
-0.00170694841449
-0.000225430072255
-0.00158988064091
-0.000222099575524
-0.00147452441557
-0.000218865357537
-0.0013608180662
-0.000215743036903
-0.00124869149603
-0.000212756721113
-0.00113806384186
-0.00020992101538
-0.00102884515382
-0.000207255958116
-0.000920937791876
-0.000204773613552
-0.000814235325611
-0.000202488020977
-0.000708625537778
-0.000200404824398
-0.000603984923555
-0.000198525520834
-0.000500170799337
-0.000196837140753
-0.000396978513444
-0.000195310793277
-0.00029401286357
-0.000193890107987
-0.000190100412747
-0.00019248147583
-8.16590191837e-05
-0.000190287504686
-0.000177862834907
-0.000396513422979
0.00113834778296
-0.000837073376535
0.00126121055253
-0.00127577657357
0.00125653805976
-0.00170810836884
0.00123890575308
-0.00213193883196
0.00121513958192
-0.00254540115416
0.0011859925878
-0.00294679134423
0.00115196059887
-0.00333459283623
0.00111357091719
-0.00370748511181
0.00107138453003
-0.00406435512389
0.0010259694331
-0.00440428791802
0.000977892155789
-0.00472656658501
0.000927694113295
-0.00503065130048
0.000875890842994
-0.00531617406166
0.000822952765125
-0.00558291137066
0.000769312430347
-0.00583077870121
0.000715349055483
-0.00605980068907
0.00066140266411
-0.00627010880983
0.000607760637236
-0.0064619114125
0.000554676932468
-0.0066354965447
0.000502358647803
-0.00679120270174
0.000450988614081
-0.00692942745816
0.000400710300449
-0.00705059879933
0.000351652546172
-0.00715518938644
0.000303911731776
-0.00724368772592
0.000257578011119
-0.00731661748805
0.000212714209891
-0.00737450762709
0.000169383370681
-0.00741791608551
0.000127624290401
-0.0074473980129
8.74805262133e-05
-0.0074635333022
4.89726997186e-05
-0.00746689243618
1.21291638546e-05
-0.00745806750054
-2.30442740547e-05
-0.00743763520714
-5.65316159983e-05
-0.007406191127
-8.8340330568e-05
-0.00736430974264
-0.000118466220252
-0.00731258183688
-0.000146928949215
-0.00725157172912
-0.000173734754569
-0.00718185780709
-0.000198914450719
-0.00710398710508
-0.000222483784149
-0.00701851880486
-0.000244483528681
-0.00692597637131
-0.000264937624036
-0.0068268938803
-0.000283895253386
-0.00672176605986
-0.000301386971283
-0.00661109719762
-0.000317468573943
-0.00649534939471
-0.000332175438658
-0.00637499373323
-0.000345568008976
-0.0062504571777
-0.000357684657745
-0.00612217556668
-0.000368588513734
-0.00599053955262
-0.000378319168329
-0.00585594891684
-0.000386940573271
-0.00571875806756
-0.000394491992726
-0.00557933106894
-0.000401036598962
-0.00543798716691
-0.000406612075599
-0.00529505588079
-0.000411279542129
-0.00515082314518
-0.000415074279648
-0.00500558573127
-0.000418054520009
-0.00485959853177
-0.000420252754181
-0.00471312758303
-0.000421723932621
-0.00456639911361
-0.0004224978515
-0.00441965041432
-0.000422626236288
-0.00427308119491
-0.00042213666531
-0.00412690162252
-0.000421078040901
-0.00398128658302
-0.000419476507989
-0.00383642026136
-0.000417378787766
-0.00369245380047
-0.000414810490778
-0.00354954593915
-0.000411816861912
-0.00340782454857
-0.000408423853659
-0.00326742295974
-0.000404675864777
-0.00312844571155
-0.000400599865005
-0.00299100037648
-0.000396239825995
-0.00285516776745
-0.000391624128449
-0.00272102921039
-0.000386796467743
-0.00258864127755
-0.000381786686873
-0.00245805862044
-0.00037663806878
-0.00232931316787
-0.000371381658336
-0.00220243275507
-0.000366059948824
-0.00207742455683
-0.000360704663733
-0.00195428986777
-0.000355356949991
-0.00183301142593
-0.00035004850861
-0.00171356478004
-0.000344818477775
-0.00159590905243
-0.00033969772353
-0.00147999538688
-0.000334722653529
-0.00136576063859
-0.00032992241583
-0.00125313340839
-0.000325329903705
-0.00114203008677
-0.000320971551957
-0.00103235891843
-0.000316875768766
-0.000924017661533
-0.000313064956167
-0.000816895736108
-0.000309561548997
-0.000710871851813
-0.000306381838067
-0.000605811884098
-0.000303540176371
-0.00050155996243
-0.000301045739933
-0.00039791931041
-0.000298909329453
-0.000294614504202
-0.000297154313853
-0.000191255136708
-0.000295805058126
-8.78911059567e-05
-0.000293618603845
-0.000265737667275
-0.000402715665502
0.00154101317252
-0.00084939048732
0.00170783213934
-0.00129419323888
0.00170128716859
-0.00173238140035
0.00167704024483
-0.00216168996804
0.00164439444287
-0.00258016075374
0.00160440960579
-0.00298603324546
0.00155777931231
-0.00337775757337
0.00150524137243
-0.00375400181996
0.00144757490734
-0.00411365689781
0.00138557053596
-0.0044558281276
0.00132000944545
-0.00477982771629
0.00125163966758
-0.00508515561329
0.0011811648002
-0.00537148580183
0.00110922894625
-0.00563864237971
0.00103641517691
-0.00588658509772
0.000963237922526
-0.00611538511961
0.000890149122339
-0.00632521339552
0.000817535391583
-0.00651631858527
0.000745729018836
-0.00668901996397
0.000675007048157
-0.0068436883159
0.000605604565421
-0.00698074364543
0.000537713448601
-0.00710063871264
0.00047149618463
-0.00720386098051
0.000407082904
-0.00729091791942
0.000344584807631
-0.00736234229058
0.000284088893398
-0.00741867820649
0.000225670762659
-0.00746048886354
0.000169387017562
-0.00748834251782
0.000115287646856
-0.0075028220146
6.34064019474e-05
-0.00750451016581
1.37731537497e-05
-0.00749400043309
-3.35972669258e-05
-0.00747188136151
-7.86920575023e-05
-0.00743874868197
-0.000121513317064
-0.00739518871686
-0.000162064351393
-0.00734179155573
-0.000200363038855
-0.00727913338378
-0.000236427449719
-0.00720779090791
-0.000270290037618
-0.00712832283592
-0.000301982305029
-0.00704128551475
-0.000331549699856
-0.00694721369797
-0.000359035364384
-0.00684663739791
-0.000384495694845
-0.00674006208183
-0.000407983253501
-0.00662798668739
-0.000429562962327
-0.00651088339639
-0.000449294302154
-0.0063892167221
-0.000467248103533
-0.00626342299291
-0.00048348816674
-0.00613393035927
-0.000498088598689
-0.00600113812455
-0.000511115013459
-0.00586543748263
-0.000522642342746
-0.00572719082618
-0.000532735779809
-0.00558675297052
-0.000541468968858
-0.00544445057401
-0.000548904874369
-0.00530060357635
-0.000555114231842
-0.00515550486537
-0.000560156522214
-0.00500944161659
-0.000564098539649
-0.00486267534427
-0.000566995655685
-0.00471546282356
-0.000568910332094
-0.00456803667396
-0.000569893845932
-0.00442062553656
-0.000570004544367
-0.00427343534802
-0.000569290188095
-0.00412666847775
-0.000567805725037
-0.0039805058722
-0.000565596389765
-0.00383512489088
-0.00056271475679
-0.00369068250944
-0.000559204716101
-0.00354733165954
-0.000555117576302
-0.00340520569162
-0.000550497025448
-0.00326443308393
-0.000545394073199
-0.00312512334734
-0.000539853094714
-0.00298738004162
-0.000533925448077
-0.0028512882819
-0.00052765669483
-0.00271692605734
-0.000521098776699
-0.00258435343956
-0.000514298490079
-0.00245362225529
-0.000507308170005
-0.00232476704075
-0.000500175478558
-0.00219781315919
-0.000492952594131
-0.00207276946839
-0.000485687338769
-0.00194963500954
-0.000478430923534
-0.00182839329573
-0.000471230403753
-0.00170901772185
-0.000464135063843
-0.00159146732619
-0.000457190145513
-0.00147569108194
-0.000450441983006
-0.00136162494389
-0.000443932913411
-0.00124919516681
-0.000437705279886
-0.00113831638402
-0.00043179740532
-0.0010288940291
-0.000426246587356
-0.000920823035119
-0.000421086024366
-0.000813989123293
-0.000416346991106
-0.000708267344184
-0.0004120568907
-0.000603521209089
-0.000408241263953
-0.000499598643689
-0.000404924384355
-0.00039632992748
-0.000402135850531
-0.000293531676395
-0.000399914035704
-0.000191072563451
-0.000398227399657
-8.94959411945e-05
-0.000395161231864
-0.0003552185286
-0.000410711868841
0.00195167478108
-0.000865872914396
0.00216293965515
-0.00131893695583
0.00215429762281
-0.00176496936378
0.00212301890125
-0.00220157045907
0.00208094179398
-0.00262667637058
0.00202946168125
-0.00303845394722
0.00196950302185
-0.0034353109424
0.00190204439684
-0.00381590180175
0.00182811176018
-0.00417912720728
0.00174874182748
-0.00452412314544
0.001664951258
-0.00485024677148
0.00157770907733
-0.0051570548673
0.0014879187139
-0.00544428339129
0.00139640323861
-0.00571182244318
0.00130390010196
-0.00595969577236
0.00121105713829
-0.00618803730251
0.0011184367341
-0.00639707437757
0.00102651864864
-0.0065871083582
0.000935709491007
-0.00675850303202
0.000846348420089
-0.00691166976975
0.000758718442303
-0.00704706091211
0.000673052064732
-0.00716515878015
0.000589542121035
-0.00726647302575
0.000508345695758
-0.00735153227891
0.000429593367875
-0.00742088421068
0.000353390772158
-0.0074750885965
0.00027982604153
-0.0075147189882
0.000208969114969
-0.00754035622897
0.000140877733359
-0.00755259097398
7.55949953603e-05
-0.00755201711077
1.31544891193e-05
-0.00753923448529
-4.64234922379e-05
-0.0075148421596
-0.00010312641656
-0.00747944150257
-0.000156954596979
-0.00743362888927
-0.000207915797672
-0.00737799926028
-0.00025602988034
-0.00731313840138
-0.000301323507369
-0.0072396269623
-0.000343834833169
-0.00715803257761
-0.000383607799458
-0.00706891441573
-0.000420696908501
-0.0069728152484
-0.000455161103386
-0.00687026659269
-0.000487068630939
-0.00676178084474
-0.000516490575553
-0.00664785703639
-0.000543505832988
-0.0065289730967
-0.00056819437949
-0.00640559220802
-0.000590642398002
-0.00627815526064
-0.000610935384994
-0.00614708775006
-0.000629163447609
-0.00601279244219
-0.000645414340839
-0.00587565672629
-0.000659778959953
-0.00573604551909
-0.000672344411291
-0.00559430895041
-0.00068319969561
-0.00545077549094
-0.000692428902789
-0.00530575982922
-0.000700117085243
-0.00515955622146
-0.000706343669927
-0.00501244638821
-0.000711188486311
-0.0048646930497
-0.000714725463216
-0.0047165476694
-0.000717028769211
-0.00456824416375
-0.000718166846116
-0.00442000631671
-0.000718208574674
-0.00427204163966
-0.000717217658693
-0.00412454831551
-0.000715258718867
-0.00397770923054
-0.000712392018135
-0.00383169833831
-0.000708679356085
-0.00368667489339
-0.000704179099248
-0.00354278918736
-0.000698951762381
-0.00340017705947
-0.000693055304322
-0.00325896500094
-0.000686550289333
-0.00311926501835
-0.000679495412914
-0.00298117915503
-0.000671952180338
-0.002844794797
-0.000663980647347
-0.00271018868121
-0.000655643584899
-0.00257742270776
-0.000647002439723
-0.00244654752021
-0.000638120996791
-0.0023175988721
-0.000629061584138
-0.00219060085378
-0.000619888264481
-0.00206556282486
-0.000610663317624
-0.00194248234899
-0.00060145000629
-0.00182134268557
-0.000592309370323
-0.00170211547115
-0.00058330260737
-0.00158475874241
-0.000574488206023
-0.00146921938021
-0.000565923974945
-0.00135543162067
-0.000557664533346
-0.00124331924496
-0.000549763014738
-0.00113279448901
-0.000542268929341
-0.00102375991456
-0.000535229581096
-0.000916107533052
-0.000528688356429
-0.000809720237736
-0.000522686001455
-0.000704470823847
-0.000517259532616
-0.000600222900425
-0.000512444065058
-0.000496830903141
-0.00050827344694
-0.000394142423566
-0.000504782607006
-0.000292010428764
-0.00050200536739
-0.000190352625257
-0.000499850077595
-8.96811533535e-05
-0.000495800598853
-0.000444883641874
-0.000420879207755
0.00237250365112
-0.000887062866999
0.00262907010543
-0.00135080228496
0.00261798331235
-0.00180692173187
0.00257908462372
-0.0022528586014
0.0025268248197
-0.00268642096234
0.00246297015475
-0.00310568711854
0.00238871518438
-0.00350901532328
0.00230531853238
-0.00389504769835
0.00221408994935
-0.00426270408843
0.00211634395649
-0.0046111661894
0.00201335898952
-0.00493985583406
0.00190634430536
-0.00524840828089
0.00179641667087
-0.00553664456405
0.00168458503552
-0.00580454284083
0.00157174387851
-0.00605221229652
0.00145867217242
-0.00627986829439
0.00134603838204
-0.00648781181812
0.00123440799664
-0.00667641076973
0.00112425444566
-0.00684608595674
0.0010159699022
-0.00699729848088
0.000909877571198
-0.00713054146818
0.000806242083909
-0.00724633223493
0.000705280377653
-0.00734520818458
0.000607169716612
-0.00742772205836
0.000512055939316
-0.00749444033783
0.000420058497818
-0.00754594002553
0.000331275983378
-0.00758280820519
0.000245788480201
-0.0076056392379
0.000163660958001
-0.00761503462956
8.49437043138e-05
-0.00761160011933
9.67451098387e-06
-0.00759594515277
-6.21225922092e-05
-0.0075686799023
-0.000130434361402
-0.00753041475479
-0.000195260894579
-0.00748175668066
-0.000256613359829
-0.00742330893397
-0.000314515352549
-0.00735566720479
-0.000369001066081
-0.00727941951929
-0.0004201163642
-0.00719514240866
-0.000467916623499
-0.0071034011487
-0.000512467669591
-0.00700474608408
-0.000553843293985
-0.0068997133122
-0.000592126089862
-0.0067888212516
-0.000627404708358
-0.00667257182565
-0.000659774665343
-0.00655144733033
-0.000689335427412
-0.0064259121334
-0.000716191265029
-0.00629640985475
-0.000740448254393
-0.00616336555825
-0.000762215247461
-0.0060271832372
-0.000781600875039
-0.00588824844998
-0.000798714693057
-0.0057469260752
-0.000813664261578
-0.00560356331183
-0.000826556518414
-0.00545848765295
-0.00083749500732
-0.00531201014788
-0.000846581518048
-0.00516442352095
-0.000853913522947
-0.00501600556607
-0.000859586104113
-0.00486701732662
-0.000863689641676
-0.00471770648194
-0.000866312017621
-0.00456830550317
-0.000867536566728
-0.00441903488769
-0.000867444507403
-0.00427010122575
-0.000866113131845
-0.00412170016238
-0.00086361837421
-0.00397401434458
-0.000860033183416
-0.00382721602511
-0.000855430106072
-0.00368146490875
-0.00084987976898
-0.00353691036257
-0.000843453342562
-0.00339368922795
-0.000836221064054
-0.00325192764724
-0.000828254455925
-0.00311173894319
-0.000819624844976
-0.00297322511042
-0.0008104052431
-0.00283647487965
-0.000800668857047
-0.00270156493979
-0.000790490578949
-0.00256855829097
-0.000779945518076
-0.00243750526771
-0.000769110094028
-0.00230844225801
-0.000758060647908
-0.00218139258705
-0.000746874163602
-0.00205636563596
-0.00073562702024
-0.00193335763323
-0.000724395391004
-0.00181235117107
-0.000713254185395
-0.00169331593684
-0.000702277184954
-0.00157620859372
-0.000691536198868
-0.00146097346949
-0.000681101001124
-0.00134754274691
-0.000671038700511
-0.00123583710628
-0.000661413545145
-0.00112576613612
-0.000652286499871
-0.00101722891191
-0.000643715001786
-0.000910114517587
-0.000635752769501
-0.000804302524569
-0.000628449646674
-0.000699663763828
-0.00062185187149
-0.000596061093245
-0.000616002135529
-0.000493350528547
-0.000610940409864
-0.00039138605707
-0.000606705371656
-0.000290029323434
-0.000603324537379
-0.000189187638163
-0.000600655571264
-8.93134390473e-05
-0.000595641486046
-0.000534182678087
-0.00043348130736
0.00280593467242
-0.000913391998891
0.00310892719547
-0.0013903993816
0.00309493707841
-0.001859012631
0.00304764404094
-0.00231646171816
0.00298422005255
-0.00276039739338
0.00290685184244
-0.00318879224249
0.00281705595981
-0.00359995034566
0.00271642241184
-0.00399250731172
0.00260659258739
-0.00436541734812
0.00248919950625
-0.00471792919056
0.00236581625558
-0.00504955538439
0.00223791578167
-0.00536003708666
0.00210684360667
-0.00564930851953
0.00197380160655
-0.00591746200328
0.0018398425179
-0.00616471661744
0.00170587191912
-0.00639138995217
0.00157265695593
-0.00659787501644
0.00144083837483
-0.00678462065827
0.00131094562045
-0.00695211701006
0.00118341198213
-0.0071008836798
0.00105859031984
-0.00723146205044
0.000936766870701
-0.00734440912227
0.000818174367996
-0.00744029435512
0.000703002365284
-0.00751969685082
0.0005914065198
-0.00758320455931
0.000483514966033
-0.00763141286229
0.00037943389774
-0.00766492450185
0.000279250597345
-0.00768434826461
0.000183036244658
-0.0076902986658
9.08467028146e-05
-0.00768339441868
2.72411621972e-06
-0.00766425713801
-8.13047255752e-05
-0.00763350920148
-0.000161225677078
-0.00759177271605
-0.000237039239275
-0.00753966659566
-0.000308759644315
-0.00747780513827
-0.000376415223389
-0.00740679519365
-0.000440047501857
-0.00732723476836
-0.000499711290231
-0.00723971031108
-0.000555473424219
-0.00714479556085
-0.000607412528988
-0.00704304911828
-0.000655617451672
-0.00693501366531
-0.000700186775091
-0.00682121392885
-0.000741227043688
-0.00670215633888
-0.000778852124723
-0.00657832743014
-0.000813181338368
-0.00645019395604
-0.000844338768772
-0.00631820174061
-0.000872451406171
-0.00618277622841
-0.000897648494011
-0.00604432176194
-0.000920059775674
-0.00590322252107
-0.000939814955731
-0.00575984218506
-0.000957042138009
-0.00561452518836
-0.000971867466479
-0.005467596694
-0.000984413831543
-0.00531936406735
-0.000994800752393
-0.00517011706947
-0.00100314341879
-0.00502012942296
-0.00100955285531
-0.00486965910443
-0.00101413533686
-0.00471894986267
-0.00101699284669
-0.00456823148914
-0.00101822286378
-0.00441772115046
-0.00101791907806
-0.00426762352197
-0.00101617149092
-0.00411813182828
-0.00101306730937
-0.0039694277673
-0.00100869125247
-0.00382168220244
-0.00100312650756
-0.0036750548503
-0.000996455100795
-0.003529694637
-0.000988758795222
-0.00338573917984
-0.000980119380315
-0.00324331488075
-0.000970619409665
-0.0031025362683
-0.000960342289691
-0.00296350595022
-0.00094937280552
-0.00282631390103
-0.000937796937596
-0.0026910374103
-0.000925702177538
-0.00255774038988
-0.00091317705672
-0.00242647344426
-0.000900311302157
-0.00229727325194
-0.00088719510835
-0.00217016284682
-0.000873919206138
-0.00204515109914
-0.000860573939601
-0.00192223325061
-0.000847249317736
-0.00180139050696
-0.000834033970799
-0.00168259082357
-0.000821015233311
-0.00156578861405
-0.000808278052709
-0.00145092574541
-0.000795905127265
-0.00133793136856
-0.000783975833395
-0.00122672305344
-0.000772566424111
-0.00111720673574
-0.000761749039082
-0.00100927792628
-0.000751591971797
-0.000902821766479
-0.000742158843163
-0.000797714376041
-0.000733508989784
-0.000693823044098
-0.000725696817281
-0.000591008012959
-0.000718772559082
-0.000489124327718
-0.00071278199525
-0.0003880237449
-0.000707765026771
-0.000287561873142
-0.000703746154717
-0.00018763296283
-0.000700550599392
-8.86436421817e-05
-0.000694600109912
-0.000622810747518
-0.000448796777054
0.00325468109811
-0.000945396230862
0.0036054735241
-0.00143850060318
0.00358798769774
-0.00192221547177
0.00353130515751
-0.00239350963187
0.00345546027624
-0.00284984142474
0.00336312961607
-0.00328906050189
0.00325622084234
-0.00370941548003
0.00313672306315
-0.00410954796758
0.00300667055011
-0.0044884695281
0.00286806640226
-0.00484552627063
0.00272281813643
-0.00518035563211
0.00257269016747
-0.00549284010671
0.00241927294024
-0.00578306127698
0.00226396757557
-0.00605125718686
0.00210798312203
-0.00629778447573
0.00195234392235
-0.00652308652336
0.00179790370219
-0.00672766749031
0.00164536416445
-0.00691207233812
0.00149529538833
-0.00707687192021
0.00134815673476
-0.00722265272206
0.00120431652607
-0.00735001012151
0.00106407007064
-0.00745954464335
0.000927655080031
-0.00755186016198
0.000795264634161
-0.00762756359854
0.000667057271001
-0.00768726528473
0.000543164705539
-0.00773157968788
0.000423697108501
-0.00776112597174
0.000308746620857
-0.00777652826078
0.000198389233113
-0.00777841538275
9.26856630058e-05
-0.00776742007777
-8.31817108759e-06
-0.00774417799831
-0.000104592425721
-0.0077093257643
-0.000196122119857
-0.00766349925263
-0.000282908376237
-0.00760733130306
-0.000364968573873
-0.00754144950652
-0.000442336186395
-0.0074664738169
-0.000515060469216
-0.00738301437454
-0.00058320596016
-0.00729166923675
-0.000646851650848
-0.00719302248988
-0.000706090071194
-0.00708764229386
-0.000761026047265
-0.00697607943628
-0.000811775492965
-0.00685886579687
-0.000858463888468
-0.00673651341951
-0.000901224921507
-0.00660951343878
-0.000940198823954
-0.00647833569057
-0.000975530994979
-0.00634342809351
-0.00100737031439
-0.00620521678114
-0.00103586786072
-0.00606410590382
-0.00106117530143
-0.00592047824103
-0.00108344380164
-0.00577469536459
-0.00110282257822
-0.00562709866411
-0.00111945808836
-0.00547800978891
-0.00113349283228
-0.00532773198894
-0.00114506490485
-0.00517655072071
-0.00115430712145
-0.00502473517012
-0.00116134699744
-0.00487253888278
-0.00116630624618
-0.0047202013085
-0.00116930120909
-0.00456794830614
-0.00117044272419
-0.00441599354443
-0.00116983696711
-0.00426453875292
-0.00116758562698
-0.00411377483973
-0.00116378704905
-0.00396388181084
-0.00115853659546
-0.00381502951863
-0.0011519279245
-0.00366737724942
-0.00114405338166
-0.00352107408646
-0.00113500522607
-0.00337625824204
-0.00112487590422
-0.00323305708626
-0.00111375905034
-0.00309158636181
-0.00110174954169
-0.00295194997686
-0.00108894415139
-0.00281423926402
-0.00107544135919
-0.0026785326512
-0.00106134160338
-0.00254489510936
-0.00104674689303
-0.00241337780477
-0.00103176067291
-0.0022840178354
-0.00101648733397
-0.00215683793783
-0.00100103174974
-0.00203184655073
-0.00098549879363
-0.00190903762007
-0.000969992629489
-0.00178839097897
-0.000954616321097
-0.00166987227061
-0.000939470964547
-0.00155343360048
-0.000924655435323
-0.00143901357997
-0.000910265446127
-0.00132653819443
-0.000896393438699
-0.00121592096005
-0.000883127644002
-0.00110706394214
-0.000870552105854
-0.00099985803492
-0.000858745818241
-0.000894184091958
-0.000847782866267
-0.000789913350665
-0.00083773169143
-0.00068690890717
-0.000828655439844
-0.000585026573391
-0.000820611123368
-0.000484115974583
-0.000813649731514
-0.000384024065628
-0.00080781616116
-0.000284599748005
-0.000803134443657
-0.000185718314461
-0.000799396928864
-8.77599420839e-05
-0.000792526369136
-0.000710557266999
-0.000467164085944
0.00372179498142
-0.000983758220102
0.00412201409036
-0.0014960948305
0.00410027078263
-0.00199777321915
0.00403292972723
-0.00248543612722
0.00394306930913
-0.00295631015563
0.00383394956317
-0.00340810567805
0.00370796213268
-0.0038390207608
0.00356758367834
-0.00424772478125
0.00341531991982
-0.00463332120723
0.00325360792272
-0.00499529552606
0.00308473737465
-0.00533345575712
0.0029107950767
-0.00564787083123
0.00273363255802
-0.00593881218006
0.0025548532743
-0.00620670094416
0.00237581617131
-0.00645206339868
0.00219765054645
-0.00667549443062
0.00202127893469
-0.00687762974427
0.00184744366882
-0.00705912519177
0.00167673517733
-0.00722064308116
0.00150961908574
-0.00736284340648
0.00134646160448
-0.00748637974495
0.00118755143398
-0.00759189781757
0.00103311862922
-0.00768003662871
0.000883349364214
-0.00775143039846
0.000738397587847
-0.00780671145541
0.000598392940019
-0.00784651260151
0.000463446252425
-0.00787146942316
0.000333652273835
-0.00788222141031
0.000209091077409
-0.00787941264794
8.98278110655e-05
-0.00786369092479
-2.40877367277e-05
-0.00783570772689
-0.000132622175557
-0.00779611566494
-0.000235759257087
-0.00774556671687
-0.000333500872236
-0.00768470972701
-0.000425867402827
-0.00761418805081
-0.000512897929159
-0.00753463683076
-0.000594649806586