/*--------------------------------*- C++ -*----------------------------------*\
| =========                 |                                                 |
| \\      /  F ield         | OpenFOAM: The Open Source CFD Toolbox           |
|  \\    /   O peration     | Version:  v1906                                 |
|   \\  /    A nd           | Web:      www.OpenFOAM.com                      |
|    \\/     M anipulation  |                                                 |
\*---------------------------------------------------------------------------*/
FoamFile
{
    version     2.0;
    format      ascii;
    class       volScalarField;
    location    "821";
    object      pa;
}
// * * * * * * * * * * * * * * * * * * * * * * * * * * * * * * * * * * * * * //

dimensions      [0 2 -2 0 0 0 0];


internalField   nonuniform List<scalar> 
9216
(
914.9958694
914.690453619
914.058622218
913.094889638
911.804663181
910.194007777
908.270465703
906.042951941
903.5215964
900.717638862
897.643265463
894.311503991
890.736052449
886.931181021
882.911561871
878.69218601
874.28820192
869.714852979
864.987329639
860.120730019
855.129927475
850.029554372
844.833884709
839.556839183
834.211881149
828.8120402
823.369819298
817.897233895
812.405728168
806.906226999
801.409059358
795.924022695
790.460312505
785.026591458
779.630925595
774.280863342
768.983374678
763.744934672
758.571466476
753.468428735
748.440761535
743.49297633
738.62910432
733.852787643
729.167229712
724.575286583
720.079418846
715.681782104
711.384180051
707.188153109
703.094932382
699.105525571
695.220671533
691.440922747
687.76660032
684.197872413
680.734709627
677.376959001
674.124299888
670.976313284
667.932438416
664.992037388
662.154352825
659.418567946
656.783765684
654.248984417
651.813179039
649.475272616
647.234119857
645.088554988
643.037358031
641.079299148
639.213108016
637.437514858
635.751223122
634.152947301
632.64138901
631.215271647
629.87331985
628.614290969
627.436957797
626.340136773
625.32267381
624.38346908
623.521465706
622.735670898
622.025147141
621.389029198
620.826516837
620.336885901
619.919478172
619.573697049
619.298968415
619.094620891
618.958497326
618.899876093
915.300271268
914.993126682
914.359646821
913.391555834
912.095123886
910.476697899
908.543991904
906.306060696
903.773179664
900.956727922
897.869042607
894.523292407
890.933325011
887.113543896
883.078760491
878.844083594
874.424784074
869.836202842
865.093632593
860.212247024
855.20700111
850.092581564
844.883324839
839.59318695
834.235677042
828.823843816
823.370222082
817.886832975
812.385141159
806.87606644
801.369950003
795.876574139
790.405136025
784.964277447
779.562063059
774.206014809
768.903096092
763.659751357
758.481893913
753.374949088
748.343845
743.393058213
738.526606741
733.748097211
729.060719422
724.467294131
719.970268556
715.571763931
711.2735714
707.077198577
702.983865306
698.99454854
695.10997753
691.330676448
687.656958671
684.08896671
680.626665397
677.269878851
674.018282538
670.871437176
667.828779789
664.889654627
662.053303487
659.318893844
656.685508801
654.152172747
651.717841336
649.381425033
647.141779522
644.997727482
642.948049801
640.991505867
639.126825875
637.35272986
635.66792128
634.071104914
632.560981819
631.136266129
629.795681368
628.537976117
627.361921584
626.266326039
625.250033483
624.311936687
623.450976766
622.666154617
621.956531153
621.321236907
620.7594727
620.270517497
619.853730577
619.508562515
619.234574904
619.031522578
618.89972873
618.841206382
915.933521998
915.62164823
914.982406322
914.005610633
912.697631587
911.064951686
909.115480793
906.858492403
904.304501523
901.465134834
898.352987343
894.981482449
891.364723647
887.517357479
883.454432446
879.191274735
874.743362329
870.126219582
865.355310858
860.445956514
855.413247178
850.271980842
845.036596465
839.721129937
834.339164325
828.903801667
823.427626894
817.922692538
812.400493751
806.871963589
801.347457219
795.836755506
790.349057194
784.892990006
779.476608392
774.107410492
768.792341081
763.537813157
758.349714767
753.233434031
748.193868918
743.235454742
738.362176056
733.57759574
728.884868253
724.286769526
719.785710879
715.383768959
711.08269967
706.883967462
702.788758679
698.798009566
694.912418502
691.13247221
687.458456471
683.890480139
680.428484074
677.072262751
673.821471333
670.675644816
667.634203335
664.696468987
661.861669598
659.128953498
656.497392094
653.965992953
651.533701605
649.199413319
646.961974537
644.820193739
642.772842873
640.81866762
638.956389111
637.184713824
635.502335776
633.907946187
632.400236221
630.977906456
629.639670162
628.384262519
627.210444342
626.117010926
625.102796065
624.166680362
623.307595361
622.524531155
621.816540461
621.182745442
620.622341823
620.134605433
619.718897918
619.37467676
619.101510568
618.89912026
618.767665327
618.705181241
916.907050399
916.589730634
915.941484865
914.951090831
913.625114546
911.970269871
909.994761675
907.708200682
905.121470982
902.246587111
899.096543654
895.68516391
892.026946778
888.136919906
884.030496391
879.723342652
875.231253096
870.570038775
865.755424113
860.802958593
855.727936141
850.54532895
845.269727475
839.915293473
834.495717201
829.024186057
823.513355491
817.975330044
812.421645227
806.863258599
801.310540656
795.773274271
790.260653535
784.781289229
779.343213853
773.953893714
768.62023851
763.348617776
758.14487434
753.014344121
747.961872454
742.9918363
738.108162592
733.314352036
728.613498716
724.008314717
719.50115028
715.09401853
710.788615487
706.586344222
702.488334083
698.495463645
694.608378588
690.827512909
687.153105001
683.585216741
680.123747471
676.76845076
673.51894619
670.374733759
667.335203564
664.399648025
661.567269709
658.837191679
656.208463849
653.68007186
651.250942397
648.919951037
646.685926962
644.5476602
642.503906117
640.553392389
638.694823581
636.92688809
635.248262999
633.657621124
632.15363622
630.734990164
629.40037848
628.148517592
626.978150573
625.888054328
624.877045404
623.943986939
623.087794349
622.307441881
621.601968045
620.970481707
620.412167361
619.926291142
619.512206834
619.169362992
618.897311394
618.695721566
618.564646983
618.501432668
918.224891294
917.900566729
917.240013546
916.23099673
914.880381788
913.195219977
911.184126263
908.857178307
906.225769345
903.302449804
900.100764135
896.635086389
892.920457184
888.972426666
884.806904668
880.440021654
875.888000322
871.167040494
866.293215937
861.282384921
856.15011213
850.911603129
845.581648307
840.174577272
834.704220396
829.183878641
823.626298524
818.043653772
812.447530755
806.848919646
801.258208521
795.685182668
790.139026662
784.628328612
779.161088704
773.744730672
768.386114233
763.091550812
757.866819734
752.717187167
747.647425068
742.661832456
737.764256274
732.958114202
728.246416699
723.631790614
719.116501707
714.702478344
710.39133379
706.184389298
702.082695502
698.087054251
694.198038482
690.416012244
686.741148561
683.173447239
679.712750398
676.358757837
673.111040144
669.969051606
666.932140998
663.999562247
661.170483188
658.443994343
655.819116063
653.294805885
650.869964556
648.54344245
646.314044954
644.180538411
642.141655286
640.196100004
638.342554216
636.579682788
634.906139357
633.320572607
631.821632185
630.407975274
629.078272832
627.831216381
626.665524441
625.579949379
624.57328387
623.644367609
622.792093605
622.01541458
621.313348936
620.684986731
620.129495296
619.646124838
619.234213845
618.893194094
618.622594545
618.422046442
618.2915551
618.228360725
919.89369364
919.560506971
918.884189675
917.851281231
916.469057345
914.745024133
912.688337836
910.309687997
907.621131853
904.635916844
901.368300014
897.833367371
894.046857071
890.024990249
885.78431184
881.341543887
876.713452307
871.916728432
866.967885044
861.883167171
856.678476313
851.369307528
845.970697398
840.497181964
834.962762546
829.380878793
823.764387265
818.125545454
812.476000039
806.826779692
801.188291523
795.570321737
789.98203998
784.432003969
778.928170712
773.477908828
768.088012839
762.764719747
757.513726892
752.340211587
747.248851583
742.243846893
737.328942076
732.50744952
727.782272832
723.155930882
718.630581599
714.208046068
709.889832026
705.677157286
701.570972228
697.571981855
693.680666614
689.897302482
686.221979576
682.654619817
679.194992986
675.842731728
672.597344941
669.458230142
666.424684314
663.495913871
660.671043318
657.949123229
655.329137209
652.810008426
650.390605422
648.069747761
645.846211236
643.718733139
641.686017332
639.746739547
637.899552659
636.143092289
634.475982479
632.896841725
631.40428911
629.996950765
628.673466406
627.43249611
626.272727099
625.192880657
624.191718955
623.268051891
622.420743732
621.648719655
620.950972017
620.326566413
619.774647397
619.294443903
618.885274179
618.546549569
618.277777177
618.078563526
617.948891357
617.886040014
921.921898985
921.577791657
920.882013722
919.819598006
918.398347854
916.626354079
914.513462818
912.071139044
909.312277443
906.251000923
902.902457815
899.2826211
895.408094228
891.295927263
886.963446107
882.428096921
877.707307011
872.818362961
867.778305923
862.603843607
857.311277675
851.916445061
846.434671162
840.880732994
835.268830302
829.612563117
823.924914463
818.218237553
812.504246939
806.794013541
801.097963472
795.425880533
789.78691253
784.189577366
778.641776777
773.150810087
767.723390356
762.365662377
757.083222147
751.8811377
746.763970988
741.735800747
736.800246076
731.960490667
727.219307422
722.579083393
718.041844759
713.609281773
709.282773373
705.063411379
700.952023987
696.949198466
693.055302792
689.270506179
685.594798257
682.02800692
678.569814661
675.219773483
671.977318279
668.841778831
665.812390405
662.88830313
660.068590216
657.352255231
654.738238508
652.225422938
649.81263922
647.498670814
645.282258658
643.162105851
641.13688236
639.205229896
637.365766965
635.617094228
633.957800112
632.386466759
630.901676244
629.502017093
628.186091015
626.952519848
625.799952617
624.727072688
623.732604913
622.815322738
621.974055167
621.207693568
620.515198204
619.895604482
619.348028815
618.871673991
618.46583396
618.129897522
617.863350659
617.665780946
617.537157314
617.474837658
924.319898258
923.962611054
923.243369775
922.145383367
920.677115313
918.847389728
916.666913599
914.148114552
911.304921603
908.152533577
904.707188707
900.985939271
897.006436343
892.78672851
888.34507734
883.699791639
878.869081675
873.870933937
868.723006145
863.442541643
858.046301435
852.550511705
846.970824082
841.322285997
835.619318532
829.875699796
824.104552401
818.318334405
812.528833447
806.747164213
800.983770046
795.248426793
789.550251529
783.897711285
778.298638619
772.760247649
767.289152169
761.891385483
756.572421567
751.337197444
746.190136517
741.135172795
736.175775772
731.31497593
726.555390595
721.899250105
717.348424
712.904447154
708.568545546
704.34166157
700.224478563
696.217444454
692.320794239
688.534571201
684.858646634
681.292738057
677.83642575
674.48916767
671.25031267
668.119112173
665.094730291
662.176252611
659.362693727
656.653003736
654.04607386
651.540741414
649.13579426
646.829974996
644.621984978
642.51048838
640.494116371
638.571471555
636.741132707
635.001659892
633.351599967
631.789492493
630.313876019
628.923294732
627.616305395
626.391484546
625.247435869
624.182797672
623.196250394
622.286524065
621.452405645
620.692746157
620.006467546
619.392569195
618.850133991
618.378333874
617.976434758
617.643800199
617.379894469
617.184288012
617.056935695
616.995288359
927.100211701
926.727251354
925.980162819
924.839980222
923.315983188
921.417903987
919.15751077
916.548411296
913.605795249
910.346165142
906.7870721
902.946860983
898.84443022
894.499010238
889.929963176
885.156605719
880.198056132
875.073105835
869.800115059
864.396931251
858.880827945
853.268461027
847.57583876
841.818301779
836.010509676
830.166431534
824.299338927
818.421800816
812.545680655
806.68213617
800.841623576
795.033903278
789.268050823
783.552468707
777.894904418
772.302468934
766.781657199
761.338370015
755.977937143
750.705141376
745.524243497
740.439007978
735.452729345
730.56825906
725.788032827
721.114098117
716.548141799
712.091517623
707.745273392
703.510177553
699.386745011
695.375261884
691.475809017
687.688284018
684.012421664
680.44781253
676.993919777
673.650094034
670.415586442
667.289559868
664.271098464
661.359215679
658.552860939
655.850925193
653.252245543
650.755609199
648.359756972
646.063386515
643.865155515
641.763684997
639.757562876
637.845347883
636.025573927
634.296754962
632.657390357
631.1059708
629.64098467
628.26092487
626.964296027
625.749622019
624.615453713
623.560376863
622.583020041
621.682062545
620.856242161
620.104362727
619.425301375
618.818015401
618.281548661
617.815037367
617.417715272
617.088917907
616.82808581
616.63477063
616.508911268
616.448061184
930.27769874
929.886286943
929.106494972
927.91679335
926.327465905
924.34936351
921.995554083
919.281081606
916.222659542
912.838355317
909.147285281
905.169324975
900.924840168
896.434442237
891.718770239
886.798301241
881.693189785
876.423136754
871.007286978
865.464153887
859.8115682
854.066646498
848.245774623
842.364600654
836.438032722
830.480238291
824.504643176
818.523930296
812.550039167
806.594167557
800.666777878
794.777605315
788.93567023
783.149294498
777.426122133
771.773140769
766.196704778
760.70255957
755.295866741
749.981230049
744.762722053
739.643911447
734.627890978
729.717305901
724.914382816
720.220958808
715.638510632
711.168183832
706.810821479
702.566992342
698.437018157
694.420999775
690.518841868
686.730275994
683.054881774
679.492106062
676.041279972
672.701633766
669.472309585
666.352372159
663.340817595
660.436580477
657.638539454
654.945521633
652.356305981
649.86962606
647.484172322
645.198594245
643.0115025
640.921471373
638.927041574
637.026723572
635.219001534
633.502337909
631.875178684
630.335959287
628.883111106
627.515068555
626.230276618
625.027198767
623.904325183
622.860181132
621.893335436
621.0024089
620.186082603
619.443105958
618.77230444
618.172586884
617.642952281
617.182495982
616.790415269
616.466013776
616.208705545
616.01802157
615.893880796
615.833948796
933.869813009
933.456818972
932.638883067
931.391477823
929.726122823
927.655045218
925.192901169
922.356475957
919.164315482
915.63635379
911.793559458
907.657605582
903.250568327
898.594656806
893.711975917
888.624323224
883.353020641
877.918781218
872.341610447
866.64074008
860.834590736
854.94075765
848.976012554
842.956314149
836.896820498
830.811898706
824.715130162
818.619312183
812.536458631
806.477802296
800.453802786
794.47415749
788.547814946
782.682997266
776.887223709
771.167335663
765.529522878
759.979350341
754.521785693
749.1612271
743.901531692
738.746044548
733.697628292
728.75869319
723.93122772
719.21682943
714.616735952
710.131855929
705.762799624
701.509908892
697.373286236
693.352822558
689.448223346
685.659032935
681.984656646
678.424380559
674.977388857
671.642778645
668.419572331
665.306727647
662.303145516
659.407675973
656.619122456
653.936244737
651.357760858
648.88234836
646.50864516
644.235250327
642.060725059
639.98359405
638.002347442
636.115443487
634.321312004
632.618358679
631.004970205
629.479520238
628.040376109
626.685906215
625.414487975
624.22451627
623.114412208
622.082632127
621.127676681
620.248099907
619.442518134
618.709618648
618.048167969
617.457019694
616.935121772
616.481523133
616.095379661
615.775959302
615.522646094
615.33494686
615.212757881
615.153866499
937.896917036
937.458771498
936.596526031
935.282167391
933.52874073
931.350170205
928.763053462
925.786284143
922.440605177
918.748167196
914.732118213
910.416228296
905.824552666
900.981134307
895.909746383
890.633674904
885.175542374
879.557173176
873.799500571
867.922513462
861.945238375
855.885749231
849.761194912
843.587833673
837.381064515
831.155449108
824.924722521
818.701795535
812.498753677
806.326858385
800.196555147
794.117487736
788.098512607
782.147729341
776.272507676
770.479516828
764.774755207
759.163580146
753.65073754
748.240391655
742.936155274
737.741120384
732.657889445
727.688607277
722.834993432
718.098375009
713.479719652
708.97966859
704.59856936
700.336507954
696.193339922
692.168720121
688.262130613
684.472906424
680.80025879
677.243295694
673.801039523
670.472441825
667.256395189
664.151742434
661.157283286
658.271778884
655.493954422
652.822500341
650.256072436
647.793291295
645.432741439
643.172970508
641.012488806
638.949769446
636.983249313
635.111330961
633.332385553
631.644756864
630.046766337
628.536719151
627.112911204
625.773636919
624.517197744
623.341911198
622.246120348
621.228203525
620.286584176
619.419740667
618.626215947
617.904626893
617.253673268
616.672146157
616.158935802
615.713038771
615.333564418
615.019740168
614.770916321
614.586572888
614.466579273
614.408854371
942.382672741
941.915256876
941.001632121
939.609748871
937.75454748
935.452054262
932.721246096
929.5835702
926.062399138
922.182506597
917.969592658
913.449859473
908.649637509
903.595060331
898.31178608
892.824765182
887.158055358
881.334685845
875.376572132
869.304480177
863.13803514
856.895764754
850.595163121
844.252758414
837.884169421
831.504141422
825.126560125
818.764449871
812.42996616
806.134392305
799.888146621
793.700798587
787.581088186
781.536965066
775.575620536
769.703522163
763.926447505
758.249516673
752.677224114
747.213470102
741.861592483
736.624398944
731.504200007
726.502842715
721.621745004
716.861930571
712.224064149
707.708486886
703.315251575
699.044157289
694.894783005
690.86651967
686.958600247
683.170127229
679.500097264
675.947422562
672.51094895
669.189470474
665.981740679
662.886480697
659.902384486
657.028121537
654.262337535
651.603653376
649.050663086
646.601931075
644.25598921
642.011334096
639.866424941
637.819682285
635.86948782
634.014185449
632.252083667
630.581459279
629.000562422
627.507622819
626.100857145
624.778477373
623.538699937
622.379755562
621.299899557
620.297422432
619.370660626
618.518007217
617.737922424
617.028943793
616.389695897
615.818899485
615.315379955
614.878075051
614.506041803
614.198462554
613.954649619
613.774052107
613.656509917
613.600082958
947.35452902
946.853029339
945.879819057
944.398190353
942.425458805
939.980272617
937.084536247
933.762793889
930.041561903
925.948708001
921.512906416
916.763163918
911.72841069
906.437148788
900.917153031
895.19522275
889.296986497
883.246764113
877.067490525
870.780702567
864.406584134
857.964056953
851.470896286
844.943846143
838.398709948
831.850401818
825.312958137
818.799522559
812.322323005
805.8926601
799.520908176
793.216535642
786.98813685
780.843477797
774.789537232
768.832547641
762.978033238
757.230845194
751.595195017
746.07468731
740.67235275
735.390681827
730.231659494
725.196800765
720.287187131
715.503503732
710.846077075
706.314913126
701.90973538
697.630022502
693.47504491
689.443899716
685.535543325
681.74882114
678.082493822
674.535259774
671.105773608
667.792660564
664.594526956
661.509966926
658.537565831
655.675900778
652.923538785
650.279033194
647.740918896
645.307706964
642.977879242
640.749883367
638.622128667
636.592983246
634.66077252
632.823779349
631.080245835
629.428376793
627.866344817
626.392296824
625.004361941
623.700660545
622.479314266
621.338456748
620.276244972
619.290870905
618.380573311
617.543649481
616.778466764
616.08347367
615.45721047
614.898319113
614.405552402
613.977782351
613.614007683
613.313360022
613.075109367
612.898670968
612.783850831
612.728859051
952.844335889
952.303050266
951.260604546
949.674931797
947.566359041
944.956833367
941.871880633
938.339807947
934.390885373
930.05661641
925.369122251
920.360623256
915.063000885
909.507424568
903.724033408
897.74167008
891.587671248
885.287723725
878.865796597
872.344155724
865.743457969
859.082909301
852.380456553
845.652972554
838.916394741
832.185792303
825.475363833
818.798391952
812.167189682
805.593071416
799.086347552
792.656352378
786.311495011
780.059316093
773.90654141
767.859130534
761.922319118
756.100655892
750.39803663
744.817737263
739.362447631
734.034306433
728.834937568
723.765487657
718.826664686
714.018777574
709.341776637
704.795294676
700.378688408
696.09107962
691.931395389
687.898406492
683.990763193
680.207027595
676.545701936
673.005252333
669.584127749
666.28077409
663.093643617
660.021199965
657.061919263
654.214287919
651.476797759
648.847939208
646.326193272
643.910022992
641.597865065
639.388122195
637.279156681
635.269285618
633.356777988
631.539853797
629.816685294
628.185400252
626.644087187
625.190802357
623.823578328
622.540433909
621.339385188
620.218457454
619.175697723
618.20918766
617.317056625
616.49749465
615.748765102
615.069216908
614.457296106
613.911556686
613.430670534
613.013436431
612.658788089
612.365801151
612.133698461
611.961856884
611.850045811
611.796634061
958.889126676
958.301199789
957.178009717
955.471347495
953.205413174
950.406348708
947.104187021
943.331815137
939.123975401
934.516421491
929.54524103
924.246307671
918.654828574
912.804959086
906.729467851
900.459448822
894.024088955
887.4505092
880.763699624
873.986565062
867.140084455
860.243565482
853.314950442
846.371108209
839.428043407
832.500977934
825.604311189
818.75151254
811.955011077
805.226134822
798.575104108
792.011072717
785.542210598
779.175780264
772.918206362
766.775133283
760.751470831
754.851431037
749.078560618
743.435773075
737.925382486
732.54913956
727.30826968
722.203512554
717.235163132
712.403113761
707.706897546
703.145732863
698.718568626
694.424129726
690.26096165
686.22747323
682.321976352
678.542721629
674.887929158
671.355813826
667.944604787
664.652559143
661.477969962
658.419169136
655.474525622
652.642439849
649.921335098
647.30964676
644.805810346
642.408249127
640.115362193
637.925513643
635.83702348
633.848160661
631.957138586
630.162113177
628.461183566
626.852395289
625.33374582
623.903192213
622.55866059
621.298057181
620.119280666
619.020235472
617.998845782
617.053069936
616.180914965
615.380450979
614.649825202
613.987275406
613.391142615
612.859882902
612.392078193
611.986446025
611.641848205
611.357297971
611.131966128
610.965187877
610.856691291
610.805011961
965.532128616
964.889182086
963.671305205
961.823288904
959.374401114
956.356183747
952.804315248
948.757261681
944.255072276
939.338430617
934.047943233
928.423594228
922.504304896
916.327552283
909.929021155
903.342285967
896.598539326
889.726398621
882.751829605
875.698221767
868.586631882
861.436178116
854.264521427
847.088327534
839.923586413
832.785702554
825.68937083
818.648347587
811.675239454
804.781393452
797.976896065
791.27065088
784.670513838
778.18340088
771.815378214
765.571728951
759.456999515
753.47503208
747.628991888
741.921396158
736.354147303
730.928570138
725.645452039
720.505084938
715.50730867
710.651555687
705.936897502
701.362092915
696.925637836
692.625815854
688.460748373
684.428442768
680.526837062
676.753839714
673.107363462
669.585352454
666.185802335
662.906773253
659.746396121
656.702872668
653.774470107
650.959511308
648.256361573
645.66341306
643.179067986
640.80172164
638.529746194
636.36147615
634.295196104
632.329131349
630.461441611
628.690218057
627.013483529
625.429195829
623.935253793
622.529505834
621.209760617
619.973799526
618.81939056
617.744303337
616.746324842
615.823275607
614.973025969
614.19351214
613.482751768
612.838858813
612.260057482
611.744695136
611.291254026
610.898361766
610.56480059
610.289515352
610.071619403
609.910401314
609.805544908
609.755759809
972.824090891
972.115693399
970.785938674
968.77171267
966.109052488
962.836546948
958.996988962
954.635633076
949.79877979
944.532763017
938.883264209
932.894827397
926.610475233
920.071356085
913.316386451
906.381887172
899.301242739
892.104637182
884.818934454
877.467770384
870.071900355
862.649795259
855.218399231
847.793873708
840.392102132
833.028775285
825.719087929
818.477277696
811.31623963
804.247342922
797.280458299
790.424130072
783.685791351
777.071922262
770.588163566
764.239389606
758.029749355
751.962686573
746.040955587
740.266644225
734.641206302
729.165500907
723.839835578
718.664011214
713.637367786
708.758831459
704.026963975
699.440014952
694.995976966
690.69264251
686.527661052
682.498594135
678.602966341
674.838310301
671.202204311
667.692301706
664.306351524
661.042210596
657.897847438
654.871338774
651.960859653
649.164668409
646.481087699
643.90848304
641.445240131
639.089742301
636.840349217
634.69537791
632.653086907
630.711664064
628.86921843
627.123776212
625.473280725
623.915596016
622.448513797
621.06976322
619.777023097
618.567936113
617.440124652
616.391207816
615.41881928
614.520625543
613.694344248
612.937762155
612.248752525
611.625291563
611.06547379
610.567526123
610.129820598
609.750885683
609.429416183
609.164281372
608.954531725
608.799405591
608.69853748
608.650817726
980.825065358
980.037954634
978.574694616
976.363387992
973.449336155
969.880459715
965.708557269
960.987104092
955.769670963
950.108948542
944.056198061
937.66092304
930.970609735
924.030437845
916.882915091
909.567439688
902.119839114
894.571970856
886.951497445
879.281957049
871.583228186
863.872415312
856.165049423
848.476319423
840.821912777
833.21806705
825.680891347
818.225464861
810.865151522
803.611320467
796.4734718
789.459604593
782.576569295
775.830295844
769.225925048
762.767879162
756.45988646
750.304974221
744.305462387
738.462977415
732.778485931
727.252338654
721.884318674
716.673690097
711.619245819
706.719356221
701.972021049
697.374925847
692.925503292
688.62099814
684.458533292
680.43517387
676.547986312
672.794089966
669.170699424
665.675156489
662.304951438
659.057733701
655.931312682
652.923649708
650.03284247
647.257103417
644.594733777
642.044094821
639.603578065
637.271575948
635.046454454
632.926528888
630.910043806
628.995157751
627.179933145
625.462331347
623.840212583
622.311340304
620.873389385
619.523957585
618.260579709
617.080743994
615.981910239
614.961529264
614.017063224
613.14600635
612.345905635
611.614381088
610.949145135
610.348020911
609.808959159
609.330053634
608.909554872
608.545882272
608.237634573
607.983598809
607.782756659
607.6342909
607.537783597
607.492311601
989.606848343
988.723761849
987.099152856
984.651652058
981.439613795
977.523498331
972.966512793
967.831976196
962.181732737
956.075417725
949.570233845
942.72092792
935.579753118
928.196289006
920.617065025
912.885002123
905.03874785
897.112033869
889.133231797
881.125314677
873.106424553
865.091161237
857.092499651
849.123892799
841.200772184
833.340507995
825.560936535
817.878625822
810.307675638
802.859357381
795.542489111
788.364195772
781.330515745
774.446691414
767.717289521
761.14625222
754.736888067
748.491810317
742.412890436
736.501261611
730.75736073
725.180982841
719.771338291
714.5271064
709.446483891
704.527233242
699.766735713
695.16205173
690.709989632
686.407181034
682.250158812
678.235433111
674.359560994
670.619206436
667.011188409
663.532515911
660.180409603
656.952310499
653.845876648
650.858969252
647.989629891
645.236050799
642.596540157
640.069484491
637.653310155
635.346445846
633.147287884
631.054169797
629.065337362
627.178929913
625.392968254
623.705349042
622.113845173
620.61611141
619.20969444
617.892046542
616.660542221
615.512497196
614.445189316
613.455880864
612.541841828
611.700373533
610.928832158
610.224651585
609.585365174
609.008626083
608.492225914
608.034111483
607.632399664
607.285390326
606.991577393
606.749657796
606.558538588
606.417343181
606.32559587
606.282565213
999.256410807
998.254297775
996.431532398
993.697125174
990.128482035
985.803128788
980.798625778
975.189814476
969.047609951
962.438880551
955.426844823
948.071565826
940.430263107
932.557296496
924.503764677
916.316752031
908.038332937
899.704514524
891.344375483
882.979735867
874.625738399
866.292659335
857.988980132
849.725092403
841.516195839
833.382056803
825.34380637
817.420633384
809.62774494
801.975995479
794.472874483
787.124063789
779.934479826
772.908538008
766.050175319
759.362859478
752.849529018
746.512422633
740.352961273
734.371747575
728.568636787
722.942812613
717.492859461
712.216822604
707.112253342
702.176252656
697.405522763
692.796430582
688.345085574
684.047429175
679.89932916
675.896671741
672.035445099
668.311809988
664.722154807
661.263134004
657.931689746
654.725057639
651.640757922
648.676574039
645.8305208
643.100804499
640.485777492
637.983889684
635.593639419
633.313526061
631.142006472
629.077457197
627.118143867
625.26219873
623.507606677
621.852199433
620.293657092
618.829515835
617.457180604
616.173941688
614.97699436
613.863461017
612.830415301
611.874907813
610.993992806
610.184755293
609.444337844
608.769966514
608.158975297
607.608828777
607.117142624
606.681701856
606.300476778
605.971636623
605.693561046
605.46484974
605.284328925
605.151057141
605.064497719
605.024115217
1009.88083279
1008.72809894
1006.65703587
1003.56816805
999.567968021
994.757338283
989.23149171
983.078176952
976.377617707
969.2036151
961.624981903
953.706832275
945.511394517
937.098214729
928.523698822
919.840056012
911.09379115
902.323976614
893.560648574
884.823830704
876.123861172
867.463765084
858.844134564
850.269820985
841.756008474
833.327566004
825.011920676
816.832828088
808.807009084
800.944055376
793.248800179
785.72449667
778.374593967
771.202610467
764.211846187
757.405357738
750.785857396
744.355313978
738.114705314
732.064044625
726.202533176
720.528673135
715.040363331
709.73496759
704.60934622
699.659886197
694.882546787
690.27292412
685.826340671
681.537954836
677.402878513
673.416291397
669.573542743
665.870235259
662.302288376
658.865980156
655.557968247
652.37529126
649.315352593
646.3758893
643.554928791
640.850736369
638.261756576
635.786551371
633.423738069
631.171929885
629.029681738
626.995443625
625.067523436
623.244060383
621.523009422
619.902136044
618.379020071
616.951066622
615.615522482
614.369496398
613.209982377
612.133885413
611.138049356
610.219286506
609.374408419
608.600257074
607.893735632