/*--------------------------------*- C++ -*----------------------------------*\
| =========                 |                                                 |
| \\      /  F ield         | OpenFOAM: The Open Source CFD Toolbox           |
|  \\    /   O peration     | Version:  v1906                                 |
|   \\  /    A nd           | Web:      www.OpenFOAM.com                      |
|    \\/     M anipulation  |                                                 |
\*---------------------------------------------------------------------------*/
FoamFile
{
    version     2.0;
    format      ascii;
    class       volScalarField;
    location    "634";
    object      pa;
}
// * * * * * * * * * * * * * * * * * * * * * * * * * * * * * * * * * * * * * //

dimensions      [0 2 -2 0 0 0 0];


internalField   nonuniform List<scalar> 
9216
(
978.15568091
977.793392832
977.057300255
975.944240166
974.457890676
972.602521079
970.383525421
967.807271292
964.881104737
961.613211583
958.012634737
954.089117016
949.853130392
945.3157035
940.488467183
935.383472311
930.013256303
924.390656367
918.528900555
912.44142036
906.141968302
899.644431959
892.962977942
886.111867619
879.105625416
871.958854601
864.686426025
857.303291134
849.824686103
842.26593819
834.642679856
826.970643884
819.265879548
811.544533543
803.823062437
796.117993869
788.446128436
780.82427865
773.269455174
765.798582759
758.428667895
751.176493762
744.058768478
737.091803917
730.291644698
723.673736642
717.253034553
711.043665075
705.059006635
699.311349379
693.811936461
688.5706253
683.595882506
678.894460046
674.471351706
670.329514942
666.469821278
662.890868407
659.588976327
656.558134621
653.790106546
651.274555391
648.999305786
646.950669604
645.113872118
643.473521896
642.014008941
640.719864219
639.57593936
638.567616196
637.68087963
636.902520738
636.220193589
635.622580923
635.099372155
634.641323351
634.240155956
633.888544242
633.579994559
633.308805622
633.069953366
632.859036768
632.672165967
632.505884169
632.356432697
632.226539821
632.119375874
632.033659681
631.968047043
631.919800004
631.885877425
631.862787222
631.84745286
631.838204119
631.833566736
631.831948131
978.517572883
978.154135368
977.416775493
976.300656813
974.809999063
972.949227004
970.723811185
968.140198568
965.205790022
961.928852357
958.3184841
954.384514062
950.137468076
945.588461057
940.749170867
935.631729812
930.248710868
924.613023658
918.737917126
912.63688366
906.323680577
899.812244189
893.116730413
886.251438503
879.230869025
872.069655107
864.782634323
857.384783945
849.891302104
842.317542706
834.679100277
826.99173911
819.271476846
811.534503105
803.797253939
796.076314965
788.388481796
780.750643193
773.179822963
765.693041205
758.307335785
751.03960267
743.906597842
736.924760475
730.110197656
723.478494954
717.044684858
710.823047013
704.827056784
699.069173315
693.560760059
688.311858079
683.331072926
678.625339556
674.199786363
670.057518963
666.199498015
662.624389136
659.328505876
656.305775821
653.547809339
651.044039684
648.78197093
646.747518957
644.925486282
643.300090009
641.85541895
640.575781835
639.445884765
638.450969002
637.576902233
636.810347775
636.13888293
635.551136389
635.036810217
634.586690014
634.192566179
633.847177007
633.544111004
633.277739995
633.043125075
632.835949995
632.652446399
632.489371638
632.343782595
632.216094392
632.110160949
632.026726297
631.962292376
631.914752324
631.881933728
631.859679906
631.844703277
631.83600425
631.831854521
631.830182824
979.25523081
978.88863289
978.147035615
977.024562897
975.525467166
973.654237873
971.41643659
968.818622879
965.868310483
962.573896595
958.944603637
954.990398815
950.72193273
946.150456122
941.287761998
936.146105836
930.738156967
925.076927469
919.175737298
913.048155637
906.707982494
900.169204224
893.445992056
886.55267127
879.503734924
872.313824101
864.997753323
857.570497915
850.047226514
842.443290711
834.7742596
827.055905771
819.304236116
811.535469555
803.766057039
796.012644598
788.292077245
780.621342192
773.017552112
765.497865787
758.079449176
750.779374142
743.614559299
736.601650918
729.756947933
723.096270139
716.634870574
710.387292965
704.367269007
698.587560144
693.059830218
687.794461982
682.80039581
678.084919388
673.653481189
669.509480104
665.654095249
662.08613041
658.801914922
655.795251553
653.05745354
650.577479914
648.342172442
646.336593796
644.544622515
642.949638757
641.535098614
640.284890359
639.183442145
638.215738391
637.367384388
636.624782435
635.975320664
635.407531321
634.911132884
634.47699768
634.09705232
633.764181994
633.472132738
633.215432024
632.989296583
632.789556023
632.612581288
632.45524963
632.314606065
632.191314317
632.09133696
632.012695021
631.95060261
631.905101721
631.874460533
631.853288998
631.83948712
631.831618563
631.827481688
631.825436765
980.376130169
980.005864604
979.257745646
978.125491328
976.613438907
974.726182589
972.469421743
969.849879391
966.875247309
963.554116483
959.89590782
955.910794507
951.609628488
947.003861347
942.105473548
936.926900466
931.480970583
925.780842341
919.839956262
913.671986715
907.290810986
900.710477805
893.945193902
887.00930856
879.917315667
872.683851298
865.323707416
857.851838071
850.283379882
842.633661721
834.91822712
827.15284098
819.353507593
811.536470079
803.718216657
795.915465181
788.145151743
780.424394233
772.770458052
765.200695127
757.732485001
750.383150031
743.169874841
736.109603136
729.218942247
722.514048973
716.010525212
709.723296084
703.666494936
697.853326269
692.295926063
687.005191368
681.990596348
677.25997564
672.819297905
668.672429497
664.820917264
661.263803731
657.997480351
655.015586017
652.30899753
649.865958247
647.672289015
645.711625841
643.966273273
642.418217265
641.049933579
639.844757727
638.786801328
637.86071317
637.051673476
636.34564256
635.729674392
635.192155574
634.722852431
634.312812012
633.954194571
633.640126507
633.364596118
633.122373816
632.908910865
632.7202501
632.552949133
632.404020143
632.270429139
632.154922326
632.062826436
631.989755527
631.933188803
631.891602579
631.862566445
631.843114079
631.830729273
631.823380256
631.819287137
631.817279663
981.883266017
981.508287975
980.751347919
979.605835304
978.076224591
976.167262647
973.884839673
971.235900782
968.228383042
964.871141232
961.173870456
957.14702431
952.801733125
948.149721299
943.203228525
937.974933401
932.477884432
926.725436187
920.73119564
914.508975522
908.072759468
901.436674639
894.61497623
887.62203838
880.472355627
873.180548504
865.761377459
858.229758141
850.600782523
842.889738425
835.112133072
827.283709955
819.420468151
811.538672558
803.654860795
795.785837877
787.948663859
780.160625483
772.439198019
764.801989173
757.2666728
749.850905845
742.572238054
735.448009503
728.495246399
721.730550574
715.169991657
708.828995197
702.722230993
696.863490308
691.265549977
685.940007438
680.897085085
676.145388692
671.691641019
667.5403873
663.693731041
660.151094219
656.90903187
653.961018409
651.29736971
648.905400469
646.769592751
644.871367444
643.19050211
641.706825035
640.401466542
639.257249191
638.258147072
637.388462297
636.63273164
635.97618384
635.405320439
634.908325566
634.475101144
634.09702164
633.766625232
633.47738743
633.223623808
633.000445128
632.803625912
632.62949857
632.474872107
632.336894912
632.2128551
632.107971914
632.02554498
631.960030402
631.908736743
631.871393878
631.845809252
631.82857943
631.817294691
631.810530104
631.806665386
631.804747891
983.78127876
983.400389947
982.632260945
981.469902471
979.917979333
977.98144314
975.66643437
972.980186128
969.930953676
966.52793269
962.781173447
958.701491443
954.300377228
949.589906629
944.582654175
939.291610698
933.730107862
927.911750222
921.850357268
915.559915371
909.054541437
902.348457185
895.455975003
888.391493232
881.169501125
873.804590632
866.311475043
858.705011428
851.000227108
843.212347027
835.356823465
827.449361095
819.505943082
811.542850336
803.576674723
795.62432197
787.703003782
779.830214941
772.023695737
764.301376699
756.681307793
749.181571324
741.820183244
734.614984677
727.583530114
720.742975124
714.10996871
707.700550173
701.530049475
695.612983344
689.962934648
684.592401122
679.512587811
674.733143716
670.261821472
666.104120825
662.262926307
658.738248101
655.526990385
652.622538594
650.014506555
647.689142457
645.629553451
643.813698212
642.217269388
640.816757011
639.591573896
638.524475854
637.599965737
636.802089756
636.114347864
635.520721718
635.006778914
634.560450538
634.171983362
633.83336579
633.537734014
633.279022796
633.051939282
632.852049097
632.675557964
632.519175228
632.380061623
632.255566075
632.144342422
632.052410287
631.97926315
631.921112522
631.876855744
631.845861341
631.823527127
631.808526452
631.798880408
631.792320797
631.788632621
631.786777563
986.075981755
985.68788767
984.906089775
983.723140417
982.143945979
980.173718706
977.818914588
975.087128229
971.987013477
968.528192236
964.721158599
960.577179644
956.108195222
951.326718776
946.245741456
940.878641536
935.239101286
929.341033117
923.19851677
916.82574873
910.237004772
903.446615666
896.468955738
889.318443055
882.009549884
874.556821482
866.97490159
859.278562747
851.482740205
843.602567788
835.653416086
827.650926557
819.611047301
811.550062687
803.484616096
795.431722542
787.408768321
779.43349428
771.523960711
763.698491804
755.975600006
748.373891265
740.91195524
733.608245321
726.480955925
719.547903931
712.826421329
706.333262132
700.084523268
694.095569378
688.380947905
682.95425952
677.827966892
673.013078093
668.518746197
664.35174827
660.516048239
657.012480477
653.838687775
650.988162526
648.449511536
646.207899331
644.246141292
642.536441096
641.047578489
639.750717989
638.623180721
637.649054282
636.815170034
636.105458344
635.501537664
634.985143224
634.540209379
634.15439581
633.818796526
633.526561966
633.271766462
633.048870179
632.85293743
632.680154086
632.527294747
632.391521268
632.270455879
632.161741638
632.065532423
631.987048824
631.924394178
631.875629122
631.839528171
631.813593935
631.794677853
631.781913343
631.774072897
631.768302905
631.765016607
631.763393529
988.774462449
988.377779794
987.579694887
986.372208144
984.760523655
982.750175127
980.348007048
977.562057749
974.401469535
970.876385721
966.997842749
962.777658827
958.228321693
953.362877694
948.194824699
942.738011049
937.006543131
931.014703691
924.776883178
918.307525569
911.621089924
904.732027681
897.65477526
890.403760306
882.993419718
875.438226869
867.752725971
859.951571367
852.049570561
844.061729483
836.003301019
827.889829465
819.73719863
811.561674053
803.379938598
795.209117486
787.066788756
778.970974751
770.940111289
762.992991637
755.148684786
747.426429235
739.845507051
732.425105425
725.184176058
718.141304092
711.314597658
704.721607005
698.37927323
692.303902864
686.511136234
681.01588886
675.832173093
670.972783853
666.448727169
662.268524706
658.437489674
654.957525639
651.827793161
649.042462358
646.587994894
644.448378082
642.61125649
641.037926073
639.684797735
638.51413452
637.500743879
636.633692515
635.906597193
635.303054181
634.800811887
634.377453313
634.013932901
633.697753826
633.422057187
633.182214468
632.973760887
632.791553462
632.630669671
632.488251206
632.36185892
632.249113599
632.148251352
632.057417271
631.978027554
631.913724338
631.862848478
631.82377244
631.795114732
631.773913946
631.759460557
631.749142714
631.742619878
631.73865635
631.735900416
631.73465157
991.885161239
991.478409701
990.661250095
989.4250316
987.775317497
985.718032118
983.260490688
980.411268425
977.180097437
973.577749661
969.615914439
965.307072693
960.664370248
955.701492886
950.432545584
944.871938723
939.034283961
932.934302772
926.586750192
920.00635618
913.207785838
906.205619039
899.014348384
891.648393625
884.122129438
876.449923441
868.646181239
860.725396288
852.702203065
844.591432849
836.408173738
828.167827164
819.886170757
811.57941629
803.264261774
794.957933017
786.678208898
778.443424625
770.272447622
762.18462175
754.199677868
746.337611677
738.618534275
731.06250515
723.689362539
716.518568553
709.569088994
702.859321705
696.407086138
690.229662492
684.343868806
678.766101863
673.512279441
668.59749718
664.035322231
659.836612516
656.008264423
652.553040876
649.473468863
646.766305341
644.41156456
642.390347216
640.713769399
639.318399732
638.137528373
637.117903811
636.230836341
635.479487985
634.87539404
634.399324616
634.020439392
633.708707528
633.439400795
633.200252846
632.98944012
632.806575887
632.649437228
632.512587347
632.389849864
632.280279794
632.182667067
632.094786818
632.015715911
631.944287565
631.882659038
631.833115105
631.794484561
631.765336612
631.743958361
631.728479804
631.717714285
631.71069642
631.705982681
631.703813749
631.701730719
631.700955039
995.41796243
994.999545781
994.160321262
992.89087561
991.197203414
989.085698434
986.564241191
983.642050066
980.329562411
976.638300319
972.580731082
968.170124208
963.420407897
958.346027384
952.961807956
947.282825461
941.324287814
935.10143094
928.629432931
921.923349357
914.998072022
907.868311593
900.548603104
893.053331186
885.396770972
877.593139675
869.656654806
861.601595865
853.442368538
845.193571259
836.870067597
828.487056103
820.060150749
811.605458124
803.139650915
794.680031268
786.24457664
777.851959971
769.521536426
761.273289696
753.127733649
745.105768877
737.228499766
729.517024716
721.992219598
714.6745417
707.583883189
700.739504393
694.16006395
687.863759339
681.868548998
676.192417566
670.853520105
665.869999467
661.259040002
657.034923812
653.205992511
649.773769491
646.74876781
644.137613496
641.89830136
639.997410668
638.535727631
637.381505128
636.42441174
635.583789395
634.822938703
634.182250199
633.719825726
633.399849672
633.172444118
632.995474196
632.833198852
632.67397373
632.528955814
632.405473042
632.304659691
632.218649901
632.13590251
632.060468846
631.993547173
631.93163771
631.875217941
631.824052057
631.780268827
631.745534528
631.719471985
631.700722135
631.687358718
631.677928731
631.670907667
631.666615848
631.664677923
631.664070572
631.663108652
631.662775568
999.384300821
998.952485925
998.087961259
996.780431568
995.036405021
992.86283722
990.268283135
987.262726925
983.857443395
980.064843471
975.898314429
971.372057165
966.500923099
961.300253235
955.785721829
949.973188028
943.878559263
937.517671258
930.906189381
924.059536071
916.992847368
909.720959919
902.258426686
894.619557311
886.818476525
878.869193618
870.78567649
862.581926592
854.272053892
845.870353716
837.391390981
828.850084583
820.261807953
811.642490047
803.008716173
794.37782051
785.767960302
777.198160777
768.688319256
760.259157672
751.932115273
743.729178128
735.672650078
727.78487988
720.087972108
712.603519769
705.352406209
698.354720499
691.629829808
685.196631233
679.073999122
673.281389859
667.839469288
662.770386232
658.09684338
653.838937767
650.005860725
646.588293574
643.615522084
641.136004971
639.034239071
637.201938953
636.05865904
635.249802134
634.592087123
633.953376187
633.250126544
632.624698438
632.321305638
632.221024578
632.214457963
632.234907307
632.211781206
632.131858271
632.049003445
631.984701338
631.946504898
631.919571072
631.875196829
631.832594865
631.798775832
631.763097032
631.729479864
631.69903789
631.672713744
631.653251278
631.63971477
631.630764202
631.624995756
631.621575598
631.61960132
631.618623571
631.618871399
631.620035897
631.620641282
631.620784064
1003.79728945
1003.35017678
1002.45682546
1001.10592165
999.304585723
997.060443145
994.382851293
991.282702246
987.772260691
983.864985069
979.575344502
974.918633513
969.910787017
964.56819726
958.907535066
952.94557846
946.699053551
940.184493583
933.41812332
926.41577527
919.192843162
911.76427465
904.144601602
896.348001529
888.388380595
880.279466787
872.034903736
863.66833953
855.193510959
846.624327955
837.974967327
829.259971912
820.494374052
811.693825473
802.874733448
794.054391995
785.251095371
776.484218924
767.774251104
759.142759938
750.612279626
742.206108059
733.948016228
725.861885584
717.971307727
710.29920199
702.867518548
695.697100778
688.807769303
682.218686076
675.949063911
670.019287722
664.452407793
659.2757146
654.52084424
650.220685867
646.385522923
642.958636255
640.007085378
637.752462113
635.790744109
633.45035386
632.92724452
632.721296448
632.550888566
632.325110451
632.066680459
631.956282479
631.942822638
631.953388739
631.944139261
631.870947323
631.71732412
631.574231515
631.498987388
631.485063772
631.53820285
631.614807772
631.61268299
631.598515169
631.604218767
631.593053862
631.58072669
631.571536256
631.561519191
631.557384939
631.555453992
631.555993116
631.557909821
631.560825932
631.56398186
631.567334598
631.570196586
631.572974963
631.575415456
631.576280296
1008.67187172
1008.20736366
1007.28130866
1005.88122374
1004.01495696
1001.69093279
998.919461508
995.712509329
992.083507087
988.047142745
983.619151579
978.816106113
973.655207058
968.154075971
962.330550564
956.20248579
949.787565996
943.103136479
936.166064169
928.992637959
921.598516878
913.998730637
906.207730334
898.239480553
890.107577449
881.825375048
873.406103834
864.862973555
856.209262081
847.458401493
838.624075624
829.72033261
820.761733975
811.763519896
802.741790749
793.713689701
784.69757014
775.713128616
766.781480801
757.92515587
749.167985214
740.534866051
732.051393021
723.743369996
715.636246166
707.754549762
700.121424171
692.758371698
685.685291146
678.92089058
672.483617351
666.393361289
660.674286096
655.359218013
650.494184764
646.145385712
642.3369897
638.811483344
635.518445829
633.753881674
632.496331216
632.411955388
632.478051129
632.485650396
632.443266252
632.358209273
632.245602737
632.151948331
632.089371183
632.040792017
631.98450298
631.903217558
631.801819307
631.707988398
631.647062465
631.635362534
631.655775595
631.591577722
631.358405537
631.315601866
631.403809102
631.423997529
631.429712015
631.444995985
631.446768139
631.457856312
631.466650394
631.47739247
631.488017975
631.497623125
631.506011656
631.513477586
631.51977729
631.524532142
631.528851465
631.530511847
1014.02500407
1013.54076195
1012.57770906
1011.12201802
1009.18240551
1006.7682493
1003.89099194
1000.56386909
996.801682377
992.620557835
988.037706236
983.071186582
977.739672351
972.062218314
966.058027009
959.746216554
953.145596307
946.274460996
939.150418059
931.790263808
924.20992264
916.424457252
908.448148859
900.294634267
891.977076333
883.508338006
874.901133637
866.168143859
857.322099569
848.375856769
839.342487742
830.2354026
821.068526472
811.856508994
802.614964131
793.360720359
784.112061465
774.88893377
765.713090208
756.608135953
747.59943706
738.713856406
729.979291747
721.424020706
713.075896064
704.961500749
697.10540949
689.529729574
682.253996632
675.295488488
668.67011885
662.394437493
656.489763611
650.991767647
645.964638919
641.567114214
637.915079532
634.034938129
632.989448771
632.849865212
632.772340207
632.749979034
632.777829437
632.772356951
632.737602888
632.670638012
632.577373163
632.478918312
632.390102627
632.310985575
632.227756659
632.126957269
632.01008578
631.893148744
631.794342241
631.724599298
631.668297762
631.582856229
631.508037359
631.509265238
631.474029189
631.271481333
631.249394988
631.32302683
631.324138682
631.35703268
631.373950635
631.396648919
631.416828583
631.433165835
631.447000873
631.458858431
631.468605723
631.476020999
631.481986984
631.484585102
1019.87587381
1019.36926945
1018.36442178
1016.84596078
1014.8236413
1012.30798261
1009.31177459
1005.84975375
1001.9383306
997.595307721
992.839607317
987.691008679
982.169891106
976.296975775
970.093060951
963.578750438
956.774181762
949.698769082
942.370981625
934.808182702
927.026552135
919.041108041
910.865828992
902.513859115
893.997758661
885.329750779
876.521917879
867.586323879
858.535073891
849.38035391
840.134496188
830.810102244
821.420251204
811.978765743
802.500526959
793.001812419
783.50063462
774.017052155
764.573416772
755.194507484
745.907493899
736.741664769
727.727868946
718.897640837
710.282057232
701.910461916
693.809304924
686.001385133
678.505523365
671.336555664
664.505621929
658.021236944
651.892592329
646.136590538
640.759160515
635.846736574
633.351737469
633.085889575
633.203433817
633.255426026
633.246588367
633.218864923
633.198289478
633.174525165
633.137057199
633.073705894
632.983874459
632.87986376
632.775217226
632.672265335
632.562695584
632.439262311
632.303196249
632.165594692
632.039985612
631.933756997
631.836680869
631.727524364
631.623455558
631.549283215
631.470104643
631.419108648
631.399661785
631.283748596
631.159711406
631.257737051
631.27562294
631.315664933
631.346438874
631.368611602
631.387778159
631.404382823
631.418141712
631.42857485
631.435950756
631.439712978
1026.24616151
1025.71421193
1024.66216989
1023.07288756
1020.95736916
1018.32750588
1015.19769671
1011.58445525
1007.50607885
1002.98231776
998.034068402
992.683088177
986.951721284
980.862620019
974.438448911
967.701566531
960.673692103
953.375576226
945.826707019
938.045089565
930.047137487
921.84770549
913.460271475
904.897245237
896.170346107
887.290965279
878.27042912
869.12011789
859.85146386
850.475911134
841.004921707
831.450087522
821.823376698
812.137474463
802.406195384
792.644932973
782.871124226
773.104702179
763.368494009
753.688501402
744.093978022
734.617203349
725.292840851
716.156802206
707.244616961
698.589505594
690.220539424
682.161551208
674.430637314
667.039797454
659.994048911
653.290908308
646.91560885
640.797705259
634.455770363
633.967283787
633.844266518
633.774310502
633.837991537
633.837117827
633.79261426
633.74881309
633.711895581
633.675003665
633.626807704
633.556709378
633.462237306
633.350277341
633.230178301
633.103944217
632.968279264
632.820968562
632.664206799
632.505673893
632.354541117
632.215587354
632.083464459
631.948311138
631.816572386
631.7004622
631.588592102
631.491717851
631.409973714
631.346684822
631.316224724
631.244846175
631.15038649
631.235741703
631.28028769
631.305399002
631.329348942
631.351136602
631.369416609
631.383216313
631.39245155
631.397368471
1033.16035598
1032.59964581
1031.49427783
1029.82505296
1027.60448617
1024.84612838
1021.56630992
1017.78365555
1013.51867491
1008.7933719
1003.63090353
998.055282124
992.091097696
985.763230727
979.096529022
972.115436106
964.843576523
957.303324549
949.515400747
941.498555521
933.269402447
924.842455367
916.230393477
907.444529959
898.495395742
889.3932948
880.148674675
870.772219955
861.274716049
851.666847071
841.959085394
832.161776508
822.285439848
812.341216824
802.34141037
792.300070736
782.23361503
772.16146453
762.106657758
752.096360146
742.162156924
732.339972262
722.669420231
713.192381136
703.950696479
694.983200466
686.322696632
677.994621489
670.016819834
662.399419417
655.143807908
648.239179911
641.625914622
634.844999303
634.038282265
634.329799556
634.495161001
634.518810136
634.51145639
634.4761798
634.424303177
634.372189242
634.322008854
634.2681192
634.202136592
634.116546025
634.008940443
633.884174237
633.747025373
633.598314813
633.438298372
633.267343727
633.088179896
632.906287306
632.727765906
632.555906025
632.388834885
632.223357391
632.063153667
631.913848013
631.77207835
631.640354925
631.522450621
631.420649073
631.341947347
631.291438164
631.253448221
631.189824308
631.227633777
631.243485952
631.271897746
631.300269078
631.32377837
631.341571705
631.35312907
631.359145573
1040.64613677
1040.05271373
1038.88699894
1037.1274113
1034.78830858
1031.88526366
1028.43694302
1024.46449278
1019.99101896
1015.04111971
1009.64051417
1003.81575243
997.593962725
991.002579492
984.069005012
976.820177864
969.282051477
961.479016476
953.433331178
945.164648349
936.68974068
928.022521039
919.174417927
910.155090088
900.973352385
891.638066784
882.158700619
872.545351421
862.808332942
852.957658932
843.002721288
832.952332357
822.815123405
812.600160428
802.31765204
791.979689349
781.601040333
771.200016595
760.799379778
750.427196515
740.117499719
729.910544784
719.852333646
709.992978727
700.383480589
691.07105884
682.093649155
673.478685604
665.244126482
657.40078328
649.946369674
642.827429325
635.599851974
634.73333278
634.93497424
635.196091972
635.266632982
635.276255787
635.250441631
635.202432908
635.143480356
635.080862316
635.014858294
634.94114613
634.853869455
634.747912539
634.621675737
634.479380102
634.322962842
634.152222394
633.968750234
633.774016852
633.570790897
633.363203164
633.15559833
632.95070607
632.748808244
632.549935663
632.356907883
632.172935986
631.998261658
631.835067576
631.686157875
631.552528357
631.438801561
631.348571352
631.278688985
631.257242626
631.223351793
631.16828592
631.21219664
631.252525001
631.283076612
631.305326982
631.319441387
631.326509201
1048.7348384
1048.10408455
1046.86990626
1045.00794858
1042.53483058
1039.46861036
1035.83080964
1031.64561272
1026.93918002
1021.73907636
1016.07388039
1009.97294351
1003.46621336
996.584022662
989.35675982
981.814374512
973.985715078
965.897742121
957.574706238
949.037420072
940.30278482
931.383741105
922.289776338
913.028013631
903.604712954
894.026769481
884.302629692
874.442161998
864.455673261
854.352794701
844.141794176
833.829578146
823.422293994
812.926235252
802.348774197
791.699246229
780.989909847
770.237077553
759.462406904
748.694245411
737.968879663
727.331448709
716.836045891
706.544204932
696.520585004
686.825571254
677.503690316
668.583694907
660.083733619
652.01617978
644.336317142
636.579687951
635.706274403
635.942886769
636.127280881
636.188540066
636.175481724
636.140520354
636.086183971
636.01949058
635.945988538
635.86768234
635.782504746
635.686459551
635.575217136
635.44538998
635.296643226
635.133017091
634.954641165
634.760752662
634.553333295
634.334145344
634.105679018
633.87113632
633.633838185
633.396308881
633.160007996
632.926417639
632.698134936
632.477845646
632.267400157
632.06943905
631.886736606
631.721544307
631.57703942
631.454563635
631.354601831
631.287650691
631.237541046
631.193715372
631.148860614
631.209664611
631.249475956
631.276526475
631.292907686
631.300769755
1057.46201968
1056.78848266
1055.47636403
1053.49807449
1050.8730209
1047.62234013
1043.77109615
1039.34718548
1034.38038075
1028.90160783
1022.94256142
1016.53558962
1009.71368767
1002.51042614
994.959676206
987.095053823
978.949073024
970.552062592
961.930964127
953.108192654
944.100804198
934.920257301
925.573042687
916.062322349
906.390404267
896.561375913
886.58276069
876.465062744
866.219598036
855.856249729
845.382171913
834.801815176
824.117982903
813.333277929
802.45133404
791.477755296
780.421161271
769.294593194
758.117289124
746.916678218
735.730479858
724.6087646
713.615424923
702.827779026
692.331465705
682.209460737
672.513700774
663.27150961
654.493404098
646.156991279
637.806859699
636.918920925
637.240427386
637.419635824
637.373252071
637.288340242
637.196968586
637.1065596
637.014644204
636.922081233
636.827343787
636.727504599
636.61842083
636.496018739
636.356793536
636.198810498
636.024004864
635.834926766
635.630561444
635.411353951
635.178963516
634.934959252
634.681284058
634.420290649
634.15447648
633.886071957
633.616972403
633.349232355
633.085458487
632.828418623
632.580789876
632.345659466
632.126237712
631.925661699
631.747050111
631.592261758
631.462255342
631.359125768
631.27708189
631.211597486
631.184227749
631.178779915
631.226725454
631.257907967
631.274904186
631.282977542
1066.86815878
1066.14535686
1064.74409375
1062.63309271
1059.83516574
1056.3752849
1052.2830023
1047.59085206
1042.3329203
1036.54388905
1030.25871364
1023.51277942
1016.34222916
1008.78416366
1000.87649666
992.657348694
984.163961319
975.431199893
966.489790529
957.364530526
948.072820553
938.623985896
929.019918873
919.257471151
909.332564237
899.24500073
889.001771373
878.615921905
868.101837033
857.470870148
846.729082083
835.87752211
824.914302585
813.837120625
802.644872497
791.338341141
779.921096416
768.401156131
756.793368276
745.122182281
733.424804365
721.755018717
710.187388919
698.820422357
687.772632427
677.171176929
667.074305621
657.494476685
648.366659399
639.348575603
638.4004361
638.799795133
639.001493593
638.877413779
638.661488354
638.466972544
638.2993579
638.154386785
638.023656206
637.900682489
637.778329175
637.650170226
637.510676692
637.355671303
637.182296314
636.990122297
636.783377407
636.563398262
636.329078458
636.082283128
635.824253614
635.556067858
635.278854761
634.99397115
634.702973892
634.407503358
634.109303333
633.810445933
633.513478848
633.221286413
632.937008652
632.664162354
632.406487519
632.167783782
631.951670823
631.760951564
631.597499137
631.462347297
631.352901672
631.267110768
631.212753964
631.194935326
631.214757256
631.252073948
631.266197737
631.273524167
1076.99949587
1076.21973498
1074.7158474
1072.4527717
1069.45728202
1065.75911306
1061.39368772
1056.39953631
1050.81598202
1044.68181081
1038.03513935
1030.9141216
1023.35789336
1015.40725684
1007.10478225
998.49416979
989.618859409
980.519970291
971.233736673
961.788718423
952.203243992
942.483791879
932.6252835
922.614344933
912.436091679
902.083186259
891.563082986
880.895469391
870.101833478
859.197160726
848.186261985
837.064944841
825.824329759
814.45560461
802.952068391
791.308682516
779.522302968
767.593587838
755.530225801
743.350501621
731.087366213
718.794449769
706.554838468
694.49293086
682.77761964
671.637731031
661.121944711
651.162579022
641.239730749
640.166325952
640.614376221
640.834778881
640.647819289
640.309692296
639.975421145
639.694196241
639.462548298
639.268883265
639.098878378
638.940562972
638.783374741
638.618918666
638.440879562
638.245017476
638.029198336
637.794782928
637.547989525
637.290501247
637.022174958
636.745633559
636.461875638
636.171233312
635.873708509
635.569368423
635.25854441
634.941918623
634.62060483
634.296262851
633.9711514
633.648068759
633.330307862
633.02165778
632.726295144