/*--------------------------------*- C++ -*----------------------------------*\
| =========                 |                                                 |
| \\      /  F ield         | OpenFOAM: The Open Source CFD Toolbox           |
|  \\    /   O peration     | Version:  v1906                                 |
|   \\  /    A nd           | Web:      www.OpenFOAM.com                      |
|    \\/     M anipulation  |                                                 |
\*---------------------------------------------------------------------------*/
FoamFile
{
    version     2.0;
    format      ascii;
    class       volVectorField;
    location    "214";
    object      Ua;
}
// * * * * * * * * * * * * * * * * * * * * * * * * * * * * * * * * * * * * * //

dimensions      [0 1 -1 0 0 0 0];


internalField   nonuniform List<vector> 
9216
(
(-0.0955944467451 0.0959806395258 0)
(-0.0969370650106 0.298597199309 4.53142063083e-26)
(-0.0922416735458 0.503629000228 -6.02645203214e-30)
(-0.0849251792688 0.707441081824 0)
(-0.0752699163335 0.908106922856 0)
(-0.0634594327538 1.10482616843 0)
(-0.0496978240122 1.29679389968 0)
(-0.0342060106126 1.48328657362 0)
(-0.0172202475945 1.66365749734 0)
(0.00101261293757 1.83733980041 0)
(0.0202406228669 2.00384798146 0)
(0.0402121309427 2.16277803379 0)
(0.0606807538827 2.31380596366 0)
(0.0814096766887 2.45668484497 0)
(0.102175256575 2.59124067269 0)
(0.122769830523 2.71736727962 0)
(0.143003811491 2.83502060814 0)
(0.162707043688 2.94421258047 0)
(0.181729560926 3.04500480634 0)
(0.199941749257 3.13750230674 0)
(0.217234082873 3.22184741773 0)
(0.233516437554 3.29821398152 0)
(0.248717151163 3.36680191822 0)
(0.262781822392 3.42783222526 0)
(0.275672004648 3.48154244321 0)
(0.287363765518 3.52818259284 0)
(0.297846250785 3.56801158695 0)
(0.307120200345 3.60129410047 0)
(0.315196532591 3.62829789122 0)
(0.322094911492 3.64929156482 0)
(0.327842361933 3.66454282877 0)
(0.332471685685 3.67431746079 0)
(0.336018811982 3.6788791952 0)
(0.338514091468 3.67848790399 0)
(0.339947930643 3.67340156322 0)
(0.340441228215 3.66382764634 0)
(0.340053176782 3.65000804161 0)
(0.338836553791 3.63216917124 0)
(0.336844283821 3.61052961641 0)
(0.334129279971 3.5852996049 0)
(0.330744080578 3.55668114783 0)
(0.326740502857 3.52486807599 0)
(0.322169388175 3.49004612719 0)
(0.317080351244 3.45239306737 0)
(0.311521613873 3.41207884293 0)
(0.305539835058 3.3692657596 0)
(0.299180015959 3.32410867981 0)
(0.292485393337 3.27675523559 0)
(0.285497398945 3.2273460496 0)
(0.278255600925 3.17601496359 0)
(0.27079770361 3.12288926755 0)
(0.263159524434 3.06808993087 0)
(0.255375022992 3.01173182945 0)
(0.24747630367 2.95392397132 0)
(0.239493665254 2.89476971528 0)
(0.231455621713 2.83436698615 0)
(0.223388965689 2.77280848139 0)
(0.215318801681 2.71018187355 0)
(0.207268618319 2.64657000324 0)
(0.199260329637 2.58205106788 0)
(0.191314352336 2.51669880079 0)
(0.183449651911 2.45058264647 0)
(0.175683822068 2.38376792643 0)
(0.168033133337 2.31631600179 0)
(0.160512612549 2.24828442703 0)
(0.153136092207 2.17972710122 0)
(0.145916288478 2.11069441102 0)
(0.13886485006 2.04123337199 0)
(0.131992433576 1.9713877624 0)
(0.125308751038 1.90119825615 0)
(0.118822641805 1.83070254881 0)
(0.112542118006 1.75993548363 0)
(0.106474432477 1.68892917132 0)
(0.100626121679 1.61771311044 0)
(0.0950030691749 1.54631430219 0)
(0.0896105457226 1.47475736654 0)
(0.0844532679752 1.40306465305 0)
(0.0795354355284 1.33125635386 0)
(0.0748607845952 1.25935061168 0)
(0.0704326218399 1.18736363043 0)
(0.0662538728327 1.11530978146 0)
(0.062327112506 1.0432017128 0)
(0.0586546081443 0.971050454616 0)
(0.0552383461598 0.898865528418 0)
(0.0520800690128 0.826655053679 0)
(0.0491812971343 0.754425860449 0)
(0.0465433570483 0.682183603728 0)
(0.0441673919125 0.609932893814 0)
(0.0420543639945 0.53767745183 0)
(0.0402050086359 0.465420339132 0)
(0.0386196833319 0.393164386944 0)
(0.0372978892847 0.320913143669 0)
(0.0362364840106 0.248673212923 0)
(0.0354304702466 0.176423734979 0)
(0.0348015358766 0.104680246372 0)
(0.0336030970396 0.0335634421374 0)
(-0.298110570084 0.100607424007 0)
(-0.317293786777 0.314539524388 0)
(-0.316643916036 0.532020715101 -4.58748276216e-26)
(-0.314841129666 0.74757936621 0)
(-0.312355873893 0.959725002855 0)
(-0.309274360915 1.16769039892 0)
(-0.305645807317 1.37066493792 0)
(-0.301518097256 1.56790161762 0)
(-0.296938279618 1.7587275017 0)
(-0.29195293087 1.94255010855 0)
(-0.286607422407 2.11886027203 0)
(-0.280945113467 2.28723268137 0)
(-0.27500659428 2.44732452721 0)
(-0.26882916279 2.59887257867 0)
(-0.262446470439 2.74168900979 0)
(-0.25588841879 2.87565626938 0)
(-0.249181183341 3.00072128666 0)
(-0.242347428736 3.11688926523 0)
(-0.235406574705 3.22421729921 0)
(-0.228375182436 3.32280799579 0)
(-0.221267322008 3.41280326413 0)
(-0.214095004487 3.49437838286 0)
(-0.20686854542 3.56773643752 0)
(-0.199596959505 3.63310317952 0)
(-0.192288260041 3.69072234457 0)
(-0.184949776493 3.74085143836 0)
(-0.177588370147 3.7837579906 0)
(-0.170210673672 3.81971625572 0)
(-0.162823245127 3.84900433313 0)
(-0.155432784203 3.87190165459 0)
(-0.148046320369 3.88868675678 0)
(-0.140671482674 3.89963507758 0)
(-0.133316131126 3.90501612456 0)
(-0.125980523305 3.90509091173 0)
(-0.118587112326 3.90010904713 0)
(-0.111228465894 3.89035343796 0)
(-0.103921345723 3.87606608485 0)
(-0.0966726600948 3.85748645046 0)
(-0.0894894848721 3.83484565094 0)
(-0.0823789132287 3.80836654964 0)
(-0.0753479033523 3.77826359461 0)
(-0.068403236432 3.74474280317 0)
(-0.0615514400538 3.70800180152 0)
(-0.054798786277 3.66822991758 0)
(-0.0481512336287 3.6256083135 0)
(-0.0416144358522 3.58031015033 0)
(-0.0351936929621 3.53250077574 0)
(-0.0288939667455 3.4823379303 0)
(-0.0227198393236 3.42997196518 0)
(-0.0166755344445 3.37554606906 0)
(-0.0107648829288 3.31919649844 0)
(-0.00499134898815 3.26105281086 0)
(0.000641998088394 3.20123809632 0)
(0.00613245340175 3.13986920745 0)
(0.0114776992211 3.07705698468 0)
(0.016675771092 3.0129064777 0)
(0.0217250758076 2.94751716007 0)
(0.0266243549791 2.88098313892 0)
(0.0313726988866 2.81339335686 0)
(0.0359695082899 2.74483178852 0)
(0.0404145047983 2.6753776292 0)
(0.0447076916181 2.60510547822 0)
(0.0488493610043 2.53408551449 0)
(0.0528400545782 2.46238366739 0)
(0.0566805683644 2.39006178032 0)
(0.0603719132293 2.31717777013 0)
(0.0639153179374 2.24378577997 0)
(0.0673121902044 2.16993632868 0)
(0.0705641181553 2.09567645434 0)
(0.0736728324198 2.02104985519 0)
(0.076640206316 1.94609702527 0)
(0.0794682193703 1.87085538831 0)
(0.0821589565111 1.79535942701 0)
(0.0847145733388 1.71964081112 0)
(0.0871372945657 1.6437285217 0)
(0.0894293813231 1.56764897476 0)
(0.0915931290437 1.49142614153 0)
(0.0936308370389 1.41508166873 0)
(0.0955448059626 1.33863499602 0)
(0.0973373098252 1.26210347385 0)
(0.0990105930916 1.18550247885 0)
(0.100566845146 1.10884553027 0)
(0.102008196822 1.03214440426 0)
(0.103336696877 0.955409249661 0)
(0.10455430684 0.878648702365 0)
(0.105662877174 0.801870001626 0)
(0.106664135257 0.725079105452 0)
(0.107559649767 0.648280807139 0)
(0.108350785421 0.571478844434 0)
(0.109038593173 0.49467598134 0)
(0.109623578789 0.417874014281 0)
(0.110105152031 0.341073348247 0)
(0.110479901031 0.264271090208 0)
(0.11073242058 0.187400381439 0)
(0.110616444006 0.111230725206 0)
(0.104820530485 0.0344455912912 0)
(-0.503247227569 0.105815866257 0)
(-0.53466148143 0.316801642393 0)
(-0.53057222941 0.538038242089 -4.55839830634e-26)
(-0.523526660044 0.75585346943 0)
(-0.514159719664 0.970267161292 0)
(-0.502648051622 1.18036695429 0)
(-0.489149105247 1.3853240593 0)
(-0.473846245134 1.58437199654 0)
(-0.456937761428 1.77682503494 0)
(-0.438631699135 1.96208234126 0)
(-0.419140408774 2.13963086696 0)
(-0.398675648527 2.30904557199 0)
(-0.377444243259 2.46998762662 0)
(-0.355644451786 2.62220093785 0)
(-0.333463051911 2.76550737278 0)
(-0.311073181211 2.89980102235 0)
(-0.288632852011 3.02504182626 0)
(-0.266284114707 3.14124883984 0)
(-0.244152741613 3.24849338567 0)
(-0.222348384932 3.34689228622 0)
(-0.200965070703 3.43660133379 0)
(-0.180081989622 3.51780911168 0)
(-0.159764458088 3.59073124784 0)
(-0.140065030455 3.65560514902 0)
(-0.12102465546 3.7126852412 0)
(-0.102673881024 3.76223871925 0)
(-0.0850340199916 3.80454179478 0)
(-0.068118300806 3.83987641698 0)
(-0.0519329296047 3.86852743052 0)
(-0.0364780959947 3.89078012376 0)
(-0.0217488438276 3.90691809571 0)
(-0.00773584627597 3.91722124595 0)
(0.00557378912891 3.92196381513 0)
(0.0181933628574 3.92141516349 0)
(0.0301086717445 3.91584550989 0)
(0.0413719633822 3.90551270871 0)
(0.05200845495 3.89066292085 0)
(0.0620403132356 3.87153547784 0)
(0.0714903456061 3.84836201373 0)
(0.0803816374238 3.82136582121 0)
(0.0887373546905 3.7907616423 0)
(0.096580547595 3.75675563219 0)
(0.103934016809 3.71954541585 0)
(0.110820182513 3.67932020186 0)
(0.117261003318 3.63626093621 0)
(0.123277891413 3.59054048587 0)
(0.128891670616 3.54232384348 0)
(0.134122525293 3.49176834784 0)
(0.138989986398 3.4390239142 0)
(0.143512904256 3.38423327116 0)
(0.147709453768 3.32753220003 0)
(0.151597123425 3.26904977481 0)
(0.155192732995 3.20890859983 0)
(0.158512433066 3.14722504424 0)
(0.161571730297 3.08410947133 0)
(0.164385493336 3.01966646252 0)
(0.166967982097 2.95399503454 0)
(0.169332857108 2.88718885036 0)
(0.171493210306 2.81933642257 0)
(0.17346157579 2.75052131027 0)
(0.175249960426 2.68082230837 0)
(0.176869854642 2.61031363063 0)
(0.178332261711 2.53906508544 0)
(0.179647707731 2.4671422459 0)
(0.180826268897 2.39460661328 0)
(0.181877580152 2.32151577536 0)
(0.18281086005 2.24792355904 0)
(0.183634917853 2.17388017843 0)
(0.184358175799 2.09943237814 0)
(0.18498867458 2.02462357278 0)
(0.185534093 1.94949398234 0)
(0.186001751884 1.87408076466 0)
(0.186398631204 1.79841814443 0)
(0.186731372562 1.72253753998 0)
(0.18700629391 1.64646768723 0)
(0.187229390794 1.57023476209 0)
(0.187406348835 1.49386250055 0)
(0.187542543919 1.41737231778 0)
(0.187643052599 1.34078342539 0)
(0.187712651393 1.26411294812 0)
(0.187755825192 1.1873760392 0)
(0.1877767657 1.11058599537 0)
(0.187779377713 1.03375437094 0)
(0.187767276329 0.956891091735 0)
(0.187743790242 0.880004567952 0)
(0.18771195606 0.803101806523 0)
(0.187674515489 0.726188520664 0)
(0.187633901316 0.64926923438 0)
(0.187592219865 0.572347372479 0)
(0.187551218531 0.495425315526 0)
(0.187512255115 0.418504415881 0)
(0.187476334822 0.341584715241 0)
(0.1874439333 0.264664733669 0)
(0.187407087794 0.187671899698 0)
(0.187018875915 0.111673793489 0)
(0.176976209472 0.0340147954773 0)
(-0.712208258453 0.113320493522 0)
(-0.757075767422 0.318788266649 0)
(-0.751297675315 0.545256741288 4.52404505147e-26)
(-0.74138725471 0.765682269335 0)
(-0.728232138769 0.982730266738 0)
(-0.712099267605 1.19527277114 0)
(-0.693215809065 1.40246602791 0)
(-0.671845394383 1.60351909785 0)
(-0.648271649193 1.79773240116 0)
(-0.622790484838 1.98449791306 0)
(-0.595702003442 2.16330173381 0)
(-0.567303420283 2.33372350229 0)
(-0.537882978273 2.49543374531 0)
(-0.507714980947 2.64818948675 0)
(-0.477055952651 2.79182854885 0)
(-0.446141900964 2.92626293745 0)
(-0.415186579961 3.05147166742 0)
(-0.384380648047 3.16749333347 0)
(-0.353891567719 3.27441868012 0)
(-0.323864119051 3.37238336965 0)
(-0.29442137307 3.46156109862 0)
(-0.265666013186 3.54215716772 0)
(-0.237681876639 3.61440257223 0)
(-0.210535636836 3.67854864825 0)
(-0.184278532577 3.73486228529 0)
(-0.158948099168 3.78362169587 0)
(-0.134569838299 3.82511271939 0)
(-0.111158809082 3.8596256271 0)
(-0.0887210984844 3.88745239014 0)
(-0.067255167089 3.90888437391 0)
(-0.0467530269685 3.9242104265 0)
(-0.027201215879 3.93371532734 0)
(-0.00858140823478 3.93767872842 0)
(0.00912972378484 3.93637509077 0)
(0.0259633730316 3.93007146932 0)
(0.0419347607054 3.91901946657 0)
(0.0570698539145 3.90347169146 0)
(0.0713964542914 3.88366941547 0)
(0.0849433592165 3.85984515976 0)
(0.0977397965733 3.83222252666 0)
(0.109815105493 3.80101628929 0)
(0.121198490297 3.76643244288 0)
(0.131918839968 3.72866831083 0)
(0.142004580029 3.68791269088 0)
(0.15148356528 3.64434603447 0)
(0.160382991306 3.59814065109 0)
(0.168729336426 3.54946093047 0)
(0.176548314258 3.49846357727 0)
(0.183864849526 3.44529785337 0)
(0.190703058629 3.39010582422 0)
(0.197086248077 3.33302260612 0)
(0.203036913454 3.27417661213 0)
(0.208576752269 3.21368979468 0)
(0.213726674314 3.15167788349 0)
(0.218506822994 3.08825061773 0)
(0.222936592126 3.02351197166 0)
(0.227034651561 2.95756037322 0)
(0.230818966956 2.8904889154 0)
(0.234306826825 2.82238556003 0)
(0.237514862943 2.75333333432 0)
(0.240459076934 2.68341051996 0)
(0.243154859787 2.61269083527 0)
(0.245617016776 2.54124361043 0)
(0.247859785185 2.4691339564 0)
(0.249896856855 2.39642292758 0)
(0.251741393634 2.32316767891 0)
(0.253406047209 2.24942161755 0)
(0.254902972091 2.17523454975 0)
(0.256243842642 2.1006528232 0)
(0.257439863605 2.02571946531 0)
(0.258501784405 1.95047431776 0)
(0.259439907358 1.87495416782 0)
(0.260264099437 1.79919287659 0)
(0.260983798387 1.72322150477 0)
(0.261608022187 1.64706843597 0)
(0.262145373338 1.57075949816 0)
(0.262604046287 1.49431808326 0)
(0.262991830162 1.41776526536 0)
(0.263316114402 1.34111991762 0)
(0.263583890174 1.26439882813 0)
(0.263801754395 1.18761681486 0)
(0.26397590997 1.11078683992 0)
(0.264112168229 1.03392012299 0)
(0.264215947888 0.957026254193 0)
(0.264292275599 0.880113305837 0)
(0.264345783119 0.803187942729 0)
(0.264380705363 0.726255529509 0)
(0.26440087569 0.649320232605 0)
(0.264409724029 0.572385111263 0)
(0.264410281758 0.495452187327 0)
(0.264405215911 0.41852253759 0)
(0.264396957223 0.341596134288 0)
(0.264387281604 0.264672631639 0)
(0.264364125767 0.1876657535 0)
(0.263832002948 0.111996238419 0)
(0.249561213989 0.0332355516894 0)
(-0.924311071776 0.123485958528 0)
(-0.98269839924 0.321354431163 0)
(-0.975068524919 0.555006917421 0)
(-0.962050547982 0.778951050276 0)
(-0.944766795601 0.999554598407 0)
(-0.923582498623 1.21538643171 0)
(-0.898801394197 1.42558827382 0)
(-0.870775020981 1.62933619787 0)
(-0.839880518187 1.82591196946 0)
(-0.806510513668 2.01469793936 0)
(-0.771062239083 2.19517932323 0)
(-0.733928067259 2.3669424543 0)
(-0.695487459231 2.52967091226 0)
(-0.65610047154 2.68313983703 0)
(-0.616102824365 2.82720894824 0)
(-0.575802458974 2.96181472428 0)
(-0.535477441392 3.08696214219 0)
(-0.495375039135 3.20271631228 0)
(-0.455711770418 3.30919427258 0)
(-0.416674232651 3.40655714269 0)
(-0.378420517727 3.49500277754 0)
(-0.34108204939 3.57475901124 0)
(-0.304765690656 3.64607753951 0)
(-0.269556003377 3.70922845651 0)
(-0.235517555838 3.76449543718 0)
(-0.202697206505 3.81217153835 0)
(-0.171126301411 3.8525555798 0)
(-0.140822749585 3.88594905891 0)
(-0.111792944398 3.91265354943 0)
(-0.0840335199963 3.93296853826 0)
(-0.0575329266732 3.94718965499 0)
(-0.032272833311 3.95560717039 0)
(-0.0082295158819 3.95850467132 0)
(0.0146245370646 3.95616000205 0)
(0.036320275059 3.94884396742 0)
(0.0568927707383 3.93681198463 0)
(0.0763782838995 3.92031669466 0)
(0.0948141708703 3.8996001094 0)
(0.112238563464 3.87489531628 0)
(0.128689988447 3.84642617417 0)
(0.144207022173 3.81440742157 0)
(0.158828002522 3.77904477978 0)
(0.172590800485 3.74053510829 0)
(0.185532638077 3.69906659231 0)
(0.197689949844 3.65481895681 0)
(0.209098276268 3.60796369959 0)
(0.219792188265 3.55866433756 0)
(0.229805233058 3.50707666114 0)
(0.239169902005 3.45334899298 0)
(0.247917612066 3.39762244754 0)
(0.256078702521 3.34003118909 0)
(0.26368243968 3.28070268612 0)
(0.270757031943 3.21975796053 0)
(0.277329648792 3.15731183063 0)
(0.283426446625 3.09347314693 0)
(0.289072595661 3.02834502047 0)
(0.294292311204 2.96202504299 0)
(0.299108884056 2.89460549926 0)
(0.303544713538 2.82617357118 0)
(0.307621338413 2.75681153404 0)
(0.311359469262 2.68659694515 0)
(0.314779017974 2.61560282494 0)
(0.317899127943 2.54389783121 0)
(0.320738200967 2.47154642659 0)
(0.323313924388 2.39860903986 0)
(0.32564329477 2.3251422215 0)
(0.327742641567 2.25119879386 0)
(0.329627647335 2.1768279964 0)
(0.33131336783 2.10207562657 0)
(0.332814248771 2.0269841765 0)
(0.334144142479 1.95159296614 0)
(0.335316321393 1.87593827312 0)
(0.336343491486 1.80005345971 0)
(0.337237802831 1.72396909725 0)
(0.338010860137 1.64771308832 0)
(0.338673730702 1.57131078708 0)
(0.339236952425 1.49478511781 0)
(0.33971053953 1.41815669222 0)
(0.340103988403 1.34144392538 0)
(0.340426281428 1.26466315085 0)
(0.340685890974 1.18782873481 0)
(0.340890781632 1.11095318952 0)
(0.34104841261 1.03404728614 0)
(0.341165738611 0.95712016671 0)
(0.341249210904 0.880179455339 0)
(0.341304777321 0.803231367966 0)
(0.341337883071 0.726280820096 0)
(0.341353472514 0.649331531358 0)
(0.341355996147 0.572386125193 0)
(0.341349428693 0.495446221036 0)
(0.341337311215 0.418512596442 0)
(0.341322853764 0.341585028224 0)
(0.341308126584 0.264663786801 0)
(0.341276214798 0.187641238536 0)
(0.340582887704 0.112394420642 0)
(0.322135183932 0.0321744743869 0)
(-1.14060459311 0.136493455185 0)
(-1.21279129969 0.324595735116 0)
(-1.2031551141 0.567494228561 0)
(-1.18682857126 0.79592840642 0)
(-1.16515290619 1.02107477669 0)
(-1.13860549209 1.24109494939 0)
(-1.10757854808 1.45511669814 0)
(-1.07252448507 1.66227448554 0)
(-1.03392641388 1.86182739785 0)
(-0.992285195864 2.0531468806 0)
(-0.948105367013 2.23571870449 0)
(-0.901883033462 2.40913960604 0)
(-0.854095709614 2.57311172385 0)
(-0.80519427448 2.72743513498 0)
(-0.755597014867 2.87199914306 0)
(-0.70568562087 3.00677285356 0)
(-0.655802918558 3.13179549414 0)
(-0.606252084468 3.24716684498 0)
(-0.557297068117 3.35303805414 0)
(-0.509163957084 3.44960303157 0)
(-0.462043036235 3.53709054534 0)
(-0.416091324384 3.61575708628 0)
(-0.371435401564 3.68588052284 0)
(-0.328174376823 3.7477545344 0)
(-0.286382875434 3.80168378815 0)
(-0.246113956425 3.84797980913 0)
(-0.20740189334 3.88695748422 0)
(-0.170264775117 3.91893213694 0)
(-0.134706898014 3.94421710965 0)
(-0.100720935279 3.96312180024 0)
(-0.0682898703794 3.97595009979 0)
(-0.0373886949301 3.98299901214 0)
(-0.00798602464993 3.98455730779 0)
(0.0199546345733 3.98090821403 0)
(0.046474462892 3.97232379273 0)
(0.0716153348986 3.95906254228 0)
(0.0954224249858 3.94137906834 0)
(0.117942419464 3.91951652347 0)
(0.139222816865 3.89370861657 0)
(0.159311448981 3.86417940751 0)
(0.178256074732 3.83114348951 0)
(0.196104051174 3.79480615811 0)
(0.212902070744 3.75536362388 0)
(0.228695954558 3.71300324914 0)
(0.243530494437 3.66790380333 0)
(0.257449334554 3.62023573082 0)
(0.270494887389 3.57016142595 0)
(0.282708276804 3.51783551128 0)
(0.294129304623 3.46340511575 0)
(0.30479643509 3.4070101501 0)
(0.314746794903 3.34878357747 0)
(0.324016184387 3.28885167779 0)
(0.332639098502 3.22733430471 0)
(0.340648754174 3.16434513431 0)
(0.348077123374 3.09999190522 0)
(0.354954969128 3.03437664969 0)
(0.36131188443 2.96759591565 0)
(0.367176331772 2.89974097981 0)
(0.372575683644 2.83089805198 0)
(0.377536262123 2.76114847091 0)
(0.382083378166 2.69056889191 0)
(0.386241369038 2.6192314668 0)
(0.390033634664 2.54720401656 0)
(0.393482671579 2.4745501971 0)
(0.396610105367 2.4013296587 0)
(0.399436720444 2.32759819962 0)
(0.401982488142 2.25340791426 0)
(0.404266592094 2.17880733652 0)
(0.406307451897 2.10384157855 0)
(0.408122744163 2.02855246569 0)
(0.409729421935 1.95297866765 0)
(0.411143731677 1.87715582668 0)
(0.412381228778 1.80111668282 0)
(0.41345679086 1.72489119673 0)
(0.414384629802 1.64850667047 0)
(0.415178301819 1.57198786635 0)
(0.415850716466 1.49535712433 0)
(0.416414143957 1.41863447807 0)
(0.416880221619 1.34183776987 0)
(0.417259958918 1.26498276477 0)
(0.417563741806 1.18808326383 0)
(0.417801335906 1.11115121686 0)
(0.41798188921 1.03419683443 0)
(0.418113933919 0.957228699495 0)
(0.418205388142 0.880253878168 0)
(0.418263557369 0.80327802986 0)
(0.418295136819 0.726305516355 0)
(0.41830621558 0.649339509952 0)
(0.418302285153 0.572382100895 0)
(0.418288255659 0.495434403723 0)
(0.418268482198 0.418496763615 0)
(0.418246819157 0.341568488657 0)
(0.418225454676 0.26465006268 0)
(0.418182881294 0.187605296445 0)
(0.417326640728 0.112882885824 0)
(0.394716435351 0.0308371632229 0)
(-1.3621429939 0.152563227299 0)
(-1.44852236349 0.328565279143 0)
(-1.43668378828 0.582921309786 4.44494226821e-26)
(-1.4167921795 0.816873166185 0)
(-1.39039030625 1.04761145527 0)
(-1.35808456906 1.27276807776 0)
(-1.32036903897 1.49145806076 0)
(-1.27781190255 1.70276509546 0)
(-1.23101669766 1.90592217448 0)
(-1.18060591807 2.1002896433 0)
(-1.12720321488 2.2853567028 0)
(-1.0714183483 2.46073582558 0)
(-1.0138347862 2.62615489888 0)
(-0.955000125386 2.78144739542 0)
(-0.895419235197 2.92654140093 0)
(-0.835549892678 3.06144813544 0)
(-0.775800588244 3.18625049152 0)
(-0.716530139352 3.30109198434 0)
(-0.658048742484 3.40616639147 0)
(-0.60062011356 3.50170825933 0)
(-0.544464401312 3.58798437073 0)
(-0.489761602885 3.66528620405 0)
(-0.436655256829 3.73392336772 0)
(-0.385256235021 3.79421796117 0)
(-0.335646496003 3.84649979318 0)
(-0.287882699686 3.89110237727 0)
(-0.241999613406 3.92835961936 0)
(-0.198013265366 3.95860311347 0)
(-0.155923820914 3.98215996554 0)
(-0.115718172429 3.99935108329 0)
(-0.0773722344751 4.01048986486 0)
(-0.040852951498 4.01588095433 0)
(-0.00612016430999 4.01581897732 0)
(0.0268723597992 4.01059375468 0)
(0.0581745047933 4.00047800589 0)
(0.0878388148563 3.98573456033 0)
(0.115920390726 3.96661959922 0)
(0.142475934956 3.94337745468 0)
(0.167562850001 3.91624238111 0)
(0.191238725165 3.885438514 0)
(0.213560880579 3.85118012845 0)
(0.234586005365 3.81367188655 0)
(0.254369869624 3.77310911588 0)
(0.272967100527 3.72967810263 0)
(0.29043101273 3.68355639459 0)
(0.306813483987 3.6349131087 0)
(0.322164868688 3.58390923916 0)
(0.336533942299 3.53069796291 0)
(0.349967871404 3.4754249399 0)
(0.362512204092 3.41822860637 0)
(0.374210876925 3.35924045976 0)
(0.385106234598 3.29858533415 0)
(0.395239059689 3.23638166573 0)
(0.404648609652 3.17274174788 0)
(0.413372659294 3.10777197568 0)
(0.421447546721 3.04157308004 0)
(0.428908221568 2.97424035145 0)
(0.435788294099 2.90586385378 0)
(0.442120084497 2.83652862848 0)
(0.447934671287 2.7663148896 0)
(0.453261938602 2.69529821016 0)
(0.45813062151 2.62354970037 0)
(0.462568349373 2.55113617825 0)
(0.466601686673 2.47812033325 0)
(0.470256171437 2.40456088332 0)
(0.473556350862 2.33051272606 0)
(0.476525814385 2.2560270845 0)
(0.479187223907 2.18115164789 0)
(0.481562341498 2.10593070819 0)
(0.483672054372 2.03040529253 0)
(0.485536397476 1.95461329226 0)
(0.487174573574 1.87858958889 0)
(0.48860497118 1.80236617735 0)
(0.489845180227 1.72597228692 0)
(0.490912005862 1.64943450019 0)
(0.491821480293 1.57277687035 0)
(0.492588873015 1.49602103699 0)
(0.493228699397 1.41918634081 0)
(0.493754727943 1.34228993733 0)
(0.494179986202 1.26534690985 0)
(0.494516765635 1.18837038174 0)
(0.494776625432 1.11137162832 0)
(0.494970395595 1.03436018824 0)
(0.495108179344 0.957343974556 0)
(0.495199355227 0.880329385469 0)
(0.4952525792 0.803321414812 0)
(0.495275787332 0.726323762413 0)
(0.495276199876 0.649338944878 0)
(0.495260327901 0.572368407419 0)
(0.495233983297 0.495412635623 0)
(0.495202288704 0.418471391611 0)
(0.495169700731 0.341543273127 0)
(0.49513855627 0.264628850676 0)
(0.495083166831 0.187556453529 0)
(0.494063017713 0.113465060084 0)
(0.467295622896 0.0292277524804 0)
(-1.59006594683 0.171967011428 0)
(-1.69112868477 0.333322000142 0)
(-1.67684019139 0.601545701024 -4.40855707385e-26)
(-1.65305662442 0.84211524926 0)
(-1.62150387634 1.07957117985 0)
(-1.58294020467 1.31087178546 0)
(-1.53797920716 1.53512185483 0)
(-1.4873242314 1.75134454604 0)
(-1.43171787609 1.95874418896 0)
(-1.37192137327 2.1566713314 0)
(-1.30869237991 2.34462345911 0)
(-1.24276661703 2.52223634145 0)
(-1.17484309939 2.68927309504 0)
(-1.10557308847 2.84561125397 0)
(-1.03555254392 2.99122890228 0)
(-0.965317696206 3.12619062489 0)
(-0.895343268499 3.2506338686 0)
(-0.826042843979 3.36475613005 0)
(-0.757770886807 3.46880323679 0)
(-0.690825966528 3.56305886462 0)
(-0.625454793345 3.64783533873 0)
(-0.561856736709 3.72346569702 0)
(-0.500188563979 3.79029694708 0)
(-0.44056919628 3.84868441906 0)
(-0.383084331441 3.89898710205 0)
(-0.327790829116 3.9415638464 0)
(-0.274720789683 3.97677031692 0)
(-0.223885287945 4.00495658786 0)
(-0.175277744902 4.02646528147 0)
(-0.128876936233 4.04163017802 0)
(-0.0846496382056 4.05077521405 0)
(-0.042552924603 4.05421342075 0)
(-0.00253618739486 4.05224587782 0)
(0.0354584714045 4.04516997837 0)
(0.0714899695041 4.0332577067 0)
(0.105622626851 4.01677753041 0)
(0.137922243986 3.99598683626 0)
(0.168456208799 3.971131078 0)
(0.197292377472 3.94244487747 0)
(0.224498546252 3.91015223216 0)
(0.250141958227 3.87446684914 0)
(0.274288920449 3.83559248321 0)
(0.297004501862 3.79372328842 0)
(0.318352302019 3.7490441742 0)
(0.338394278982 3.70173116097 0)
(0.357190626528 3.65195173166 0)
(0.374799692192 3.59986517614 0)
(0.391277928706 3.5456229264 0)
(0.406679872637 3.48936888091 0)
(0.421058144753 3.43123971728 0)
(0.434463467678 3.3713651923 0)
(0.44694469688 3.30986842923 0)
(0.458548861868 3.24686619213 0)
(0.469321214775 3.18246914744 0)
(0.479305284187 3.11678211294 0)
(0.488542932244 3.04990429469 0)
(0.497074413572 2.98192951218 0)
(0.504938434712 2.91294641248 0)
(0.512172213126 2.84303867386 0)
(0.518811534878 2.7722851995 0)
(0.524890810483 2.7007603021 0)
(0.530443128319 2.62853387978 0)
(0.535500305368 2.55567158422 0)
(0.540092934939 2.48223498146 0)
(0.544250431295 2.4082817061 0)
(0.548001071022 2.33386560953 0)
(0.551372031189 2.25903690267 0)
(0.554389424245 2.18384229387 0)
(0.557078329794 2.10832512247 0)
(0.559462823265 2.03252548855 0)
(0.561566001682 1.95648037925 0)
(0.563410006581 1.88022379221 0)
(0.565016044324 1.80378685641 0)
(0.566404403888 1.72719795089 0)
(0.567594472378 1.65048282166 0)
(0.568604748365 1.57366469699 0)
(0.569452853299 1.49676440152 0)
(0.570155541103 1.41980046939 0)
(0.570728706187 1.34278925646 0)
(0.571187389998 1.26574505203 0)
(0.571545786328 1.18868019006 0)
(0.571817245523 1.11160516004 0)
(0.57201427781 1.03452871768 0)
(0.572148555924 0.957457995488 0)
(0.572230917313 0.880398613276 0)
(0.572271366197 0.803354788878 0)
(0.57227907586 0.726329449219 0)
(0.572262391584 0.649324342398 0)
(0.572228834518 0.572340151139 0)
(0.572185106031 0.495376604531 0)
(0.57213708663 0.418432740063 0)
(0.572089845844 0.341506249668 0)
(0.572045936327 0.264597838315 0)
(0.571975776431 0.187493295303 0)
(0.570790452592 0.114141757106 0)
(0.539868067468 0.0273477299933 0)
(-1.82562316916 0.195041627006 0)
(-1.94196167531 0.338937904944 0)
(-1.92491445667 0.623690275699 0)
(-1.89682961606 0.872069188869 0)
(-1.85959560146 1.11746309254 0)
(-1.81415270692 1.35598698799 0)
(-1.76125727185 1.58674005158 0)
(-1.70177278197 1.80867473055 0)
(-1.63660451182 2.02096550601 0)
(-1.5666737394 2.22295660795 0)
(-1.49289030783 2.41416141 0)
(-1.41613056302 2.59424954078 0)
(-1.33722014363 2.76303183689 0)
(-1.25692164455 2.92044339003 0)
(-1.17592672271 3.06652602488 0)
(-1.09485205071 3.2014110929 0)
(-1.01423843595 3.32530323542 0)
(-0.934552416651 3.4384655353 0)
(-0.856189691142 3.54120628676 0)
(-0.779479812545 3.63386746569 0)
(-0.704691671234 3.71681487659 0)
(-0.632039379844 3.79042988034 0)
(-0.561688262639 3.85510256427 0)
(-0.493760728408 3.91122619402 0)
(-0.428341871495 3.95919278116 0)
(-0.365484699202 3.99938960462 0)
(-0.305214925949 4.03219653556 0)
(-0.247535307107 4.05798402901 0)
(-0.192429509063 4.07711166429 0)
(-0.139865526615 4.08992714988 0)
(-0.0897986670558 4.09676568687 0)
(-0.0421741414957 4.09794915213 0)
(0.00307082861787 4.09378551289 0)
(0.0460078510868 4.08458052282 0)
(0.0867050755368 4.07060365717 0)
(0.125240285183 4.05213040131 0)
(0.161690843792 4.02941867956 0)
(0.196135551497 4.00271488817 0)
(0.228653318834 3.97225372163 0)
(0.259322637784 3.93825872663 0)
(0.28822106572 3.90094270643 0)
(0.315424835089 3.86050816079 0)
(0.341008549974 3.81714771712 0)
(0.365044958686 3.77104455468 0)
(0.387604789126 3.72237281687 0)
(0.408756636136 3.67129800969 0)
(0.428566891541 3.61797738463 0)
(0.447099708888 3.56256030524 0)
(0.464416996154 3.5051885967 0)
(0.480578430648 3.44599687842 0)
(0.495641491294 3.38511287976 0)
(0.509661504177 3.32265773916 0)
(0.522691697967 3.25874628731 0)
(0.534783266349 3.19348731494 0)
(0.54598543512 3.12698382589 0)
(0.556345531977 3.05933327629 0)
(0.565909057447 2.99062780068 0)
(0.574719755632 2.92095442586 0)
(0.582819683777 2.85039527327 0)
(0.590249279824 2.77902775085 0)
(0.597047427348 2.70692473507 0)
(0.603251517387 2.63415474402 0)
(0.608897506858 2.56078210229 0)
(0.614019973297 2.48686709843 0)
(0.618652165823 2.41246613562 0)
(0.622826052242 2.33763187635 0)
(0.626572362315 2.26241338164 0)
(0.629920627225 2.18685624547 0)
(0.632899215372 2.11100272498 0)
(0.635535364586 2.03489186693 0)
(0.637855210958 1.95855963093 0)
(0.639883814421 1.88203900998 0)
(0.641645181303 1.8053601485 0)
(0.643162284044 1.72855045853 0)
(0.644457078263 1.6516347342 0)
(0.64555051741 1.57463526489 0)
(0.646462565198 1.49757194729 0)
(0.64721220601 1.42046239676 0)
(0.647817453512 1.34332205793 0)
(0.64829535765 1.26616431496 0)
(0.648662010245 1.18900060155 0)
(0.648932549372 1.11184051077 0)
(0.649121162744 1.0346919049 0)
(0.649241090292 0.957561025382 0)
(0.649304626182 0.880452602992 0)
(0.649323120475 0.803369968418 0)
(0.649306980665 0.726315163504 0)
(0.649265673228 0.649289053617 0)
(0.649207725115 0.572291441012 0)
(0.649140724311 0.495321174026 0)
(0.649071312821 0.418376437853 0)
(0.649005193743 0.341453853965 0)
(0.648945184403 0.264554408643 0)
(0.6488579973 0.187414000892 0)
(0.647505759154 0.114912641606 0)
(0.612429553191 0.0251978405542 0)
(-2.0701980987 0.222202471566 0)
(-2.20251666986 0.345503345891 0)
(-2.18232643591 0.649756551908 0)