/*--------------------------------*- C++ -*----------------------------------*\
| =========                 |                                                 |
| \\      /  F ield         | OpenFOAM: The Open Source CFD Toolbox           |
|  \\    /   O peration     | Version:  v1906                                 |
|   \\  /    A nd           | Web:      www.OpenFOAM.com                      |
|    \\/     M anipulation  |                                                 |
\*---------------------------------------------------------------------------*/
FoamFile
{
    version     2.0;
    format      ascii;
    class       volScalarField;
    location    "510";
    object      pa;
}
// * * * * * * * * * * * * * * * * * * * * * * * * * * * * * * * * * * * * * //

dimensions      [0 2 -2 0 0 0 0];


internalField   nonuniform List<scalar> 
9216
(
-206.145835667
-206.34199105
-206.74451642
-207.350520595
-208.157058189
-209.159794447
-210.353323173
-211.731284762
-213.286480836
-215.010971079
-216.896186234
-218.933023786
-221.111961256
-223.423145591
-225.856500167
-228.40180174
-231.048776082
-233.787158894
-236.606777708
-239.49759587
-242.449780703
-245.453731664
-248.500136257
-251.579984609
-254.684615188
-257.805718283
-260.935373483
-264.066044234
-267.190608286
-270.302345208
-273.394961443
-276.462571433
-279.499717375
-282.501345796
-285.462822675
-288.379906199
-291.248757877
-294.065912496
-296.82828583
-299.53314279
-302.178102336
-304.761104711
-307.280414149
-309.734585927
-312.122467407
-314.443165477
-316.696046387
-318.880703962
-320.996958685
-323.044826855
-325.024519354
-326.936411759
-328.781043268
-330.559087583
-332.271352529
-333.918751363
-335.502303718
-337.023106861
-338.482338675
-339.8812283
-341.221062022
-342.50315269
-343.728849503
-344.899505674
-346.016493245
-347.081168631
-348.094893657
-349.058998861
-349.974811936
-350.843618888
-351.666700747
-352.445292864
-353.180630083
-353.873904418
-354.52631775
-355.13903801
-355.713257286
-356.250146651
-356.750916939
-357.216773305
-357.648976889
-358.048802649
-358.417603732
-358.756781587
-359.067864457
-359.352516661
-359.612673527
-359.85120907
-360.067481231
-360.244873661
-360.375169467
-360.466848843
-360.527611127
-360.563589228
-360.581268258
-360.587389832
-205.950033999
-206.147324991
-206.55034092
-207.159228385
-207.969971243
-208.977993083
-210.177744364
-211.562755039
-213.125720797
-214.858598583
-216.752714008
-218.79886388
-220.987425022
-223.308451839
-225.751777426
-228.307099087
-230.964066396
-233.712350987
-236.541719343
-239.442086082
-242.403571727
-245.416540757
-248.471646173
-251.559854638
-254.672480202
-257.801199016
-260.938074373
-264.075563055
-267.206533497
-270.324265121
-273.422460335
-276.495238496
-279.53714269
-282.543128722
-285.508567441
-288.429229779
-291.301285282
-294.121284085
-296.886152383
-299.593172218
-302.239974627
-304.824518047
-307.345079807
-309.800233847
-312.188841123
-314.510027187
-316.763171977
-318.947887651
-321.064008159
-323.111567574
-325.090789783
-327.002067453
-328.845952126
-330.623133852
-332.334431971
-333.980775346
-335.56319413
-337.082800462
-338.540781557
-339.938380707
-341.276892074
-342.557641867
-343.781985346
-344.951288118
-346.066925972
-347.130266417
-348.142672109
-349.105482941
-350.020023894
-350.887588146
-351.709450064
-352.486849786
-353.221011638
-353.913130306
-354.564394121
-355.175972373
-355.749041873
-356.284774515
-356.784365036
-357.24901833
-357.679977254
-358.078511208
-358.445945552
-358.783656299
-359.093105934
-359.375847702
-359.633556755
-359.868003024
-360.081732175
-360.258888028
-360.387705833
-360.477596926
-360.536858174
-360.571104859
-360.587509204
-360.593748857
-205.54586373
-205.747133052
-206.154543173
-206.769952742
-207.589297992
-208.607890202
-209.820015619
-211.219021582
-212.797408734
-214.546933545
-216.458718092
-218.523359159
-220.731038342
-223.071625563
-225.534779741
-228.110039251
-230.786907691
-233.55492768
-236.403749789
-239.323189217
-242.303278609
-245.334309324
-248.40687044
-251.511877324
-254.640599597
-257.784679713
-260.936152267
-264.08745467
-267.231439518
-270.361378699
-273.470969913
-276.554335231
-279.60602236
-282.620998432
-285.594646789
-288.522756757
-291.401516715
-294.22750068
-296.997658479
-299.709300001
-302.360083269
-304.947997158
-307.471348077
-309.928741834
-312.319069529
-314.641489098
-316.895410881
-319.080479243
-321.196558179
-323.243713296
-325.222197715
-327.132434608
-328.975003613
-330.750624015
-332.460141856
-334.1045138
-335.684795085
-337.202124076
-338.657711201
-340.052824195
-341.388778206
-342.666921759
-343.888628307
-345.055283052
-346.168276355
-347.228991713
-348.238801625
-349.199057252
-350.111087492
-350.976190998
-351.795639255
-352.570671585
-353.302502698
-353.992320861
-354.641299534
-355.250597989
-355.821375467
-356.35479257
-356.852025561
-357.314266779
-357.74273739
-358.138686665
-358.503403859
-358.838218898
-359.144516587
-359.423740491
-359.677410538
-359.907084976
-360.115923488
-360.288770661
-360.413598565
-360.50023172
-360.555804894
-360.587725747
-360.604156012
-360.611529526
-204.931712504
-205.136886044
-205.551118556
-206.176654366
-207.009296441
-208.044170627
-209.275321563
-210.695821341
-212.297873223
-214.072924617
-216.011784473
-218.104740524
-220.341674738
-222.712172888
-225.205628064
-227.811334917
-230.518575819
-233.316696457
-236.195173161
-239.143669994
-242.152088699
-245.210609724
-248.30972786
-251.440280571
-254.593472683
-257.760895131
-260.934541358
-264.106818634
-267.270557833
-270.419018604
-273.545893559
-276.645307943
-279.711818582
-282.740408861
-285.726483184
-288.665857886
-291.554751985
-294.38977486
-297.16791417
-299.886521182
-302.543296713
-305.136274927
-307.663808056
-310.124549354
-312.517437201
-314.841677749
-317.096728861
-319.282282848
-321.398250569
-323.444744533
-325.422063419
-327.330675718
-329.171204842
-330.94441344
-332.651189212
-334.292529958
-335.869530186
-337.383366917
-338.835287162
-340.226594506
-341.558637528
-342.832797237
-344.050476605
-345.213089013
-346.322049215
-347.378763168
-348.384620965
-349.340988682
-350.249204097
-351.110571427
-351.926360812
-352.69780686
-353.426112644
-354.112452455
-354.757980137
-355.363835161
-355.931153525
-356.461074643
-356.954751593
-357.413355592
-357.838082624
-358.23015372
-358.590817373
-358.921346878
-359.223041323
-359.497223801
-359.745253188
-359.968532368
-360.169787844
-360.335080012
-360.454713293
-360.536151295
-360.588439456
-360.619607218
-360.637051409
-360.645213953
-204.103628401
-204.313698262
-204.737217004
-205.376589451
-206.227393185
-207.284479433
-208.541556963
-209.991318097
-211.625556759
-213.435294951
-215.410911803
-217.542271433
-219.818846864
-222.229836874
-224.764274424
-227.411124759
-230.159373127
-232.998101279
-235.916553733
-238.904193716
-241.950750458
-245.046258108
-248.181088208
-251.345975944
-254.532041967
-257.730809676
-260.934219404
-264.13463893
-267.324871622
-270.498161313
-273.648195143
-276.769103049
-279.8554554
-282.902257818
-285.904944286
-288.859367817
-291.761789834
-294.608867577
-297.397640676
-300.125516248
-302.790253598
-305.389947875
-307.923013694
-310.388168064
-312.784413543
-315.111020961
-317.367512553
-319.553644845
-321.669392078
-323.714929516
-325.69061737
-327.596984712
-329.43471405
-331.204625947
-332.907664348
-334.544881957
-336.117426357
-337.626526167
-339.073477958
-340.459633197
-341.786385973
-343.055160753
-344.267401006
-345.424557907
-346.528080105
-347.579403735
-348.579943858
-349.531086492
-350.434182658
-351.290543519
-352.101438336
-352.868094011
-353.591698206
-354.273404085
-354.914338746
-355.515612331
-356.078329588
-356.603599974
-357.092547651
-357.546317525
-357.966078724
-358.35302283
-358.708358757
-359.033302929
-359.329067316
-359.596844266
-359.837799068
-360.053030184
-360.244866582
-360.401088424
-360.513169873
-360.590128644
-360.640533253
-360.671997105
-360.69087295
-360.699937537
-203.056701658
-203.272915729
-203.708317139
-204.36543968
-205.239543244
-206.325104687
-207.615387242
-209.102584467
-210.777955621
-212.631969193
-214.654447341
-216.834707401
-219.161697004
-221.624119973
-224.210551157
-226.90953888
-229.709694644
-232.599770017
-235.568721478
-238.60576404
-241.700415149
-244.842530082
-248.022330545
-251.230427562
-254.45784006
-257.696009727
-260.936812994
-264.172570084
-267.396051782
-270.600483513
-273.779547123
-276.927379676
-280.03857008
-283.108153139
-286.131601544
-289.104815668
-292.02411174
-294.88620834
-297.688211796
-300.42760044
-303.102208248
-305.710207804
-308.250093041
-310.720661644
-313.120997508
-315.450453089
-317.708631998
-319.895371645
-322.010726243
-324.054949969
-326.028480574
-327.931923218
-329.766034802
-331.531708572
-333.229959247
-334.861908421
-336.4287705
-337.931838884
-339.372472672
-340.752083578
-342.072123351
-343.334071377
-344.539422812
-345.689676937
-346.78632615
-347.830845389
-348.824682493
-349.769249438
-350.665915131
-351.515999842
-352.320772121
-353.081448332
-353.799195635
-354.475138151
-355.110366807
-355.705951537
-356.262955544
-356.782448956
-357.265520896
-357.71328683
-358.126890706
-358.507499816
-358.856293091
-359.174441975
-359.463085059
-359.723295465
-359.956050713
-360.162175072
-360.34350842
-360.488359355
-360.593485841
-360.667153888
-360.716367485
-360.749891267
-360.770435005
-360.780381584
-201.784734812
-202.008510475
-202.458599683
-203.137678191
-204.040592455
-205.161334111
-206.492595136
-208.025934084
-209.751933483
-211.660364838
-213.740352696
-215.980533179
-218.369203157
-220.894457011
-223.544309206
-226.306801504
-229.170094688
-232.122545147
-235.152767433
-238.249684193
-241.402565362
-244.601058502
-247.835212298
-251.095494874
-254.372808379
-257.658500747
-260.944375251
-264.222697832
-267.486202538
-270.728094777
-273.942052047
-277.12222193
-280.263217685
-283.360111308
-286.408424264
-289.404116094
-292.343571204
-295.223584105
-298.041343454
-300.794415146
-303.480724773
-306.098539621
-308.646450459
-311.123353214
-313.528430695
-315.861134428
-318.121166699
-320.308462835
-322.423173806
-324.465649145
-326.436420256
-328.336184103
-330.165787333
-331.9262108
-333.618554549
-335.24402319
-336.803911716
-338.299591672
-339.732497712
-341.104114451
-342.415963621
-343.669591473
-344.866556408
-346.008416876
-347.096719504
-348.132987699
-349.118710703
-350.055333656
-350.944248743
-351.786788386
-352.584220745
-353.33774867
-354.048512592
-354.717597916
-355.346047302
-355.934876634
-356.485094137
-356.997719134
-357.473798437
-357.91441646
-358.320696916
-358.693794818
-359.034877917
-359.345098054
-359.625550925
-359.877221212
-360.100910594
-360.297100528
-360.466489178
-360.600906546
-360.700958834
-360.772223088
-360.822064106
-360.856984822
-360.878679703
-360.889130476
-200.280094277
-200.513008233
-200.980856667
-201.686477891
-202.624196076
-203.787389682
-205.16803294
-206.756891389
-208.543707496
-210.517392894
-212.666216902
-214.977986044
-217.440210134
-220.040251903
-222.765458322
-225.603272869
-228.541328845
-231.56752466
-234.670082649
-237.837593529
-241.059048982
-244.323865008
-247.621898654
-250.943460332
-254.279323497
-257.620732704
-260.959410568
-264.287563342
-267.597885199
-270.883560842
-274.138265258
-277.356160912
-280.531892303
-283.660577793
-286.737798945
-289.759587586
-292.722410986
-295.623155463
-298.459108845
-301.227942077
-303.927690312
-306.556733716
-309.11377819
-311.59783615
-314.008207477
-316.344460701
-318.606414499
-320.794119506
-322.907840531
-324.948039144
-326.91535672
-328.810597906
-330.634714573
-332.388790207
-334.074024809
-335.691720198
-337.243265795
-338.730124738
-340.153820406
-341.515923148
-342.818037319
-344.061788363
-345.248810089
-346.380731891
-347.459166101
-348.48569537
-349.461860355
-350.389147929
-351.268980409
-352.102706554
-352.891595152
-353.636832492
-354.33952479
-355.000706715
-355.621356646
-356.202418079
-356.744825755
-357.249532586
-357.717533459
-358.149880207
-358.547684751
-358.912108164
-359.244336207
-359.545541823
-359.8168337
-360.059186509
-360.273343579
-360.459646184
-360.618020258
-360.744435843
-360.839747538
-360.90968594
-360.960601056
-360.995286606
-361.017645402
-361.028115312
-198.533556844
-198.777367946
-199.266380277
-200.003612546
-200.982736858
-202.196365839
-203.63558208
-205.290171977
-207.148847765
-209.199473988
-211.429286304
-213.825096311
-216.373477674
-219.0609304
-221.874021787
-224.799503584
-227.824406068
-230.936110455
-234.122401939
-237.3715062
-240.672112799
-244.013388991
-247.384987483
-250.777051065
-254.180216286
-257.585617346
-260.984890446
-264.370177962
-267.734131909
-271.069916427
-274.371206689
-277.632185466
-280.847536577
-284.012435353
-287.122536281
-290.173958217
-293.163267574
-296.087459951
-298.943940651
-301.73050452
-304.445315418
-307.08688563
-309.654055381
-312.145972608
-314.562073059
-316.902060777
-319.16588899
-321.353741444
-323.466014175
-325.503297767
-327.466360086
-329.356129524
-331.173678768
-332.920209074
-334.597035072
-336.205570051
-337.747311716
-339.223828336
-340.636745245
-341.987731576
-343.278487165
-344.510729466
-345.686180404
-346.806553043
-347.873537946
-348.888789345
-349.853910951
-350.770442063
-351.639843909
-352.463487801
-353.24264543
-353.978483907
-354.672066552
-355.324362085
-355.936263526
-356.508616453
-357.042255966
-357.538045867
-357.996914626
-358.419879063
-358.808050063
-359.162619407
-359.484828559
-359.775924012
-360.037099497
-360.269424623
-360.473754573
-360.650601425
-360.800012983
-360.920727298
-361.013053107
-361.082257273
-361.13286088
-361.16721165
-361.189167936
-361.198674165
-196.534130783
-196.790820105
-197.304816335
-198.079330466
-199.107222971
-200.380154478
-201.888105778
-203.619661892
-205.562280723
-207.702562502
-210.026505528
-212.519741189
-215.167743155
-217.956007998
-220.870206115
-223.896303249
-227.020653818
-230.230068276
-233.511857498
-236.853858052
-240.244442855
-243.672522073
-247.127538988
-250.599464811
-254.078795196
-257.556549663
-261.024273747
-264.474042532
-267.898464143
-271.290682832
-274.644377436
-277.953757511
-281.213555683
-284.41901649
-287.565882031
-290.650374884
-293.669178875
-296.619418252
-299.49863589
-302.30477098
-305.036136641
-307.691397718
-310.26954897
-312.769893736
-315.192023145
-317.535795845
-319.801318295
-321.98892556
-324.099162661
-326.132766449
-328.090648042
-329.973875817
-331.783659
-333.521331822
-335.188338266
-336.786217346
-338.316588921
-339.781139903
-341.181610878
-342.519782874
-343.797464331
-345.016477868
-346.178646925
-347.285781815
-348.339665279
-349.342037113
-350.294578105
-351.198893201
-352.056494468
-352.868784828
-353.6370438
-354.36241789
-355.045918125
-355.688428485
-356.290728208
-356.853529487
-357.377529302
-357.86346815
-358.312185607
-358.724657821
-359.102008142
-359.445489268
-359.756443265
-360.036247981
-360.286254806
-360.507721725
-360.701744017
-360.869187791
-361.01066376
-361.12646401
-361.217378935
-361.286516747
-361.337140292
-361.372390157
-361.393668495
-361.401288187
-194.268836567
-194.540661365
-195.083980428
-195.902198597
-196.987165294
-198.32935784
-199.917397642
-201.738399692
-203.778301022
-206.022183522
-208.454574396
-211.059716373
-213.821802928
-216.725176322
-219.754488405
-222.894825182
-226.131797307
-229.451599336
-232.841041682
-236.287560189
-239.779209306
-243.304645448
-246.853107085
-250.414397053
-253.978870648
-257.537430725
-261.081528647
-264.603168739
-268.094913472
-271.549887936
-274.961778659
-278.324829586
-281.633833205
-284.884117497
-288.071529111
-291.192413458
-294.243592446
-297.222340673
-300.126360785
-302.95375865
-305.703018788
-308.372980394
-310.962814068
-313.471999349
-315.900302994
-318.247757988
-320.514643201
-322.701463685
-324.808931562
-326.83794752
-328.789582927
-330.665062571
-332.465748055
-334.193121853
-335.84877202
-337.434377516
-338.951694131
-340.402540869
-341.788786765
-343.112337887
-344.375124466
-345.579087771
-346.726166663
-347.818283296
-348.857327866
-349.845141901
-350.783499909
-351.674089417
-352.518489298
-353.318147932
-354.07436171
-354.788258402
-355.460787609
-356.092725977
-356.684701621
-357.237242595
-357.750850894
-358.226090925
-358.663677245
-359.064535527
-359.42981835
-359.760877995
-360.059209831
-360.326384368
-360.563977034
-360.773501556
-360.956353024
-361.1137729
-361.246864492
-361.356675631
-361.444598911
-361.512839123
-361.56373793
-361.599391989
-361.621138972
-361.629233398
-191.722433985
-192.011998452
-192.589629341
-193.458912106
-194.610431138
-196.033189026
-197.71412788
-199.638564749
-201.790596274
-204.15348756
-206.710025712
-209.442830294
-212.334616725
-215.368412117
-218.527724835
-221.796670159
-225.160054952
-228.60342496
-232.113079386
-235.676058896
-239.280114833
-242.913668689
-246.565771088
-250.226068087
-253.884779668
-257.532691393
-261.161156103
-264.762102697
-268.328045092
-271.852089123
-275.327933438
-278.749865113
-282.112749452
-285.412014531
-288.643631298
-291.80409007
-294.8903745
-297.899934023
-300.830655788
-303.68083682
-306.449156994
-309.134653083
-311.736694006
-314.25495721
-316.689406091
-319.040268305
-321.308014854
-323.49333988
-325.597141113
-327.620500967
-329.564668315
-331.431040959
-333.221148832
-334.936637949
-336.579255112
-338.150833335
-339.653277955
-341.088553299
-342.458669863
-343.765671696
-345.011623959
-346.198600133
-347.328668824
-348.403879386
-349.426246259
-350.397731
-351.320221907
-352.195510368
-353.025263972
-353.810996993
-354.554039188
-355.255507366
-355.91628399
-356.537012952
-357.118122148
-357.659884038
-358.162519297
-358.62633312
-359.051857756
-359.439952111
-359.791823734
-360.108977713
-360.393129083
-360.646109922
-360.869784695
-361.065977348
-361.236412096
-361.382683835
-361.506273157
-361.608617425
-361.691285956
-361.756125961
-361.805009032
-361.839620669
-361.861253881
-361.871037432
-188.877080076
-189.187426959
-189.805178452
-190.734063007
-191.963072102
-193.479360958
-195.267790843
-197.311477123
-199.592291165
-202.091329757
-204.789330632
-207.667027161
-210.705440858
-213.88611377
-217.191284628
-220.604012606
-224.108252563
-227.688885626
-231.331710261
-235.023400977
-238.75144475
-242.504067659
-246.270165198
-250.0392479
-253.80140917
-257.547315807
-261.26821499
-264.955951493
-268.60298457
-272.20239969
-275.747911997
-279.233861792
-282.655202442
-286.007481842
-289.286818496
-292.489873455
-295.613819449
-298.656308665
-301.615440453
-304.489729966
-307.278078336
-309.979744674
-312.594319837
-315.121701789
-317.562072266
-319.91587452
-322.183791903
-324.366727204
-326.465782656
-328.482240625
-330.417545015
-332.273283439
-334.051170208
-335.753030181
-337.380783489
-338.936431111
-340.422041266
-341.839736496
-343.191681356
-344.480070441
-345.707116621
-346.875038966
-347.98605021
-349.042342816
-350.046073419
-350.99934421
-351.904180889
-352.762505501
-353.576103723
-354.346586087
-355.07534337
-355.763501042
-356.41187657
-357.020956691
-357.590907824
-358.121644647
-358.612974622
-359.064810141
-359.477407075
-359.851535831
-360.188504713
-360.490053628
-360.758207549
-360.995143557
-361.203087226
-361.384229
-361.540648991
-361.674278168
-361.7868993
-361.880190033
-361.955802976
-362.015414884
-362.060629842
-362.09287236
-362.113276359
-362.122910752
-185.711897167
-186.046629573
-186.711351733
-187.709860664
-189.029123741
-190.653966414
-192.566659695
-194.747617133
-197.176019756
-199.830382562
-202.689039913
-205.730546466
-208.933996883
-212.279271391
-215.747214575
-219.319753494
-222.979959331
-226.712056087
-230.501380776
-234.334302912
-238.198115896
-242.080917864
-245.971502206
-249.859275898
-253.734216185
-257.586864864
-261.408348596
-265.190411916
-268.925448378
-272.606519402
-276.227361028
-279.782378627
-283.26663194
-286.675812317
-290.006213609
-293.254698161
-296.418659742
-299.495985371
-302.485017834
-305.38452015
-308.193642713
-310.911893217
-313.539109146
-316.075432343
-318.521285192
-320.877347963
-323.144537042
-325.323983853
-327.417014441
-329.425129713
-331.349986424
-333.193379002
-334.957222283
-336.643535253
-338.254425796
-339.792076492
-341.258731365
-342.656683534
-343.988263602
-345.255828582
-346.461751138
-347.608408683
-348.698172029
-349.733392633
-350.716387981
-351.649423313
-352.534688948
-353.374270447
-354.170110375
-354.923959077
-355.637313501
-356.311346599
-356.94683225
-357.544084494
-358.102936249
-358.622801938
-359.10287066
-359.542438193
-359.941328202
-360.300196924
-360.620546665
-360.904488837
-361.154487541
-361.37316948
-361.563205437
-361.727223901
-361.867698288
-361.986894725
-362.086857217
-362.169435491
-362.236331591
-362.28913061
-362.329269477
-362.357989668
-362.376273831
-362.385036602
-182.202422646
-182.565867127
-183.285747573
-184.365794731
-185.790376179
-187.541354249
-189.597757909
-191.936676257
-194.534038324
-197.365293393
-200.405971508
-203.632127907
-207.02068367
-210.549677292
-214.198440266
-217.947705066
-221.779649511
-225.67787862
-229.627345965
-233.614221287
-237.625719745
-241.649917613
-245.675585835
-249.69207115
-253.689242193
-257.657497389
-261.587812891
-265.471804155
-269.301779883
-273.070770589
-276.772538078
-280.401567372
-283.953047011
-287.422840597
-290.807450955
-294.103978407
-297.310075575
-300.423901541
-303.444077893
-306.36964834
-309.200042627
-311.935044625
-314.574763946
-317.119610214
-319.570269158
-321.927679879
-324.193012875
-326.36764863
-328.453156739
-330.451275651
-332.363893136
-334.193027685
-335.940810919
-337.609471186
-339.201318351
-340.718729844
-342.164137873
-343.540017779
-344.84887732
-346.093246775
-347.275669556
-348.398692967
-349.464858732
-350.476692296
-351.436690376
-352.347304507
-353.210919694
-354.029823724
-354.80616558
-355.541895901
-356.23868759
-356.897832953
-357.52011766
-358.105697569
-358.653999836
-359.163747321
-359.633182033
-360.060600652
-360.4451173
-360.787257202
-361.088919526
-361.35282586
-361.58206671
-361.779842329
-361.949362598
-362.093795211
-362.216061355
-362.318776961
-362.404223734
-362.47438317
-362.530983608
-362.575541278
-362.609370235
-362.633573179
-362.649004271
-362.656432038
-178.319900158
-178.71733189
-179.502297367
-180.678231056
-182.226116775
-184.124011973
-186.346862599
-188.867656654
-191.658395391
-194.690902296
-197.937456947
-201.371272182
-204.966841577
-208.700184733
-212.549011142
-216.492813898
-220.512894916
-224.592317344
-228.715780569
-232.869420554
-237.040552639
-241.217392222
-245.388803434
-249.544127084
-253.67311888
-257.76599014
-261.813508822
-265.807112009
-269.738992932
-273.602141488
-277.39035234
-281.09820925
-284.721057669
-288.254968947
-291.696696126
-295.043622165
-298.293703887
-301.44541605
-304.497699269
-307.449914025
-310.301801424
-313.053450044
-315.7052675
-318.257955218
-320.712485081
-323.070077031
-325.332177095
-327.50043568
-329.576686175
-331.562924055
-333.461286704
-335.274034224
-337.003531427
-338.65223122
-340.222659413
-341.717401072
-343.139088272
-344.490389299
-345.773999021
-346.992630437
-348.149007003
-349.245855615
-350.285899657
-351.271851521
-352.206403664
-353.092216262
-353.93189979
-354.727987517
-355.482894293
-356.198851151
-356.877810482
-357.521302192
-358.130249208
-358.704721434
-359.243713601
-359.745003261
-360.205375488
-360.621420903
-360.99103273
-361.314627177
-361.594960196
-361.835791063
-362.04109828
-362.214774131
-362.360644815
-362.482584325
-362.584031998
-362.667980351
-362.736922182
-362.792927845
-362.837714201
-362.872718759
-362.899140226
-362.917958517
-362.929923249
-362.93567653
-174.030353871
-174.468312436
-175.33058784
-176.619929748
-178.31285171
-180.382472532
-182.798563776
-185.529044158
-188.541181756
-191.802538213
-195.281661174
-198.948568745
-202.775077904
-206.735023189
-210.804397784
-214.961430578
-219.186595602
-223.462538156
-227.773899546
-232.107032347
-236.449622136
-240.790265449
-245.118086103
-249.422481884
-253.69306193
-257.919756943
-262.093021918
-266.204034178
-270.244826588
-274.208339259
-278.088413372
-281.879758055
-285.577911301
-289.179196162
-292.680667053
-296.080044812
-299.375645684
-302.566311741
-305.651348461
-308.630472425
-311.503769484
-314.271661616
-316.934879907
-319.494441101
-321.95162574
-324.307956607
-326.565176959
-328.725228487
-330.790229232
-332.762451826
-334.644302419
-336.438300692
-338.147061263
-339.773276754
-341.3197026
-342.789143725
-344.184442927
-345.508471042
-346.764118584
-347.954288946
-349.08189278
-350.14984362
-351.161054179
-352.118433112
-353.024881234
-353.883285864
-354.696510989
-355.467378633
-356.19863534
-356.892892473
-357.552519776
-358.179482283
-358.775054035
-359.339453288
-359.871307504
-360.367220502
-360.821679374
-361.228243673
-361.582544464
-361.885039536
-362.140429349
-362.354272266
-362.531762262
-362.677508132
-362.795926374
-362.891945002
-362.969589835
-363.032266676
-363.08262061
-363.12274272
-363.154270599
-363.178519419
-363.19655267
-363.209228648
-363.217202574
-363.221005131
-169.293359114
-169.780106427
-170.735008187
-172.159478438
-174.024022618
-176.295276992
-178.936416666
-181.909090904
-185.174890706
-188.696416856
-192.43799157
-196.36610139
-200.449661813
-204.660178339
-208.971850922
-213.361637161
-217.809259771
-222.297122308
-226.810089149
-231.335098173
-235.860612106
-240.375975879
-244.870815751
-249.334651797
-253.756849104
-258.12687325
-262.434679226
-266.671054627
-270.827816246
-274.897855436
-278.875089257
-282.754390678
-286.531534653
-290.203149772
-293.766655855
-297.220181311
-300.562470306
-303.792794073
-306.910875139
-309.916828303
-312.811117743
-315.594526319
-318.268132388
-320.833290121
-323.291610366
-325.644940535
-327.895343115
-330.045073094
-332.096554861
-334.052359205
-335.915180967
-337.687817955
-339.373151507
-340.974129122
-342.493749216
-343.935048154
-345.301089357
-346.594954535
-347.819736723
-348.978535302
-350.074452621
-351.11059258
-352.090060658
-353.015965815
-353.891423346
-354.719558389
-355.50350822
-356.246419022
-356.951433642
-357.621647646
-358.260034306
-358.869249626
-359.451333981
-360.007092009
-360.5352224
-361.03104836
-361.48553132
-361.886497648
-362.225083545
-362.502301145
-362.727449556
-362.909180767
-363.054198689
-363.167517964
-363.253745193
-363.319799284
-363.370250282
-363.408979752
-363.438634008
-363.461212139
-363.478152068
-363.49057369
-363.499359326
-363.50523012
-363.508756678
-363.510371691
-164.060376825
-164.606577642
-165.673674407
-167.260640136
-169.329753967
-171.83904658
-174.743245015
-177.99625897
-181.552928335
-185.370166703
-189.407611674
-193.627939499
-197.996993881
-202.48384322
-207.060832967
-211.703647817
-216.391350729
-221.106328367
-225.834053379
-230.562584427
-235.281779118
-239.982301255
-244.654645856
-249.2885094
-253.872784953
-258.396117
-262.847635821
-267.217544036
-271.497387739
-275.68004601
-279.759574872
-283.731065955
-287.590582488
-291.335122024
-294.962550828
-298.471495253
-301.861214411
-305.131483697
-308.28250177
-311.314825176
-314.229327952
-317.02717775
-319.709820431
-322.278967007
-324.736578839
-327.08484941
-329.326182909
-331.463170602
-333.498566129
-335.43526066
-337.276258754
-339.024655687
-340.683616888
-342.256359933
-343.746139226
-345.156233441
-346.489935458
-347.750544758
-348.941361975
-350.065685756
-351.1268117
-352.128033927
-353.072649009
-353.963963421
-354.805303711
-355.60003165
-356.351560973
-357.063380325
-357.739067511
-358.382305973
-358.996841381
-359.586397336
-360.154330373
-360.702982983
-361.232197184
-361.736750631
-362.202396779
-362.605565361
-362.927626083
-363.171594064
-363.358181354
-363.501065905
-363.608365755
-363.684308303
-363.732052155
-363.763415863
-363.782844257
-363.79489706
-363.801825559
-363.805381068
-363.8065958
-363.806294098
-363.805106886
-363.803602893
-363.802276807
-363.801484758
-158.272443496
-158.892215184
-160.097072686
-161.881637505
-164.19670044
-166.988754354
-170.201683404
-173.779897851
-177.670324603
-181.823512091
-186.194070805
-190.740715824
-195.426148178
-200.216942829
-205.083533496
-210.000304962
-214.945730436
-219.902430617
-224.856989234
-229.799356228
-234.72173557
-239.617027383
-244.477178979
-249.292078706
-254.049653821
-258.737051889
-263.342025039
-267.853913978
-272.263982125
-276.565225393
-280.751968507
-284.819592462
-288.764494914
-292.584110743
-296.276857568
-299.841982058
-303.279372193
-306.58939967
-309.772805052
-312.83062846
-315.764179096
-318.57502596
-321.26499622
-323.836172869
-326.290885984
-328.631696373
-330.861373342
-332.982868965
-334.999290808
-336.913874425
-338.729956637
-340.450950674
-342.080324034
-343.62157966
-345.078240559
-346.453837765
-347.751901277
-348.975953755
-350.129506629
-351.216058743
-352.23909748
-353.20210297
-354.10855573
-354.96194892
-355.765806364
-356.523707883
-357.239325533
-357.916469757
-358.559157976
-359.171683825
-359.758723765
-360.325372477
-360.877104035
-361.419239697
-361.955342501
-362.48267413
-362.980632747
-363.401625002
-363.704387167
-363.89812408
-364.033107227
-364.129100195
-364.194090669
-364.228340532
-364.227751175
-364.219110732
-364.203182964
-364.186068968
-364.16851504
-364.151938355
-364.136589552
-364.122913584
-364.111186103
-364.10181928
-364.095261612
-364.091832412
-151.856877361
-152.569463144
-153.946365566
-155.974440049
-158.588126658
-161.718344217
-165.295091524
-169.251255879
-173.524707357
-178.059140186
-182.804050272
-187.714276745
-192.74947091
-197.87372537
-203.055479791
-208.267703313
-213.488249677
-218.700187379
-223.891824027
-229.056096602
-234.189046898
-239.287348608
-244.345401431
-249.353207492
-254.296685308
-259.160211951
-263.929228242
-268.59185627
-273.139215315
-277.564764014
-281.863349387
-286.030706055
-290.063568276
-293.959867876
-297.718717711
-301.34016175
-304.824871218
-308.173928223