/*--------------------------------*- C++ -*----------------------------------*\
| =========                 |                                                 |
| \\      /  F ield         | OpenFOAM: The Open Source CFD Toolbox           |
|  \\    /   O peration     | Version:  v1906                                 |
|   \\  /    A nd           | Web:      www.OpenFOAM.com                      |
|    \\/     M anipulation  |                                                 |
\*---------------------------------------------------------------------------*/
FoamFile
{
    version     2.0;
    format      ascii;
    class       volVectorField;
    location    "510";
    object      Ua;
}
// * * * * * * * * * * * * * * * * * * * * * * * * * * * * * * * * * * * * * //

dimensions      [0 1 -1 0 0 0 0];


internalField   nonuniform List<vector> 
9216
(
(-0.00373685902678 0.00374009226454 0)
(-0.00368445026276 0.0112764394903 -5.03299925504e-28)
(-0.00367354214116 0.0189864305802 -2.53823176941e-31)
(-0.00362459300742 0.0265925096748 0)
(-0.00355214268986 0.034061282935 0)
(-0.00346080941157 0.0413468697518 0)
(-0.00335309841684 0.0484111388143 0)
(-0.00323089221343 0.0552203492003 0)
(-0.0030959719894 0.0617447458439 0)
(-0.00295005645709 0.0679585189748 0)
(-0.00279490298732 0.0738397841358 0)
(-0.00263219446676 0.0793705843352 0)
(-0.00246361691688 0.0845367755928 0)
(-0.00229072210954 0.0893279058077 0)
(-0.00211502805401 0.0937369850183 0)
(-0.00193787453931 0.0977602689556 0)
(-0.00176055183498 0.101396961255 0)
(-0.00158415063301 0.104648952559 0)
(-0.00140971661305 0.107520505439 0)
(-0.00123809314233 0.110017993275 0)
(-0.00107009705147 0.112149605758 0)
(-0.000906351543784 0.113925115696 0)
(-0.000747477595973 0.115355626003 0)
(-0.000593915366549 0.116453375747 0)
(-0.000446126314459 0.117231533204 0)
(-0.000304402920532 0.117704038912 0)
(-0.000169078102835 0.117885439208 0)
(-4.03246177717e-05 0.117790757038 0)
(8.16393995349e-05 0.117435370461 0)
(0.000196746444677 0.116834851848 0)
(0.0003048635082 0.116004915315 0)
(0.00040600916891 0.114961294134 0)
(0.000500135276036 0.113719653658 0)
(0.000587337783333 0.112295504469 0)
(0.00066764074285 0.1107041298 0)
(0.000741204865454 0.10896051072 0)
(0.000808114924447 0.107079272277 0)
(0.000868583624191 0.105074620495 0)
(0.000922744661571 0.10296030672 0)
(0.000970850087126 0.100749576628 0)
(0.0010130709176 0.0984551509645 0)
(0.00104968675336 0.0960891857731 0)
(0.00108089544553 0.0936632670638 0)
(0.00110699401845 0.0911883812226 0)
(0.00112819810537 0.0886749202435 0)
(0.00114481387599 0.0861326610284 0)
(0.0011570673089 0.0835707778848 0)
(0.00116526738317 0.0809978300159 0)
(0.00116964427987 0.0784217777911 0)
(0.00117050506841 0.0758499780542 0)
(0.00116807909684 0.0732892010276 0)
(0.00116266831397 0.0707456339051 0)
(0.00115449686528 0.0682248952147 0)
(0.00114385945665 0.0657320474471 0)
(0.00113097112455 0.0632716061556 0)
(0.00111611814407 0.0608475631457 0)
(0.00109950245984 0.0584633878632 0)
(0.00108140098155 0.0561220627466 0)
(0.00106199816321 0.0538260755036 0)
(0.00104156042731 0.051577468998 0)
(0.00102024905772 0.0493778239742 0)
(0.000998317528217 0.0472283256893 0)
(0.000975896531773 0.0451297385629 0)
(0.000953222197254 0.0430824922953 0)
(0.000930384674465 0.0410866511743 0)
(0.000907595532674 0.0391420211647 0)
(0.000884892530277 0.0372481183701 0)
(0.000862453535006 0.0354042969778 0)
(0.000840251689507 0.0336097207299 0)
(0.000818422029969 0.0318635063172 0)
(0.000796864938176 0.0301647005914 0)
(0.000775668359851 0.0285124278116 0)
(0.000754661049342 0.0269058707174 0)
(0.000733888776146 0.0253444017177 0)
(0.000713123451907 0.0238275643732 0)
(0.00069238377037 0.0223551675633 0)
(0.000671408849283 0.0209272666968 0)
(0.000650205274787 0.0195442100098 0)
(0.00062849569027 0.0182066361595 0)
(0.000606265112864 0.0169154916047 0)
(0.000583193453925 0.0156720903357 0)
(0.000559165482291 0.0144781702505 0)
(0.000533680240919 0.0133361189074 0)
(0.00050624924265 0.0122492505583 0)
(0.000475656630861 0.011222549266 0)
(0.00043986292217 0.010263771419 0)
(0.000393057918992 0.00939306413073 0)
(0.000317082546012 0.00856693984793 0)
(0.000287198022909 0.00780555967495 0)
(0.000340506463102 0.00736568225234 0)
(0.000376946184789 0.00664571608808 0)
(0.000415339123715 0.00583655628704 0)
(0.000480174451919 0.00493170336278 0)
(0.000582507331706 0.00390926612145 0)
(0.00076321520077 0.00261693552679 0)
(0.000963747875469 0.000952873023194 0)
(-0.011307773503 0.00372756021635 0)
(-0.0118824827402 0.0119845235075 0)
(-0.0118017116856 0.0202001840798 5.17707192617e-28)
(-0.0116146281591 0.0283358518493 0)
(-0.0113590212032 0.0363026046618 0)
(-0.0110425302131 0.044067390314 0)
(-0.0106713153555 0.0515924283224 0)
(-0.0102512279438 0.058842714424 0)
(-0.00978826712985 0.0657868598727 0)
(-0.00928848504586 0.072397518894 0)
(-0.00875803278806 0.0786515303784 0)
(-0.00820291332794 0.0845299455225 0)
(-0.00762902310206 0.0900179304322 0)
(-0.00704189447639 0.0951046122838 0)
(-0.00644679598373 0.0997828409668 0)
(-0.00584849098576 0.104048928439 0)
(-0.0052514045661 0.107902336852 0)
(-0.00465939820156 0.111345373573 0)
(-0.00407599521063 0.11438286319 0)
(-0.00350416238286 0.117021847665 0)
(-0.00294657947303 0.119271283329 0)
(-0.0024054159935 0.121141776939 0)
(-0.00188262858856 0.122645328904 0)
(-0.00137972301058 0.123795116396 0)
(-0.000898065943239 0.124605285923 0)
(-0.00043862716862 0.125090779423 0)
(-2.29754463661e-06 0.125267167851 0)
(0.000410387536029 0.125150509763 0)
(0.00079893399357 0.124757202788 0)
(0.00116317257863 0.124103908528 0)
(0.0015029352467 0.123207390484 0)
(0.00181835731663 0.122084427926 0)
(0.0021095550458 0.120751717467 0)
(0.00237692300076 0.119225783888 0)
(0.00262081429551 0.117522900961 0)
(0.00284183438879 0.115659015867 0)
(0.00304052641049 0.113649687443 0)
(0.0032176583001 0.111510025442 0)
(0.00337391680792 0.109254646215 0)
(0.00351018585324 0.106897626662 0)
(0.00362725238309 0.104452476014 0)
(0.00372607449117 0.101932103207 0)
(0.00380750150751 0.0993488024457 0)
(0.00387253073172 0.0967142320818 0)
(0.00392204284516 0.0940394110405 0)
(0.00395704676443 0.0913347071589 0)
(0.00397843028145 0.0886098415595 0)
(0.00398719333144 0.0858738847019 0)
(0.00398421236978 0.0831352659984 0)
(0.00397046363892 0.0804017763186 0)
(0.00394679846927 0.0776805804678 0)
(0.0039141595481 0.0749782253682 0)
(0.0038733626573 0.0723006533325 0)
(0.00382531069538 0.0696532156352 0)
(0.00377077568822 0.067040684834 0)
(0.0037106169826 0.0644672738324 0)
(0.00364555535161 0.0619366460284 0)
(0.00357640353561 0.0594519405309 0)
(0.00350382253852 0.0570157795809 0)
(0.0034285740449 0.0546303010922 0)
(0.00335124728947 0.0522971639319 0)
(0.00327254410535 0.05001758977 0)
(0.00319296400437 0.0477923680085 0)
(0.0031131331351 0.0456219094596 0)
(0.00303343516498 0.0435062541289 0)
(0.00295439581981 0.0414451395456 0)
(0.00287624919876 0.0394380152146 0)
(0.00279938905797 0.0374841271574 0)
(0.002723863733 0.0355825419191 0)
(0.00264990437122 0.0337322453877 0)
(0.00257734778053 0.0319321759216 0)
(0.00250624827202 0.0301813289134 0)
(0.00243623375368 0.0284787923577 0)
(0.00236720072312 0.0268238406964 0)
(0.00229861312917 0.0252159609496 0)
(0.00223026606796 0.0236549161294 0)
(0.00216153558282 0.022140752322 0)
(0.00209217805689 0.0206738218049 0)
(0.00202153455592 0.0192547792389 0)
(0.00194931359266 0.0178845828594 0)
(0.00187474686097 0.0165645191712 0)
(0.00179728623631 0.0152962368559 0)
(0.00171568314392 0.0140818666058 0)
(0.00162847524492 0.0129241519105 0)
(0.00153282030749 0.0118266413301 0)
(0.00142426878817 0.0107936327339 0)
(0.00129452928927 0.0098292759092 0)
(0.00112084605151 0.00894177428775 0)
(0.000978897245156 0.00783464072307 0)
(0.00105668996701 0.00732574925651 0)
(0.00116513037321 0.00659114880167 0)
(0.00129263645128 0.00572265892802 0)
(0.00146839907384 0.00475136537727 0)
(0.00185339263257 0.0037425393504 0)
(0.00244221422826 0.00243293403605 0)
(0.00256548648719 0.000743542519512 0)
(-0.0191826707548 0.00379373122913 0)
(-0.0201818365587 0.0121684373117 0)
(-0.019992058972 0.0204530646639 5.15651697765e-28)
(-0.0196600925318 0.0286866828911 0)
(-0.0192220191661 0.0367480462998 0)
(-0.0186848127199 0.0446015413533 0)
(-0.0180566261601 0.0522079368561 0)
(-0.0173466228837 0.0595315571348 0)
(-0.0165646531538 0.0665406040771 0)
(-0.0157209113698 0.0732075160358 0)
(-0.0148257318027 0.0795091011441 0)
(-0.0138892999165 0.0854265442422 0)
(-0.0129215139 0.0909452964182 0)
(-0.0119317508516 0.0960548872018 0)
(-0.0109288119721 0.100748664742 0)
(-0.00992075521921 0.105023498667 0)
(-0.00891492547171 0.108879448151 0)
(-0.00791784675288 0.112319425713 0)
(-0.00693532255483 0.11534885595 0)
(-0.00597236885119 0.117975353691 0)
(-0.00503336105221 0.120208416413 0)
(-0.00412198428212 0.122059148315 0)
(-0.00324140184657 0.123540006759 0)
(-0.00239420174213 0.12466458155 0)
(-0.00158256689332 0.12544739527 0)
(-0.000808205280702 0.125903730219 0)
(-7.25117443899e-05 0.12604947041 0)
(0.000623520529902 0.125900963675 0)
(0.00127914579876 0.125474889586 0)
(0.00189396459111 0.124788137915 0)
(0.0024677830953 0.123857704892 0)
(0.00300071583267 0.122700585153 0)
(0.00349304020399 0.121333675972 0)
(0.0039453047851 0.119773687826 0)
(0.00435818356899 0.118037063653 0)
(0.00473258184857 0.116139904604 0)
(0.00506949205128 0.114097906031 0)
(0.00537009663583 0.111926299435 0)
(0.00563562793196 0.109639805608 0)
(0.00586746830845 0.107252592567 0)
(0.00606701639967 0.104778244616 0)
(0.00623578488844 0.102229734608 0)
(0.00637527475851 0.0996194066229 0)
(0.00648707067999 0.0969589601539 0)
(0.00657272389202 0.0942594435056 0)
(0.00663384495759 0.0915312473227 0)
(0.00667199498989 0.0887841060139 0)
(0.00668877562162 0.0860270984607 0)
(0.00668572757737 0.0832686550676 0)
(0.00666441814846 0.0805165639146 0)
(0.00662634553251 0.0777779815434 0)
(0.00657302473462 0.0750594433418 0)
(0.00650589546602 0.0723668764749 0)
(0.0064264080908 0.0697056135936 0)
(0.00633593211701 0.0670804067164 0)
(0.00623584445606 0.0644954438326 0)
(0.00612743465053 0.0619543629235 0)
(0.00601199823172 0.0594602714098 0)
(0.00589073386998 0.0570157602007 0)
(0.00576484500477 0.0546229267616 0)
(0.00563542327188 0.052283389972 0)
(0.00550356185996 0.0499983184065 0)
(0.00537021911743 0.0477684480974 0)
(0.00523634742038 0.0455941188884 0)
(0.00510273125386 0.0434752983968 0)
(0.00497013613577 0.0414116300822 0)
(0.0048391173234 0.0394024676505 0)
(0.0047101947103 0.0374469382999 0)
(0.00458363208347 0.0355439906631 0)
(0.00445964598974 0.0336924737211 0)
(0.00433816079419 0.0318911975608 0)
(0.0042190607022 0.0301390217385 0)
(0.00410193004542 0.028434919627 0)
(0.00398635399214 0.0267780594121 0)
(0.00387165158341 0.0251678542067 0)
(0.00375721731257 0.0236040121565 0)
(0.00364224206785 0.0220865528543 0)
(0.00352606482646 0.0206158105403 0)
(0.00340785776463 0.019192414995 0)
(0.00328693432929 0.0178172611978 0)
(0.0031623610186 0.016491486315 0)
(0.003033157132 0.0152164530631 0)
(0.00289778835955 0.0139937770433 0)
(0.00275418711344 0.0128253733517 0)
(0.00259908617715 0.0117135211954 0)
(0.00242786598243 0.0106609556583 0)
(0.002234187007 0.00966994853557 0)
(0.00201097207166 0.0087636685378 0)
(0.00177192855996 0.00765216772563 0)
(0.00182659540743 0.00709479380588 0)
(0.00201950659431 0.006342345802 0)
(0.00222925457718 0.00535906720629 0)
(0.0026171577507 0.00437595596762 0)
(0.00316201090982 0.00315492477472 0)
(0.00369304591693 0.00183718419249 0)
(0.00388145921473 0.000584118264377 0)
(-0.0271684373548 0.00386184466179 0)
(-0.0286269645354 0.0123831730056 0)
(-0.0283538675222 0.0207932550555 -5.1558538226e-28)
(-0.0278760515385 0.0291566440607 0)
(-0.0272468663148 0.0373415351 0)
(-0.0264769169524 0.0453100122912 0)
(-0.0255777927362 0.0530210435644 0)
(-0.0245625941986 0.0604378344155 0)
(-0.0234454544194 0.0675279085352 0)
(-0.0222410621109 0.0742633876634 0)
(-0.0209642752281 0.0806210784741 0)
(-0.0196297471192 0.0865824344183 0)
(-0.0182516489598 0.092133403325 0)
(-0.0168434045268 0.0972641896578 0)
(-0.0154175334948 0.101968949305 0)
(-0.0139855002205 0.106245443524 0)
(-0.0125576728311 0.11009466696 0)
(-0.0111432710684 0.113520471972 0)
(-0.00975041735143 0.116529199286 0)
(-0.00838615367439 0.119129330974 0)
(-0.00705654964542 0.121331169652 0)
(-0.00576675181763 0.123146552552 0)
(-0.00452111189035 0.124588598062 0)
(-0.00332323556341 0.125671486681 0)
(-0.00217610281718 0.126410269598 0)
(-0.00108209649777 0.126820702907 0)
(-4.31021970236e-05 0.126919099134 0)
(0.000939486834312 0.12672219738 0)
(0.00186468830133 0.126247037232 0)
(0.00273193855205 0.125510838796 0)
(0.00354102595029 0.124530907293 0)
(0.00429210605284 0.123324522406 0)
(0.0049856319331 0.12190884394 0)
(0.00562237192213 0.120300822151 0)
(0.00620333876247 0.118517115999 0)
(0.00672980504923 0.11657401905 0)
(0.0072032318362 0.114487394597 0)
(0.00762528263383 0.112272618843 0)
(0.00799775391154 0.109944533754 0)
(0.00832258954131 0.107517407329 0)
(0.00860181573494 0.105004902927 0)
(0.00883755751512 0.102420054627 0)
(0.00903197968891 0.0997752503433 0)
(0.009187305922 0.0970822193133 0)
(0.0093057661272 0.0943520258675 0)
(0.00938961793287 0.0915950661013 0)
(0.00944110000977 0.0888210694564 0)
(0.00946245534939 0.0860391021201 0)
(0.0094558895944 0.0832575741498 0)
(0.00942359566483 0.0804842477587 0)
(0.00936771601098 0.0777262482295 0)
(0.00929036838972 0.0749900756786 0)
(0.00919361078843 0.0722816183873 0)
(0.00907946845105 0.0696061669985 0)
(0.008949899962 0.0669684291611 0)
(0.00880682572859 0.0643725453754 0)
(0.00865209320759 0.0618221042433 0)
(0.00848750702286 0.0593201596676 0)
(0.00831479071777 0.0568692465422 0)
(0.00813561846354 0.0544713996479 0)
(0.00795157004802 0.0521281706467 0)
(0.00776416397335 0.0498406502115 0)
(0.00757480204001 0.0476094884486 0)
(0.00738480369489 0.0454349231766 0)
(0.00719533698385 0.0433168077463 0)
(0.00700745509541 0.0412546501521 0)
(0.00682201260038 0.0392476534438 0)
(0.00663970774762 0.0372947710044 0)
(0.00646098735821 0.0353947645235 0)
(0.00628610320325 0.0335462788289 0)
(0.00611501587642 0.0317479181782 0)
(0.00594747842629 0.0299983362698 0)
(0.00578295463333 0.0282963205122 0)
(0.00562074260419 0.0266408788175 0)
(0.00545991814057 0.0250313066098 0)
(0.0052994960779 0.0234672382885 0)
(0.00513838674375 0.0219486644228 0)
(0.00497556137845 0.0204759191067 0)
(0.00480997523491 0.0190496325401 0)
(0.00464067132813 0.0176706589218 0)
(0.00446660447787 0.0163399929225 0)
(0.00428661196044 0.0150586855097 0)
(0.00409908237222 0.0138277847231 0)
(0.00390173738598 0.0126483069797 0)
(0.00369111624872 0.0115212571396 0)
(0.00346218861382 0.0104478655975 0)
(0.00320786889671 0.00942957471393 0)
(0.0029194987595 0.00848591925151 0)
(0.00260010760534 0.0073660036924 0)
(0.00266738585719 0.0067309525785 0)
(0.00288938408434 0.00580477322134 0)
(0.00334537022864 0.00494864874324 0)
(0.0037752599201 0.0037191250873 0)
(0.00433378621005 0.0025352403741 0)
(0.00479147934883 0.00145096977749 0)
(0.00493300673321 0.000469060074656 0)
(-0.0353209167891 0.00394634894176 0)
(-0.0372252130041 0.0126662865914 0)
(-0.0368657186387 0.0212559264284 0)
(-0.0362358566891 0.0297967197329 0)
(-0.0354066017007 0.038149139643 0)
(-0.0343927614616 0.0462729404635 0)
(-0.0332100177078 0.0541249853667 0)
(-0.0318759410289 0.0616670097813 0)
(-0.0304094097429 0.0688656240372 0)
(-0.0288300009328 0.0756925396433 0)
(-0.0271574493415 0.0821245983728 0)
(-0.0254111625123 0.0881436703748 0)
(-0.0236098271101 0.093736435137 0)
(-0.0217710828808 0.0988940728295 0)
(-0.0199112957242 0.103611890479 0)
(-0.0180453940293 0.10788890901 0)
(-0.0161867971526 0.111727432231 0)
(-0.0143473899875 0.115132618611 0)
(-0.0125375719577 0.118112070928 0)
(-0.0107663267187 0.120675457395 0)
(-0.00904134252911 0.122834171618 0)
(-0.00736912519059 0.124601036467 0)
(-0.00575513828222 0.125990050982 0)
(-0.00420391256493 0.127016177543 0)
(-0.00271916736726 0.127695162466 0)
(-0.00130388924253 0.12804338331 0)
(3.95805702791e-05 0.128077713809 0)
(0.00130950140844 0.127815407409 0)
(0.0025046728142 0.127273975395 0)
(0.00362440745849 0.126471077932 0)
(0.00466848881163 0.12542443043 0)
(0.00563715179785 0.124151693037 0)
(0.00653103709825 0.122670376621 0)
(0.00735117196726 0.120997752132 0)
(0.00809892138996 0.119150767557 0)
(0.00877596531589 0.117145973132 0)
(0.00938424753596 0.114999455873 0)
(0.00992595157457 0.112726783433 0)
(0.0104034507169 0.110342957676 0)
(0.0108192859988 0.107862377056 0)
(0.0111761207892 0.105298807697 0)
(0.0114767234526 0.102665361693 0)
(0.0117239284001 0.0999744823893 0)
(0.0119206243399 0.0972379349819 0)
(0.0120697220471 0.0944668023061 0)
(0.01217414779 0.0916714843085 0)
(0.0122368170125 0.0888617012733 0)
(0.0122606319463 0.0860464995412 0)
(0.0122484600751 0.0832342599008 0)
(0.0122031349749 0.0804327076692 0)
(0.0121274384906 0.0776489246228 0)
(0.0120241041064 0.0748893620584 0)
(0.0118958018821 0.072159854969 0)
(0.0117451438116 0.0694656369181 0)
(0.0115746704561 0.0668113553732 0)
(0.0113868576866 0.0642010874575 0)
(0.0111841035998 0.0616383556022 0)
(0.0109687356726 0.0591261435258 0)
(0.0107429959019 0.0566669118702 0)
(0.0105090468774 0.0542626145116 0)
(0.010268952378 0.0519147148035 0)
(0.0100246802592 0.0496242034609 0)
(0.00977807513057 0.0473916175687 0)
(0.00953085580267 0.0452170633123 0)
(0.00928457693627 0.0431002421301 0)
(0.009040619899 0.0410404840778 0)
(0.00880014252471 0.0390367879773 0)
(0.00856406576606 0.0370878733257 0)
(0.00833301644102 0.0351922423106 0)
(0.00810731957082 0.0333482577088 0)
(0.00788694855529 0.0315542308886 0)
(0.00767154277727 0.0298085245833 0)
(0.00746038868269 0.028109657191 0)
(0.00725248573172 0.0264564088687 0)
(0.00704657783033 0.0248479093855 0)
(0.00684127348285 0.0232837013271 0)
(0.00663511472784 0.021763760593 0)
(0.00642671031617 0.020288466251 0)
(0.00621477470313 0.0188585197659 0)
(0.00599818381749 0.0174748156144 0)
(0.00577588828051 0.0161382851848 0)
(0.00554680354902 0.0148497249722 0)
(0.00530953009119 0.0136096350294 0)
(0.00506202230283 0.0124180812127 0)
(0.00480106318617 0.0112745904606 0)
(0.00452164481889 0.010178257788 0)
(0.0042161360937 0.00912720959643 0)
(0.00387354491761 0.00813752372746 0)
(0.00349275416467 0.00697810792445 0)
(0.00357300643978 0.00622516877338 0)
(0.00387168985952 0.00525565185692 0)
(0.00434271521438 0.00422030133217 0)
(0.0050125603166 0.003225340699 0)
(0.00535827954672 0.00210090402476 0)
(0.00564378547063 0.00119969188828 0)
(0.00574305906835 0.000391569905095 0)
(-0.043682887482 0.00405209930818 0)
(-0.0460370026526 0.013026095682 0)
(-0.0455846187066 0.0218488027589 0)
(-0.0447928068047 0.0306178080183 0)
(-0.0437505533523 0.0391847431279 0)
(-0.0424773131495 0.047506665739 0)
(-0.0409934898958 0.0555379496381 0)
(-0.0393217593663 0.0632385474512 0)
(-0.0374863477834 0.0705739740549 0)
(-0.0355122636086 0.0775154939946 0)
(-0.0334245975111 0.0840400827486 0)
(-0.0312479089146 0.0901302411718 0)
(-0.0290057211307 0.0957736843388 0)
(-0.0267201230213 0.100962937085 0)
(-0.0244114861189 0.105694866436 0)
(-0.0220982823413 0.109970180133 0)
(-0.0197970036555 0.113792916408 0)
(-0.017522160338 0.117169947744 0)
(-0.0152863548099 0.120110516372 0)
(-0.0131004018483 0.122625815839 0)
(-0.010973490275 0.124728626928 0)
(-0.00891335457415 0.126433011862 0)
(-0.00692645419026 0.127754064347 0)
(-0.0050181324489 0.128707709381 0)
(-0.00319276117702 0.129310542569 0)
(-0.00145385123777 0.129579698219 0)
(0.000195854866354 0.129532733477 0)
(0.00175432166728 0.129187531282 0)
(0.00322016306688 0.128562181967 0)
(0.00459260719574 0.127674891956 0)
(0.00587145960158 0.126543887472 0)
(0.00705707169195 0.125187305345 0)
(0.00815029995544 0.123623097665 0)
(0.00915247060481 0.121868938935 0)
(0.0100653323464 0.119942140748 0)
(0.0108910148405 0.117859575405 0)
(0.0116319771702 0.115637609708 0)
(0.0122909643131 0.113292049288 0)
(0.0128709565946 0.110838093559 0)
(0.0133751294787 0.10829030055 0)
(0.0138068087818 0.105662560903 0)
(0.0141694374304 0.1029680797 0)
(0.0144665388345 0.100219365166 0)
(0.0147016916778 0.0974282228813 0)
(0.0148785014521 0.094605754721 0)
(0.0150005824671 0.091762361442 0)
(0.0150715362396 0.0889077484482 0)
(0.0150949392037 0.0860509339727 0)
(0.0150743264162 0.0832002594284 0)
(0.0150131836089 0.0803634014076 0)
(0.0149149349931 0.0775473851226 0)
(0.0147829386898 0.0747585989321 0)
(0.0146204777092 0.0720028096576 0)
(0.0144307580083 0.0692851784792 0)
(0.0142169017323 0.066610276961 0)
(0.0139819469916 0.0639821031821 0)
(0.013728842039 0.0614040973956 0)
(0.0134604453262 0.0588791574557 0)
(0.0131795185468 0.0564096534234 0)
(0.0128887246944 0.0539974419216 0)
(0.0125906168725 0.0516438799435 0)
(0.0122876311173 0.0493498390655 0)
(0.0119820668551 0.047115720428 0)
(0.0116760705922 0.0449414719886 0)
(0.0113716037034 0.0428266097501 0)
(0.011070413905 0.0407702449831 0)
(0.0107739880691 0.0387711204297 0)
(0.0104835125525 0.0368276585682 0)
(0.0101998157772 0.0349380252648 0)
(0.00992332856876 0.0331002120302 0)
(0.00965403550774 0.0313121375679 0)
(0.00939146198055 0.0295717686839 0)
(0.00913466978643 0.0278772528922 0)
(0.0088823086547 0.0262270555549 0)
(0.00863269292921 0.0246200810866 0)
(0.00838393767316 0.0230557619233 0)
(0.00813410926297 0.0215340887472 0)
(0.00788139841093 0.0200555679095 0)
(0.00762424859932 0.0186210966155 0)
(0.007361438196 0.01723176506 0)
(0.00709204662452 0.0158886072882 0)
(0.00681533014807 0.0145923239859 0)
(0.00653045456761 0.0133430020339 0)
(0.00623611843194 0.0121398403031 0)
(0.00592998830008 0.0109808808592 0)
(0.00560790357871 0.00986292562664 0)
(0.00526259155831 0.00878096394059 0)
(0.00488230660767 0.00774573845581 0)
(0.00445768089328 0.00654407109827 0)
(0.0046499154789 0.00579812094588 0)
(0.00492298796125 0.00468459345776 0)
(0.00537845334602 0.00364034661004 0)
(0.00592406842003 0.00271799443239 0)
(0.00624799060359 0.00183862865636 0)
(0.0064097708743 0.0010485872309 0)
(0.00648209118605 0.000343198564529 0)
(-0.0523056908553 0.00418202447895 0)
(-0.0551187080956 0.0134701734361 0)
(-0.0545643887232 0.0225819515556 -5.05024212198e-28)
(-0.0535971663347 0.0316332583601 0)
(-0.0523248023951 0.0404646975212 0)
(-0.0507719768468 0.0490299992094 0)
(-0.0489645525451 0.05728054004 0)
(-0.0469310912587 0.0651741632873 0)
(-0.0447019275757 0.0726751437087 0)
(-0.0423081974389 0.0797543273777 0)
(-0.0397809569351 0.0863890041476 0)
(-0.0371504221304 0.0925626106458 0)
(-0.0344453500282 0.0982642962019 0)
(-0.0316925638773 0.103488392255 0)
(-0.0289166233878 0.108233822492 0)
(-0.0261396283494 0.112503487335 0)
(-0.0233811461962 0.116303652346 0)
(-0.0206582438004 0.119643365791 0)
(-0.0179856078265 0.122533926284 0)
(-0.0153757279021 0.12498841602 0)
(-0.0128391227285 0.127021309287 0)
(-0.0103845808848 0.128648158702 0)
(-0.00801939815936 0.12988535479 0)
(-0.00574958898772 0.130749947836 0)
(-0.00358006468098 0.131259516845 0)
(-0.0015147694583 0.13143206881 0)
(0.000443218970035 0.131285950574 0)
(0.00229162410027 0.130839777972 0)
(0.00402891232187 0.13011232011 0)
(0.00565426537307 0.129122432775 0)
(0.00716754427617 0.127888953065 0)
(0.00856925529621 0.126430591961 0)
(0.00986050873626 0.12476583505 0)
(0.0110429743095 0.1229128454 0)
(0.0121188283237 0.120889374338 0)
(0.0130906988911 0.118712682363 0)
(0.013961606137 0.116399471698 0)
(0.0147349043516 0.113965831126 0)
(0.0154142233155 0.111427192898 0)
(0.0160034152265 0.108798300865 0)
(0.0165065038206 0.106093188531 0)
(0.0169276409633 0.103325165513 0)
(0.0172710664746 0.100506810851 0)
(0.0175410754058 0.0976499717747 0)
(0.01774198808 0.0947657667041 0)
(0.0178781265177 0.0918645915823 0)
(0.0179537925992 0.0889561287976 0)
(0.0179732514018 0.0860493582199 0)
(0.0179407153867 0.0831525699327 0)
(0.0178603328656 0.0802733784128 0)
(0.0177361767761 0.0774187378383 0)
(0.0175722371752 0.0745949583242 0)
(0.0173724137196 0.0718077227246 0)
(0.0171405114165 0.0690621037697 0)
(0.016880235992 0.0663625811164 0)
(0.0165951919372 0.0637130580382 0)
(0.0162888794992 0.061116877354 0)
(0.0159646933312 0.0585768362762 0)
(0.0156259188788 0.056095200047 0)
(0.015275728819 0.0536737140183 0)
(0.014917175274 0.0513136146587 0)
(0.0145531796885 0.0490156390883 0)
(0.0141865156578 0.0467800349539 0)
(0.0138197865722 0.0446065704921 0)
(0.0134553927708 0.0424945484655 0)
(0.0130954911322 0.0404428245529 0)
(0.0127419416325 0.0384498363521 0)
(0.0123962470192 0.0365136450526 0)
(0.0120594816799 0.0346319974549 0)
(0.01173222283 0.0328024126328 0)
(0.011414483754 0.031022296638 0)
(0.0111056721052 0.0292890895182 0)
(0.0108045779692 0.0276004340698 0)
(0.0105094199054 0.0259543629991 0)
(0.0102179521609 0.0243494713545 0)
(0.00992764712127 0.0227850536388 0)
(0.00963593196888 0.0212611612293 0)
(0.00934045376379 0.0197785500869 0)
(0.00903931466886 0.0183385090971 0)
(0.00873122611587 0.0169425684436 0)
(0.00841553071529 0.0155921371958 0)
(0.00809208807606 0.0142880980472 0)
(0.00776102117603 0.013030393199 0)
(0.0074223486361 0.0118175891565 0)
(0.00707546382411 0.0106463531384 0)
(0.00671838976046 0.00951082335301 0)
(0.00634643505598 0.00840095485802 0)
(0.00595040625092 0.00731108909017 0)
(0.00551122541263 0.00608934783454 0)
(0.00560683172906 0.00512945611131 0)
(0.00599987210562 0.00417846431755 0)
(0.00634086404105 0.0031792149358 0)
(0.00665616374231 0.00232175972648 0)
(0.00700007229049 0.00162003878622 0)
(0.00709405604909 0.000926896131538 0)
(0.0071371014061 0.000302690944614 0)
(-0.0612463879819 0.00433880564531 0)
(-0.0645305835981 0.0140070150696 0)
(-0.0638629001875 0.0234683330427 5.04947993606e-28)
(-0.0627030216198 0.032860347461 0)
(-0.0611787039316 0.0420099981184 0)
(-0.0593207057003 0.0508668973809 0)
(-0.05716131323 0.0593788233193 0)
(-0.0547359727299 0.0675011733044 0)
(-0.0520820897117 0.0751968844567 0)
(-0.0492378030417 0.0824364984906 0)
(-0.0462408904369 0.089197909464 0)
(-0.0431278429298 0.0954659161279 0)
(-0.0399331258638 0.101231625406 0)
(-0.0366886288681 0.106491758743 0)
(-0.0334232982071 0.111247906246 0)
(-0.0301629377572 0.115505767839 0)
(-0.0269301618293 0.119274414816 0)
(-0.0237444783686 0.122565600754 0)
(-0.0206224790528 0.125393145562 0)
(-0.0175781074189 0.127772411233 0)
(-0.0146229748152 0.129719880088 0)
(-0.011766690589 0.131252837716 0)
(-0.00901717699129 0.132389152375 0)
(-0.00638094283051 0.133147133883 0)
(-0.00386330182381 0.133545448334 0)
(-0.0014685301423 0.133603063734 0)
(0.000800029625058 0.133339201088 0)
(0.00293991148452 0.132773297787 0)
(0.00494947046723 0.131924892866 0)
(0.00682787745258 0.13081359247 0)
(0.00857508397121 0.129458945716 0)
(0.0101917917921 0.127880338589 0)
(0.0116794103306 0.126096886528 0)
(0.013040004697 0.124127329925 0)
(0.0142762339477 0.121989938645 0)
(0.0153912833612 0.119702428672 0)
(0.0163887922584 0.117281892854 0)
(0.0172727819146 0.114744746351 0)
(0.0180475850678 0.112106686365 0)
(0.0187177807277 0.109382664774 0)
(0.0192881345504 0.10658687179 0)
(0.0197635468976 0.103732728495 0)
(0.0201490074149 0.10083288623 0)
(0.0204495569668 0.0978992310206 0)
(0.0206702549817 0.0949428916639 0)
(0.0208161525369 0.0919742504397 0)
(0.0208922691933 0.0890029557847 0)
(0.020903573985 0.0860379364999 0)
(0.0208549689074 0.0830874172289 0)
(0.0207512755666 0.0801589350457 0)
(0.020597223687 0.0772593569221 0)
(0.0203974422915 0.0743948979574 0)
(0.0201564524617 0.0715711399522 0)
(0.0198786624326 0.0687930501915 0)
(0.0195683639985 0.0660649997647 0)
(0.0192297306787 0.0633907813189 0)
(0.018866816594 0.0607736253221 0)
(0.0184835559593 0.0582162148855 0)
(0.0180837621098 0.0557206981588 0)
(0.0176711251156 0.0532886985135 0)
(0.0172492068124 0.0509213217907 0)
(0.01682143126 0.0486191611303 0)
(0.0163910692391 0.0463822997206 0)
(0.0159612138379 0.0442103123785 0)
(0.0155347453802 0.0421022687258 0)
(0.0151142828891 0.0400567398165 0)
(0.0147021197266 0.0380718144235 0)
(0.0143001445095 0.0361451296117 0)
(0.0139097455266 0.0342739258981 0)
(0.013531709795 0.0324551338732 0)
(0.0131661192092 0.030685502849 0)
(0.0128122713133 0.0289617765751 0)
(0.0124686367239 0.0272809135686 0)
(0.0121328933292 0.0256403433865 0)
(0.0118020566542 0.024038224225 0)
(0.0114727238945 0.022473661325 0)
(0.0111414286839 0.0209468198323 0)
(0.0108050492811 0.0194588808031 0)
(0.0104612008926 0.0180118055026 0)
(0.0101085093895 0.0166079242578 0)
(0.00974669535706 0.0152494190023 0)
(0.00937647318559 0.0139377705494 0)
(0.00899930027808 0.0126732246106 0)
(0.00861705678693 0.011454250315 0)
(0.00823169385086 0.0102768936886 0)
(0.007844900052 0.00913385951494 0)
(0.00745772855122 0.00801250937485 0)
(0.00707091930614 0.00689550411656 0)
(0.00667981518416 0.00570228722155 0)
(0.00655913818555 0.00455262442618 0)
(0.00689445211647 0.00366049280842 0)
(0.00720821753807 0.00281965935836 0)
(0.0073945861956 0.00204460948101 0)
(0.00767303323296 0.00141606032487 0)
(0.00770779438877 0.000817067383683 0)
(0.00770936469113 0.000262286211754 0)
(-0.0705683302491 0.00452546993366 0)
(-0.0743385326223 0.0146469056504 0)
(-0.0735431894605 0.0245242612058 0)
(-0.0721689752368 0.0343209016417 0)
(-0.0703653038295 0.0438470753907 0)
(-0.0681701980263 0.0530473526993 0)
(-0.065623642458 0.0618652432119 0)
(-0.0627692529864 0.0702533729645 0)
(-0.05965272222 0.0781733196556 0)
(-0.0563202792635 0.0855955553535 0)
(-0.0528173456105 0.0924990159857 0)
(-0.0491874255506 0.098870448949 0)
(-0.0454712442049 0.104703603675 0)
(-0.0417061278345 0.109998329767 0)
(-0.0379256117741 0.114759636163 0)
(-0.0341592553267 0.118996755117 0)
(-0.0304326412138 0.122722248312 0)
(-0.0267675338459 0.125951187066 0)
(-0.0231821676342 0.128700434956 0)
(-0.0196916303134 0.130988055122 0)
(-0.0163083012603 0.132832856649 0)
(-0.0130423004357 0.134254081813 0)
(-0.00990190556588 0.135271222169 0)
(-0.00689390247812 0.135903936946 0)
(-0.00402384847353 0.136172038111 0)