/*--------------------------------*- C++ -*----------------------------------*\
| =========                 |                                                 |
| \\      /  F ield         | OpenFOAM: The Open Source CFD Toolbox           |
|  \\    /   O peration     | Version:  v1906                                 |
|   \\  /    A nd           | Web:      www.OpenFOAM.com                      |
|    \\/     M anipulation  |                                                 |
\*---------------------------------------------------------------------------*/
FoamFile
{
    version     2.0;
    format      ascii;
    class       volScalarField;
    location    "603";
    object      p;
}
// * * * * * * * * * * * * * * * * * * * * * * * * * * * * * * * * * * * * * //

dimensions      [0 2 -2 0 0 0 0];


internalField   nonuniform List<scalar> 
9216
(
268.276556056
268.361769574
268.534722775
268.795773577
269.143490404
269.576141629
270.091587558
270.687349336
271.360628451
272.108377246
272.927313436
273.813994981
274.764825335
275.776128921
276.84414364
277.96509463
279.135172396
280.350604354
281.607618596
282.902513975
284.231610488
285.591319346
286.97808146
288.388439051
289.818963752
291.266331216
292.727240329
294.198491958
295.67690062
297.159378358
298.642840137
300.124293567
301.600739705
303.069269162
304.526959545
305.970978536
307.398479659
308.806712419
310.192917787
311.554444983
312.888647625
314.193006002
315.465024303
316.702356306
317.902703577
319.06394215
320.184021814
321.261091877
322.293402838
323.279431188
324.217786764
325.107338339
325.947130709
326.736512063
327.475061395
328.162712684
328.799685178
329.386592147
329.924362639
330.414325164
330.858117604
331.257744424
331.615475578
331.933874106
332.215683018
332.463821618
332.681257717
332.870982701
333.035892093
333.17877059
333.302205056
333.408595238
333.500102608
333.578684345
333.646070412
333.703809707
333.75326114
333.795635509
333.83198657
333.863243654
333.890205113
333.913567737
333.933924946
333.951799133
333.967671841
333.981340488
333.992563206
334.00152612
334.008388983
334.013446559
334.017014535
334.019454389
334.021082523
334.022068761
334.022564845
334.022738661
268.191414362
268.277054313
268.450644426
268.712912394
269.062283598
269.496967911
270.014784584
270.613209014
271.289404766
272.040277799
272.862510251
273.75261604
274.706968997
275.72185496
276.793490488
277.918069002
279.091768602
280.310791781
281.571362549
282.869760591
284.202308888
285.56540382
286.955494867
288.36911228
289.802840447
291.253344617
292.717339344
294.191615504
295.673005068
297.158409452
298.64476185
300.129057866
301.608316385
303.079613441
304.540043099
305.986755265
307.416917669
308.827758328
310.216529639
311.580555651
312.917198736
314.223911092
315.498203709
316.737700644
317.940109325
319.103275649
320.225154684
321.303865217
322.33766122
323.32498649
324.264449704
325.154882283
325.995321428
326.785074065
327.523708968
328.211122756
328.847532248
329.433528309
329.970053474
330.45843304
330.900334989
331.297780383
331.65308758
331.968857789
332.247902814
332.493201913
332.707802574
332.894755837
333.057020937
333.197418644
333.318569863
333.422882241
333.512524101
333.58943921
333.655347486
333.711776463
333.760072974
333.801430837
333.836895211
333.867380904
333.893676721
333.916463648
333.936320057
333.953734564
333.969124257
333.9825085
333.993555992
334.002255344
334.00898487
334.013966543
334.017420997
334.019776858
334.021371292
334.022301965
334.022747726
334.022928227
268.017687052
268.104420548
268.279762417
268.544636322
268.897424524
269.336275694
269.858935928
270.462797591
271.144941027
271.902184892
272.731130219
273.628209821
274.589727281
275.611900324
276.690890944
277.822840316
279.003888806
280.230202236
281.497982328
282.80348547
284.143025095
285.51298468
286.909813842
288.330037324
289.770246467
291.227105715
292.697340881
294.177744423
295.665161659
297.156495896
298.648693674
300.138750719
301.623697244
303.10060576
304.566577624
306.01875371
307.454303323
308.870438699
310.264407216
311.633510224
312.975098903
314.286597127
315.565500382
316.809401301
318.015990034
319.183080345
320.308609589
321.390663671
322.427476185
323.417453073
324.359173925
325.251421018
326.093189142
326.883725037
327.622549364
328.309504154
328.944775968
329.528931728
330.062919565
330.548078974
330.986118826
331.379111732
331.729456507
332.039847189
332.313222343
332.552702535
332.761490555
332.942776492
333.09964056
333.234988397
333.351499067
333.451603939
333.537473712
333.611029824
333.673960464
333.727753506
333.773723525
333.813036391
333.846715933
333.875653168
333.900614537
333.922256619
333.941135675
333.957718153
333.97241874
333.985220147
333.995565746
334.003720834
334.010187649
334.01495525
334.01818861
334.020439796
334.021919216
334.022768774
334.023218208
334.023441517
267.753218806
267.841360157
268.019409986
268.288311852
268.646371445
269.091640468
269.621750405
270.233966839
270.925238715
271.692251536
272.531478123
273.439228895
274.411696392
275.444997332
276.535207098
277.678391381
278.870629794
280.108037383
281.386778465
282.703079673
284.053235983
285.433617397
286.840669216
288.270914315
289.720949459
291.187444747
292.667137369
294.156829451
295.653380356
297.153703941
298.654760346
300.15355364
301.647124134
303.132547433
304.606928402
306.067402828
307.511134305
308.935319686
310.337189983
311.714020425
313.063135844
314.381925225
315.667850856
316.918465851
318.131424865
319.304501764
320.435598932
321.522762362
322.564188026
323.558234806
324.503431279
325.398493217
326.242340786
327.034131983
327.773299755
328.459602599
329.093168634
329.674532975
330.204645932
330.684875701
331.116985088
331.503129752
331.845823625
332.147902761
332.412499682
332.642969503
332.842766608
333.015311407
333.163873025
333.291490823
333.400926992
333.494647017
333.574816115
333.643315527
333.701772738
333.751608213
333.794081892
333.830321533
333.861321337
333.887938953
333.910905636
333.930842953
333.948274913
333.963640914
333.977349938
333.989155039
333.998572057
334.006090613
334.011961165
334.016322466
334.019405603
334.021494311
334.022840505
334.023649281
334.024104059
334.024328458
267.396692963
267.486702927
267.668461152
267.942883098
268.308161159
268.762208287
269.302494309
269.926107997
270.629814618
271.410115593
272.263305978
273.185528899
274.172824451
275.221173264
276.326533109
277.484869814
278.692181396
279.94451739
281.237992417
282.568796333
283.933199847
285.327558108
286.748310832
288.191981527
289.655174055
291.134569141
292.626918736
294.129040972
295.637813331
297.150166931
298.66307933
300.173569037
301.678688948
303.17552208
304.661176788
306.132785095
307.587501175
309.022503756
310.434999298
311.822229667
313.181480803
314.510095808
315.805488383
317.065159554
318.286712981
319.467871375
320.606489081
321.700563628
322.748242147
323.74782716
324.697780196
325.596730884
326.443493089
327.237097876
327.976842699
328.662359366
329.293682856
329.871305895
330.396180275
330.86972035
331.293751997
331.67054381
332.002758041
332.293406965
332.545892234
332.763921359
332.951328768
333.1118787
333.249108079
333.366237877
333.466134785
333.551301578
333.623883008
333.685689859
333.738245433
333.782859115
333.820708528
333.852880462
333.880340587
333.903904038
333.924251838
333.94195778
333.95750137
333.971292544
333.9836689
333.994141503
334.002438245
334.009113949
334.014421002
334.018354203
334.021107685
334.022999617
334.024258642
334.025028931
334.025476953
334.02570084
266.94616552
267.038568991
267.225109147
267.506651213
267.881232441
268.346578317
268.899942274
269.538178335
270.257809083
271.05509458
271.926098054
272.866746448
273.872884059
274.940318655
276.064859585
277.242348399
278.468682266
279.739831314
281.051850414
282.400886677
283.783183103
285.195079523
286.633011029
288.09350487
289.573175734
291.068720259
292.576910485
294.094587013
295.618651457
297.146058982
298.673810385
300.198944768
301.71853219
303.229667395
304.729464227
306.215051991
307.68357339
309.132185407
310.558062678
311.958404673
313.330445854
314.67146974
315.978825334
317.249946088
318.482368892
319.673752477
320.821892087
321.924729773
322.980358026
323.987018216
324.943095211
325.847114758
326.697751628
327.493860256
328.234538266
328.919224231
329.547811392
330.120741663
330.638970667
331.103994048
331.517689868
331.882478389
332.201198549
332.477029303
332.71372543
332.915513779
333.086796365
333.231832266
333.354517097
333.458294785
333.546148322
333.62061197
333.683785587
333.737362959
333.782694207
333.82090288
333.853045864
333.880187575
333.903289571
333.923113053
333.940265046
333.955256195
333.968503077
333.980367292
333.991029039
333.999924895
334.00713566
334.013001611
334.017583901
334.020893146
334.02335508
334.025072147
334.026210002
334.026997913
334.027454845
334.027686903
266.399146315
266.494529082
266.687028743
266.977439312
267.363594435
267.842974207
268.412550822
269.068875378
269.808159515
270.626356617
271.519237811
272.482460339
273.511626623
274.602333389
275.750210845
276.950952666
278.200337699
279.494244679
280.828661104
282.199687533
283.60353823
285.036539149
286.495123828
287.975827876
289.475282295
290.990206106
292.517398295
294.053729398
295.596132663
297.141595063
298.687148047
300.229858519
301.766819983
303.295144313
304.811954488
306.314378965
307.799548127
309.264593648
310.706651281
312.122867818
313.510412446
314.866492693
316.188374359
317.47340448
318.719035352
319.922847196
321.082566233
322.196075101
323.261412878
324.27676393
325.240437481
326.150845334
327.006490407
327.805987659
328.548139813
329.232086246
329.857497987
330.424778078
330.934886875
331.389497827
331.790458444
332.140425634
332.442441589
332.699712131
332.916439507
333.097640263
333.24858019
333.374226328
333.478927834
333.566369486
333.639642207
333.701295892
333.753354418
333.797330068
333.834287619
333.865026443
333.890416007
333.911578095
333.9295531
333.945020403
333.958464135
333.97031934
333.980919274
333.990558683
333.999259424
334.006532843
334.012551573
334.017431755
334.021213067
334.024070629
334.0262578
334.027821321
334.028851032
334.0296186
334.030074093
334.030302862
265.752534413
265.851554275
266.051326849
266.352549339
266.752792299
267.249219848
267.838444321
268.516632231
269.279603861
270.122930362
271.042022667
272.032209354
273.088801834
274.207146455
275.382664124
276.610878696
277.887435754
279.208113535
280.568827695
281.96563141
283.394712121
284.852385888
286.335090168
287.839375518
289.361896634
290.89940292
292.448728731
294.006783335
295.570540608
297.137028483
298.703318106
300.26651299
301.823738216
303.372129942
304.908825804
306.430956836
307.935641613
309.419983617
310.881072686
312.315991607
313.721828428
315.095695008
316.434751313
317.736234478
318.997490092
320.216002406
321.389418593
322.515561997
323.592428919
324.618165666
325.591025733
326.509314305
327.371337987
328.175393719
328.919845542
329.60335068
330.225202669
330.785859268
331.286239454
331.728513547
332.114139666
332.446300076
332.72828696
332.96280781
333.154636821
333.31007894
333.435769548
333.537692985
333.620719599
333.688726969
333.744864222
333.791678354
333.831093169
333.864365253
333.892096208
333.914477769
333.932045929
333.946222444
333.958366313
333.968971908
333.978277452
333.986656507
333.994332158
334.001500414
334.00806018
334.013667835
334.018412247
334.022329151
334.025436599
334.027924017
334.029788054
334.031221544
334.032224976
334.032890662
334.033351402
334.033570613
265.002544936
265.105950068
265.314484905
265.628714715
266.045872526
266.562718167
267.175407058
267.879621685
268.670694838
269.543727048
270.493691456
271.515522856
272.604189409
273.754747229
274.962379215
276.222420297
277.530371544
278.881905663
280.272866105
281.69926176
283.157258723
284.643170312
286.153446105
287.68466056
289.233501456
290.796758346
292.371310979
293.954117674
295.542203479
297.132648063
298.72257313
300.309129586
301.889484443
303.460807619
305.02025936
306.564978944
308.092075626
309.598623043
311.081658455
312.538188226
313.965200866
315.359688445
316.718676589
318.03926185
319.318653846
320.554217468
321.743508606
322.88429495
323.9745529
325.01243196
325.996181829
326.924045014
327.794134164
328.604341708
329.352373614
330.03606888
330.653986892
331.207020866
331.695738868
332.123917107
332.491218802
332.802436517
333.06127656
333.268299824
333.429117125
333.552345123
333.646902459
333.720234706
333.777679314
333.823083637
333.859539639
333.889593049
333.915097231
333.937006265
333.955194509
333.968629836
333.97710823
333.983035876
333.988767703
333.994219067
333.999048741
334.003714827
334.008289822
334.012832269
334.0171849
334.021123736
334.024626249
334.027647199
334.030184785
334.032277147
334.033952602
334.035234592
334.036203671
334.03679959
334.037276588
334.03748509
264.144615679
264.2532706
264.472283248
264.802039693
265.239339479
265.780425907
266.420875547
267.155764102
267.979820585
268.887570631
269.873460807
270.931960348
272.057639317
273.245224345
274.489634621
275.786001558
277.129675808
278.516225056
279.941425593
281.401250026
282.891852958
284.409555811
285.950831644
287.512290326
289.09066429
290.682794815
292.285618719
293.896155211
295.511492666
297.128774994
298.745187338
300.357941098
301.964258248
303.561354908
305.146425059
306.716625057
308.269060167
309.800774705
311.30874762
312.789895717
314.241086505
315.659162589
317.040978369
318.383448611
319.683605934
320.938661748
322.14606137
323.303521521
324.409034895
325.460826358
326.457245015
327.396584059
328.276834558
329.095426798
329.849083502
330.534200411
331.147605533
331.692076049
332.166216844
332.579455964
332.924371962
333.211609311
333.445578507
333.619644922
333.741238215
333.823618088
333.879697886
333.918999292
333.946885377
333.966537989
333.980769003
333.992225137
334.002870102
334.013448682
334.022825778
334.027354425
334.024799382
334.020404145
334.019503226
334.01999493
334.020044888
334.020879809
334.022308018
334.024135262
334.026346345
334.028697653
334.031050992
334.033258367
334.035274528
334.037061019
334.038633188
334.03988032
334.04076892
334.041364097
334.041833695
334.042048162
263.173287401
263.288206502
263.519704926
263.867923458
264.329103277
264.898825875
265.571933816
266.342742649
267.205235702
268.153240067
269.180574157
270.281163269
271.449123114
272.67881421
273.964871673
275.302215749
276.686048309
278.111840014
279.575311926
281.07241449
282.599305822
284.152330585
285.72800009
287.322973894
288.934042822
290.558113245
292.192192235
293.833373198
295.478821495
297.125759562
298.771450997
300.413183439
302.048250029
303.673929253
305.287464085
306.886041128
308.466771187
310.026673254
311.562664422
313.071558721
314.550078212
315.994879428
317.4025976
318.769909219
320.093610772
321.370707152
322.598498555
323.774648826
324.897213694
325.964602226
326.975441116
327.928308391
328.821306234
329.651480886
330.414174544
331.103207207
331.710508325
332.246135874
332.699670952
333.101197961
333.415467418
333.675792992
333.886639995
334.020789118
334.09099865
334.120582525
334.129643919
334.130489345
334.125916344
334.11674997
334.105641499
334.096248282
334.091183779
334.091495399
334.095023832
334.092253178
334.074503734
334.055203119
334.048745603
334.045785655
334.040458282
334.037466859
334.035900305
334.034902411
334.035132434
334.03597731
334.037374355
334.038996525
334.040694412
334.042325444
334.043798417
334.045038811
334.045964059
334.0465838
334.047023261
334.047253731
262.08204908
262.204442242
262.450813151
262.820966129
263.310417895
263.913897839
264.625314476
265.438029769
266.345107051
267.33952797
268.414367226
269.562922083
270.77879867
272.05596059
273.388747386
274.771870751
276.200395913
277.669714333
279.175512522
280.713740221
282.280580079
283.872419842
285.485827512
287.117529331
288.764390332
290.423396895
292.09164082
293.766304177
295.444644295
297.123978033
298.801664666
300.475086708
302.141628383
303.79865126
305.44346791
307.073314237
308.685322128
310.276494798
311.843688019
313.383601444
314.892784803
316.3676643
317.804593841
319.199934203
320.550159363
321.851984111
323.102499139
324.299292364
325.440526669
326.524937031
327.551698105
328.520095163
329.42888993
330.275254035
331.052942705
331.751517072
332.347238299
332.877502378
333.292085209
333.700851451
333.965181607
334.225494453
334.452845599
334.538569391
334.527626001
334.47408833
334.407187171
334.345170321
334.296729401
334.258032102
334.224263849
334.195666449
334.175838701
334.169524536
334.17699693
334.172349097
334.126780665
334.080459098
334.074322965
334.072663868
334.059271215
334.052566322
334.048760415
334.044531345
334.04314207
334.042584652
334.043409625
334.044731856
334.046327288
334.047959913
334.049466409
334.050713472
334.051706693
334.052402189
334.05280044
334.053032238
260.863136977
260.994470052
261.258595647
261.654852298
262.177809126
262.821090447
263.577410211
264.438930808
265.397580613
266.445321666
267.574355049
268.77726268
270.047091069
271.37738698
272.762196772
274.196041061
275.673874816
277.191040894
278.743222655
280.32639929
281.936805692
283.570897583
285.225321711
286.896890587
288.582560975
290.279415361
291.98464553
293.695537406
295.409456123
297.123830189
298.836133817
300.543866101
302.244526456
303.935585768
305.614453563
307.278441947
308.924727951
310.550316986
312.152011328
313.72638906
315.269800376
316.778389341
318.248149613
319.675020986
321.05503007
322.384470413
323.660107756
324.879383481
326.040580187
327.142904155
328.186427862
329.171799209
330.099532779
330.968508433
331.771988735
332.495013789
333.058353893
333.607604625
333.935487201
334.500461301
334.570771533
334.376211036
334.397093964
334.469522169
334.48361392
334.457122991
334.414895533
334.36989274
334.329302891
334.29656032
334.272580708
334.25853485
334.257317919
334.27226958
334.296923099
334.290041154
334.184146971
334.062825439
334.089213524
334.105757309
334.074379747
334.064856905
334.061452365
334.05189736
334.050096984
334.048056584
334.048985344
334.050287336
334.051993079
334.05385204
334.055555535
334.056930818
334.057969334
334.058741271
334.059098297
334.059333423
259.507271161
259.649349978
259.934765662
260.362207721
260.924992251
261.615298429
262.424302795
263.34265343
264.360878278
265.469714657
266.66034721
267.924556904
269.254792791
270.644183269
272.086504969
273.576125822
275.107935957
276.677276311
278.279871443
279.911769971
281.569293967
283.248997021
284.947630065
286.662113531
288.389514639
290.127028554
291.871962431
293.621721169
295.37379371
297.125738169
298.875164643
300.619713454
302.357028005
304.084721172
305.800335192
307.501295503
309.184860085
310.848067047
312.487684927
314.100172427
315.681656838
317.227943161
318.734567617
320.196909433
321.61037042
322.970622921
324.273911203
325.517373498
326.699341155
327.819570527
328.87935802
329.881501217
330.82994693
331.728722705
332.576742472
333.372843864
333.840637585
334.593135782
334.388243343
334.416021441
334.517378212
334.493837281
334.465833027
334.476882569
334.469016782
334.439143018
334.399488903
334.358061619
334.321040726
334.291833927
334.270316626
334.256355764
334.249610554
334.248377074
334.245738153
334.226177835
334.19400058
334.19098163
334.228242858
334.211758247
334.07266827
334.063486013
334.076087939
334.053836428
334.056426023
334.051288818
334.053986317
334.055474647
334.057594066
334.060023924
334.062100295
334.063668142
334.064791915
334.065557963
334.065908533
334.066134745
258.003306991
258.158393232
258.469506922
258.934422877
259.54478104
260.290852262
261.161820691
262.1464155
263.233436972
264.412159323
265.672599599
267.005662967
268.403186377
269.857907903
271.363388805
272.91391159
274.504371702
276.130174713
277.787145674
279.471453315
281.179548976
282.908118599
284.654045355
286.414380586
288.186320993
289.967190636
291.754426493
293.545566477
295.338238376
297.130147633
298.919062089
300.70279066
302.479154331
304.245948004
306.000892472
307.741576643
309.465391001
311.169454763
312.85054122
314.505008966
316.128750712
317.717176243
319.265251004
320.767614062
322.218797656
323.61355765
324.947303121
326.216578768
327.419545661
328.556407489
329.629787197
330.64517755
331.611820177
332.546437398
333.487204413
334.628204216
334.454332076
334.470219863
334.533367375
334.493986745
334.509313369
334.490059012
334.465699654
334.456534307
334.438668888
334.408034988
334.371072107
334.333574313
334.300911919
334.27561459
334.257084427
334.24473374
334.237227324
334.232013991
334.224848988
334.2103108
334.19199443
334.184963013
334.188916297
334.176082203
334.175888823
334.193709571
334.137025307
334.031536802
334.063435941
334.048915527
334.059014447
334.060134845
334.063073293
334.066650505
334.06928216
334.071042306
334.072161049
334.07285864
334.073231643
334.073399379
256.337767862
256.508744813
256.851144022
257.361437303
258.02899189
258.841532484
259.785642174
260.847609923
262.01410746
263.272675169
264.612013182
266.022102148
267.494192558
269.020705735
270.595086219
272.211637148
273.865360843
275.551817636
277.267008907
279.007284868
280.769274623
282.549834263
284.346008695
286.155003247
287.97416239
289.800953724
291.632956364
293.467852659
295.303421802
297.13753247
298.968131867
300.793226747
302.610853987
304.419038499
306.215737225
307.998768587
309.765727536
311.513887524
313.240093078
314.940650663
316.61123131
318.246806696
319.841649488
321.389437901
322.883506618
324.317274014
325.684841293
326.981688849
328.205372534
329.356132244
330.4373187
331.45547657
332.420649327
333.351340356
334.303623594
334.506210423
334.590281897
334.529876883
334.528124472
334.499980973
334.486903628
334.461213144
334.433640561
334.411598554
334.386048575
334.35441503
334.319836534
334.287157102
334.260065109
334.239199948
334.224394305
334.21495768
334.209374555
334.205364937
334.200238306
334.191699935
334.181344435
334.175499731
334.173987991
334.166617268
334.16243901
334.160000381
334.156146601
334.163171234
334.129097369
334.024545794
334.066255997
334.063374251
334.068215546
334.074093004
334.07739125
334.079200508
334.080148408
334.080663069
334.080952608
334.081034711
254.494210545
254.684821686
255.065714424
255.631477409
256.368352257
257.260628858
258.291470134
259.444053471
260.702436866
262.052131398
263.480392356
264.976278588
266.530545733
268.135440079
269.784449867
271.472055834
273.193507189
274.944635898
276.721712329
278.521338945
280.340375318
282.175886653
284.025108478
285.885421806
287.754335055
289.629471251
291.508560191
293.389435606
295.270035872
297.148404836
299.022688438
300.891121105
302.751997915
304.603629951
306.4442808
308.272083061
310.084933388
311.880365328
313.655401059
315.406387985
317.1288335
318.817263333
320.465145527
322.064941529
323.60836346
325.086906321
326.492687061
327.819440246
329.063530008
330.224818904
331.307062147
332.318214598
333.274967798
334.229341484
334.379580663
334.481498172
334.536379122
334.513869683
334.493435606
334.463515182
334.434500839
334.400194908
334.365436476
334.334069541
334.303159391
334.271367276
334.240117271
334.213052744
334.192252073
334.177008437
334.16723892
334.162286158
334.160732915
334.160733222
334.160497426
334.158946214
334.156919253
334.1568084
334.157992923
334.155822494
334.15230028
334.149326407
334.144948389
334.141078791
334.135878954
334.141357621
334.123242978
334.061135495
334.072234273
334.083316939
334.087020039
334.088337804
334.088762356
334.088854022
334.08892722
334.088903364
252.45234838
252.667551909
253.096408461
253.730743027
254.552431213
255.541077835
256.675318649
257.93435886
259.299068072
260.752627946
262.280777518
263.871748238
265.515996458
267.205834278
268.935038153
270.698487975
272.491864963
274.311417672
276.153793053
278.015922273
279.894948264
281.788181734
283.693074437
285.607201435
287.528248046
289.454000575
291.382342682
293.311259361
295.238848122
297.163332592
299.083071796
300.99655607
302.902383797
304.79921595
306.68570653
308.560407311
310.421643504
312.267355643
314.094904162
315.900837505
317.680632889
319.42843469
321.136840877
322.796827749
324.397949571
325.928966182
327.379039768
328.739183124
330.003740224
331.171568176
332.247189089
333.246367958
334.223100439
334.348773164
334.415160299
334.469953911
334.489179798
334.4655257
334.429359776
334.386257572
334.342424325
334.298188506
334.256254561
334.218901924
334.185428279
334.155221992
334.128919789
334.108756459
334.095192605
334.086907789
334.083785468
334.085201418
334.089893953
334.096363198
334.103278453
334.109881447
334.116356186
334.12332656
334.130109025
334.134664198
334.137547855
334.139356043
334.138412488
334.136145857
334.133891999
334.135638488
334.144583948
334.132701731
334.077181929
334.096677716
334.099034959
334.09858066
334.097824141
334.097234806
334.096986292
334.096848741
250.186818492
250.433323679
250.922833905
251.643042088
252.569626807
253.675733215
254.933972793
256.318486906
257.806300995
259.378005209
261.017867446
262.713540579
264.455536004
266.23661311
268.051192062
269.894852205
271.763941289
273.655295349
275.566054547
277.493553746
279.435265347
281.388773908
283.351765968
285.322023962
287.297419074
289.275904286
291.255513239
293.234371917
295.21072448
297.18296691
299.149676431
301.109623066
303.061754386
305.005151208
306.938953784
308.862258212
310.773976817
312.672652087
314.556212461
316.421661407
318.264697462
320.079279738
321.857186922
323.587683523
325.257523614
326.851582377
328.354666743
329.753631838
331.039380764
332.20934462
333.275186349
334.292539298
334.385662738
334.409778326
334.427526586
334.435886179
334.418074654
334.374181363
334.319522957
334.2614615
334.205032158
334.152280388
334.105141064
334.065025149
334.031894525
334.005423647
333.98602394
333.974244463
333.968815097
333.968729908
333.973815206
333.983385665
333.996285322
334.011226722
334.027071346
334.043050326
334.058863889
334.074368194
334.088906283
334.101423369
334.11191201
334.120359373
334.126149892
334.129756567
334.131252353
334.131835098
334.133719091
334.127532951
334.135270576
334.128628237
334.115551586
334.109798627
334.106947988
334.105447105
334.104890523
334.104723361
247.665411133
247.952517391
248.520047593
249.349387674
250.40727412
251.657859898
253.06571524
254.598560164
256.228875979
257.934518615
259.69854586
261.508530745
263.355630163
265.233626169
267.138079337
269.065659156
271.01366276
272.979701823
274.961523422
276.95692718
278.963743545
280.979843199
283.003154604
285.031674508
287.063466031
289.096648804
291.129394632
293.15994578
295.186661499
297.208083307
299.222996772
301.230467143
303.229835755
305.220677265
307.202722939
309.175754576
311.139459679
313.093228163
315.035867372
316.965211954
318.877605955
320.767241387
322.625368541
324.439484715
326.192839129
327.864742357
329.433591589
330.87976655
332.189031645
333.363356827
334.458162654
334.511184672
334.475494541
334.440198609
334.406032759
334.362881847
334.305299194
334.235381501
334.161528461
334.089571014
334.023330789
333.964809809
333.915327716
333.875647153
333.845757093
333.825379764
333.814580399
333.812048579
333.815509557
333.824658877
333.839198568
333.858311576
333.880883244
333.905733045
333.931784296
333.958184506
333.984330811
334.009710112
334.033639253
334.05535101
334.07454496
334.091013484
334.104477587
334.115037415
334.122737362
334.127878909
334.13112155
334.130579255
334.13465473
334.14289573
334.135498217
334.118815117
334.114812062
334.112787661
334.112388093
334.112449786
244.846466193
245.187416677
245.857286583
246.827602025
248.051991134
249.481996633
251.071461221
252.780053296
254.575057607
256.431718441
258.332520456
260.265847985
262.224435938
264.203923171
266.201677834
268.215944467
270.245289086
272.288285315
274.343376741
276.408855238
278.482904262
280.56366601
282.649301336
284.738022511
286.828092021
288.917797733
291.005430388
293.089303758
295.167830635
297.239640541
299.303694192
301.359355556
303.406401804
305.444977679
307.475513146
309.49862403
311.514980434
313.525108886
315.529089441
317.526107537
319.51380896
321.487383763
323.438302236
325.352682147
327.20972122
328.980504586
330.633760872
332.140570397
333.486995126
334.725354852
334.741216052
334.62707289
334.521275158
334.427577929
334.335016414
334.240976396
334.145178791
334.049557519
333.95854762
333.87575625
333.803474096
333.742845983
333.694408242
333.658302292
333.634344389
333.622298864
333.620836344
333.627375459
333.640309569
333.659411061
333.684146288
333.713588131
333.746640502
333.782174649
333.819126968
333.856567747
333.893710849
333.929840941
333.964216114
333.996118764
334.025075563
334.050733561
334.072805146
334.091221299
334.1060062
334.117279118
334.125372176
334.129689685
334.132646382
334.135831379
334.134346909
334.126882306
334.120972802
334.118694244
334.119378475
334.120177895
241.674936202
242.089195837
242.896331671
244.052042084
245.490472302
247.145422773
248.956512976
250.873519969
252.858116966
254.88357412
256.933067582
258.997284739
261.071953159
263.155733088
265.24865706
267.351110052
269.463253113
271.584771044
273.714835461
275.852195132
277.995325336
280.142583576
282.292331628
284.44299647
286.593060154
288.740994658
290.885187165
293.023949705
295.155638361
297.278863237
299.392692023
301.496776019
303.591370965
305.677271102
307.755706984
309.828266014
311.896805859
313.963300144
316.029559503
318.096778126
320.164830684
322.231163588
324.289013133
326.324541693
328.313232194
330.212854664
331.978208527
333.577835745
335.06068248
335.067133599
334.866799789
334.678678029
334.512660145
334.355321496
334.206005079
334.066692594
333.938242876
333.82160145
333.718393246
333.629822419
333.556356901
333.497880589
333.454004033
333.424251908
333.40823158
333.405481978
333.413373934
333.428779862
333.451198722
333.480255099
333.515158802
333.554909688
333.598431599
333.644633447
333.692462393
333.740942786
333.789182899
333.836346459
333.881621173
333.924250669
333.963629486