/*--------------------------------*- C++ -*----------------------------------*\
| =========                 |                                                 |
| \\      /  F ield         | OpenFOAM: The Open Source CFD Toolbox           |
|  \\    /   O peration     | Version:  v1906                                 |
|   \\  /    A nd           | Web:      www.OpenFOAM.com                      |
|    \\/     M anipulation  |                                                 |
\*---------------------------------------------------------------------------*/
FoamFile
{
    version     2.0;
    format      ascii;
    class       volVectorField;
    location    "757";
    object      Ua;
}
// * * * * * * * * * * * * * * * * * * * * * * * * * * * * * * * * * * * * * //

dimensions      [0 1 -1 0 0 0 0];


internalField   nonuniform List<vector> 
9216
(
(-0.0103634049436 0.0103704779477 0)
(-0.0109364891402 0.03346919844 3.91383817376e-27)
(-0.010932555328 0.0569241886715 -7.07770794287e-31)
(-0.0108299651684 0.0803863112724 0)
(-0.0106838269714 0.103458533005 0)
(-0.0104982194974 0.126046561723 0)
(-0.010277795672 0.148048965821 0)
(-0.0100257276502 0.169373677311 0)
(-0.00974502841746 0.189937904133 0)
(-0.00943858882976 0.209668322967 0)
(-0.00910945545461 0.228501187968 0)
(-0.00876055488594 0.246382497911 0)
(-0.00839492918262 0.263267876283 0)
(-0.00801539860289 0.279122423176 0)
(-0.00762483851952 0.293920297837 0)
(-0.00722581364558 0.307644307003 0)
(-0.00682090756603 0.32028527874 0)
(-0.00641233466264 0.331841489786 0)
(-0.00600232130872 0.34231793705 0)
(-0.00559269637031 0.351725705527 0)
(-0.00518531962418 0.360081229622 0)
(-0.00478164848271 0.36740568092 0)
(-0.00438320642648 0.373724285169 0)
(-0.00399112281732 0.379065779147 0)
(-0.00360663400136 0.383461815916 0)
(-0.00323059333418 0.386946508056 0)
(-0.00286399864719 0.389555927409 0)
(-0.00250747279841 0.391327731202 0)
(-0.00216181504274 0.39230074714 0)
(-0.00182745852721 0.392514676316 0)
(-0.00150505221718 0.39200970278 0)
(-0.0011947886718 0.390826508716 0)
(-0.000897075866554 0.389005401849 0)
(-0.00061202283761 0.386586472205 0)
(-0.000339975139259 0.383609456133 0)
(-8.08844973458e-05 0.380113458308 0)
(0.000165057231909 0.376136781814 0)
(0.00039803558049 0.371716793629 0)
(0.000617978036318 0.366889779693 0)
(0.000825185417838 0.361690847888 0)
(0.00101968830125 0.356153823676 0)
(0.00120188582358 0.35031118045 0)
(0.00137189639379 0.344193971358 0)
(0.00153020006454 0.337831783906 0)
(0.00167698625659 0.3312527044 0)
(0.00181279677071 0.32448329386 0)
(0.00193787396935 0.317548583464 0)
(0.00205280113551 0.31047207029 0)
(0.00215785418454 0.3032757409 0)
(0.00225363685161 0.295980084209 0)
(0.00234043955117 0.288604141033 0)
(0.00241886650269 0.281165531637 0)
(0.00248920485932 0.273680526816 0)
(0.00255204155097 0.266164085692 0)
(0.00260764611364 0.258629944004 0)
(0.00265657455839 0.251090657639 0)
(0.00269906865508 0.243557701742 0)
(0.00273564464224 0.236041513992 0)
(0.00276651180439 0.228551598922 0)
(0.00279214332077 0.22109656582 0)
(0.00281271622858 0.21368423188 0)
(0.00282866216346 0.206321649519 0)
(0.00284013081907 0.199015204056 0)
(0.00284751792907 0.191770627299 0)
(0.00285095369337 0.18459308594 0)
(0.0028508058847 0.177487179257 0)
(0.00284719479205 0.17045701711 0)
(0.00284046913687 0.163506202028 0)
(0.0028307486276 0.156637896517 0)
(0.0028183709952 0.149854790776 0)
(0.00280346339854 0.143159161275 0)
(0.00278635885681 0.136552827123 0)
(0.00276719742765 0.130037202082 0)
(0.00274631093705 0.123613242801 0)
(0.00272385498533 0.117281497639 0)
(0.00270016089696 0.111042050651 0)
(0.00267539935355 0.104894569984 0)
(0.00264989898952 0.0988382508817 0)
(0.00262384250693 0.0928718667272 0)
(0.00259755131429 0.0869937142039 0)
(0.00257121473683 0.0812016690843 0)
(0.00254514035481 0.0754931358698 0)
(0.00251951679998 0.0698651106446 0)
(0.00249462907172 0.0643141377422 0)
(0.0024706546688 0.0588363825427 0)
(0.00244784185429 0.0534276003614 0)
(0.00242633536458 0.0480832294837 0)
(0.00240630688879 0.0427983951698 0)
(0.00238778377971 0.0375680755146 0)
(0.0023706589015 0.0323872748756 0)
(0.00235432211929 0.0272515773457 0)
(0.0023370231267 0.0221584765572 0)
(0.00231381917959 0.0171113615325 0)
(0.00226281617217 0.0121531211601 0)
(0.00216733245028 0.00698090945805 0)
(0.00292940337877 0.00292939115945 0)
(-0.0335483098415 0.0110297626905 0)
(-0.0370849786146 0.0373718260973 0)
(-0.0369975611842 0.0636412080503 -4.10859521114e-27)
(-0.0364949311345 0.0899427261276 0)
(-0.0357966735545 0.115772651284 0)
(-0.0349294204249 0.141046104429 0)
(-0.0339081238733 0.165655308102 0)
(-0.0327470044424 0.189498900974 0)
(-0.0314609889027 0.212484721787 0)
(-0.0300653875012 0.234530927727 0)
(-0.028576027218 0.255566441861 0)
(-0.0270085932148 0.275531178779 0)
(-0.0253787599323 0.294375970508 0)
(-0.0237014963082 0.312062341729 0)
(-0.0219913198382 0.328562063411 0)
(-0.0202616251696 0.343856621172 0)
(-0.0185250833102 0.357936530211 0)
(-0.0167930027087 0.370800627408 0)
(-0.015075866457 0.382455273953 0)
(-0.013382716361 0.392913589421 0)
(-0.0117218071768 0.402194648818 0)
(-0.0100999937233 0.410322750093 0)
(-0.00852347322794 0.417326679508 0)
(-0.00699715205548 0.423239067 0)
(-0.00552544747411 0.428095755121 0)
(-0.00411161451994 0.431935259553 0)
(-0.00275858563664 0.434798244235 0)
(-0.00146824910269 0.436727078162 0)
(-0.000242316895704 0.43776540031 0)
(0.000918441885164 0.437957747832 0)
(0.00201329790823 0.437349225157 0)
(0.00304243290248 0.435984973944 0)
(0.00400603155737 0.433910390449 0)
(0.00490501572249 0.431170604326 0)
(0.00574014811845 0.427810110127 0)
(0.00651294175223 0.423872669237 0)
(0.00722469811487 0.419401113756 0)
(0.00787740101951 0.414437198644 0)
(0.00847274862329 0.409021456726 0)
(0.0090130686119 0.403193083426 0)
(0.00950034189848 0.39698983025 0)
(0.00993713192385 0.39044792259 0)
(0.0103256033962 0.383601989051 0)
(0.0106684597579 0.3764850092 0)
(0.010967960657 0.369128275727 0)
(0.0112268625441 0.361561369611 0)
(0.0114474394059 0.353812152928 0)
(0.0116324215475 0.34590676933 0)
(0.0117840241312 0.337869665129 0)
(0.0119048801781 0.329723612678 0)
(0.0119970821712 0.32148975692 0)
(0.0120631053657 0.313187658392 0)
(0.0121048674201 0.304835361053 0)
(0.012124638773 0.296449450312 0)
(0.0121241254359 0.28804513685 0)
(0.0121053628095 0.279636323946 0)
(0.0120698258994 0.27123570073 0)
(0.0120193031289 0.262854812246 0)
(0.0119550378685 0.254504155408 0)
(0.0118785781287 0.246193245298 0)
(0.0117909521655 0.237930707241 0)
(0.0116934900234 0.229724333591 0)
(0.0115870355651 0.221581166741 0)
(0.0114727353784 0.21350754223 0)
(0.0113512887119 0.205509159043 0)
(0.0112236996864 0.197591106725 0)
(0.0110905665464 0.189757921575 0)
(0.0109527931471 0.182013597582 0)
(0.0108109185254 0.174361628862 0)
(0.0106657844489 0.16680500596 0)
(0.0105179065603 0.159346246712 0)
(0.0103680951606 0.151987380928 0)
(0.0102168690563 0.144729972753 0)
(0.0100650276803 0.137575097447 0)
(0.00991310907043 0.130523359049 0)
(0.00976191184537 0.123574863289 0)
(0.00961199862844 0.116729234156 0)
(0.00946416711816 0.109985586657 0)
(0.00931900039597 0.103342545676 0)
(0.00917728650315 0.0967982217946 0)
(0.00903961678903 0.0903502350732 0)
(0.00890675363023 0.0839956963639 0)
(0.00877927764284 0.0777312381738 0)
(0.00865790244432 0.0715530034728 0)
(0.00854316994674 0.0654566853286 0)
(0.00843570812379 0.0594375249561 0)
(0.00833596686164 0.0534903615636 0)
(0.00824439968863 0.0476096387996 0)
(0.00816119720511 0.0417894522118 0)
(0.00808629053231 0.0360235102617 0)
(0.00801883098281 0.0303049768273 0)
(0.00795642599604 0.0246257310937 0)
(0.00789263238189 0.0189733694076 0)
(0.00780880127861 0.0133208203117 0)
(0.00760016185753 0.00758383725424 0)
(0.00697600295834 0.00216173010773 0)
(-0.0574346181474 0.0111769671351 0)
(-0.0635846832786 0.0379885011847 0)
(-0.063366169372 0.0645899028286 -4.11233952526e-27)
(-0.0624946853482 0.0912746961745 0)
(-0.0613126612335 0.117476677351 0)
(-0.0598541193711 0.143105593711 0)
(-0.0581398098798 0.168049827205 0)
(-0.0561921159278 0.192205712084 0)
(-0.0540353474697 0.215479395936 0)
(-0.0516950067417 0.237787839885 0)
(-0.049197339286 0.259059257608 0)
(-0.0465686286172 0.279233301781 0)
(-0.0438348631953 0.298260971378 0)
(-0.0410211233677 0.316104319377 0)
(-0.0381514087989 0.332735966115 0)
(-0.0352481511719 0.348138489278 0)
(-0.0323322175544 0.362303693995 0)
(-0.0294225512165 0.375231829724 0)
(-0.026536338456 0.386930754812 0)
(-0.0236887562549 0.397415107899 0)
(-0.0208932696914 0.406705480869 0)
(-0.0181614481585 0.414827641638 0)
(-0.0155033476435 0.421811792621 0)
(-0.0129273502239 0.427691899942 0)
(-0.0104405851075 0.432505070027 0)
(-0.00804875325018 0.436290997463 0)
(-0.00575655477196 0.439091455663 0)
(-0.00356747909322 0.440949847495 0)
(-0.00148422601382 0.441910787637 0)
(0.000491541335625 0.442019731382 0)
(0.00235878859123 0.441322642151 0)
(0.00411737432716 0.439865659122 0)
(0.00576757324424 0.437694822784 0)
(0.00731045922052 0.434855851639 0)
(0.00874746176161 0.431393881568 0)
(0.0100806541117 0.427353266976 0)
(0.0113123341814 0.422777394968 0)
(0.0124453492643 0.417708529299 0)
(0.0134826705466 0.412187670109 0)
(0.014427728379 0.406254436411 0)
(0.015283986655 0.399946963538 0)
(0.0160552871794 0.39330182003 0)
(0.0167454249141 0.386353939265 0)
(0.0173584982934 0.379136567568 0)
(0.0178984860661 0.371681227003 0)
(0.0183696008416 0.364017692264 0)
(0.018775868948 0.356173982906 0)
(0.0191214852078 0.348176367323 0)
(0.0194103979999 0.34004938223 0)
(0.0196466642409 0.33181586146 0)
(0.0198340426291 0.323496980294 0)
(0.0199763483706 0.315112305968 0)
(0.0200770578851 0.306679862641 0)
(0.0201396631663 0.298216198812 0)
(0.0201672911604 0.289736467684 0)
(0.0201630573007 0.281254505511 0)
(0.020129702064 0.272782920427 0)
(0.0200699426523 0.264333174651 0)
(0.0199861283099 0.255915674804 0)
(0.0198805881467 0.247539851043 0)
(0.0197553056459 0.239214241877 0)
(0.019612259874 0.230946563959 0)
(0.0194531187219 0.222743786101 0)
(0.0192795700696 0.21461218531 0)
(0.0190930326066 0.206557406197 0)
(0.0188949733989 0.198584500745 0)
(0.0186866349601 0.190697971916 0)
(0.0184693357805 0.182901797 0)
(0.0182442123998 0.175199455949 0)
(0.0180125000748 0.167593939945 0)
(0.0177752890839 0.16008776706 0)
(0.0175337833844 0.152682979265 0)
(0.0172890708858 0.145381148804 0)
(0.0170423588385 0.138183367557 0)
(0.016794758433 0.131090248316 0)
(0.0165474963422 0.12410191072 0)
(0.0163017144132 0.117217981285 0)
(0.0160586574299 0.110437579691 0)
(0.0158194889918 0.103759321184 0)
(0.0155854558508 0.0971813064294 0)
(0.0153577210684 0.0907011288803 0)
(0.0151375053489 0.0843158704712 0)
(0.0149259382763 0.0780221157922 0)
(0.0147241764167 0.0718159548458 0)
(0.0145332721648 0.0656930042812 0)
(0.0143542662778 0.0596484161735 0)
(0.0141880700616 0.0536769025477 0)
(0.014035523787 0.0477727395796 0)
(0.013897278937 0.0419297690375 0)
(0.0137738071788 0.0361413339794 0)
(0.0136652874769 0.0304001118523 0)
(0.0135716978675 0.0246976562873 0)
(0.0134930981184 0.0190231923672 0)
(0.0134290621325 0.0133577831273 0)
(0.0133232949669 0.00775117059448 0)
(0.0121226954283 0.00224783693884 0)
(-0.081879268313 0.0113067273497 0)
(-0.0907175876533 0.0385686913325 0)
(-0.0903968954181 0.065516594811 4.11042995841e-27)
(-0.0891382499686 0.0925687330362 0)
(-0.0874338793728 0.119121922719 0)
(-0.0853338446802 0.145080890532 0)
(-0.0828679274665 0.170329689391 0)
(-0.0800683953962 0.194761659456 0)
(-0.0769703508637 0.218280889088 0)
(-0.0736107522642 0.240803091892 0)
(-0.0700275434823 0.262255969317 0)
(-0.0662587662016 0.282579318385 0)
(-0.0623418738967 0.301724865272 0)
(-0.0583130368802 0.319655879125 0)
(-0.0542066822463 0.336346597788 0)
(-0.0500550192521 0.351781517263 0)
(-0.0458878160152 0.365954574685 0)
(-0.0417321402301 0.37886827267 0)
(-0.0376123516499 0.390532770428 0)
(-0.0335500236526 0.40096498246 0)
(-0.0295641031093 0.410187702189 0)
(-0.0256709537156 0.418228779991 0)
(-0.0218846152566 0.425120360824 0)
(-0.0182168981827 0.430898196751 0)
(-0.0146776733936 0.435601026921 0)
(-0.011274958549 0.439270028311 0)
(-0.00801519167626 0.441948322139 0)
(-0.00490327988949 0.443680534231 0)
(-0.00194284259866 0.444512394448 0)
(0.00086377779744 0.444490374946 0)
(0.00351529816652 0.443661358462 0)
(0.00601151523101 0.442072365236 0)
(0.00835302739974 0.439770161056 0)
(0.0105413557026 0.436801143846 0)
(0.0125787050611 0.433211059815 0)
(0.0144679969256 0.429044804343 0)
(0.0162126718252 0.424346244969 0)
(0.0178167410358 0.41915806564 0)
(0.019284594235 0.413521630792 0)
(0.0206210610522 0.407476869695 0)
(0.0218312246797 0.401062177759 0)
(0.0229204916984 0.394314335239 0)
(0.023894410543 0.387268441392 0)
(0.0247587469432 0.3799578641 0)
(0.0255193060573 0.372414204304 0)
(0.0261820116501 0.364667274683 0)
(0.026752731792 0.356745092883 0)
(0.0272373609443 0.348673887908 0)
(0.0276416503379 0.340478120744 0)
(0.0279712936158 0.332180516794 0)
(0.0282317642393 0.323802111667 0)
(0.0284284061219 0.315362306647 0)
(0.0285662809633 0.306878935775 0)
(0.0286502657971 0.298368339658 0)
(0.0286849131099 0.289845448198 0)
(0.0286745565969 0.281323866241 0)
(0.0286231859791 0.2728159648 0)
(0.0285345613101 0.26433297102 0)
(0.0284121030941 0.255885060148 0)
(0.0282590138904 0.247481442111 0)
(0.0280781827409 0.239130446864 0)
(0.0278723115925 0.230839600907 0)
(0.0276438318169 0.222615700133 0)
(0.0273950318257 0.214464871375 0)
(0.0271279826004 0.206392628968 0)
(0.0268446625862 0.198403918841 0)
(0.0265468890074 0.190503157482 0)
(0.0262364361649 0.182694258464 0)
(0.0259149696183 0.174980654798 0)
(0.0255841548099 0.167365309917 0)
(0.0252455920213 0.159850726279 0)
(0.0249009131148 0.152438944356 0)
(0.0245517161051 0.145131541472 0)
(0.0241996489937 0.13792962315 0)
(0.0238463438077 0.130833816692 0)
(0.0234934873785 0.123844259354 0)
(0.023142755458 0.116960590946 0)
(0.022795871122 0.110181942883 0)
(0.0224545401331 0.103506933498 0)
(0.0221204979972 0.0969336612314 0)
(0.0217954479278 0.0904597053357 0)
(0.0214810977364 0.0840821253713 0)
(0.0211791016256 0.0777974688449 0)
(0.0208910876895 0.0716017777409 0)
(0.0206186041468 0.0654906026903 0)
(0.0203631375133 0.0594590145254 0)
(0.0201260632452 0.0535016202538 0)
(0.0199086552031 0.0476125699044 0)
(0.0197120456548 0.04178555522 0)
(0.0195372458639 0.0360137772787 0)
(0.0193851761695 0.0302898854034 0)
(0.0192568562356 0.0246058359578 0)
(0.0191536403512 0.018952727947 0)
(0.019073816433 0.0133159657076 0)
(0.0189266552105 0.00777161417233 0)
(0.0170231141559 0.00228432112956 0)
(-0.10672457523 0.0114736031328 0)
(-0.118258768662 0.0393295679576 0)
(-0.117829536717 0.0667568325481 0)
(-0.116168395486 0.094301585087 0)
(-0.113919951062 0.121323087738 0)
(-0.111151492962 0.147720560134 0)
(-0.107903154801 0.173372795433 0)
(-0.104218202559 0.198169175047 0)
(-0.100143544616 0.222011025573 0)
(-0.095728484451 0.244812426496 0)
(-0.091023496679 0.266500476128 0)
(-0.0860790827244 0.287015289434 0)
(-0.0809447956436 0.306309712945 0)
(-0.075668378737 0.324348806928 0)
(-0.0702950989037 0.341109138592 0)
(-0.0648671977321 0.356577935268 0)
(-0.0594235403071 0.370752138904 0)
(-0.0539993662957 0.383637406748 0)
(-0.0486262233561 0.395247094542 0)
(-0.0433319697213 0.405601259971 0)
(-0.0381409257788 0.4147257133 0)
(-0.0330740456248 0.422651140244 0)
(-0.0281491914755 0.429412308744 0)
(-0.0233813731742 0.435047367267 0)
(-0.0187830472859 0.439597229368 0)
(-0.0143643396208 0.443105037461 0)
(-0.0101333049319 0.445615690885 0)
(-0.00609609414168 0.447175426773 0)
(-0.00225716094533 0.447831440233 0)
(0.00138061992994 0.447631537286 0)
(0.00481578200598 0.44662381215 0)
(0.00804820444999 0.444856403933 0)
(0.0110788456556 0.442377043651 0)
(0.0139097955278 0.439233044194 0)
(0.016544072824 0.435470951305 0)
(0.0189855606824 0.431136369286 0)
(0.0212388689596 0.426273789401 0)
(0.023309278545 0.420926438673 0)
(0.0252026153014 0.415136149314 0)
(0.026925206563 0.40894324726 0)
(0.0284837651385 0.40238645772 0)
(0.0298853553168 0.39550282702 0)
(0.0311372841294 0.388327659683 0)
(0.0322470736473 0.380894470323 0)
(0.0332223570683 0.373234950007 0)
(0.0340708551548 0.365378946852 0)
(0.0348002762071 0.357354460994 0)
(0.0354182962639 0.349187653406 0)
(0.0359324639292 0.340902868775 0)
(0.0363501858099 0.332522671492 0)
(0.0366786387892 0.324067894825 0)
(0.0369247635156 0.315557701527 0)
(0.0370951876674 0.307009655569 0)
(0.0371962307679 0.298439802526 0)
(0.0372338418334 0.289862758005 0)
(0.0372136180934 0.281291800873 0)
(0.0371407592382 0.272738970503 0)
(0.0370201010475 0.26421516445 0)
(0.0368560865194 0.255730235949 0)
(0.0366528133341 0.24729308752 0)
(0.0364140200746 0.238911760477 0)
(0.0361431445204 0.230593516984 0)
(0.0358433214076 0.222344915136 0)
(0.0355174471203 0.214171874156 0)
(0.0351681844013 0.206079730977 0)
(0.0347980284242 0.198073285922 0)
(0.0344093136471 0.19015683962 0)
(0.034004276448 0.182334219332 0)
(0.0335850598919 0.174608797524 0)
(0.0331537690432 0.166983501315 0)
(0.0327124705394 0.159460816157 0)
(0.0322632379985 0.152042782563 0)
(0.0318081446929 0.144730989485 0)
(0.0313492979275 0.13752656323 0)
(0.0308888244675 0.130430155609 0)
(0.0304288940238 0.123441930013 0)
(0.0299716981991 0.116561549012 0)
(0.029519464193 0.109788161948 0)
(0.0290744287751 0.103120395932 0)
(0.0286388438663 0.0965563483589 0)
(0.0282149474051 0.0900935840599 0)
(0.0278049626746 0.083729134873 0)
(0.0274110679585 0.0774595043958 0)
(0.0270353913927 0.071280675218 0)
(0.0266799812304 0.0651881208094 0)
(0.026346798212 0.0591768187427 0)
(0.0260376893126 0.0532412665023 0)
(0.0257543828191 0.047375495088 0)
(0.0254984766047 0.0415730816538 0)
(0.0252714596974 0.0358271562742 0)
(0.0250747634209 0.0301304208204 0)
(0.0249098849394 0.0244751773593 0)
(0.0247782838971 0.0188534746807 0)
(0.0246754395539 0.0132519680937 0)
(0.0244779328475 0.00774996403577 0)
(0.0219657442821 0.0022879875947 0)
(-0.13211068997 0.0116819295928 0)
(-0.146383259845 0.0402988265262 0)
(-0.145832982073 0.0683454618547 0)
(-0.14374577985 0.0965226497896 0)
(-0.140922076232 0.12414345167 0)
(-0.137447535681 0.15110050584 0)
(-0.133373992127 0.177266225956 0)
(-0.128757077755 0.202525091781 0)
(-0.123656837411 0.226775023485 0)
(-0.118136151629 0.249928150858 0)
(-0.112259154872 0.271910965801 0)
(-0.106089790642 0.292664175888 0)
(-0.0996905597951 0.312142255548 0)
(-0.0931214573864 0.330312752005 0)
(-0.0864391273636 0.347155398944 0)
(-0.0796962107912 0.362661090646 0)
(-0.0729409077354 0.376830764867 0)
(-0.0662167156353 0.389674242297 0)
(-0.0595623569381 0.401209065777 0)
(-0.0530118449377 0.411459380383 0)
(-0.0465946909999 0.420454887659 0)
(-0.0403361881203 0.42822990044 0)
(-0.0342577681847 0.434822512236 0)
(-0.0283773632646 0.440273884851 0)
(-0.0227097760581 0.444627645213 0)
(-0.0172670009207 0.447929375436 0)
(-0.0120585215691 0.450226174489 0)
(-0.00709154532948 0.45156627167 0)
(-0.00237121945675 0.4519986749 0)
(0.00209920141836 0.451572843081 0)
(0.00631818185872 0.450338377501 0)
(0.0102858166428 0.448344812189 0)
(0.0140035221008 0.445641078617 0)
(0.0174740835078 0.44227563209 0)
(0.020701426784 0.438296011727 0)
(0.0236905114293 0.433748704276 0)
(0.0264471955827 0.42867897528 0)
(0.0289781322994 0.423130724937 0)
(0.0312906508055 0.417146364351 0)
(0.0333926684309 0.410766709978 0)
(0.0352925854698 0.404030894415 0)
(0.0369992087279 0.396976292405 0)
(0.0385216554589 0.38963846125 0)
(0.039869283955 0.382051095298 0)
(0.0410516027953 0.374245994477 0)
(0.0420782056744 0.366253046903 0)
(0.0429586844872 0.358100225837 0)
(0.0437025680608 0.34981360096 0)
(0.0443192401622 0.341417364205 0)
(0.0448178843628 0.332933869675 0)
(0.0452074103509 0.324383687441 0)
(0.0454964089756 0.315785670048 0)
(0.0456930915253 0.307157030875 0)
(0.0458052596693 0.298513432367 0)
(0.0458402622397 0.289869082626 0)
(0.0458049838183 0.281236837695 0)
(0.0457058219056 0.272628307643 0)
(0.045548695764 0.264053963446 0)
(0.0453390442876 0.255523242747 0)
(0.0450818538694 0.247044651556 0)
(0.0447816744605 0.238625860389 0)
(0.0444426626536 0.230273792352 0)
(0.0440686111357 0.221994702345 0)
(0.0436630012739 0.213794245595 0)
(0.0432290397986 0.205677535558 0)
(0.042769714446 0.197649190182 0)
(0.042287831509 0.189713367408 0)
(0.0417860683775 0.181873789635 0)
(0.0412670063893 0.174133758721 0)
(0.0407331753791 0.166496161803 0)
(0.0401870778175 0.158963469975 0)
(0.0396312222059 0.151537730394 0)
(0.0390681363428 0.144220554077 0)
(0.0385003883192 0.137013100026 0)
(0.0379305885589 0.129916057895 0)
(0.0373613987843 0.122929629708 0)
(0.0367955238989 0.116053512662 0)
(0.0362357105299 0.109286883231 0)
(0.0356847307831 0.102628384338 0)
(0.0351453726467 0.0960761154535 0)
(0.0346204181192 0.0896276270393 0)
(0.0341126280766 0.0832799188463 0)
(0.0336247174144 0.0770294430686 0)
(0.0331593370305 0.070872111495 0)
(0.032719048769 0.0648033071888 0)
(0.0323063076666 0.0588178995343 0)
(0.031923440765 0.0529102629109 0)
(0.0315726356006 0.0470742980797 0)
(0.0312559324821 0.0413034574296 0)
(0.0309752350253 0.0355907766492 0)
(0.0307323381001 0.0299289362663 0)
(0.0305289617216 0.0243103290443 0)
(0.0303663760924 0.0187272122397 0)
(0.0302375750704 0.0131662545769 0)
(0.0299890020161 0.00770493657873 0)
(0.0268941379587 0.00228073367099 0)
(-0.158171800283 0.0119369015792 0)
(-0.175244035765 0.0414943871683 0)
(-0.174555203655 0.0703071197068 4.13395002291e-27)
(-0.172010333851 0.0992652342953 0)
(-0.168570418288 0.12762428293 0)
(-0.164340985262 0.155268757794 0)
(-0.159387175747 0.182063318926 0)
(-0.153778686605 0.20788655433 0)
(-0.147590380797 0.232632381549 0)
(-0.140900295411 0.256210769533 0)
(-0.133787659073 0.278547739776 0)
(-0.126331108163 0.299585027534 0)
(-0.118607149647 0.319279415777 0)
(-0.11068888004 0.337601811863 0)
(-0.102644970403 0.354536129915 0)
(-0.0945389069514 0.370078036978 0)
(-0.086428486562 0.384233617225 0)
(-0.0783655470295 0.397018006493 0)
(-0.070395921833 0.408454047476 0)
(-0.0625595847032 0.418571013006 0)
(-0.0548909573994 0.427403438412 0)
(-0.0474193275286 0.434990093877 0)
(-0.0401693364885 0.441373113115 0)
(-0.0331614783854 0.446597278238 0)
(-0.0264125776734 0.450709444424 0)
(-0.0199362056464 0.453758076363 0)
(-0.0137430333294 0.455792863082 0)
(-0.00784111199714 0.456864380216 0)
(-0.00223610579784 0.457023776893 0)
(0.00306851849219 0.456322469414 0)
(0.00807129931253 0.4548118592 0)
(0.0127726961778 0.452543130187 0)
(0.0171747262001 0.449566665402 0)
(0.0212810011952 0.445932273048 0)
(0.0250964819313 0.441688676756 0)
(0.0286273323008 0.436883412713 0)
(0.0318807693614 0.431562665103 0)
(0.0348649301363 0.425771131374 0)
(0.0375887424319 0.419551907355 0)
(0.0400618117784 0.412946389417 0)
(0.0422943096538 0.405994191644 0)
(0.0442968744513 0.398733076772 0)
(0.0460805101993 0.391198900303 0)
(0.0476564950307 0.383425567728 0)
(0.049036285089 0.375445005117 0)
(0.0502314267051 0.36728714357 0)
(0.0512534634335 0.358979918078 0)
(0.0521138516059 0.350549281277 0)
(0.0528238719223 0.34201923245 0)
(0.0533945513889 0.333411861837 0)
(0.0538365839205 0.324747409966 0)
(0.0541602642087 0.316044341249 0)
(0.0543754236106 0.30731943059 0)
(0.0544913823696 0.298587861288 0)
(0.0545169068793 0.289863332081 0)
(0.0544601854531 0.281158170779 0)
(0.0543288108803 0.272483451737 0)
(0.0541297819902 0.263849114239 0)
(0.0538695119391 0.255264078995 0)
(0.0535538540998 0.246736359938 0)
(0.0531881328261 0.238273168934 0)
(0.0527771887638 0.229881011227 0)
(0.052325425844 0.221565770006 0)
(0.0518368687215 0.213332778839 0)
(0.0513152180654 0.20518688129 0)
(0.0507639118856 0.197132477478 0)
(0.0501861809726 0.189173557875 0)
(0.0495851063659 0.181313724942 0)
(0.0489636679231 0.173556203699 0)
(0.0483247918367 0.165903842468 0)
(0.0476713873533 0.158359105399 0)
(0.0470063805518 0.150924058333 0)
(0.0463327366699 0.143600349775 0)
(0.0456534787811 0.136389188595 0)
(0.0449716954724 0.12929132015 0)
(0.0442905451263 0.122307002209 0)
(0.0436132504833 0.115435982126 0)
(0.0429430907111 0.10867747632 0)
(0.0422833855314 0.10203015313 0)
(0.0416374780931 0.0954921197098 0)
(0.0410087119059 0.089060913645 0)
(0.0404004078736 0.0827334995425 0)
(0.0398158374362 0.076506270898 0)
(0.0392581971801 0.0703750571349 0)
(0.0387305816849 0.0643351357541 0)
(0.0382359594223 0.0583812494283 0)
(0.0377771495113 0.052507628052 0)
(0.0373568039783 0.0467080158179 0)
(0.0369773947959 0.0409757059795 0)
(0.0366412096951 0.0353035847264 0)
(0.0363503536203 0.0296841987024 0)
(0.036106724664 0.0241098251247 0)
(0.0359114714576 0.018572574367 0)
(0.0357556288167 0.0130587463984 0)
(0.0354569555779 0.00764293346449 0)
(0.0317911355984 0.00226747574667 0)
(-0.185054334022 0.0122427608328 0)
(-0.205003052296 0.0429361599726 0)
(-0.204153485827 0.0726721521623 -4.13174903079e-27)
(-0.201110751087 0.102570401534 0)
(-0.197002730744 0.131816053866 0)
(-0.191956913877 0.160283554146 0)
(-0.186053839813 0.187828236582 0)
(-0.179379434495 0.214321762339 0)
(-0.172025498893 0.239653517371 0)
(-0.164087203748 0.263731239117 0)
(-0.155660646583 0.286480801825 0)
(-0.146840691039 0.307845617065 0)
(-0.137719130274 0.327785683243 0)
(-0.128383180385 0.346276370571 0)
(-0.118914301554 0.363307013774 0)
(-0.109387335419 0.378879375923 0)
(-0.0998699502486 0.393006041425 0)
(-0.0904223779623 0.405708795678 0)
(-0.081097426289 0.417017049251 0)
(-0.0719407332797 0.426966364166 0)
(-0.0629912231881 0.435597134147 0)
(-0.0542817024966 0.442953458665 0)
(-0.0458395309903 0.449082230756 0)
(-0.0376872948612 0.454032434643 0)
(-0.0298434251376 0.45785462482 0)
(-0.0223227180884 0.460600540797 0)
(-0.0151367470339 0.462322804739 0)
(-0.00829417212109 0.463074655228 0)
(-0.00180097800415 0.462909686126 0)
(0.00433933548984 0.461881555851 0)
(0.0101255749334 0.460043798014 0)
(0.0155586729201 0.457449376208 0)
(0.0206414556775 0.454150485439 0)
(0.0253785147991 0.450198453648 0)
(0.0297759992856 0.445643378232 0)
(0.0338414256181 0.440534001894 0)
(0.0375835047211 0.434917562527 0)
(0.0410119852222 0.428839670257 0)
(0.0441375086779 0.422344203876 0)
(0.0469714792039 0.415473222724 0)
(0.0495259406196 0.408266891511 0)
(0.0518134626749 0.400763416835 0)
(0.0538470296827 0.392998995095 0)
(0.0556399340251 0.385007772173 0)
(0.0572056690009 0.376821815682 0)
(0.0585578246535 0.368471100706 0)
(0.0597099822168 0.359983510134 0)
(0.0606756119 0.351384850501 0)
(0.0614679707983 0.342698884201 0)
(0.0621000066226 0.333947378423 0)
(0.0625842649757 0.325150170874 0)
(0.0629328064289 0.316325251577 0)
(0.0631571315445 0.307488859572 0)
(0.0632681199588 0.298655592527 0)
(0.0632759813523 0.289838526859 0)
(0.0631902235564 0.281049345312 0)
(0.0630196347382 0.272298468819 0)
(0.0627722836161 0.263595189104 0)
(0.0624555335228 0.254947798756 0)
(0.0620760729029 0.246363715398 0)
(0.0616399570814 0.237849597228 0)
(0.0611526627818 0.229411447331 0)
(0.0606191496195 0.221054704992 0)
(0.0600439293607 0.212784322525 0)
(0.0594311370659 0.204604827051 0)
(0.0587846047023 0.196520366908 0)
(0.0581079317079 0.188534743288 0)
(0.0574045532951 0.18065142783 0)
(0.0566778017317 0.17287356767 0)
(0.0559309618773 0.16520397941 0)
(0.055167317169 0.15764513406 0)
(0.0543901879191 0.150199134755 0)
(0.0536029591139 0.142867689459 0)
(0.0528091000892 0.135652080437 0)
(0.0520121741297 0.128553132543 0)
(0.0512158406924 0.121571181823 0)
(0.0504238489609 0.11470604611 0)
(0.0496400255432 0.107956998703 0)
(0.0488682554683 0.101322746341 0)
(0.0481124592164 0.0948014121185 0)
(0.0473765652417 0.0883905240922 0)
(0.0466644805198 0.0820870097879 0)
(0.0459800587788 0.075887196936 0)
(0.0453270686875 0.0697868203293 0)
(0.0447091618479 0.0637810347913 0)
(0.0441298426318 0.0578644341337 0)
(0.0435924399396 0.0520310761902 0)
(0.0431000826619 0.0462745144931 0)
(0.0426556788007 0.0405878371664 0)
(0.0422618988374 0.0349637147138 0)
(0.0419211585101 0.0293944715729 0)
(0.041635562794 0.0238721350559 0)
(0.0414062597762 0.0183884874705 0)
(0.0412226638037 0.0129294150382 0)
(0.0408745961935 0.00756634603906 0)
(0.0366454727931 0.0022499748187 0)
(-0.212918686709 0.0126041566938 0)
(-0.235835763459 0.0446482636801 0)
(-0.234797679834 0.0754784466322 0)
(-0.231206919233 0.10648954388 0)
(-0.226366204908 0.136781715486 0)
(-0.220427818498 0.166217181081 0)
(-0.213490434917 0.194640212231 0)
(-0.205658973426 0.221914505347 0)
(-0.197044828545 0.247924503561 0)
(-0.187762741727 0.272575845315 0)
(-0.177927831944 0.295794834797 0)
(-0.167653025091 0.317527488156 0)
(-0.157046908645 0.337738214893 0)
(-0.146212001502 0.356408238349 0)
(-0.13524342006 0.373533835024 0)
(-0.124227922307 0.389124456913 0)
(-0.113243317204 0.403200795707 0)
(-0.10235822783 0.415792849572 0)
(-0.0916321923144 0.426938059857 0)
(-0.0811160713616 0.436679589595 0)
(-0.0708527104366 0.445064813375 0)
(-0.0608777795975 0.452144073711 0)
(-0.0512206961894 0.457969732063 0)
(-0.0419055291063 0.462595505987 0)
(-0.0329517978543 0.466076046322 0)
(-0.0243751102359 0.468466680209 0)
(-0.0161876256999 0.469823236569 0)
(-0.00839836926511 0.470201882497 0)
(-0.00101344617977 0.469658927976 0)
(0.00596379235766 0.468250554869 0)
(0.012532613106 0.466032691478 0)
(0.0186946088198 0.463060382601 0)
(0.0244535828393 0.459387823109 0)
(0.0298153135375 0.455068087475 0)
(0.034787320246 0.450152820441 0)
(0.0393786437039 0.444692119127 0)
(0.0435996461453 0.438734398956 0)
(0.0474618322009 0.432326287079 0)
(0.0509776888035 0.425512533888 0)
(0.054160541331 0.41833593712 0)
(0.0570244209445 0.41083727564 0)
(0.0595839397601 0.403055251877 0)
(0.0618541698364 0.395026443224 0)
(0.0638505243329 0.386785263488 0)
(0.0655886385807 0.378363935798 0)
(0.0670842510283 0.36979247867 0)
(0.0683530832412 0.36109870682 0)
(0.069410720311 0.352308248398 0)
(0.0702724922306 0.343444579933 0)
(0.0709533589371 0.334529080012 0)