/*--------------------------------*- C++ -*----------------------------------*\
| =========                 |                                                 |
| \\      /  F ield         | OpenFOAM: The Open Source CFD Toolbox           |
|  \\    /   O peration     | Version:  v1906                                 |
|   \\  /    A nd           | Web:      www.OpenFOAM.com                      |
|    \\/     M anipulation  |                                                 |
\*---------------------------------------------------------------------------*/
FoamFile
{
    version     2.0;
    format      ascii;
    class       surfaceScalarField;
    location    "482";
    object      phi;
}
// * * * * * * * * * * * * * * * * * * * * * * * * * * * * * * * * * * * * * //

dimensions      [0 3 -1 0 0 0 0];
oriented        oriented;


internalField   nonuniform List<scalar> 
18240
(
-0.000198935888019
0.000198999930188
-0.000407264549863
0.000208413135549
-0.000614214296805
0.000207010975212
-0.000818108874968
0.000203983985673
-0.00101794597113
0.000199892595966
-0.00121273068124
0.000194878691739
-0.00140170846733
0.000189027556982
-0.00158407563156
0.000182465414064
-0.00175930105354
0.000175269310759
-0.0019267702969
0.000167571366595
-0.0020861725451
0.000159439942456
-0.00223707149131
0.000151004538548
-0.00237935583612
0.000142315690673
-0.0025127395412
0.000133492327882
-0.00263727641655
0.000124561576744
-0.00275279344331
0.000115628201517
-0.0028594699925
0.000106694473508
-0.0029572078139
9.78509983159e-05
-0.00304627392953
8.90769505722e-05
-0.00312661055241
8.04512010539e-05
-0.00319854003763
7.19331141348e-05
-0.00326201780514
6.35930760119e-05
-0.00331739623826
5.53745604287e-05
-0.00336462379661
4.73428940944e-05
-0.0034040645127
3.94292968114e-05
-0.00343564683569
3.16969352936e-05
-0.00345973418525
2.40681826235e-05
-0.00347622768493
1.66066377218e-05
-0.00348548329722
9.22880452666e-06
-0.00348737334276
2.00093593089e-06
-0.0034822442775
-5.16354196782e-06
-0.00346994232653
-1.21940635916e-05
-0.00345080708096
-1.91770767993e-05
-0.00342466782999
-2.60351325879e-05
-0.00339186504795
-3.28517787979e-05
-0.00335222421979
-3.95412073387e-05
-0.0033060983947
-4.61814456521e-05
-0.00325332682811
-5.26771683155e-05
-0.00319428978677
-5.90988649511e-05
-0.00312885972753
-6.53415542073e-05
-0.00305745943795
-7.14675578872e-05
-0.00298001382648
-7.73636699566e-05
-0.00289700139543
-8.30845461741e-05
-0.00280841554954
-8.85111387916e-05
-0.00271480015321
-9.36915525922e-05
-0.00261623026126
-9.85031907803e-05
-0.00251332250155
-0.000102987436908
-0.002406246215
-0.000107018438743
-0.002295700291
-0.000110628505947
-0.00218196521156
-0.000113687013162
-0.00206583606618
-0.000116214265942
-0.0019477231119
-0.00011807553539
-0.00182852785584
-0.000119282370424
-0.00170879504215
-0.000119706632323
-0.00158951659238
-0.000119366930103
-0.00147133728722
-0.000118164336009
-0.00135527825053
-0.00011614780289
-0.00124200488837
-0.000113268884929
-0.00113247220036
-0.000109620480598
-0.00102726597803
-0.000105210910026
-0.000927176086848
-0.000100175260417
-0.0008326184481
-9.45694572525e-05
-0.000744146258155
-8.85537652726e-05
-0.0006619506123
-8.22122606414e-05
-0.000586310090097
-7.57171277337e-05
-0.000517162532037
-6.91670260992e-05
-0.000454508727325
-6.27249718228e-05
-0.000398057599945
-5.64722690072e-05
-0.000347593830021
-5.05296123378e-05
-0.00030268247732
-4.4933536498e-05
-0.000262994038381
-3.97493797863e-05
-0.000228046881851
-3.49700552631e-05
-0.000197482690535
-3.06207475795e-05
-0.000170833284308
-2.66728692111e-05
-0.000147751498678
-2.31345585711e-05
-0.000127804784581
-1.99706669785e-05
-0.000110676226404
-1.71779886849e-05
-9.59860132663e-05
-1.47144434419e-05
-8.34655537021e-05
-1.25668154362e-05
-7.27998037334e-05
-1.06898005612e-05
-6.37785337918e-05
-9.06459654767e-06
-5.61608760846e-05
-7.64124000844e-06
-4.98219216754e-05
-6.3794099848e-06
-4.47037469157e-05
-5.14091616362e-06
-4.06149455172e-05
-4.12700715433e-06
-3.69036147158e-05
-3.73683590735e-06
-3.35486094632e-05
-3.39548299279e-06
-3.06561436593e-05
-2.92577293371e-06
-2.78134888216e-05
-2.89124642326e-06
-2.47112011925e-05
-3.1499932688e-06
-2.15296212318e-05
-3.24518091831e-06
-1.82480540906e-05
-3.34907198731e-06
-1.45052263724e-05
-3.82191080265e-06
-1.00301394379e-05
-4.5653822002e-06
-4.88800065262e-06
-5.24691227121e-06
-4.94113111975e-06
-0.000210469077788
0.000409540462309
-0.000433452436892
0.00043147705755
-0.000654221744287
0.000427854063006
-0.000871505681166
0.000421349089977
-0.00108431873165
0.000412777761493
-0.00129168429774
0.000402326009012
-0.00149276099032
0.000390174515402
-0.00168675159419
0.000376538178696
-0.00187303365048
0.000361619442723
-0.00205102474051
0.000345644689428
-0.00222032871796
0.000328809517574
-0.00238056802339
0.000311325798141
-0.00253155000832
0.000293360448127
-0.00267307012131
0.000275093745039
-0.00280510080803
0.000256651925983
-0.00292756881463
0.000238176467118
-0.00304056833185
0.000219750160099
-0.00314411499123
0.000201476427695
-0.00323838391474
0.000183398218635
-0.00332344228608
0.000165586379364
-0.00339951199475
0.000148050912836
-0.00346668209764
0.000130837509531
-0.00352519500373
0.000113930948033
-0.00357513994881
9.73591746452e-05
-0.00361676121603
8.10890141126e-05
-0.00365013375656
6.51372890785e-05
-0.00367549165878
4.94591949709e-05
-0.00369288732906
3.40661022413e-05
-0.00370253828694
1.89071930735e-05
-0.00370447152593
3.99347559327e-06
-0.00369888688267
-1.07266339239e-05
-0.00368578903109
-2.52375326201e-05
-0.0036653643674
-3.95862761463e-05
-0.00363760268076
-5.37477417453e-05
-0.00360268594111
-6.77591979528e-05
-0.00356060234201
-8.15813543762e-05
-0.00351154364173
-9.52370163154e-05
-0.00345551407441
-0.000108669178955
-0.00339273274598
-0.000121883148875
-0.00332323990782
-0.000134802925754
-0.00324730043352
-0.000147415955898
-0.00316500991874
-0.000159628979146
-0.00307669498888
-0.00017141417314
-0.00298252219296
-0.00018266517994
-0.00288289141726
-0.000193342710013
-0.0027780515398
-0.000203331063266
-0.0026684841469
-0.00021258087504
-0.00255453118731
-0.000220966552018
-0.0024367670239
-0.000228424507675
-0.00231564320418
-0.000234813636702
-0.00219184538663
-0.00024004986237
-0.0020659570864
-0.000243974730756
-0.00193879342333
-0.000246489778115
-0.00181107980617
-0.000247439343785
-0.0016837502695
-0.000246745757011
-0.00155763616645
-0.000244305245573
-0.00143372352267
-0.000240114348285
-0.00131285815716
-0.000234167767089
-0.00119596957134
-0.000226566317443
-0.00108380364765
-0.000217415535754
-0.00097712065406
-0.000206917107419
-0.000876464053208
-0.000195267984886
-0.000782346632488
-0.000182729777849
-0.000695055879887
-0.000169545997784
-0.000614815720038
-0.000156013961924
-0.00054162121922
-0.000142403978914
-0.000475394531203
-0.000129005543206
-0.000415863476146
-0.000116044519851
-0.000362719213167
-0.000103724795429
-0.000315526328997
-9.21661462726e-05
-0.00027386653359
-8.14572406879e-05
-0.000237257821177
-7.16170012265e-05
-0.000205269429518
-6.26546033029e-05
-0.000177437682435
-5.45415811953e-05
-0.000153354260898
-4.72612601847e-05
-0.000132589163485
-4.07715980114e-05
-0.000114770791337
-3.50376580167e-05
-9.95219947043e-05
-2.99979378513e-05
-8.65286400776e-05
-2.55995121756e-05
-7.54793670141e-05
-2.1772480266e-05
-6.61207258193e-05
-1.84605473304e-05
-5.81980369879e-05
-1.55960707102e-05
-5.148758853e-05
-1.31251036973e-05
-4.56770401331e-05
-1.09820449337e-05
-4.05944084537e-05
-9.24248260886e-06
-3.61886727274e-05
-8.17378936774e-06
-3.26425518842e-05
-6.97775463182e-06
-2.97118517936e-05
-5.89363508203e-06
-2.70267538348e-05
-5.61972716554e-06
-2.42960747381e-05
-5.93104236573e-06
-2.1255844039e-05
-6.34601855805e-06
-1.79851731115e-05
-6.68596573028e-06
-1.44440383805e-05
-7.43967312992e-06
-1.0254392951e-05
-8.84514084713e-06
-5.07045561388e-06
-1.05277113474e-05
-1.00580221845e-05
-0.000213331304624
0.000622944838229
-0.00043860920831
0.000656832804636
-0.000661848189953
0.000651170273414
-0.000881531126623
0.00064111053791
-0.00109657804293
0.000627900980736
-0.00130599249534
0.00061181873872
-0.00150889404686
0.00059315135433
-0.00170449707286
0.00057221895794
-0.00189215289038
0.000549349304342
-0.00207130973753
0.000524878428513
-0.00224155311257
0.00049912534747
-0.00240255073292
0.000472399112594
-0.00255409472096
0.000444975002002
-0.00269603532956
0.000417108496261
-0.00282832814288
0.000389013037786
-0.00295095973284
0.000360880276547
-0.00306400226654
0.000332858383235
-0.00316753325556
0.000305077296555
-0.00326169872381
0.000277626324116
-0.0033466282381
0.000250582997713
-0.00342250695862
0.00022398882747
-0.00348948639844
0.000197880807599
-0.00354776490194
0.000172264723362
-0.00359749426006
0.00014714868498
-0.00363886801673
0.000122513732892
-0.00367202397522
9.83492306518e-05
-0.00369713949877
7.46209243748e-05
-0.00371433011922
5.13081210533e-05
-0.0037237512306
2.83694390896e-05
-0.00372549320597
5.78187272297e-06
-0.00371968875635
-1.64953772174e-05
-0.00370640518613
-3.84799842973e-05
-0.00368575702949
-6.0204360717e-05
-0.0036577961737
-8.16730722479e-05
-0.00362262892919
-0.000102902239015
-0.00358030481942
-0.000123875737258
-0.0035309372765
-0.000144586293336
-0.00347459157327
-0.000164991110936
-0.00341140764217
-0.000185054837237
-0.00334148735453
-0.00020470546932
-0.00326501769285
-0.00022387934697
-0.00318215725555
-0.000242477781652
-0.00309315763427
-0.000260413555359
-0.00299824935884
-0.000277568056419
-0.00289776011695
-0.000293837825756
-0.00279200143895
-0.000309090862495
-0.00268138373123
-0.000323210882126
-0.00256630689653
-0.000336051440243
-0.00244727392162
-0.000347476566397
-0.00232478930727
-0.000357313759362
-0.00219947172026
-0.00036539373644
-0.00207196060018
-0.000371509140749
-0.00194302196768
-0.000375461942609
-0.00181345442226
-0.00037703782481
-0.00168417353116
-0.00037606694801
-0.00155610490782
-0.000372411690777
-0.00143024023245
-0.0003660251421
-0.00130752518999
-0.00035692636286
-0.00118890166099
-0.000345240391287
-0.00107520477526
-0.000331160018535
-0.000967197288482
-0.000314977616174
-0.000865483318822
-0.000297031602127
-0.000770565147631
-0.000277701375785
-0.000682777283677
-0.000257383345202
-0.000602321721412
-0.000236521493871
-0.000529206427763
-0.000215567152091
-0.000463296336245
-0.000194965268376
-0.000404292700856
-0.00017509397627
-0.000351809319882
-0.000156255335659
-0.000305375021648
-0.000138644098913
-0.000264507232607
-0.000122369743967
-0.000228708208143
-0.000107457639639
-0.000197512795183
-9.38925614737e-05
-0.000170462182724
-8.16321721358e-05
-0.00014712622076
-7.0638000612e-05
-0.00012707733207
-6.08589477329e-05
-0.000109921637366
-5.22323962872e-05
-9.52858098032e-05
-4.46707326724e-05
-8.28419395772e-05
-3.80807548044e-05
-7.22877188804e-05
-3.23620964333e-05
-6.33616735862e-05
-2.74222462232e-05
-5.58199482285e-05
-2.31716703843e-05
-4.94417257659e-05
-1.95374173075e-05
-4.39872497638e-05
-1.64683351978e-05
-3.93235102538e-05
-1.39383594452e-05
-3.5288925687e-05
-1.22416317575e-05
-3.15384635359e-05
-1.07647056062e-05
-2.80320098399e-05
-9.43821172832e-06
-2.52171994074e-05
-8.47767119297e-06
-2.29394835988e-05
-8.25951172181e-06
-1.99686949315e-05
-9.37591338495e-06
-1.63660058699e-05
-1.03549935281e-05
-1.25943394874e-05
-1.12861078709e-05
-8.43442403163e-06
-1.30846469007e-05
-4.33416237422e-06
-1.47101527509e-05
-1.44346345428e-05
-0.000216764432662
0.000839782861691
-0.000445411096121
0.000885558414303
-0.000671941012129
0.000877778080862
-0.000894740917447
0.000863988844677
-0.00111266176556
0.000845899267883
-0.00132466667994
0.000823901405411
-0.00152984076611
0.000798402167932
-0.0017273908068
0.000769845980134
-0.00191665902028
0.000738693208891
-0.00209711074016
0.000705406057136
-0.00226834048888
0.000670429436096
-0.00243004988055
0.000634183011105
-0.00258204987526
0.000597047630171
-0.00272423302349
0.000559364401936
-0.00285657581697
0.000521426423682
-0.00297910873437
0.00048348383217
-0.00309192139631
0.000445739191179
-0.00319513251269
0.000408356524782
-0.00328889920071
0.000371458318526
-0.00337338769612
0.00033513664923
-0.00344878706542
0.0002994502051
-0.00351528069237
0.000264436184489
-0.00357306404406
0.000230106365567
-0.00362231660043
0.000196459142458
-0.00366322308642
0.000163474337312
-0.00369594545429
0.000131125220791
-0.00372064708139
9.93721183418e-05
-0.00373746459924
6.81745934361e-05
-0.00374653469322
3.74841645401e-05
-0.00374796578899
7.2569032889e-06
-0.00374186728673
-2.25544783813e-05
-0.00372832135686
-5.19872994942e-05
-0.00370741467649
-8.10771558848e-05
-0.00367921064083
-0.00010984406317
-0.00364378354874
-0.000138301142037
-0.00360119155965
-0.000166440428697
-0.00355151308869
-0.000194242423697
-0.00349482044654
-0.000221662319529
-0.00343121769915
-0.000248641142282
-0.00336081440288
-0.00027509326279
-0.00328376352834
-0.000300919753043
-0.00320023413221
-0.000325997714603
-0.00311044757948
-0.000350195733937
-0.00301464808914
-0.000373364351359
-0.00291313608689
-0.000395351863658
-0.00280623693686
-0.000415993515613
-0.0026943324387
-0.000435124311334
-0.00257783099215
-0.000452563687959
-0.00245720133829
-0.000468122702269
-0.00233294968618
-0.000481584109704
-0.00220566006533
-0.000492707801983
-0.00207598027856
-0.000501215740247
-0.0019446639168
-0.000506810621839
-0.00181255206978
-0.000509184184873
-0.001680594613
-0.000508063857858
-0.00154980337412
-0.000503244329974
-0.00142123780563
-0.00049463627979
-0.00129594502895
-0.000482266193966
-0.00117493759471
-0.000466297835789
-0.001059143636
-0.000447004637598
-0.000949373209719
-0.000424800427297
-0.000846273724863
-0.000400183322627
-0.000750368384231
-0.00037365948776
-0.000662033874748
-0.000345769278106
-0.000581478907613
-0.000317127555858
-0.000508701738953
-0.000288393606541
-0.000443504327552
-0.000260211321504
-0.00038551232148
-0.000233132950402
-0.000334237476895
-0.000207576336062
-0.000289123681635
-0.000183802514373
-0.000249607947435
-0.000161929241945
-0.000215149659511
-0.000141958330271
-0.000185256295668
-0.000123827769536
-0.000159467813638
-0.000107461445111
-0.000137342460971
-9.28036761559e-05
-0.000118440939107
-7.97995208187e-05
-0.000102347663002
-6.83641801514e-05
-8.86819681828e-05
-5.83738588492e-05
-7.71097954715e-05
-4.96897474204e-05
-6.73349535747e-05
-4.2172759453e-05
-5.9100435198e-05
-3.5691908802e-05
-5.21779186531e-05
-3.01284505328e-05
-4.63628777842e-05
-2.53858783116e-05
-4.14142139211e-05
-2.14493164766e-05
-3.7191932664e-05
-1.81927532423e-05
-3.32815397389e-05
-1.61867567145e-05
-2.96391049919e-05
-1.44445890355e-05
-2.64337603777e-05
-1.26832660175e-05
-2.32228378793e-05
-1.17321585392e-05
-1.9927762113e-05
-1.16032343734e-05
-1.7472606074e-05
-1.18871846019e-05
-1.40738665063e-05
-1.38183203697e-05
-1.00689211221e-05
-1.53590146023e-05
-6.66374235253e-06
-1.65601251657e-05
-3.47531860956e-06
-1.79718753602e-05
-1.79468794816e-05
-0.000221347654304
0.00106120471094
-0.000454683132218
0.001118971736
-0.000685724936935
0.0011088987912
-0.000912767263593
0.00109110957983
-0.00113458430003
0.00106779448381
-0.00135008369072
0.00103947870142
-0.0015583114577
0.00100670734624
-0.0017584582529
0.000970069890645
-0.00194986381008
0.000930175192129
-0.00213201038366
0.000887628635711
-0.00230451693398
0.000843011101576
-0.00246712351755
0.000796864154415
-0.00261968006429
0.000749677656582
-0.00276212691417
0.000701884020157
-0.00289448290553
0.000653853889956
-0.00301682607661
0.000605897606329
-0.00312928414824
0.000558266358177
-0.00323201753457
0.000511157945796
-0.00332521345532
0.000464720525678
-0.0034090718122
0.000419060044299
-0.00348380293124
0.000374244382479
-0.00354961593718
0.000330310794469
-0.00360671948088
0.000287269289845
-0.00365531192613
0.000245109327032
-0.00369558435369
0.000203802065088
-0.00372771193089
0.000163306266255
-0.00375185859974
0.000123569604394
-0.00376816924812
8.45340700406e-05
-0.00377677581538
4.61367381882e-05
-0.00377779018794
8.31513737541e-06
-0.00377131166855
-2.89921241499e-05
-0.00375742084016
-6.58395182072e-05
-0.00373618871676
-0.000102273773976
-0.00370767188355
-0.000138327766293
-0.00367192359125
-0.000174019505728
-0.00362899054794
-0.000209345982976
-0.00357892604562
-0.000244282685015
-0.0035217883103
-0.00027877831496
-0.00345765507463
-0.000312755930364
-0.00338662261319
-0.00034610983358
-0.00330882029884
-0.00037870953013
-0.00322440848764
-0.000410399685068
-0.00313359076622
-0.00044100713064
-0.00303660855338
-0.000470343174938
-0.00293374927093
-0.000498211551861
-0.00282533710645
-0.000524409404799
-0.00271173830575
-0.000548731044801
-0.00259335202523
-0.000570961677961
-0.00247061943282
-0.000590871494388
-0.00234402408453
-0.000608199721133
-0.00221411449833
-0.000622642152123
-0.00208152096415
-0.000633838044608
-0.00194698939342
-0.000641375077382
-0.00181139706716
-0.000644813053419
-0.00167576088876
-0.000643740378186
-0.00154120372213
-0.00063784491171
-0.00140890118618
-0.00062698571021
-0.00128003271474
-0.000611183244905
-0.0011557256151
-0.000590656250017
-0.00103703665261
-0.000565745246381
-0.000924856197509
-0.000537033975069
-0.000819854408889
-0.000505238250636
-0.000722592247434
-0.000470974694972
-0.000633512480605
-0.00043490103829
-0.000552861833212
-0.000397829192683
-0.000480620750648
-0.000360684086445
-0.000416503406906
-0.000324377156892
-0.000360005439104
-0.000289677748717
-0.000310487610707
-0.000257140286162
-0.000267254074784
-0.000227080379301
-0.000229629506197
-0.000199597501589
-0.00019700882482
-0.000174621383638
-0.000168881326713
-0.000151997122993
-0.000144799584252
-0.000131584459796
-0.0001243213992
-0.000113322241078
-0.000106981931159
-9.71782523561e-05
-9.23309273674e-05
-8.30535672129e-05
-7.99715170546e-05
-7.07707889836e-05
-6.9568039412e-05
-6.01300202345e-05
-6.08320429144e-05
-5.09446155181e-05
-5.3519761903e-05
-4.30392254943e-05
-4.74282501403e-05
-3.62540919897e-05
-4.240120246e-05
-3.04464133357e-05
-3.83574831279e-05
-2.55253961903e-05
-3.47050874679e-05
-2.18784185814e-05
-3.1251654062e-05
-1.96763059441e-05
-2.78498190774e-05
-1.788485321e-05
-2.39853719183e-05
-1.6588151249e-05
-2.04057054255e-05
-1.53552914357e-05
-1.70753585403e-05
-1.49824233298e-05
-1.43295326118e-05
-1.46857353473e-05
-1.19061788825e-05
-1.63016500699e-05
-8.46857902523e-06
-1.88614883194e-05
-5.25618717689e-06
-1.98348937093e-05
-2.68013316633e-06
-2.06103470354e-05
-2.06591428979e-05
-0.000227225277088
0.00128850444174
-0.000466634254846
0.00135846053374
-0.000703500579173
0.0013458440415
-0.000935995040786
0.00132368314417
-0.00116279725297
0.00129467526607
-0.0013827433384
0.00125950315288
-0.0015948332297
0.00121887516507
-0.00179823780622
0.00117355200961
-0.00199229955234
0.00112431391281
-0.00217652449532
0.00107193000837
-0.00235056998848
0.00101713229109
-0.00251422704813
0.000960596201481
-0.00266740224068
0.000902926919039
-0.00281009715128
0.00084465212695
-0.00294239036604
0.000786219194837
-0.00306441883787
0.000727997108695
-0.00317636337764
0.000670280610331
-0.00327843404067
0.000613297069216
-0.00337086013862
0.000557213551499
-0.00345387977562
0.000502145148702
-0.00352773387575
0.000448162189312
-0.00359265899748
0.00039529796186
-0.00364888433459
0.000343554698219
-0.00369662673233
0.000292909935682
-0.00373608964028
0.000243320998717
-0.00376745945682
0.000194730073631
-0.00379090574386
0.000147067514668
-0.00380657839758
0.000100256149784
-0.00381460880596
5.42140348021e-05
-0.00381510775143
8.85863973915e-06
-0.00380816758438
-3.58904174997e-05
-0.00379386119487
-8.01064843536e-05
-0.00377224567651
-0.000123852677422
-0.003743362819
-0.000167176539665
-0.00370724488123
-0.000210106254632
-0.00366391721526
-0.000252645050432
-0.00361340649226
-0.000294767779392
-0.00355574553659
-0.000336416275673
-0.00349098361337
-0.0003774979062
-0.00341919247743
-0.000417883746687
-0.00334047695332
-0.00045741103688
-0.00325497968094
-0.000495885862706
-0.00316288876863
-0.000533090440492
-0.00306443773127
-0.000568789903082
-0.00295990694547
-0.000602741976271
-0.00284961686224
-0.000634702965456
-0.00273392380555
-0.000664432081786
-0.00261321099647
-0.000691686673577
-0.00248788858191
-0.000716210917979
-0.00235839745351
-0.00073771209549
-0.00222523231559
-0.000755833245218
-0.00208897590409
-0.000770124256115
-0.00195035134484
-0.000780033748523
-0.00181026732584
-0.000784934839705
-0.00166983888819
-0.000784210195297
-0.00153034944736
-0.000777379709678
-0.00139313952834
-0.000764242884531
-0.00125957484652
-0.000744798880098
-0.00113092618584
-0.000719355872294
-0.00100846123876
-0.000688262781705
-0.000893185111933
-0.000652362894295
-0.000785718162498
-0.00061275874808
-0.000686666300822
-0.000570079627201
-0.000596605401335
-0.000525013807857
-0.000515879522381
-0.000478605631491
-0.000444453270015
-0.000432159596439
-0.000381905946834
-0.000386972037391
-0.000327527543611
-0.000344103160024
-0.000280448174785
-0.000304264634551
-0.000239762317466
-0.000267810773664
-0.000204630687349
-0.000234772127518
-0.000174364783902
-0.000204929754175
-0.000148459543896
-0.000177944474249
-0.000126528983332
-0.000153556590289
-0.000108156020864
-0.000131735987251
-9.28228801087e-05
-0.000112550670146
-8.00102151689e-05
-9.59045667823e-05
-6.92950018362e-05
-8.15237321772e-05
-6.03491810586e-05
-6.91126761007e-05
-5.28961267243e-05
-5.84337512483e-05
-4.67066875907e-05
-4.92637880859e-05
-4.15925914737e-05
-4.14023879783e-05
-3.73978403946e-05
-3.46745956386e-05
-3.39890355033e-05
-2.89668698096e-05
-3.06184856899e-05
-2.52828416006e-05
-2.73688400471e-05
-2.29620489775e-05
-2.44381893459e-05
-2.08537339174e-05
-2.17201700171e-05
-1.93476240328e-05
-1.84826464386e-05
-1.86388672049e-05
-1.50795314589e-05
-1.8434509635e-05
-1.15295182449e-05
-1.82864726567e-05
-9.16494935423e-06
-1.87202919099e-05
-7.12062762988e-06
-2.09630818171e-05
-4.41285948503e-06
-2.25993762875e-05
-2.22430759314e-06
-2.28549307665e-05
-2.29117558123e-05
-0.000234542502642
0.00152312214081
-0.000481526390756
0.00160552306828
-0.000725637860091
0.00159003551476
-0.000964888538749
0.00156301316071
-0.00119783578101
0.00152770177188
-0.00142322719934
0.00148497342901
-0.00164000823365
0.00143573472261
-0.00184732959384
0.00138095145281
-0.00204454388071
0.001321605775
-0.00223119314984
0.00125865626619
-0.00240699011014
0.00119300556163
-0.00257179495802
0.0011254766062
-0.00272559076924
0.00105679743878
-0.0028684586991
0.000987593830008
-0.00300055511944
0.000918388354265
-0.00312209088137
0.000849604481219
-0.0032333139275
0.000781574038313
-0.00333449457303
0.000714546759125
-0.00342591409387
0.00064870067871
-0.003507855478
0.000584152590777
-0.00358059677923
0.000520967905298
-0.00364440578372
0.000459169621242
-0.00369953647883
0.000398746202771
-0.0037462260737
0.000339658384966
-0.00378469321499
0.000281844968679
-0.00381513622979
0.00022522778058
-0.00383773220579
0.000169715991144
-0.0038526358442
0.000115209995391
-0.00385997905897
6.16051282487e-05
-0.00385987036385
8.79538699567e-06
-0.00385239511567
-4.33226793376e-05
-0.00383761592737
-9.48452396168e-05
-0.00381557425867
-0.000145856457205
-0.00378629256413
-0.000196422993426
-0.0037497781899
-0.000246588000822
-0.0037060282669
-0.000296365066387
-0.00365503666203
-0.00034573214706
-0.00359680206455
-0.000394626452597
-0.0035313378429
-0.000442940483339
-0.0034586823685
-0.000490520566181
-0.00337890974152
-0.000537168015047
-0.00329213904739
-0.000582644238939
-0.00319854140052
-0.000626679210856
-0.00309834261704
-0.000668983687156
-0.00299182091126
-0.000709262789821
-0.00287929836164
-0.000747229171817
-0.00276112779613
-0.000782610831941
-0.00263767755277
-0.000815150035709
-0.00250931984877
-0.000844586208617
-0.00237643189906
-0.000870622463441
-0.00223941871456
-0.000892872811517
-0.0020987687014
-0.000910805078302
-0.00195513915254
-0.000923697823479
-0.00180945543638
-0.000930656765059
-0.00166296931408
-0.000930739010757
-0.00151721349756
-0.000923180132547
-0.00137374961482
-0.000907756657777
-0.00123420890829
-0.000884388505307
-0.00109999270273
-0.000853624188801
-0.000972764063904
-0.000815542495476
-0.000853722462417
-0.000771456990979
-0.000743177121026
-0.000723356897688
-0.000641786279029
-0.000671523082066
-0.000550424616599
-0.000616426686033
-0.000469662855756
-0.000559417489966
-0.00039945765721
-0.000502412582187
-0.000339169163539
-0.000447308107991
-0.000287756032634
-0.000395561422472
-0.000244002492109
-0.000348063456317
-0.000206688285517
-0.00030516813624
-0.000174735840055
-0.000266767507434
-0.000147343646412
-0.000232364309218
-0.000124069751913
-0.00020126040227
-0.000104713811537
-0.000172955032321
-8.8945997143e-05
-0.000147544633923
-7.61244674557e-05
-0.000125411496281
-6.55745369997e-05
-0.000106492960038
-5.683802627e-05
-9.02981523304e-05
-4.96278335e-05
-7.63601981594e-05
-4.36880439761e-05
-6.4410015525e-05
-3.88112881233e-05
-5.417592632e-05
-3.48316727953e-05
-4.54164837681e-05
-3.15992016648e-05
-3.79406372654e-05
-2.89844471341e-05
-3.16148735525e-05
-2.62213317262e-05
-2.80805691101e-05
-2.37234190628e-05
-2.54969075104e-05
-2.0990085492e-05
-2.36263656696e-05
-1.82876338984e-05
-2.2092385295e-05
-1.54198219749e-05
-2.15524293531e-05
-1.28537562652e-05
-2.10483132988e-05
-9.88885350288e-06
-2.13012162238e-05
-7.07256970461e-06
-2.15865529266e-05
-5.63489772697e-06
-2.24517043072e-05
-3.66618321178e-06
-2.46198234646e-05
-1.84341849629e-06
-2.47280602048e-05
-2.47812058936e-05
-0.000243474866169
0.00176667247707
-0.000499697090095
0.0018618263679
-0.000752621967173
0.0018430404217
-0.00100005250934
0.00181052397168
-0.00124039332428
0.00176812232945
-0.00147228303574
0.00171694267931
-0.00169460515886
0.00165813599131
-0.00190649301688
0.00159291805872
-0.00210732138026
0.00152251237855
-0.00229668665242
0.00144809921116
-0.00247437961566
0.00137077552676
-0.0026403539105
0.0012915271651
-0.00279469364019
0.00121121258218
-0.00293758221569
0.0011305569048
-0.00306927444323
0.00105015404094
-0.00319007242578
0.000970474816417
-0.00330030600784
0.000891878727382
-0.00340031719613
0.000814627747715
-0.00349044859507
0.000738900422731
-0.00357103475305
0.000664805581823
-0.00364239632237
0.000592394641922
-0.00370483583735
0.000521672596188
-0.00375863519099
0.00045260715461
-0.00380405369615
0.000385136599375
-0.00384132708489
0.000319176023625
-0.00387066643123
0.000254622746593
-0.00389225762398
0.000191360602638
-0.0039062604278
0.000129264033271
-0.00391280803454
6.82016300081e-05
-0.00391200619961
8.04014801848e-06
-0.00390393309194
-5.13516532476e-05
-0.00388863916837
-0.000110097421294
-0.00386614829939
-0.000168308143018
-0.00383645940314
-0.000226075163058
-0.00379955029337
-0.000283463024411
-0.00375538262105
-0.000340501174427
-0.00370390977338
-0.000397176177654
-0.00364508615245
-0.000453423888061
-0.00357887950822
-0.000509123883046
-0.00350528386771
-0.000564095844715
-0.00342433411777
-0.000618100727197
-0.00333611850106
-0.000670846179353
-0.00324078921962
-0.00072199878277
-0.0031385662468
-0.00077120107988
-0.00302973437968
-0.000818093838303
-0.00291462918678
-0.000862338120496
-0.00279361502964
-0.000903633957681
-0.00266705413111
-0.000941724293651
-0.00253527952628
-0.000976379279856
-0.00239857851278
-0.00100734572918
-0.00225721371561
-0.00103426444704
-0.00211149525254
-0.00105655386546
-0.00196192652003
-0.00107330056271
-0.00180940191497
-0.00108321967737
-0.00165536065445
-0.0010848206672
-0.00150178064308
-0.00107680723157
-0.00135046355466
-0.00105911939789
-0.00120349501982
-0.00103140792646
-0.00106215291309
-0.000995014942338
-0.000929022893533
-0.000948721816535
-0.000805740786446
-0.00089478844292
-0.000691451202746
-0.00083769926625
-0.000586918050746
-0.000776107024259
-0.000493740101042
-0.000709656325782
-0.00041299007947
-0.000640215447519
-0.000344619529417
-0.00057083186263
-0.000287590481659
-0.000504381906189
-0.000240326791117
-0.000442871494697
-0.000201087910269
-0.000387345213961
-0.00016820082354
-0.000338098766833
-0.000140220872623
-0.000294789707767
-0.00011617322284
-0.000256454268278
-9.57900388478e-05
-0.000221686931271
-7.93535794753e-05
-0.000189434090583
-6.67856634273e-05
-0.000160154128191
-5.71159170126e-05
-0.000135120750186
-4.92965659477e-05
-0.000114351054104
-4.28463092819e-05
-9.67871310983e-05
-3.76262671133e-05
-8.16183539049e-05
-3.34083941999e-05
-6.86651083602e-05
-3.00135408882e-05
-5.76069906471e-05
-2.73154218788e-05
-4.81494584308e-05
-2.515686893e-05
-4.01334085301e-05
-2.32734269848e-05
-3.35322809856e-05
-2.13831292053e-05
-3.00067335511e-05
-1.96108630193e-05
-2.73071006202e-05
-1.76353692741e-05
-2.56425480439e-05
-1.52028284596e-05
-2.45682825682e-05
-1.28252959463e-05
-2.39752573748e-05
-1.02198747342e-05
-2.37006906531e-05
-8.29573713033e-06
-2.32731314241e-05
-6.08067946883e-06
-2.38496009796e-05
-4.32920959885e-06
-2.42501604028e-05
-3.10223834344e-06
-2.58946179142e-05
-1.52168222245e-06
-2.63557134806e-05
-2.63266761542e-05
-0.000254242137823
0.002020991076
-0.000521584934754
0.00212924896195
-0.000785078907947
0.00210661575921
-0.00104226538738
0.00206779109252
-0.00129135620127
0.00201729377144
-0.00153085968176
0.00195652638469
-0.00175959106886
0.00188694730805
-0.00197667437646
0.00181008087145
-0.00218152555013
0.0017274425862
-0.00237382202737
0.00164047415179
-0.00255346352712
0.0015504948485
-0.00272052914587
0.00145866986181
-0.00287523476099
0.0013659944598
-0.00301789387116
0.00127329134523
-0.00314888363218
0.00118121812953
-0.00326861709874
0.00109028147776
-0.00337752152983
0.00100085515321
-0.00347602245571
0.000913199325993
-0.0035645324107
0.000827479626354
-0.00364344364036
0.000743784510173
-0.00371312351859
0.000662140618585
-0.00377391215409
0.000582525582461
-0.00382612111939
0.000504878687798
-0.00387003312872
0.000429109251094
-0.00390590184107
0.000355103436575
-0.00393395191744
0.000282729441524
-0.00395437867597
0.000211841900254
-0.0039673477148
0.000142285396668