/*--------------------------------*- C++ -*----------------------------------*\
| =========                 |                                                 |
| \\      /  F ield         | OpenFOAM: The Open Source CFD Toolbox           |
|  \\    /   O peration     | Version:  v1906                                 |
|   \\  /    A nd           | Web:      www.OpenFOAM.com                      |
|    \\/     M anipulation  |                                                 |
\*---------------------------------------------------------------------------*/
FoamFile
{
    version     2.0;
    format      ascii;
    class       volScalarField;
    location    "152";
    object      alpha;
}
// * * * * * * * * * * * * * * * * * * * * * * * * * * * * * * * * * * * * * //

dimensions      [0 0 -1 0 0 0 0];


internalField   nonuniform List<scalar> 
9216
(
149.105803492
199.999934055
199.99993912
199.99993912
199.99993912
199.999943293
199.999943293
199.999943293
199.999943293
199.999943293
199.999939191
199.999930804
199.999931896
199.99992208
199.99992208
199.99992208
199.999930804
199.999937871
199.999937871
199.999937871
199.999937871
199.999922269
199.999918837
199.999918837
199.999918837
199.999918837
199.999906807
199.999901349
199.999896753
199.999887804
199.999885326
199.99985868
199.99986702
199.999893569
199.999895991
199.999909968
199.999910766
199.999910766
199.999910766
199.999910766
199.999910766
199.999902533
199.999888111
199.999886764
199.999897469
199.999897469
199.999897469
199.999897469
199.999897469
199.999896802
199.999900102
199.999903582
199.999907427
199.999910766
199.999910766
199.99990852
199.999900943
199.999891209
199.999875222
199.999851835
199.999831343
199.999812926
199.999798771
199.999781516
199.999749234
199.999701793
199.999657952
199.999643302
199.999593361
199.999530412
199.999472533
199.999402356
199.999340922
199.999281341
199.999173805
199.998988753
199.998779666
199.998553236
199.998185883
199.997507612
199.995698341
199.977504605
198.91530822
182.590954659
165.448376574
152.08757788
137.946475448
117.624155209
93.4442931111
72.9937590074
54.7586903984
40.6592560289
29.5632733437
19.3782218069
11.6386744439
1.31212160877
199.999929908
199.99994286
199.999943293
199.999943293
199.999943293
199.999943293
199.999943293
199.99993912
199.99993912
199.99993912
199.99993912
199.99993912
199.999931268
199.999922544
199.999922544
199.999922544
199.999925736
199.999926116
199.999926116
199.999922294
199.999934484
199.999929332
199.99992148
199.999912938
199.999909512
199.999909512
199.999909512
199.999909512
199.999909365
199.999896215
199.999885444
199.999885444
199.999885444
199.999885444
199.999885444
199.999885444
199.999885444
199.99987575
199.99987575
199.999867025
199.999867025
199.999867025
199.999867025
199.99985225
199.99985225
199.99985225
199.99985225
199.99985225
199.99985225
199.99985225
199.99985225
199.99985225
199.99985225
199.999839644
199.999829731
199.999828352
199.999818387
199.999801554
199.99974972
199.999703869
199.999666909
199.999636267
199.999607536
199.999593902
199.999558964
199.999487223
199.999409139
199.999382365
199.999387844
199.999407498
199.999381684
199.999295457
199.999193375
199.999081832
199.998943055
199.998743552
199.99855855
199.998542669
199.998599091
199.998215381
199.997501322
199.994206939
199.96751963
196.019851823
180.958936672
165.63090642
152.022677156
130.4695613
110.353082096
85.9107888215
64.8441760188
51.9789540662
41.6501147894
26.6963292074
17.6601957778
14.1084386649
199.99993912
199.999943824
199.999942053
199.999944844
199.99993912
199.99993912
199.99993912
199.99993912
199.99993912
199.99993912
199.999934484
199.999934484
199.999934484
199.999934484
199.999912755
199.99992148
199.99992148
199.99992148
199.99992148
199.99992148
199.99992148
199.99992148
199.99992148
199.999909512
199.999909512
199.999898
199.99988749
199.999876719
199.999876719
199.999876719
199.999867025
199.999867025
199.99985225
199.99985225
199.99985225
199.99985225
199.99985225
199.99985225
199.99985225
199.99985225
199.99985225
199.99985225
199.999835834
199.999835834
199.999813314
199.999813314
199.999793047
199.999793047
199.999774806
199.999749785
199.999749785
199.999749785
199.999749785
199.999749785
199.999749785
199.999749785
199.999749785
199.999739673
199.999712157
199.999660204
199.99961274
199.999574837
199.999539628
199.999496723
199.999428074
199.999330986
199.999226421
199.999139954
199.999043029
199.9989065
199.998758644
199.998731871
199.998537119
199.99861162
199.998386076
199.998059419
199.997809108
199.997558467
199.997186088
199.996858846
199.996273109
199.989672181
199.908811179
193.20067973
178.803933977
162.716955286
142.007251132
131.624530483
117.072106904
88.9414752123
62.0384975287
56.4276273559
40.7930169623
31.3133176791
27.6520378847
18.494568873
199.999943293
199.999944844
199.999944844
199.999944844
199.99993912
199.99993912
199.99993912
199.99993912
199.999934484
199.999934484
199.999934484
199.999934484
199.999934484
199.99992148
199.99992148
199.99992148
199.99992148
199.99992148
199.99992148
199.99992148
199.99992148
199.999912755
199.999912755
199.999900788
199.99988749
199.999876719
199.999867025
199.999867025
199.99985225
199.99985225
199.99985225
199.99985225
199.99985225
199.99985225
199.99985225
199.99985225
199.999835834
199.999835834
199.999835834
199.999835834
199.999795074
199.999774806
199.999749785
199.999749785
199.999749785
199.999749785
199.999749785
199.999749785
199.999749785
199.999749785
199.999721983
199.999721983
199.999721983
199.999721983
199.999721983
199.999721983
199.999721983
199.999721983
199.999719458
199.999680832
199.999629169
199.999581992
199.999531063
199.999484728
199.999417957
199.999320554
199.999206864
199.999107899
199.999015028
199.998886582
199.998746301
199.998570301
199.998362068
199.998301204
199.997973085
199.997634147
199.997353359
199.997072122
199.99670066
199.996039711
199.990103913
199.892557645
196.063703507
185.27573611
173.176144638
155.893664965
140.560033639
130.649210464
109.7077576
94.8864143718
76.7029830052
53.4871153058
49.456568018
40.7023406544
34.3729167039
22.6113773027
199.999943293
199.999944844
199.999944844
199.999941951
199.99993912
199.99993912
199.99993912
199.999934484
199.999934484
199.999934484
199.999934484
199.999934484
199.99992148
199.99992148
199.99992148
199.99992148
199.99992148
199.99992148
199.99992148
199.999912755
199.999912755
199.999912755
199.999900788
199.99988749
199.999867025
199.999867025
199.99985225
199.99985225
199.99985225
199.99985225
199.99985225
199.99985225
199.999835834
199.999835834
199.999835834
199.999835834
199.999835834
199.999817593
199.999774806
199.999749785
199.999749785
199.999749785
199.999749785
199.999749785
199.999721983
199.999721983
199.999721983
199.999721983
199.999721983
199.999721983
199.999721983
199.999721983
199.999691092
199.999691092
199.999691092
199.999691092
199.999691092
199.999691092
199.999691092
199.999638586
199.999589955
199.999519151
199.999441607
199.999383273
199.999314502
199.999196374
199.999113993
199.999054647
199.998940743
199.998803359
199.998676329
199.99858263
199.99837305
199.998094627
199.997703386
199.997380722
199.99732959
199.99707545
199.996709164
199.99603527
199.989520687
199.888009713
195.513417646
180.565429116
164.595825904
146.886526892
131.695741473
123.353511954
118.470145205
97.1819785721
84.2585018417
63.628987714
49.2682233053
48.9896763335
45.1875058292
33.2172106797
199.999943293
199.999944844
199.999944844
199.99993912
199.99993912
199.99993912
199.999934484
199.999934484
199.999934484
199.999934484
199.999934484
199.999929332
199.99992148
199.99992148
199.99992148
199.99992148
199.99992148
199.999912755
199.999912755
199.999912755
199.999912755
199.999900788
199.99988749
199.999867025
199.99985225
199.99985225
199.99985225
199.99985225
199.99985225
199.99985225
199.999835834
199.999835834
199.999835834
199.999835834
199.999835834
199.999817593
199.999774806
199.999774806
199.999749785
199.999749785
199.999749785
199.999749785
199.999721983
199.999721983
199.999721983
199.999721983
199.999721983
199.999691092
199.999691092
199.999691092
199.999691092
199.999691092
199.999656769
199.999656769
199.999656769
199.999618633
199.999618633
199.999576258
199.999576258
199.999526374
199.999333392
199.999190649
199.999086973
199.999016689
199.998964375
199.998917179
199.998784721
199.998765478
199.998687858
199.998576221
199.998455269
199.998264386
199.998015219
199.997666659
199.99740534
199.99737549
199.997140923
199.996658006
199.996363168
199.995978573
199.989839418
199.763126393
189.049161851
178.049728411
162.82752799
146.426629546
138.978593475
123.668782525
106.609695925
90.0803149324
90.5123410813
78.6791889922
59.1438696247
55.745793459
55.0431573852
42.4741899077
199.999943293
199.999944844
199.999944844
199.99993912
199.99993912
199.999934484
199.999934484
199.999934484
199.999934484
199.999934484
199.999934484
199.99992148
199.99992148
199.99992148
199.999912755
199.999912755
199.999912755
199.999912755
199.999912755
199.999912755
199.999912755
199.99988749
199.999867025
199.99985225
199.99985225
199.99985225
199.99985225
199.99985225
199.999835834
199.999835834
199.999835834
199.999835834
199.999835834
199.999817593
199.999817593
199.999774806
199.999749785
199.999749785
199.999749785
199.999749785
199.999721983
199.999721983
199.999721983
199.999721983
199.999691092
199.999691092
199.999691092
199.999691092
199.999691092
199.999656769
199.999656769
199.999656769
199.999618633
199.999618633
199.999576258
199.999576258
199.999529176
199.999529176
199.999345612
199.99902896
199.998964375
199.998784721
199.998784721
199.998784721
199.99864969
199.99864969
199.99864969
199.99864969
199.998499655
199.998499251
199.998435607
199.998251876
199.99801591
199.99772828
199.99742717
199.997360092
199.996964984
199.996572509
199.99640906
199.995089775
199.969412592
199.344542873
184.335067985
171.86056282
159.460369903
145.82866314
134.592160358
123.848774964
106.279199239
99.6840579965
86.5001615677
86.8111371752
76.8599608547
64.5673886949
64.5513119761
51.4457173602
199.999943293
199.999944844
199.999944844
199.99993912
199.99993912
199.999940208
199.999940208
199.999934484
199.999934484
199.999934484
199.999926632
199.99992148
199.99992148
199.999912755
199.999912755
199.999912755
199.999912755
199.999912755
199.999912755
199.999912755
199.999900788
199.999876719
199.99985225
199.99985225
199.99985225
199.99985225
199.99985225
199.999835834
199.999835834
199.999835834
199.999835834
199.999835834
199.999817593
199.999817593
199.999774806
199.999749785
199.999749785
199.999749785
199.999721983
199.999721983
199.999721983
199.999721983
199.999721983
199.999691092
199.999691092
199.999691092
199.999691092
199.999656769
199.999656769
199.999656769
199.999618633
199.999618633
199.999576258
199.999576258
199.999529176
199.999529176
199.999476862
199.999052075
199.998906249
199.998784721
199.998784721
199.99864969
199.99864969
199.998499655
199.998499655
199.99833295
199.99833295
199.998147723
199.998147723
199.998147723
199.997941914
199.997939173
199.9977819
199.997533367
199.997235341
199.996972542
199.996776368
199.996451538
199.996325579
199.994266903
199.972372478
197.209199361
183.689555943
172.292532819
156.999132794
145.76685597
130.205617771
118.843977184
109.032665908
104.402316786
96.5925783105
86.8961112197
88.0208368004
72.7476040641
73.6168001446
60.5990298012
199.999945729
199.999944844
199.999944844
199.999944844
199.999940208
199.999940208
199.999940208
199.999934484
199.999934484
199.999934484
199.999926632
199.99992148
199.999912755
199.999912755
199.999912755
199.999912755
199.999912755
199.999912755
199.999912755
199.999912755
199.99988749
199.999867025
199.99985225
199.99985225
199.99985225
199.99985225
199.999835834
199.999835834
199.999835834
199.999835834
199.999835834
199.999817593
199.999817593
199.999774806
199.999749785
199.999749785
199.999749785
199.999721983
199.999721983
199.999721983
199.999721983
199.999691092
199.999691092
199.999691092
199.999691092
199.999656769
199.999656769
199.999656769
199.999618633
199.999618633
199.999576258
199.999576258
199.999529176
199.999529176
199.999476862
199.999308534
199.998906249
199.998784721
199.998784721
199.99864969
199.99864969
199.998499655
199.998499655
199.99833295
199.998147723
199.998147723
199.997941914
199.997941914
199.997713238
199.997713238
199.997713238
199.997459153
199.997459153
199.997333567
199.997059121
199.996793316
199.996459269
199.996469219
199.996037148
199.99175531
199.950883188
193.528087695
181.82918267
169.675839356
158.559908534
147.554876962
134.804642017
120.159230713
110.399387083
98.6657829503
102.774539094
97.0798468158
90.4822685749
85.3452385474
80.9868150704
68.7680001488
199.999949017
199.999944844
199.999944844
199.999944844
199.999940208
199.999940208
199.999940208
199.999934484
199.999934484
199.999934484
199.999926632
199.99992148
199.999912755
199.999912755
199.999912755
199.999912755
199.999912755
199.999912755
199.999912755
199.999900788
199.999867025
199.99985225
199.99985225
199.99985225
199.99985225
199.999835834
199.999835834
199.999835834
199.999835834
199.999835834
199.999817593
199.999797326
199.999774806
199.999749785
199.999749785
199.999749785
199.999721983
199.999721983
199.999721983
199.999721983
199.999691092
199.999691092
199.999691092
199.999691092
199.999656769
199.999656769
199.999618633
199.999618633
199.999576258
199.999576258
199.999576258
199.999529176
199.999529176
199.999476862
199.99915197
199.998906249
199.998784721
199.99864969
199.99864969
199.998499655
199.998499655
199.99833295
199.998147723
199.997941914
199.997941914
199.997713238
199.997713238
199.997459153
199.997459153
199.997176837
199.997176837
199.997176837
199.997176837
199.996863152
199.996755596
199.996610007
199.996413928
199.996416181
199.9958505
199.988797848
199.832275165
192.481638442
179.309039341
167.900273441
158.749545274
147.711352466
134.311155322
122.884417568
113.607791462
106.771435536
100.631249254
102.932669757
98.2622846442
95.9498791847
88.2171151163
77.8227989617
199.999949017
199.999944844
199.999944844
199.999944844
199.999940208
199.999940208
199.999940208
199.999934484
199.999934484
199.999926632
199.99992148
199.999912755
199.999912755
199.999912755
199.999912755
199.999912755
199.999912755
199.999912755
199.999912755
199.999877796
199.999867025
199.99985225
199.99985225
199.99985225
199.999835834
199.999835834
199.999835834
199.999835834
199.999817593
199.999817593
199.999817593
199.999774806
199.999774806
199.999749785
199.999749785
199.999721983
199.999721983
199.999721983
199.999691092
199.999691092
199.999691092
199.999691092
199.999656769
199.999656769
199.999656769
199.999618633
199.999618633
199.999576258
199.999576258
199.999529176
199.999529176
199.999476862
199.999476862
199.99915197
199.998784721
199.998784721
199.99864969
199.99864969
199.998499655
199.99833295
199.998147723
199.997941914
199.997941914
199.997713238
199.997459153
199.997459153
199.997176837
199.997176837
199.996863152
199.996863152
199.996863152
199.996514613
199.996514613
199.996514613
199.996514613
199.996514613
199.996447427
199.996117133
199.995292459
199.982543241
199.721568971
192.070786708
179.354964362
169.102048726
158.898135097
144.394636072
133.415796836
125.061405458
120.65323672
114.260831271
109.474731433
101.975742611
104.798410067
107.820791296
95.9961243334
84.7572804466
199.999949017
199.999944844
199.999944844
199.999944844
199.999940208
199.999940208
199.999940208
199.999934484
199.999934484
199.999926632
199.99992148
199.999912755
199.999912755
199.999912755
199.999912755
199.999912755
199.999912755
199.999912755
199.999903061
199.999867025
199.99985225
199.99985225
199.99985225
199.999835834
199.999835834
199.999835834
199.999835834
199.999817593
199.999817593
199.999817593
199.999774806
199.999774806
199.999749785
199.999749785
199.999721983
199.999721983
199.999721983
199.999691092
199.999691092
199.999691092
199.999691092
199.999656769
199.999656769
199.999656769
199.999618633
199.999618633
199.999576258
199.999576258
199.999529176
199.999529176
199.999476862
199.999476862
199.99915197
199.998784721
199.99864969
199.99864969
199.998499655
199.998499655
199.99833295
199.998147723
199.997941914
199.997713238
199.997459153
199.997459153
199.997176837
199.997176837
199.996863152
199.996514613
199.996514613
199.996514613
199.996127348
199.996127348
199.996127348
199.995697053
199.995697053
199.995697053
199.995697053
199.995670313
199.994181194
199.97588176
199.699255576
192.488546305
179.357890147
170.014111817
158.173718208
145.671211346
137.315526236
130.29845602
123.283527305
118.892023615
114.453404278
111.103488911
106.115563347
112.844002407
103.333664884
90.2438328106
199.999956084
199.999951911
199.999944844
199.999944844
199.999940208
199.999940208
199.999940208
199.999934484
199.999934484
199.999926632
199.99992148
199.999912755
199.999912755
199.999912755
199.999912755
199.999912755
199.999912755
199.999903061
199.999877796
199.999867025
199.99985225
199.99985225
199.99985225
199.999835834
199.999835834
199.999835834
199.999817593
199.999817593
199.999817593
199.999797326
199.999774806
199.999749785
199.999749785
199.999721983
199.999721983
199.999721983
199.999691092
199.999691092
199.999691092
199.999656769
199.999656769
199.999656769
199.999618633
199.999618633
199.999618633
199.999576258
199.999576258
199.999529176
199.999529176
199.999476862
199.999476862
199.999330142
199.998784721
199.99864969
199.99864969
199.998499655
199.99833295
199.998147723
199.998147723
199.997904828
199.997713238
199.997459153
199.997176837
199.996863152
199.996863152
199.996514613
199.996514613
199.996127348
199.996127348
199.995697053
199.995697053
199.995218948
199.995218948
199.995218948
199.995218948
199.995218948
199.995218948
199.994418202
199.992972999
199.984172725
199.794047326
189.29087779
178.752588623
171.299558985
158.737709224
150.447003712
142.172970373
134.16402497
127.085330687
122.634766664
118.043910142
114.688828655
112.792873787
115.989343106
109.722810873
95.4048304073
199.999956084
199.999951911
199.999951911
199.999944844
199.999940208
199.999940208
199.999940208
199.999934484
199.999934484
199.999926632
199.99992148
199.999912755
199.999912755
199.999912755
199.999912755
199.999912755
199.999903061
199.999903061
199.999867025
199.999867025
199.99985225
199.99985225
199.999835834
199.999835834
199.999835834
199.999817593
199.999817593
199.999817593
199.999797326
199.999774806
199.999749785
199.999749785
199.999721983
199.999721983
199.999721983
199.999691092
199.999691092
199.999691092
199.999656769
199.999656769
199.999656769
199.999618633
199.999618633
199.999576258
199.999576258
199.999576258
199.999529176
199.999529176
199.999476862
199.999476862
199.999418736
199.998784721
199.99864969
199.99864969
199.998499655
199.99833295
199.998147723
199.997941914
199.997713238
199.997459153
199.997176837
199.997176837
199.996863152
199.996514613
199.996514613
199.996127348
199.995697053
199.995697053
199.995218948
199.995218948
199.995218948
199.99468772
199.99468772
199.99468772
199.99468772
199.994097467
199.99390408
199.992911919
199.988666761
199.965309728
199.321495628
191.456546034
181.841727294
172.83225359
164.724498314
153.035737046
145.687113208
137.251833055
130.720749601
128.331725982
122.378508435
119.48440105
116.797022598
114.995892479
118.063886717
100.021812445
199.999956084
199.999951911
199.999951911
199.999951911
199.999940208
199.999940208
199.999940208
199.999934484
199.999934484
199.99992148
199.99992148
199.999912755
199.999912755
199.999912755
199.999912755
199.999903061
199.999903061
199.999891094
199.999867025
199.99985225
199.99985225
199.99985225
199.999835834
199.999835834
199.999817593
199.999817593
199.999817593
199.999797326
199.999774806
199.999774806
199.999749785
199.999749785
199.999721983
199.999721983
199.999691092
199.999691092
199.999691092
199.999656769
199.999656769
199.999656769
199.999618633
199.999618633
199.999576258
199.999576258
199.999529176
199.999529176
199.999529176
199.999476862
199.999476862
199.999418736
199.998784721
199.99864969
199.99864969
199.998499655
199.99833295
199.998147723
199.997941914
199.997713238
199.997459153
199.997176837
199.996863152
199.996514613
199.996127348
199.996127348
199.995697053
199.995218948
199.995218948
199.99468772
199.99468772
199.99468772
199.994097467
199.994097467
199.994097467
199.994097467
199.994097467
199.993214332
199.992505359
199.989661234
199.980651456
199.944790554
198.964332047
189.513082799
185.671096744
177.69934424
165.961302855
157.834752774
146.063508662
140.346722244
136.801322311
133.182398009
127.137125854
123.711579722
120.185790277
118.392839862
123.657432264
104.212265235
199.999956084
199.999958271
199.999951911
199.999951911
199.999947274
199.999940208
199.999940208
199.999940208
199.999926632
199.99992148
199.99992148
199.999912755
199.999912755
199.999912755
199.999912755
199.999903061
199.999903061
199.999880323
199.999867025
199.99985225
199.99985225
199.999835834
199.999835834
199.999835834
199.999817593
199.999817593
199.999797326
199.999774806
199.999774806
199.999749785
199.999749785
199.999721983
199.999721983
199.999691092
199.999691092
199.999691092
199.999656769
199.999656769
199.999656769
199.999618633
199.999618633
199.999576258
199.999576258
199.999529176
199.999529176
199.999529176
199.999476862
199.999476862
199.999418736
199.998906249
199.99864969
199.99864969
199.998499655
199.99833295
199.998147723
199.997713238
199.997459153
199.997176837
199.996863152
199.996514613
199.996127348
199.996127348
199.995697053
199.995218948
199.99468772
199.99468772
199.994097467
199.994097467
199.994097467
199.99344163
199.99344163
199.99344163
199.99344163
199.993429684
199.993333811
199.993087432
199.989257698
199.98303565
199.964813542
199.894146214
196.971630476
189.760001014
188.0051281
179.458118497
168.935984777
158.657210229
149.920020386
147.853296185
143.041056537
135.975061432
130.032133714
126.923411791
124.572107885
121.282802042
124.831806682
107.603567799
199.999956084
199.999958271
199.999958271
199.999951911
199.999947274
199.999940208
199.999940208
199.999940208
199.999926632
199.99992148
199.999912755
199.999912755
199.999912755
199.999912755
199.999903061
199.999903061
199.999892291
199.999867025
199.999867025
199.99985225
199.99985225
199.999835834
199.999835834
199.999817593
199.999817593
199.999797326
199.999797326
199.999774806
199.999749785
199.999749785
199.999721983
199.999721983
199.999691092
199.999691092
199.999691092
199.999656769
199.999656769
199.999618633
199.999618633
199.999618633
199.999576258
199.999576258
199.999529176
199.999529176
199.999476862
199.999476862
199.999476862
199.999418736
199.999354151
199.99864969
199.99864969
199.998499655
199.99833295
199.997941914
199.997713238
199.997459153
199.997176837
199.996514613
199.996127348
199.995697053
199.995218948
199.99468772
199.994097467
199.994097467
199.992967828
199.993054531
199.99344163
199.993300714
199.992119116
199.99236294
199.992416288
199.992420511
199.992344709
199.992184382
199.991842432
199.99077947
199.9853706
199.970123094
199.93770448
199.732826659
195.568055189
193.921373225
187.445409315
179.009031672
169.162250528
158.393928274
154.292005475
151.492485932
140.734118011
135.912606846
133.408644157
129.241771897
127.330725088
124.018903643
125.5217903
110.033002275
199.999962444
199.999958271
199.999958271
199.999958271
199.999953635
199.999947274
199.999940208
199.999940208
199.999926632
199.99992148
199.999912755
199.999912755
199.999912755
199.999912755
199.999903061
199.999903061
199.999880323
199.999867025
199.99985225
199.99985225
199.999835834
199.999835834
199.999817593
199.999817593
199.999797326
199.999797326
199.999774806
199.999749785
199.999749785
199.999721983
199.999721983
199.999691092
199.999691092
199.999691092
199.999656769
199.999656769
199.999618633
199.999618633
199.999576258
199.999576258
199.999576258
199.999529176
199.999529176
199.999476862
199.999476862
199.999418736
199.999418736
199.999354151
199.998784721
199.99864969
199.998499655
199.99833295
199.997941914
199.997713238
199.997176837
199.996863152
199.996127348
199.994798539
128.211267573
59.8593429611
36.5149705319
30.0344916241
33.5854013161
47.8401629819
85.8655138989
159.535236139
196.605385259
199.988865442
199.989872381
199.990747621
199.990150876
199.990377114
199.990080263
199.989378646
199.988159992
199.986121767
199.981693686
199.969767371
199.941133046
199.835649643
197.365322468
191.465734601
184.870565497
177.652967307
168.348093962
158.916473863
157.346055908
149.771280832
143.462641036
139.794731322
136.44497804
133.433511122
128.202961455
126.844356342
125.094924175
112.015155132
199.999962444
199.999958271
199.999958271
199.999958271
199.999953635
199.999953635
199.999940208
199.999934484
199.99992148
199.99992148
199.999912755
199.999912755
199.999912755
199.999903061
199.999903061
199.999892291
199.999880323
199.999867025
199.99985225
199.99985225
199.999835834
199.999835834
199.999817593
199.999797326
199.999797326
199.999774806
199.999774806
199.999749785
199.999721983
199.999721983
199.999691092
199.999691092
199.999691092
199.999656769
199.999656769
199.999618633
199.999618633
199.999576258
199.999576258
199.999529176
199.999529176
199.999529176
199.999476862
199.999476862
199.999418736
199.999418736
199.999354151
199.998906249
199.99864969
199.998499655
199.998147723
199.997941914
199.997459153
195.367959284
5.72705760964
0
0
0
0
0
0
0
0
0
0.122018480642
0.401578837538
2.03639530359
6.07142506145
20.5610995839
69.5893986347
183.753370425
199.984506952
199.980073238
199.980442163
199.981921666
199.978009729
199.968274657
199.908727494
199.888804336
199.286008453
194.068889931
188.040326432
182.311068253
176.142542163
167.982524804
160.987422461
161.77381752
153.41130839
148.415627275
144.281234481
140.157981462
135.510934468
130.979005301
128.754445917
125.239628725
114.184197226
199.999962444
199.999958271
199.999958271
199.999958271
199.999953635
199.999953635
199.999947274
199.999934484
199.99992148
199.99992148
199.999912755
199.999912755
199.999912755
199.999903061
199.999892291
199.999880323
199.999867025
199.999867025
199.99985225
199.999835834
199.999835834
199.999817593
199.999817593
199.999797326
199.999774806
199.999774806
199.999749785
199.999721983
199.999721983
199.999691092
199.999691092
199.999691092
199.999656769
199.999656769
199.999618633
199.999618633
199.999576258
199.999576258
199.999529176
199.999529176
199.999476862
199.999476862
199.999476862
199.999418736
199.999418736
199.999354151
199.99928239
199.99864969
199.998499655
199.998147723
199.997941914
120.783511959
0
0
0
0
0
0
0
0
0
0
0
0
0
0
0
0.0921658793235
0.253200334153
1.12472900855
4.74004727547
19.2770695681
79.5638327909
191.213756499
199.950167994
199.934975818
199.900202515
199.731881377
199.628353913
195.915513603
190.481596434
184.897212383
179.808888169
174.530247063
168.548051543
167.803848184
163.42456467
155.083929663
152.128590329
147.937111874
143.274876398
138.888428299
135.365521531
130.097480543
127.601206868
116.301044458
199.999962444
199.999958271
199.999958271
199.999958271
199.999953635
199.999953635
199.999947274
199.999934484
199.99992148
199.99992148
199.999912755
199.999912755
199.999903061
199.999903061
199.999892291
199.999880323
199.999867025
199.99985225
199.99985225
199.999835834
199.999817593
199.999817593
199.999797326
199.999774806
199.999774806
199.999749785
199.999721983
199.999721983
199.999691092
199.999691092
199.999656769
199.999656769
199.999618633
199.999618633
199.999576258
199.999576258
199.999576258
199.999529176
199.999529176
199.999476862
199.999476862
199.999418736
199.999418736
199.999354151
199.999354151
199.99928239
199.99864969
199.998499655
199.998147723
199.997713238
0.00129566503774
0
0
0
0
0
0
0
0
0
0
0
0
0
0
0
0
0
0
0.00888308505927
0.143225672156
0.405464931743
1.81564429033
10.0010465893
40.0061086065
169.895393236
199.436552162
198.109754982
192.907977921
191.852257704
186.350476117
181.145420312
177.026163166
172.439865628
167.857674064
168.138186391
163.092538455
157.387276887
154.504065147
150.046601366
145.598303074
141.005092251
138.625063841
132.444356748
129.889304665
117.851633826
199.999962444
199.999958271
199.999958271
199.999958271
199.999953635
199.999953635
199.999947274
199.999929332
199.99992148
199.99992148
199.999912755
199.999912755
199.999903061
199.999892291
199.999880323
199.999867025
199.999867025
199.99985225
199.999835834
199.999835834
199.999817593
199.999797326
199.999797326
199.999774806
199.999749785
199.999721983
199.999721983
199.999691092
199.999691092
199.999656769
199.999656769
199.999618633
199.999618633
199.999576258
199.999576258
199.999529176
199.999529176
199.999476862
199.999476862
199.999476862
199.999418736
199.999418736
199.999354151
199.999354151
199.99928239
199.998784721
199.998499655
199.998147723
199.997459153
0
0
0
0
0
0
0
0
0
0
0
0
0
0
0
0
0
0
0
0
0
0
0
0.0890110802578
0.262044441579
1.40254616732
6.98703164029
28.882238062
144.910233853
184.547994248
182.19955067
177.357003491
177.812329179
174.120813839
169.545562513
165.567012758
166.851562822
161.885795074
160.957116188
152.223682454
149.039180614
146.34891159
141.778844766
139.435195611
134.790955363
130.441688255
117.941789156
199.999962444
199.999958271
199.999958271
199.999958271
199.999953635
199.999953635
199.999947274
199.999929332
199.99992148
199.99992148
199.999912755
199.999912755
199.999903061
199.999892291
199.999880323
199.999867025
199.99985225
199.999835834
199.999835834
199.999817593
199.999797326
199.999797326
199.999774806
199.999749785
199.999721983
199.999721983
199.999691092
199.999691092
199.999656769
199.999656769
199.999618633
199.999576258
199.999576258
199.999576258
199.999529176
199.999529176
199.999476862
199.999476862
199.999418736
199.999418736
199.999354151
199.999354151
199.99928239
199.999202655
199.999015624
199.998499655