/*--------------------------------*- C++ -*----------------------------------*\
| =========                 |                                                 |
| \\      /  F ield         | OpenFOAM: The Open Source CFD Toolbox           |
|  \\    /   O peration     | Version:  v1906                                 |
|   \\  /    A nd           | Web:      www.OpenFOAM.com                      |
|    \\/     M anipulation  |                                                 |
\*---------------------------------------------------------------------------*/
FoamFile
{
    version     2.0;
    format      ascii;
    class       surfaceScalarField;
    location    "684";
    object      phi;
}
// * * * * * * * * * * * * * * * * * * * * * * * * * * * * * * * * * * * * * //

dimensions      [0 3 -1 0 0 0 0];
oriented        oriented;


internalField   nonuniform List<scalar> 
18240
(
-0.000199467821349
0.000199540723648
-0.000408368997862
0.000208987679211
-0.000615890492216
0.000207594180836
-0.000820374899561
0.000204574188597
-0.00102080082262
0.000200495117318
-0.00121620055954
0.00019549266589
-0.00140579430204
0.000189659322022
-0.00158881143128
0.000183113260241
-0.00176468995199
0.000175940226342
-0.00193285346477
0.000168262841604
-0.00209295549826
0.000160159415489
-0.00224460180899
0.000151748784762
-0.00238764158451
0.000143092400403
-0.00252183377637
0.000134297684156
-0.00264718982724
0.000125403294793
-0.00276358349966
0.000116501957516
-0.00287114996547
0.000107607744373
-0.0029698382717
9.8799029754e-05
-0.00305987041781
9.00666633668e-05
-0.00314123514878
8.14773995126e-05
-0.00321420987505
7.30017766646e-05
-0.0032787943984
6.46984768841e-05
-0.00333529697216
5.65212539635e-05
-0.00338370692951
4.85243742216e-05
-0.00342434544265
4.06480986401e-05
-0.00345717692833
3.29453572802e-05
-0.003482523318
2.53460159517e-05
-0.00350031550921
1.79043463325e-05
-0.00351086900569
1.05426007443e-05
-0.00351407855063
3.31862069667e-06
-0.00351025046802
-3.85011452352e-06
-0.00349924546031
-1.09005372767e-05
-0.00348136211133
-1.79167134932e-05
-0.00345643621078
-2.48277716836e-05
-0.00342476539928
-3.17156775865e-05
-0.00338617528757
-3.85002378621e-05
-0.00334097380747
-4.52575370902e-05
-0.00328899774092
-5.18965862868e-05
-0.00323058088391
-5.84837129567e-05
-0.00316559746252
-6.49166094858e-05
-0.00309442529952
-7.12489221048e-05
-0.00301700508681
-7.73683672365e-05
-0.00293377608859
-8.3314565507e-05
-0.00284477217061
-8.89689846835e-05
-0.00275050632773
-9.43584695192e-05
-0.00265112464465
-9.93647595937e-05
-0.00254721637408
-0.000104005780479
-0.00243904546553
-0.000108171726791
-0.00232726825303
-0.000111876839919
-0.00221225834775
-0.0001150264726
-0.00209472340904
-0.000117633693994
-0.00197513345801
-0.000119618662077
-0.00185424008449
-0.000120988304664
-0.00173260887804
-0.00012166775559
-0.00161104931127
-0.000121648436201
-0.00149023628587
-0.000120853677136
-0.00137105160058
-0.000119266360297
-0.00125426613217
-0.000116827985301
-0.0011407929622
-0.000113547742126
-0.00103141633677
-0.000109420232388
-0.000926971169459
-0.000104513407123
-0.000828115920145
-9.88995808904e-05
-0.0007354549278
-9.27236597777e-05
-0.000649365512886
-8.61332395945e-05
-0.000570119975675
-7.9302832673e-05
-0.000497797859697
-7.23633079017e-05
-0.000432401287812
-6.54486078624e-05
-0.000373771639036
-5.86670065189e-05
-0.00032167723817
-5.21421822009e-05
-0.000275744008362
-4.59674676424e-05
-0.000235556958836
-4.02322442091e-05
-0.000200613153972
-3.49765615059e-05
-0.000170430220793
-3.02268658386e-05
-0.000144499797685
-2.59633033473e-05
-0.00012237601461
-2.21672210779e-05
-0.000103610382958
-1.87995216599e-05
-8.78087073581e-05
-1.58446684924e-05
-7.4568468483e-05
-1.32748787127e-05
-6.35389578391e-05
-1.10713857714e-05
-5.43810662814e-05
-9.19252285748e-06
-4.68164382839e-05
-7.60477472807e-06
-4.05887143818e-05
-6.26161950853e-06
-3.55023747964e-05
-5.12434464266e-06
-3.14076397067e-05
-4.12731118219e-06
-2.83091012307e-05
-3.13482618124e-06
-2.5726314541e-05
-2.6169305035e-06
-2.33729177504e-05
-2.39314682028e-06
-2.13602715656e-05
-2.05459731525e-06
-1.94005578344e-05
-2.00971505637e-06
-1.72839992414e-05
-2.17318485728e-06
-1.51111136114e-05
-2.24046340919e-06
-1.2858833137e-05
-2.3293680863e-06
-1.02688121522e-05
-2.67843843899e-06
-7.14145096862e-06
-3.2277370299e-06
-3.50570918083e-06
-3.75121653413e-06
-3.5650716931e-06
-0.000211030425505
0.000410649816486
-0.000434622471911
0.000432665333399
-0.000656002783794
0.000429056205746
-0.000873909586915
0.000422567241292
-0.00108735200104
0.000414018357
-0.00129536566059
0.000403593155787
-0.0014971013245
0.000391474813021
-0.00169177596006
0.000377875300322
-0.00187875711434
0.000362999982986
-0.00205747826314
0.000347071832197
-0.00222753143549
0.000330289717384
-0.00238855630727
0.000312861729152
-0.00254034689912
0.000294958274217
-0.00268271679626
0.000276755592938
-0.0028156239525
0.000258383482432
-0.0029390136703
0.000239979239725
-0.00305296481729
0.000221629107067
-0.0031575114556
0.00020343228019
-0.00325281284533
0.000185434854294
-0.00333895387818
0.000167703473473
-0.00341614024126
0.000150250758278
-0.00348447729175
0.000133118249792
-0.00354419095788
0.000116292576588
-0.00359538460327
9.9797568658e-05
-0.00363828560595
8.36008750096e-05
-0.00367297999327
6.77151542006e-05
-0.00369968412301
5.2095157037e-05
-0.0037184574631
3.67479189083e-05
-0.00372949828677
2.16207178079e-05
-0.00373283565616
6.71993583323e-06
-0.00372864764235
-8.00940591319e-06
-0.00371693500265
-2.25566607333e-05
-0.00369785895213
-3.69734729038e-05
-0.00367139909627
-5.12397306736e-05
-0.00363770798722
-6.539765479e-05
-0.00359675795535
-7.94122017134e-05
-0.00354870745353
-9.33097636858e-05
-0.00349354180713
-0.000107035253454
-0.00343144521586
-0.000120593464136
-0.0033624415108
-0.000133905680779
-0.00328676411688
-0.000146951387667
-0.0032045035059
-0.000159627856144
-0.00311596579317
-0.000171889457731
-0.00302133397063
-0.000183613974354
-0.00292100504933
-0.000194736338398
-0.00281527203178
-0.000205125237267
-0.00270462973004
-0.000214707635167
-0.00258948404892
-0.000223358041311
-0.00247041930489
-0.000231009580092
-0.00234794121762
-0.000237555861964
-0.00222270428914
-0.0002429438584
-0.00209529541731
-0.00024708583067
-0.0019664273524
-0.000249931130388
-0.00183676803712
-0.000251388333204
-0.00170710657713
-0.000251382939768
-0.00157821977435
-0.000249801420054
-0.00145100092357
-0.000246554578545
-0.0013263352727
-0.00024155250421
-0.00120517764775
-0.000234770514586
-0.00108843208286
-0.000226222440816
-0.000976990627186
-0.000216016210472
-0.000871620111575
-0.000204324752363
-0.000772964860074
-0.000191436684478
-0.000681449021239
-0.000177701253892
-0.000597325147974
-0.000163480415852
-0.000520677450437
-0.000149059132205
-0.000451485554687
-0.000134689415357
-0.000389589283573
-0.000120606850861
-0.000334717103801
-0.000107059062417
-0.000286462624543
-9.4262215126e-05
-0.000244343332319
-8.23936962613e-05
-0.000207806969382
-7.15516619862e-05
-0.000176303138131
-6.17719549792e-05
-0.000149287912765
-5.30171276815e-05
-0.000126273755154
-4.52227445655e-05
-0.000106800318754
-3.83122859485e-05
-9.04429253549e-05
-3.22436780604e-05
-7.67785128791e-05
-2.69787486494e-05
-6.54192289699e-05
-2.24716069264e-05
-5.60074440621e-05
-1.86431232304e-05
-4.82392237513e-05
-1.541257302e-05
-4.18424491968e-05
-1.26959353933e-05
-3.6582921732e-05
-1.04216501975e-05
-3.22264934555e-05
-8.51957740136e-06
-2.84430898362e-05
-6.95396897139e-06
-2.52503576964e-05
-5.84516120009e-06
-2.27505930792e-05
-4.93198010355e-06
-2.07149901669e-05
-4.13254447538e-06
-1.88702372318e-05
-3.90227238106e-06
-1.70071650899e-05
-4.09260861545e-06
-1.49343117609e-05
-4.38027137189e-06
-1.26873690226e-05
-4.65064225339e-06
-1.02293109744e-05
-5.22145220823e-06
-7.2910473927e-06
-6.26572179733e-06
-3.6292771448e-06
-7.52000988689e-06
-7.24503562467e-06
-0.000213890271609
0.000624619879003
-0.000439770327648
0.000658629485761
-0.000663617248736
0.00065298704787
-0.000883917372395
0.000642952148167
-0.00109959130677
0.000629775825503
-0.00130964799546
0.00061373470246
-0.00151320679007
0.000595116728533
-0.00170948790363
0.000574241234417
-0.00189784176631
0.00055143644476
-0.00207772279057
0.000527037464043
-0.00224871501751
0.00050136377983
-0.00241049255207
0.00047472341475
-0.00256284556173
0.000447392073161
-0.00270563073576
0.000419624133126
-0.00283880127448
0.000391633345925
-0.00296235005978
0.000363610182641
-0.00307634648334
0.000335702919685
-0.003180874009
0.000308040217578
-0.00327607549299
0.000280711157487
-0.00336208582254
0.000253791825159
-0.00343908650855
0.000227323014042
-0.00350723337739
0.000201339990497
-0.00356672043968
0.000175847117398
-0.00361770231242
0.000150850313975
-0.00366036713864
0.000126328238111
-0.00369485341211
0.000102267360624
-0.00372133142999
7.862979114e-05
-0.00373991445996
5.53909621498e-05
-0.00375074830926
3.25043375751e-05
-0.00375391712749
9.9418218377e-06
-0.00374954044559
-1.23441693807e-05
-0.00373767433001
-3.4377670532e-05
-0.00371841538069
-5.6199258754e-05
-0.00369179836767
-7.78206358658e-05
-0.00365790610654
-9.92664671839e-05
-0.00361676505642
-0.000120527157659
-0.00356845986001
-0.000141602094413
-0.00351302847723
-0.000162451623228
-0.00345057927221
-0.000183041338131
-0.00338118732923
-0.000203294754524
-0.00330501135385
-0.000223138414469
-0.00322219254053
-0.000242456957236
-0.00313296749344
-0.000261138652151
-0.00303757078451
-0.000279034773553
-0.00293633955705
-0.000296004922944
-0.00282962046574
-0.000311882157647
-0.00271786123182
-0.000326516706553
-0.00260152265776
-0.000339747012274
-0.00248115369972
-0.000351438844618
-0.00235731057059
-0.0003614593268
-0.002230616349
-0.000369705548403
-0.00210169344457
-0.000376074959369
-0.00197121761414
-0.00038047747928
-0.00183987432595
-0.000382799403102
-0.00170841880428
-0.000382908144956
-0.00157765331784
-0.000380632957179
-0.00144847415922
-0.000375799965213
-0.0013218296336
-0.000368259664411
-0.0011987176341
-0.00035794474691
-0.00108013281529
-0.000344866380808
-0.000967037680923
-0.000329170268252
-0.0008603050997
-0.000311113687389
-0.000760637183297
-0.000291160567129
-0.000668468547217
-0.0002699234495
-0.000583992643481
-0.00024800843393
-0.000507261159513
-0.000225839938927
-0.000438238148579
-0.000203759770816
-0.00037676507476
-0.000182124459227
-0.000322542050562
-0.000161325365474
-0.000275118798346
-0.000141726620111
-0.000233941266849
-0.000123612282741
-0.000198390865712
-0.000107141720836
-0.000167851902864
-9.23512454813e-05
-0.000141747789318
-7.91610332478e-05
-0.000119581768938
-6.74295229385e-05
-0.000100915243207
-5.70196577387e-05
-8.53303023023e-05
-4.78699565631e-05
-7.23935405681e-05
-3.99562128389e-05
-6.16921947055e-05
-3.32136279669e-05
-5.28608113168e-05
-2.75143241183e-05
-4.55949124638e-05
-2.27178819669e-05
-3.96299151538e-05
-1.86992343924e-05
-3.47395608682e-05
-1.53496505817e-05
-3.07183768979e-05
-1.25771121417e-05
-2.73540975197e-05
-1.03539747031e-05
-2.44941787619e-05
-8.74196995346e-06
-2.19109204482e-05
-7.55518386039e-06
-1.95358830704e-05
-6.55004476474e-06
-1.76387693094e-05
-5.84718749335e-06
-1.60979607294e-05
-5.68975489628e-06
-1.40729703122e-05
-6.47022351577e-06
-1.15951473388e-05
-7.20231977832e-06
-8.95896725959e-06
-7.94138805674e-06
-6.01785519244e-06
-9.29369764269e-06
-3.10563662153e-06
-1.05213264009e-05
-1.03973657673e-05
-0.000217315905715
0.000842015840002
-0.000446555939201
0.000887954284288
-0.000673685646795
0.00088020112548
-0.000897094100216
0.000866445374761
-0.00111563434045
0.000848400382916
-0.00132827300658
0.000826457980646
-0.00153409716484
0.000801025034649
-0.00173231707935
0.00077254558411
-0.00192227668495
0.000741479873826
-0.0021034447699
0.000708289649471
-0.00227541733293
0.000673419640184
-0.00243789937379
0.000637288979232
-0.00259070308747
0.000600278250399
-0.00273372427849
0.000562727939338
-0.00286694042429
0.000524930752768
-0.00299038504186
0.000487136078438
-0.00310414845456
0.000449545884133
-0.00320835207865
0.000412323242978
-0.00330315337842
0.000375589720603
-0.0033887207934
0.000339436118826
-0.00346524323285
0.000303919704337
-0.00353290552447
0.000269075884208
-0.00359190221635
0.000234914267852
-0.00364241308853
0.000201430672063
-0.0036846207603
0.00016860167572
-0.00371868577446
0.000136396829728
-0.00374476757006
0.000104771748682
-0.00376299885997
7.36807235574e-05
-0.00377350963156
4.30686874787e-05
-0.00377640080918
1.28845108758e-05
-0.00377177112404
-1.69278033105e-05
-0.00375969035726
-4.6414857102e-05
-0.00374022911372
-7.56229492239e-05
-0.00371343216989
-0.000104582901672
-0.00367935109094
-0.000133319422438
-0.0036380183449
-0.000161835106494
-0.00358948261576
-0.000190120127314
-0.00353378421666
-0.000218136159212
-0.00347099252743
-0.00024582681284
-0.003401182941
-0.000273102540814
-0.00332447527158
-0.000299852482991
-0.00324101189493
-0.000325931723507
-0.00315099520951
-0.000351175339125
-0.00305466598645
-0.000375389403393
-0.00295233718567
-0.000398367838582
-0.00284437076083
-0.000419888174258
-0.00273120427053
-0.000439731014485
-0.00261332396967
-0.000457680080897
-0.00249128072664
-0.000473541753604
-0.00236565862291
-0.000487144609794
-0.00223708090933
-0.000498351034231
-0.0021061810716
-0.000507044078007
-0.00197361247451
-0.000513117140597
-0.00184004362632
-0.00051643864009
-0.00170619615683
-0.000516825582385
-0.0015728722375
-0.000514024174926
-0.00144099373622
-0.000507744440133
-0.00131158545896
-0.000497730470803
-0.00118572884753
-0.000483862568494
-0.0010645452827
-0.000466108605588
-0.000949120132243
-0.000444652856285
-0.000840512483653
-0.000419777181355
-0.000739555170828
-0.000392172575224
-0.000646674488235
-0.00036285715975
-0.000561921556176
-0.000332812678519
-0.000485271989443
-0.000302538265906
-0.000416694012017
-0.000272384401112
-0.000356049697453
-0.000242812955933
-0.000303010879743
-0.000214406620224
-0.000257048227464
-0.000187730544991
-0.000217490341216
-0.000163210361193
-0.000183598263566
-0.000141073752268
-0.000154648115017
-0.000121341289273
-0.000130003100675
-0.000103846212246
-0.000109168945551
-8.83047046108e-05
-9.17651456614e-05
-7.44650899631e-05
-7.7407354957e-05
-6.22696177607e-05
-6.56305688494e-05
-5.17743340047e-05
-5.59699466179e-05
-4.2915167885e-05
-4.80434114781e-05
-3.54812458968e-05
-4.15581052108e-05
-2.92427855044e-05
-3.62650276093e-05
-2.40310159681e-05
-3.19570594707e-05
-1.96953669413e-05
-2.84569797811e-05
-1.61136964758e-05
-2.5622419794e-05
-1.32244783961e-05
-2.29147069097e-05
-1.14877363492e-05
-2.04890969134e-05
-1.00217349192e-05
-1.83854152916e-05
-8.69749963033e-06
-1.62748936277e-05
-8.00552516818e-06
-1.40855811179e-05
-7.93247546295e-06
-1.2415266127e-05
-8.20258509457e-06
-1.00603872776e-05
-9.62884037286e-06
-7.24632752161e-06
-1.082974555e-05
-4.81127786065e-06
-1.180580595e-05
-2.51584021896e-06
-1.28965990867e-05
-1.29525595191e-05
-0.000221888625057
0.00106398500318
-0.000455805834973
0.0011219556895
-0.000687436394584
0.00111191670671
-0.00091507597973
0.00109416982092
-0.00113750161723
0.00107091085714
-0.00135362385583
0.00104266504744
-0.00156249135576
0.00100997720451
-0.00176329760651
0.000973436526588
-0.00195538481321
0.000933651506653
-0.0021382379513
0.000891227180929
-0.00231147830593
0.000846743976393
-0.00247484851488
0.000800743040631
-0.00262820067758
0.000753713676171
-0.00277147754394
0.000706087789008
-0.00290469994732
0.000658235313957
-0.00302794812598
0.000610465939746
-0.0031413515813
0.000563029918791
-0.00324507264874
0.000516124155556
-0.00333930004081
0.000469895511286
-0.00342423519024
0.000424448629363
-0.00350008948846
0.000379849536608
-0.00356707300459
0.000336133532949
-0.00362539478656
0.000293307918246
-0.00367525323561
0.000251359194465
-0.0037168387556
0.000210254549801
-0.003750325126
0.000169948321827
-0.00377587389555
0.000130382432719
-0.00379362634528
9.14924146389e-05
-0.00380370933113
5.320723054e-05
-0.00380622774836
1.54553487761e-05
-0.00380127174806
-2.18355553526e-05
-0.0037889099513
-5.8731990988e-05
-0.00376919834485
-9.52945301338e-05
-0.0037421746686
-0.000131570610008
-0.00370786929964
-0.000167593947636
-0.00366630140742
-0.000203376703842
-0.00361749216868
-0.000238908723045
-0.00356146306064
-0.000274149758778
-0.00349825136198
-0.000309029279928
-0.0034279105335
-0.000343439926002
-0.00335052742842
-0.000377239096046
-0.00326622397845
-0.000410245156677
-0.00317517464356
-0.00044224222448
-0.00307760776704
-0.000472980844774
-0.00297382079714
-0.000502187293538
-0.00286417847874
-0.00052957018365
-0.00274912181647
-0.000554835044563
-0.0026291589346
-0.00057769705211
-0.00250486202619
-0.000597898984293
-0.00237684704679
-0.000615225144493
-0.00224575579627
-0.000629511559366
-0.00211223018723
-0.000640641507656
-0.00197689878358
-0.000648521224677
-0.00184038255174
-0.000653027126137
-0.00170334018919
-0.000653938132665
-0.00156654535125
-0.000650887120918
-0.00143095564728
-0.000643398464866
-0.0012977147368
-0.000631033498909
-0.00116801043865
-0.000613625899757
-0.00104315432639
-0.000591021195369
-0.000924378159866
-0.000563484480385
-0.000813098314894
-0.000531111080081
-0.000710426119066
-0.000494897682773
-0.000616740253614
-0.000456594853316
-0.00053171965321
-0.000417882797388
-0.000455199174945
-0.0003791066479
-0.000387221600329
-0.00034040735465
-0.000327741744728
-0.000302335972176
-0.000276411337071
-0.000265778963221
-0.000232570066405
-0.000231611936219
-0.000195358517839
-0.000200462060419
-0.000163837617827
-0.000172633791279
-0.000137107233667
-0.000148111511591
-0.000114424674275
-0.000126568938785
-9.53227162025e-05
-0.000107447998856
-7.95755342148e-05
-9.02547783675e-05
-6.68960657164e-05
-7.49916573092e-05
-5.67320055824e-05
-6.19801278813e-05
-4.84941471167e-05
-5.11945081749e-05
-4.17725141688e-05
-4.22437525237e-05
-3.63179723158e-05
-3.47374153667e-05
-3.1905855697e-05
-2.84821654574e-05
-2.83553413838e-05
-2.32838117793e-05
-2.55125591087e-05
-1.89930476309e-05
-2.32702006479e-05
-1.55033989342e-05
-2.11680053092e-05
-1.36295198247e-05
-1.90713338465e-05
-1.2160408182e-05
-1.6647228989e-05
-1.11656619754e-05
-1.43672977238e-05
-1.03329921324e-05
-1.21979232028e-05
-1.01553794101e-05
-1.0346886319e-05
-1.01113241153e-05
-8.64483884665e-06
-1.13970274946e-05
-6.2025703382e-06
-1.33441624171e-05
-3.88279290936e-06
-1.41925711864e-05
-1.98575526016e-06
-1.4860045242e-05
-1.49733123409e-05
-0.000227752623533
0.00129181827529
-0.00046772928247
0.00136201768201
-0.000705170049884
0.00134944257443
-0.000938247785804
0.00132733288551
-0.0011656447913
0.00129839304052
-0.00138620017029
0.00126330562373
-0.00159891656938
0.00122277874874
-0.00180296767656
0.00117757271946
-0.00199769856383
0.00112846738727
-0.00218261794038
0.00107623139882
-0.00235738560451
0.00102159629426
-0.00252179512975
0.000965236934016
-0.00267575537844
0.000907757955313
-0.00281927035969
0.000849686342151
-0.00295242079951
0.00079146879233
-0.00307534592408
0.000733473415066
-0.00318822850967
0.000675994063657
-0.00329128069981
0.00061925694202
-0.00338473355302
0.000563427864078
-0.00346882700412
0.000508620285016
-0.0035438034082
0.00045490268389
-0.00360990075485
0.000402305958128
-0.00366734916326
0.000350829544498
-0.00371636624717
0.000300447419012
-0.00375715552722
0.000251112668837
-0.00378990304448
0.000202762172494
-0.00381477697512
0.000155319944336
-0.00383192495444
0.000108701022522
-0.00384147453576
6.28142234873e-05
-0.00384353109147
1.75659239366e-05
-0.0038381791477
-2.71371533741e-05
-0.00382548115455
-7.13834756137e-05
-0.00380548013785
-0.0001152531757
-0.00377819984024
-0.000158812821656
-0.00374364932196
-0.000202111005067
-0.00370182523007
-0.000245172131823
-0.00365271897823
-0.000287991523944
-0.00359632167729
-0.000330529029323
-0.00353263422255
-0.000372704636853
-0.00346167491602
-0.000414393301707
-0.00338349214926
-0.000455422709007
-0.00329817386294
-0.000495571235098
-0.00320586161555
-0.000534569915138
-0.00310675989032
-0.000572105622009
-0.00300114913127
-0.000607829439663
-0.00288939136792
-0.000641367254159
-0.00277193746307
-0.000672336591124
-0.00264932272658
-0.000700366713746
-0.00252215942798
-0.000725124193622
-0.0023911125159
-0.000746339408745
-0.00225686681624
-0.000763828604676
-0.0021200828034
-0.000777499553497
-0.00198135732188
-0.000787320939554
-0.00184121940611
-0.000793237949765
-0.00170019715815
-0.000795030921708
-0.00155897323916
-0.000792177139893
-0.00141855009452
-0.000783884703349
-0.00128028252995
-0.00076935940887
-0.00114544626843
-0.000748517693724
-0.00101566387692
-0.000720857288304
-0.000892193312874
-0.000687007185298
-0.000777201567749
-0.000646154254013
-0.000672433165835
-0.00059971674554
-0.000578133842426
-0.000550943318217
-0.000492982019254
-0.000503082135834
-0.000416586678623
-0.000455547619924
-0.000349293655344
-0.000407743580025
-0.000291335522067
-0.000360335761982
-0.000242357760378
-0.000314796039111
-0.000201477264392
-0.000272531789123
-0.000167527074679
-0.000234449900198
-0.000139256446201
-0.000200942719182
-0.000115471762118
-0.000171934564785
-9.52330614712e-05
-0.00014684749096
-7.81384415333e-05
-0.000124584112039
-6.4357344906e-05
-0.000104079033932
-5.38694767074e-05
-8.55225596015e-05
-4.58755438839e-05
-7.0016761589e-05
-3.94746547224e-05
-5.76374051004e-05
-3.42270889913e-05
-4.75331576398e-05
-3.00261485792e-05
-3.89790846507e-05
-2.66762077846e-05
-3.18716929544e-05
-2.4024544228e-05
-2.59737531586e-05
-2.19710960645e-05
-2.10832969749e-05
-2.00642490036e-05
-1.74475575936e-05
-1.82681161087e-05
-1.5465374461e-05
-1.66383249549e-05
-1.38319663294e-05
-1.50886354291e-05
-1.27606327024e-05
-1.31255145932e-05
-1.23462041526e-05
-1.09362459591e-05
-1.23978686431e-05
-8.54543074969e-06
-1.25579812444e-05
-6.8773528727e-06
-1.31246619007e-05
-5.36657786168e-06
-1.49165640623e-05
-3.36488533729e-06
-1.62557441974e-05
-1.70347567402e-06
-1.65820510769e-05
-1.67065698197e-05
-0.000235053501402
0.00152695298637
-0.000482587562335
0.0016096365025
-0.000727256517124
0.00159419727112
-0.000967073446767
0.00156723535523
-0.00120059883416
0.00153200406848
-0.0014265831332
0.00148937553389
-0.00164397468085
0.00144025589762
-0.00185192693173
0.00138561057555
-0.00204979522591
0.00132642119748
-0.00223712422636
0.0012636458622
-0.00241362925929
0.00119818658617
-0.00257917299154
0.00113086576235
-0.00273374100572
0.00106241070733
-0.00287741679867
0.000993446546243
-0.00301035914797
0.000924494987616
-0.00313278112854
0.000855978698541
-0.00324493299312
0.000788228411316
-0.00334708716528
0.000721492780275
-0.00343952712605
0.000655948361633
-0.00352253783556
0.000591710391207
-0.00359639940042
0.000528842165428
-0.00366138136629
0.000467364328877
-0.0037177394972
0.000407262207229
-0.00376571236714
0.000348492904565
-0.00380551985274
0.000290990483024
-0.00383736087248
0.000234671172682
-0.00386141266668
0.000179436999486
-0.00387782903596
0.000125179866012
-0.00388673999777
7.17845144484e-05
-0.00388825039235
1.91324157093e-05
-0.0038824399613
-3.28950626298e-05
-0.00386936272605
-8.44118646082e-05
-0.00384904810001
-0.000135522958128
-0.00382150172347
-0.000186318504002
-0.00378670850175
-0.000236868020989
-0.00374463595924
-0.000287213176582
-0.00369524018201
-0.000337360910878
-0.00363847253432
-0.000387275711277
-0.00357428919236
-0.000436872928401
-0.00350266149641
-0.000486012240867
-0.0034235890387
-0.000534493285073
-0.00333711294461
-0.000582052742338
-0.00324333132529
-0.000628364843581
-0.0031424136283
-0.000673044891636
-0.00303461600697
-0.000715657437959
-0.00292029299813
-0.000755729294881
-0.00279990791295
-0.00079276967234
-0.0026740333806
-0.000826296908908
-0.00254334407489
-0.000855876860118
-0.00240858688709
-0.000881165238776
-0.00227053091941
-0.000901957872857
-0.00212988766805
-0.000918217858881
-0.00198722276678
-0.000930060822273
-0.00184290571047
-0.000937627598003
-0.00169719231543
-0.000940812472006
-0.00155053703669
-0.000938895874257
-0.00140398053825
-0.000930498971916
-0.00125936743797
-0.000914027072167
-0.00111785792225
-0.000890079185433
-0.000981748265852
-0.000857015993095
-0.000851600522469
-0.000817204978698
-0.00073133134422
-0.000766472891705
-0.000624238637152
-0.000706858318054
-0.000530280430964
-0.000644948574281
-0.000445358101116
-0.000588049844768
-0.000368863105051
-0.000532085801718
-0.000302113369069
-0.000474534378
-0.000246038071221
-0.000416449273633
-0.000200263050983
-0.00036060876738
-0.000163471213203
-0.000309358804472
-0.000134002811112
-0.000263954427599
-0.000110135535002
-0.000224844886666
-9.01963556138e-05
-0.000191911012814
-7.28209298107e-05
-0.000164261282934
-5.76903722505e-05
-0.000139755911902
-4.59609965551e-05
-0.000115852036352
-3.83531290193e-05
-9.31747515001e-05
-3.33489479915e-05
-7.50643708054e-05
-2.9249700237e-05
-6.17802284624e-05
-2.56430076837e-05
-5.11828645206e-05
-2.28748797582e-05
-4.17890344008e-05
-2.07368303069e-05
-3.40500273815e-05
-1.9083300393e-05
-2.76659009091e-05
-1.79178622742e-05
-2.2286077734e-05
-1.66533512782e-05
-1.87501567324e-05
-1.55624677269e-05
-1.65967092765e-05
-1.42566377144e-05
-1.51807550578e-05
-1.28617408825e-05
-1.42016362876e-05
-1.12146580427e-05
-1.40429505374e-05
-9.61415597329e-06
-1.40501992803e-05
-7.61017010919e-06
-1.46157286642e-05
-5.59834383182e-06
-1.51909913907e-05
-4.46895465719e-06
-1.61024718458e-05
-2.93444084727e-06
-1.78451829434e-05
-1.4816461799e-06
-1.80879840427e-05
-1.82166370518e-05
-0.000243966317361
0.00177100055846
-0.000500718678991
0.00186647486908
-0.000754180638956
0.00184774500752
-0.00100215754245
0.00181529832303
-0.00124305680569
0.0017729893142
-0.00147552014508
0.00172192492609
-0.00169843391558
0.00166325576901
-0.00191093431649
0.00159819707929
-0.00211239882194
0.00152797183995
-0.0023024265716
0.00145375966421
-0.00248081091215
0.00137665693404
-0.00264750811165
0.00129764875545
-0.00280260471967
0.00121759292943
-0.00294628669414
0.00113721374574
-0.00307881120229
0.00105710435469
-0.00320048284734
0.000977734584747
-0.00331163378892
0.000899462983975
-0.00341260852453
0.000822550251609
-0.00350375196604
0.00074717363471
-0.003585401172
0.000673440206625
-0.00365787911401
0.000601399468908
-0.00372149085206
0.000531053841993
-0.00377652057609
0.000462368078733
-0.00382323005362
0.000395276546784
-0.00386185713367
0.000329689690184
-0.00389261501086
0.000265498782563
-0.00391569110278
0.000202580365076
-0.00393124635201
0.000140799575208
-0.003939414011
8.00137496016e-05
-0.00394029882685
2.00755785383e-05
-0.003933975847
-3.91630069573e-05
-0.00392049000876
-9.78463210615e-05
-0.00389985576969
-0.000156109572858
-0.00387205800157
-0.000214072764708
-0.00383705370111
-0.000271833097926
-0.00379477564108
-0.00032945672315
-0.00374513754287
-0.00038696947796
-0.00368804179506
-0.000444347426065
-0.00362338920806
-0.000501507372136
-0.00355109148637
-0.000558298309968
-0.00347108582898
-0.00061449431706
-0.00338335159329
-0.00066978999174
-0.00328792882192
-0.000723798973473
-0.0031849372641
-0.000776056649776
-0.0030745966231
-0.000826027478268
-0.00295724543142
-0.000873119550559
-0.00283335773529
-0.000916704773823
-0.00270355503557
-0.000956156624412
-0.00256860121117
-0.000990893324225
-0.00242937897415
-0.00102045804302
-0.002286813116
-0.00104459626199
-0.00214174770031
-0.00106335948017
-0.00199475011704
-0.00107713204212
-0.00184593956535
-0.00108650825286
-0.00169501733491
-0.00109179883981
-0.00154187387354
-0.00109209767793
-0.00138752806424
-0.00108489855289
-0.00123520761317
-0.00106639878833
-0.00108504403632
-0.00104029156036
-0.000941446234476
-0.00100066397549
-0.000801211139952
-0.000957489867418
-0.000672815390357
-0.000894919153621
-0.000563562812276
-0.000816161082784
-0.000472936417232
-0.000735621755093
-0.000388928355428
-0.000672107958222
-0.000311379806624
-0.000609674952327
-0.000244443848838
-0.000541513896385
-0.000190609119321
-0.00047031978688
-0.000149260973821
-0.000401994777761
-0.000118158005628
-0.000340495160461
-9.48540476908e-05
-0.000287294140143
-7.70001584991e-05
-0.000242731402252
-6.21560119587e-05
-0.000206792960464
-4.7957914223e-05
-0.00017849537614
-3.39651238582e-05
-0.000153791077556
-2.3769470144e-05
-0.0001260922052
-2.02305989884e-05
-9.67584428561e-05
-1.9712666236e-05
-7.56269867965e-05
-1.84214895726e-05
-6.3115913379e-05
-1.62940663048e-05
-5.3354100902e-05
-1.5083626869e-05
-4.30419022262e-05
-1.42885947357e-05
-3.48858633999e-05
-1.36514073266e-05
-2.83422547669e-05
-1.3419465196e-05
-2.25556674846e-05
-1.30046800017e-05
-1.92039415239e-05
-1.26667372549e-05
-1.69758543074e-05
-1.20732685334e-05
-1.58183851084e-05
-1.10167792076e-05
-1.53051297716e-05
-9.75882276911e-06
-1.53497419414e-05
-8.14262263156e-06
-1.571694887e-05
-6.80499080034e-06
-1.60052229652e-05
-5.14494750868e-06
-1.6903303971e-05
-3.73385423746e-06
-1.75635597939e-05
-2.65242137451e-06
-1.8978458066e-05
-1.30920784752e-06
-1.94822336447e-05
-1.955074754e-05
-0.000254711266402
0.00202579368071
-0.000522560374294
0.00213440932526
-0.000786568334749
0.002111839386
-0.00104427804869
0.00207309429837
-0.00129390468824
0.00202270239502
-0.00153395953704
0.00196206626478
-0.00176326086778
0.0018926436743
-0.00198093552462
0.00181595841701
-0.00218640229358
0.0017335253113
-0.00237934128688
0.00164678542691
-0.0025596549378
0.00155705727437
-0.00272742488863
0.00146550536275
-0.00288286965046
0.00137312412012
-0.00302630518635
0.00128073552106
-0.00315811125917
0.00118899623967
-0.00327870337142
0.00109841210815
-0.00338851143127
0.00100935577811
-0.00348796348063
0.000922086368561
-0.00357747482803
0.000836768073896
-0.00365744038648
0.000753487876703
-0.0037282305172
0.00067227039609
-0.00379018823825
0.000593091023903
-0.003843628389
0.000515886001303
-0.00388883687373
0.000440561081609
-0.00392607087908
0.000366997662443
-0.00395555843644
0.000295058177997
-0.00397749841801
0.000224589695802
-0.00399205955226
0.000155427515522
-0.00399937966816
8.73977823707e-05