/*--------------------------------*- C++ -*----------------------------------*\
| =========                 |                                                 |
| \\      /  F ield         | OpenFOAM: The Open Source CFD Toolbox           |
|  \\    /   O peration     | Version:  v1906                                 |
|   \\  /    A nd           | Web:      www.OpenFOAM.com                      |
|    \\/     M anipulation  |                                                 |
\*---------------------------------------------------------------------------*/
FoamFile
{
    version     2.0;
    format      ascii;
    class       volScalarField;
    location    "85";
    object      alpha;
}
// * * * * * * * * * * * * * * * * * * * * * * * * * * * * * * * * * * * * * //

dimensions      [0 0 -1 0 0 0 0];


internalField   nonuniform List<scalar> 
9216
(
99.95535443
99.9685751874
99.9679141875
99.9679141875
99.9645842911
99.9670117856
99.9670117856
99.9670117856
99.9670117856
99.9670117856
99.9643145695
99.9597468104
99.9546715226
99.9546715226
99.9546715226
99.9546715226
99.9546715226
99.9546715226
99.9546715226
99.9546715226
99.9546715226
99.9546715226
99.9546715226
99.9546715226
99.9546715226
99.9546715226
99.9477095365
99.9477095365
99.9527848243
99.9573525834
99.9573525834
99.9354658056
99.9329417019
99.9454708868
99.9510867959
99.9510867959
99.9510867959
99.9480898892
99.9480898892
99.9480898892
99.9480898892
99.9403543491
99.9403543491
99.9403543491
99.9403543491
99.9403543491
99.9403543491
99.9403543491
99.9403543491
99.9403543491
99.9403543491
99.9403543491
99.9403543491
99.9403543491
99.9403543491
99.9403543491
99.9403543491
99.9465188942
99.9480898892
99.9480898892
99.9480898892
99.9480898892
99.9480898892
99.9472088907
99.9373816072
99.9174327159
99.904824368
99.9023000717
99.8952190505
99.8906433885
99.8863301753
99.8829860698
99.8799704612
99.878993693
99.8780048287
99.8773131992
99.875291242
99.8708718112
99.8642935568
99.8546094455
99.8387479573
99.8087464548
99.7671216699
99.7011537827
99.6054915144
99.462223877
99.3929389157
99.2423359081
97.8494768817
85.4075842436
63.8628404779
46.388255294
32.0733528284
19.527348232
12.2709355037
1.60761081557
99.9645842911
99.9679141875
99.9703416819
99.9703416819
99.9703416819
99.9703416819
99.9670117856
99.9645842911
99.9645842911
99.9645842911
99.9645842911
99.9645842911
99.9645842911
99.9645842911
99.9549412442
99.9549412442
99.9549412442
99.9645842911
99.9645842911
99.9645842911
99.9618870751
99.957319316
99.9543224093
99.9543224093
99.9543224093
99.9543224093
99.9543224093
99.9473604232
99.9473604232
99.9473604232
99.9396248831
99.9396248831
99.9333590956
99.9333590956
99.9333590956
99.9333590956
99.9333590956
99.9333590956
99.9333590956
99.9277198868
99.922644599
99.922644599
99.922644599
99.922644599
99.922644599
99.9140495544
99.9140495544
99.9140495544
99.9140495544
99.9140495544
99.9140495544
99.9140495544
99.9140495544
99.9140495544
99.9140495544
99.9140495544
99.9140495544
99.9105015947
99.9009493493
99.9009493493
99.9009493493
99.9009493493
99.9009493493
99.9009493493
99.9150790057
99.8906937863
99.8759909204
99.8627527978
99.8508318128
99.8535651588
99.8472402322
99.8406647069
99.8360263046
99.8347019203
99.8339450354
99.834098441
99.8345928496
99.8290947367
99.8446904988
99.8321439344
99.8115897849
99.828901374
99.7943467453
99.7739713893
99.6994675037
99.5972737811
99.4973215123
99.3379023553
99.0028806581
94.1507952398
75.5541067312
57.3859839652
43.4447436831
30.5329744053
19.7134520228
12.3193348924
99.9645842911
99.9703416819
99.9703416819
99.9679141875
99.9679141875
99.9679141875
99.9679141875
99.9645842911
99.9645842911
99.9645842911
99.9618870751
99.9618870751
99.9618870751
99.9618870751
99.9618870751
99.9588901683
99.9588901683
99.9543224093
99.9543224093
99.9543224093
99.9543224093
99.9543224093
99.9543224093
99.9543224093
99.9543224093
99.9543224093
99.9422851353
99.9345495952
99.9345495952
99.9282838077
99.9282838077
99.922644599
99.922644599
99.922644599
99.9140495544
99.9140495544
99.9140495544
99.9140495544
99.9140495544
99.9140495544
99.9140495544
99.9140495544
99.9140495544
99.9140495544
99.9044995049
99.9044995049
99.9044995049
99.8913992998
99.8796091153
99.8796091153
99.8689979491
99.8544421657
99.8544421657
99.8544421657
99.8544421657
99.8544421657
99.8544421657
99.8544421657
99.8544421657
99.8544421657
99.8544421657
99.8544421657
99.8544421657
99.8544421657
99.8430277748
99.8113257187
99.7766910352
99.7498065004
99.725894359
99.7085197357
99.7269385751
99.7146637191
99.7051988992
99.7496015584
99.7449889853
99.7301537487
99.7169200046
99.7000126728
99.6800534101
99.7745548955
99.7463779767
99.7475063389
99.6883158631
99.6010642838
99.4927704868
99.4015258901
99.1517845886
98.8661102203
98.9165100837
97.6264817257
76.4405483929
56.478108154
47.6748337934
38.7729211902
31.5881024608
21.1247807289
99.9670117856
99.9679141875
99.9679141875
99.9679141875
99.9679141875
99.9679141875
99.9645842911
99.9645842911
99.9618870751
99.9618870751
99.9618870751
99.9618870751
99.9618870751
99.9588901683
99.9543224093
99.9543224093
99.9543224093
99.9543224093
99.9543224093
99.9543224093
99.9543224093
99.9543224093
99.9492471214
99.9492471214
99.9422851353
99.9345495952
99.9282838077
99.922644599
99.922644599
99.922644599
99.9140495544
99.9140495544
99.9140495544
99.9140495544
99.9140495544
99.9140495544
99.9140495544
99.9044995049
99.9044995049
99.9044995049
99.9044995049
99.9044995049
99.8807881337
99.8689979491
99.8689979491
99.8544421657
99.8544421657
99.8544421657
99.8544421657
99.8544421657
99.8544421657
99.8544421657
99.8544421657
99.838269073
99.838269073
99.838269073
99.838269073
99.838269073
99.838269073
99.838269073
99.838269073
99.838269073
99.838269073
99.838269073
99.8301968599
99.7898927902
99.7465519572
99.7156235006
99.6888260769
99.6714230111
99.6600606916
99.6517982233
99.6752836401
99.668985402
99.6619919814
99.6544150571
99.6445278962
99.6266349581
99.5990546247
99.5476098076
99.4765946366
99.3908274159
99.3628992597
99.2229064407
99.2647956042
99.026224832
98.6502547569
98.9106868288
98.5161152981
96.3537513573
79.6789087019
63.9306748342
51.4211546027
48.9678131785
42.5344437947
30.1064860051
99.9670117856
99.9679141875
99.9679141875
99.9679141875
99.9679141875
99.9679141875
99.9679141875
99.9618870751
99.9618870751
99.9618870751
99.9618870751
99.9618870751
99.9588901683
99.9543224093
99.9543224093
99.9543224093
99.9543224093
99.9543224093
99.9543224093
99.9543224093
99.9492471214
99.9492471214
99.9492471214
99.9422851353
99.9345495952
99.922644599
99.922644599
99.9140495544
99.9140495544
99.9140495544
99.9140495544
99.9140495544
99.9140495544
99.9044995049
99.9044995049
99.9044995049
99.9044995049
99.9044995049
99.8938883388
99.8938883388
99.8689979491
99.8689979491
99.8544421657
99.8544421657
99.8544421657
99.8544421657
99.8544421657
99.838269073
99.838269073
99.838269073
99.838269073
99.838269073
99.838269073
99.838269073
99.82029897
99.82029897
99.82029897
99.82029897
99.82029897
99.82029897
99.82029897
99.82029897
99.82029897
99.82029897
99.7752254076
99.6823183274
99.6342170249
99.5925773961
99.5637962035
99.5597406385
99.5597406385
99.5597406385
99.5597406385
99.5671817763
99.5785244837
99.6096982721
99.6173769435
99.6098119517
99.599439815
99.5707307417
99.5483998263
99.5386811632
99.384767826
99.2294817596
99.0316365633
98.7641344911
98.4118171681
98.220688008
97.9846897674
91.8194743143
85.2459809085
73.280783403
63.7061477708
56.0507664837
56.0891889639
41.7302186343
99.9703416819
99.9679141875
99.9679141875
99.9679141875
99.9679141875
99.9679141875
99.9652169714
99.9652169714
99.9618870751
99.9618870751
99.9618870751
99.9618870751
99.9543224093
99.9543224093
99.9543224093
99.9543224093
99.9543224093
99.9543224093
99.9492471214
99.9492471214
99.9492471214
99.9492471214
99.9492471214
99.9345495952
99.922644599
99.922644599
99.9140495544
99.9140495544
99.9140495544
99.9140495544
99.9140495544
99.9044995049
99.9044995049
99.9044995049
99.9044995049
99.9044995049
99.8938883388
99.8938883388
99.8689979491
99.8689979491
99.8544421657
99.8544421657
99.8544421657
99.8544421657
99.838269073
99.838269073
99.838269073
99.838269073
99.838269073
99.82029897
99.82029897
99.82029897
99.82029897
99.82029897
99.8003321889
99.8003321889
99.8003321889
99.8003321889
99.7781468766
99.7781468766
99.7534965295
99.7534965295
99.7534965295
99.5709213571
99.4655489235
99.3948524186
99.3740633472
99.2858682193
99.248297198
99.248297198
99.2146404002
99.1610175623
99.200003151
99.2787297252
99.2787297252
99.2787297252
99.3061189997
99.4093210189
99.4315063312
99.4134049625
99.4641066419
99.3954922051
99.3063722806
99.2574326114
99.1211482747
98.8467397273
98.668354839
98.2228540121
97.4214690459
90.5970943799
84.9075850371
82.194929349
75.7445678256
65.3954365131
66.5799525352
53.2926499712
99.9703416819
99.9679141875
99.9679141875
99.9679141875
99.9679141875
99.9652169714
99.9652169714
99.9652169714
99.9618870751
99.9618870751
99.9618870751
99.9543224093
99.9543224093
99.9543224093
99.9543224093
99.9543224093
99.9543224093
99.9492471214
99.9492471214
99.9492471214
99.9492471214
99.9492471214
99.9422851353
99.922644599
99.9140495544
99.9140495544
99.9140495544
99.9140495544
99.9140495544
99.9140495544
99.9044995049
99.9044995049
99.9044995049
99.9044995049
99.9044995049
99.8938883388
99.8820981542
99.8689979491
99.8544421657
99.8544421657
99.8544421657
99.8544421657
99.838269073
99.838269073
99.838269073
99.838269073
99.82029897
99.82029897
99.82029897
99.82029897
99.82029897
99.8003321889
99.8003321889
99.8003321889
99.7781468766
99.7781468766
99.7534965295
99.7534965295
99.726107255
99.726107255
99.726107255
99.4768619755
99.3644198914
99.2144832789
99.1272036432
99.1272036432
99.0302262702
98.9224736336
98.9224736336
98.9224736336
98.8737469227
98.8027484817
98.8027484817
98.8027484817
98.9224736336
98.9224736336
98.9224736336
98.9224736336
99.0302262702
99.0274964357
99.0890887125
99.0933895852
99.0015769165
99.0024787919
98.9644858567
98.9351418209
98.660320285
98.2635733686
97.5587830103
95.2416893237
88.9576972834
85.7712540062
86.7875945531
77.5622934269
75.4618333565
63.3178656599
99.9703416819
99.9679141875
99.9679141875
99.9679141875
99.9679141875
99.9652169714
99.9652169714
99.9652169714
99.9618870751
99.9618870751
99.957319316
99.9543224093
99.9543224093
99.9543224093
99.9543224093
99.9543224093
99.9492471214
99.9492471214
99.9492471214
99.9492471214
99.9492471214
99.9492471214
99.922644599
99.922644599
99.9140495544
99.9140495544
99.9140495544
99.9140495544
99.9044995049
99.9044995049
99.9044995049
99.9044995049
99.9044995049
99.8938883388
99.8938883388
99.8820981542
99.8689979491
99.8544421657
99.8544421657
99.8544421657
99.838269073
99.838269073
99.838269073
99.838269073
99.82029897
99.82029897
99.82029897
99.82029897
99.82029897
99.8003321889
99.8003321889
99.7781468766
99.7781468766
99.7534965295
99.7534965295
99.726107255
99.726107255
99.726107255
99.6956747278
99.5404888299
99.3306059722
99.2144832789
99.1272036432
99.0302262702
98.9224736336
98.8027484817
98.8027484817
98.6697205353
98.6697205353
98.6697205353
98.5219117059
98.5219117059
98.5219117059
98.5219117059
98.5219117059
98.5219117059
98.5219117059
98.6697205353
98.6697205353
98.6697205353
98.8027484817
98.8027484817
98.845602522
98.8156905145
98.7306203657
98.5855620594
98.1636826963
98.1578034927
98.0079992605
97.4555787721
94.7907753122
89.8580256148
89.067182896
90.3559589152
83.6220834084
73.2626877402
99.9703416819
99.9679141875
99.9679141875
99.9679141875
99.9652169714
99.9652169714
99.9652169714
99.9652169714
99.9618870751
99.9618870751
99.957319316
99.9543224093
99.9543224093
99.9492471214
99.9492471214
99.9492471214
99.9492471214
99.9492471214
99.9492471214
99.9492471214
99.9492471214
99.9289103865
99.922644599
99.9140495544
99.9140495544
99.9140495544
99.9140495544
99.9044995049
99.9044995049
99.9044995049
99.9044995049
99.9044995049
99.8938883388
99.8938883388
99.8820981542
99.8689979491
99.8544421657
99.8544421657
99.8544421657
99.838269073
99.838269073
99.838269073
99.838269073
99.82029897
99.82029897
99.82029897
99.82029897
99.8003321889
99.8003321889
99.8003321889
99.7781468766
99.7781468766
99.7534965295
99.7534965295
99.726107255
99.726107255
99.6956747278
99.6956747278
99.3306059722
99.2144832789
99.1272036432
99.0302262702
98.9224736336
98.8027484817
98.6697205353
98.6697205353
98.5219117059
98.3576796732
98.3576796732
98.3576796732
98.1751996369
98.1751996369
98.1751996369
98.1751996369
98.1751996369
98.1751996369
98.1751996369
98.1751996369
98.1751996369
98.3576796732
98.3576796732
98.5219117059
98.5219117059
98.6526002252
98.6015175459
98.4939245934
98.3296426467
98.0254001624
97.647542681
97.4770182196
97.1372557459
96.0181527304
92.0895466697
95.9428617764
91.6134981849
82.3254255427
99.9703416819
99.9679141875
99.9679141875
99.9679141875
99.9652169714
99.9652169714
99.9652169714
99.9652169714
99.9618870751
99.9618870751
99.957319316
99.9543224093
99.9492471214
99.9492471214
99.9492471214
99.9492471214
99.9492471214
99.9492471214
99.9492471214
99.9492471214
99.9422851353
99.922644599
99.9140495544
99.9140495544
99.9140495544
99.9140495544
99.9044995049
99.9044995049
99.9044995049
99.9044995049
99.9044995049
99.8938883388
99.8938883388
99.8820981542
99.8689979491
99.8544421657
99.8544421657
99.838269073
99.838269073
99.838269073
99.838269073
99.82029897
99.82029897
99.82029897
99.82029897
99.8003321889
99.8003321889
99.8003321889
99.7781468766
99.7781468766
99.7534965295
99.7534965295
99.726107255
99.726107255
99.6956747278
99.6956747278
99.6618608086
99.293034951
99.1272036432
99.0302262702
98.9224736336
98.8027484817
98.6697205353
98.5219117059
98.3576796732
98.3576796732
98.1751996369
98.1751996369
97.972444041
97.972444041
97.8283166648
97.7471600455
97.7471600455
97.7471600455
97.7471600455
97.7471600455
97.7471600455
97.7471600455
97.7471600455
97.7471600455
97.972444041
97.972444041
98.1751996369
98.1751996369
98.3561068702
98.3797272
98.2586260233
97.952079398
97.7093226467
97.5684209741
97.2552528345
97.2468973789
96.8339232198
96.8662352598
96.7370097578
88.8432119035
99.9703416819
99.9679141875
99.9679141875
99.9679141875
99.9652169714
99.9652169714
99.9652169714
99.9652169714
99.9618870751
99.957319316
99.957319316
99.9543224093
99.9492471214
99.9492471214
99.9492471214
99.9492471214
99.9492471214
99.9492471214
99.9492471214
99.9492471214
99.9289103865
99.922644599
99.9140495544
99.9140495544
99.9140495544
99.9044995049
99.9044995049
99.9044995049
99.9044995049
99.9044995049
99.8938883388
99.8938883388
99.8820981542
99.8689979491
99.8544421657
99.8544421657
99.838269073
99.838269073
99.838269073
99.838269073
99.82029897
99.82029897
99.82029897
99.82029897
99.8003321889
99.8003321889
99.8003321889
99.7781468766
99.7781468766
99.7534965295
99.7534965295
99.726107255
99.726107255
99.6956747278
99.6956747278
99.5639390797
99.2144832789
99.0302262702
98.9224736336
98.8027484817
98.6697205353
98.5219117059
98.3576796732
98.3576796732
98.1751996369
97.972444041
97.972444041
97.7471600455
97.7471600455
97.496844495
97.496844495
97.496844495
97.496844495
97.2683160283
97.2187161056
97.2187161056
97.2187161056
97.2187161056
97.496844495
97.496844495
97.496844495
97.496844495
97.7471600455
97.7471600455
97.972444041
98.1751996369
98.1021149911
97.9731740598
97.7724323379
97.7908686055
97.3849203844
97.18840946
97.2755133688
96.9332660348
97.3498387617
93.2116906696
99.9744526651
99.9679141875
99.9679141875
99.9679141875
99.9652169714
99.9652169714
99.9652169714
99.9652169714
99.9618870751
99.957319316
99.9543224093
99.9492471214
99.9492471214
99.9492471214
99.9492471214
99.9492471214
99.9492471214
99.9492471214
99.9492471214
99.9436079127
99.922644599
99.9140495544
99.9140495544
99.9140495544
99.9044995049
99.9044995049
99.9044995049
99.9044995049
99.8938883388
99.8938883388
99.8938883388
99.8820981542
99.8689979491
99.8544421657
99.8544421657
99.838269073
99.838269073
99.838269073
99.838269073
99.82029897
99.82029897
99.82029897
99.8003321889
99.8003321889
99.8003321889
99.7781468766
99.7781468766
99.7534965295
99.7534965295
99.726107255
99.726107255
99.6956747278
99.6956747278
99.6618608086
99.5727520353
99.2144832789
99.0302262702
98.9224736336
98.8027484817
98.5219117059
98.3576796732
98.3576796732
98.1751996369
97.972444041
97.7471600455
97.7471600455
97.496844495
97.496844495
97.2187161056
97.2187161056
97.2187161056
97.2187161056
96.9096845617
96.9096845617
96.9096845617
96.9096845617
96.9096845617
96.9096845617
96.9096845617
96.9096845617
97.2187161056
97.2187161056
97.2187161056
97.496844495
97.496844495
97.7471600455
97.745420853
97.7329951197
97.9182119915
97.7599159752
97.6090032946
97.3687505948
97.2426933253
97.478321654
97.0739327766
95.4106005158
99.9744526651
99.9720251706
99.9720251706
99.9679141875
99.9652169714
99.9652169714
99.9652169714
99.9652169714
99.9618870751
99.957319316
99.9543224093
99.9492471214
99.9492471214
99.9492471214
99.9492471214
99.9492471214
99.9492471214
99.9492471214
99.9436079127
99.922644599
99.922644599
99.9140495544
99.9140495544
99.9044995049
99.9044995049
99.9044995049
99.9044995049
99.8938883388
99.8938883388
99.8938883388
99.8820981542
99.8689979491
99.8544421657
99.8544421657
99.838269073
99.838269073
99.838269073
99.82029897
99.82029897
99.82029897
99.82029897
99.8003321889
99.8003321889
99.8003321889
99.7781468766
99.7781468766
99.7534965295
99.7534965295
99.726107255
99.726107255
99.6956747278
99.6956747278
99.6618608086
99.5727520353
99.1272036432
99.0302262702
98.8027484817
98.6697205353
98.5219117059
98.3576796732
98.1751996369
97.972444041
97.7471600455
97.496844495
97.496844495
97.2187161056
97.2187161056
96.9096845617
96.9096845617
96.9096845617
96.9096845617
96.5663161797
96.5663161797
96.5663161797
96.5663161797
96.5663161797
96.5663161797
96.5663161797
96.5663161797
96.5663161797
96.5663161797
96.9096845617
96.9096845617
96.9096845617
97.2187161056
97.2187161056
97.496844495
97.7471600455
97.8258575322
97.6974727826
97.4853469352
97.4861494524
97.1326130795
97.2035350134
97.2844279548
95.8568002703
99.9744526651
99.9757250555
99.9720251706
99.9679141875
99.9652169714
99.9652169714
99.9652169714
99.9652169714
99.9618870751
99.957319316
99.9543224093
99.9492471214
99.9492471214
99.9492471214
99.9492471214
99.9492471214
99.9492471214
99.9436079127
99.9436079127
99.922644599
99.9140495544
99.9140495544
99.9140495544
99.9044995049
99.9044995049
99.9044995049
99.8938883388
99.8938883388
99.8938883388
99.8820981542
99.8689979491
99.8544421657
99.8544421657
99.838269073
99.838269073
99.838269073
99.82029897
99.82029897
99.82029897
99.8003321889
99.8003321889
99.8003321889
99.7781468766
99.7781468766
99.7781468766
99.7534965295
99.7534965295
99.726107255
99.726107255
99.6956747278
99.6956747278
99.6618608086
99.6242897874
99.1272036432
98.9224736336
98.8027484817
98.5219117059
98.3576796732
98.1751996369
97.972444041
97.7471600455
97.496844495
97.2187161056
97.2187161056
96.9096845617
96.9096845617
96.5663161797
96.5663161797
96.5663161797
96.5663161797
96.1847957552
96.1847957552
96.1847957552
96.1847957552
96.1847957552
96.1847957552
96.1847957552
96.1847957552
96.1847957552
96.1847957552
96.1847957552
96.1847957552
96.5663161797
96.5663161797
96.5663161797
96.9096845617
96.9096845617
97.2187161056
97.496844495
97.5939528316
97.3749618794
97.2969164016
97.2734732297
96.9730440355
97.4200738864
95.7256827969
99.9744526651
99.9757250555
99.9757250555
99.9720251706
99.9652169714
99.9652169714
99.9652169714
99.9652169714
99.9618870751
99.957319316
99.9543224093
99.9492471214
99.9492471214
99.9492471214
99.9492471214
99.9492471214
99.9436079127
99.9436079127
99.9303801391
99.922644599
99.9140495544
99.9140495544
99.9044995049
99.9044995049
99.9044995049
99.8938883388
99.8938883388
99.8820981542
99.8820981542
99.8689979491
99.8689979491
99.8544421657
99.8544421657
99.838269073
99.838269073
99.82029897
99.82029897
99.82029897
99.8003321889
99.8003321889
99.8003321889
99.7781468766
99.7781468766
99.7534965295
99.7534965295
99.726107255
99.726107255
99.726107255
99.6956747278
99.6956747278
99.6618608086
99.6242897874
99.1272036432
98.9224736336
98.6697205353
98.5219117059
98.1751996369
97.972444041
97.7471600455
97.2187161056
97.2187161056
96.9096845617
96.5663161797
96.5663161797
96.1847957552
96.1847957552
96.1847957552
96.1847957552
96.1847957552
95.7608841725
95.7608841725
95.7608841725
95.7608841725
95.7608841725
95.7608841725
95.7608841725
95.7608841725
95.7608841725
95.7608841725
95.7608841725
95.7608841725
95.7608841725
96.1847957552
96.1847957552
96.1847957552
96.5663161797
96.5663161797
96.9096845617
97.2187161056
97.3642361941
97.4314672408
97.1828543374
97.2014575951
97.1322870725
97.0820965461
95.6375912868
99.9781525499
99.9757250555
99.9757250555
99.9757250555
99.9693279546
99.9652169714
99.9652169714
99.9652169714
99.957319316
99.9543224093
99.9543224093
99.9492471214
99.9492471214
99.9492471214
99.9492471214
99.9436079127
99.9436079127
99.9373421252
99.922644599
99.9140495544
99.9140495544
99.9140495544
99.9044995049
99.9044995049
99.8938883388
99.8938883388
99.8820981542
99.8820981542
99.8689979491
99.8689979491
99.8544421657
99.8544421657
99.838269073
99.838269073
99.82029897
99.82029897
99.82029897
99.8003321889
99.8003321889
99.7781468766
99.7781468766
99.7781468766
99.7534965295
99.7534965295
99.726107255
99.726107255
99.6956747278
99.6956747278
99.6618608086
99.6618608086
99.6242897874
99.1272036432
98.9224736336
98.6697205353
98.3576796732
97.972444041
97.496844495
97.2187161056
96.5663161797
96.1847957552
96.1847957552
95.7608841725
95.7608841725
95.7608841725
95.7608841725
95.2898713028
95.2898713028
95.2898713028
95.2898713028
95.2898713028
95.2898713028
95.2898713028
95.2898713028
95.2898713028
95.2898713028
95.2898713028
95.2898713028
95.2898713028
95.2898713028
95.2898713028
95.2898713028
95.7608841725
95.7608841725
95.7608841725
95.7608841725
96.1847957552
96.1847957552
96.5663161797
96.5663161797
96.9096845617
97.1523109257
97.2993578374
97.1251295956
97.113196378
96.892410454
95.7815412121
99.9781525499
99.9757250555
99.9757250555
99.9757250555
99.9730278394
99.9693279546
99.9652169714
99.9652169714
99.957319316
99.9543224093
99.9492471214
99.9492471214
99.9492471214
99.9492471214
99.9436079127
99.9436079127
99.9436079127
99.9303801391
99.922644599
99.9140495544
99.9140495544
99.9044995049
99.9044995049
99.8938883388
99.8938883388
99.8820981542
99.8820981542
99.8689979491
99.8689979491
99.8544421657
99.8544421657
99.838269073
99.838269073
99.82029897
99.82029897
99.8003321889
99.8003321889
99.8003321889
99.7781468766
99.7781468766
99.7534965295
99.7534965295
99.7534965295
99.726107255
99.726107255
99.6956747278
99.6956747278
99.6618608086
99.6618608086
99.6242897874
99.1272036432
98.9224736336
98.5219117059
98.1751996369
97.496844495
96.1847957552
94.7665236697
93.5389181108
93.5389181108
93.5389181108
93.5389181108
94.1850262997
94.1850262997
94.1850262997
94.1850262997
94.1850262997
94.7665236697
94.7665236697
94.7665236697
94.7665236697
94.7665236697
94.7665236697
94.7665236697
94.7665236697
94.7665236697
94.7665236697
94.7665236697
94.7665236697
94.7665236697
95.2898713028
95.2898713028
95.2898713028
95.2898713028
95.2898713028
95.2898713028
95.7608841725
95.7608841725
96.1847957552
96.1847957552
96.5663161797
96.9096845617
97.035172535
96.9821193302
96.8696723011
96.7984900032
95.8601808569
99.9781525499
99.9757250555
99.9757250555
99.9757250555
99.9730278394
99.9693279546
99.9652169714
99.9652169714
99.957319316
99.9543224093
99.9492471214
99.9492471214
99.9492471214
99.9492471214
99.9436079127
99.9436079127
99.9373421252
99.922644599
99.922644599
99.9140495544
99.9044995049
99.9044995049
99.9044995049
99.8938883388
99.8938883388
99.8820981542
99.8689979491
99.8689979491
99.8544421657
99.8544421657
99.838269073
99.838269073
99.82029897
99.82029897
99.8003321889
99.8003321889
99.8003321889
99.7781468766
99.7781468766
99.7534965295
99.7534965295
99.726107255
99.726107255
99.726107255
99.6956747278
99.6956747278
99.6618608086
99.6618608086
99.6242897874
99.2144832789
98.8027484817
98.5219117059
97.496844495
90.1522909782
81.4697981115
77.123207545
76.7473848472
77.123207545
77.123207545
79.4108867905
83.3228183003
86.4914828233
89.0581010868
91.1370618803
92.0233556923
92.8210201231
92.8210201231
93.5389181108
93.5389181108
93.5389181108
94.1850262997
94.1850262997
94.1850262997
94.1850262997
94.1850262997
94.1850262997
94.1850262997
94.7665236697
94.7665236697
94.7665236697
94.7665236697
94.7665236697
94.7665236697
94.7665236697
95.2898713028
95.2898713028
95.2898713028
95.7608841725
95.7608841725
96.1847957552
96.5663161797
96.9022500454
97.0727035856
97.02355098
96.7681684519
95.9622392641
99.9781525499
99.9757250555
99.9757250555
99.9757250555
99.9730278394
99.9730278394
99.9693279546
99.9652169714
99.957319316
99.9543224093
99.9492471214
99.9492471214
99.9492471214
99.9436079127
99.9436079127
99.9373421252
99.9303801391
99.922644599
99.9140495544
99.9140495544
99.9044995049
99.9044995049
99.8938883388
99.8938883388
99.8820981542
99.8689979491
99.8689979491
99.8544421657
99.8544421657
99.838269073
99.838269073
99.82029897
99.82029897
99.8003321889
99.8003321889
99.7781468766
99.7781468766
99.7781468766
99.7534965295
99.7534965295
99.726107255
99.726107255
99.6956747278
99.6956747278
99.6956747278
99.6618608086
99.6242897874
99.5825442082
99.293034951
98.8027484817
98.1751996369
77.123207545
65.13215599
61.2579511
56.953279
56.953279
56.953279
61.2579511
61.2579511
65.13215599
68.618940391
71.7570463519
77.123207545
79.4108867905
84.9905364703
87.8423345409
89.0581010868
91.1370618803
91.1370618803
92.0233556923
92.8210201231
92.8210201231
92.8210201231
93.5389181108
93.5389181108
93.5389181108
93.5389181108
94.1850262997
94.1850262997
94.1850262997
94.1850262997
94.1850262997
94.1850262997
94.7665236697
94.7665236697
94.7665236697
94.7665236697
95.2898713028
95.5212893279
95.7608841725
96.1847957552
96.5663161797
97.0709881573
97.1533735158
96.8396569213
95.8096745331
99.9781525499
99.9757250555
99.9757250555
99.9757250555
99.9730278394
99.9730278394
99.9693279546
99.9652169714
99.9543224093
99.9543224093
99.9492471214
99.9492471214
99.9492471214
99.9436079127
99.9373421252
99.9303801391
99.922644599
99.922644599
99.9140495544
99.9044995049
99.9044995049
99.8938883388
99.8938883388
99.8820981542
99.8689979491
99.8689979491
99.8544421657
99.8544421657
99.838269073
99.838269073
99.82029897
99.82029897
99.8003321889
99.8003321889
99.7781468766
99.7781468766
99.7534965295
99.7534965295
99.726107255
99.726107255
99.726107255
99.6956747278
99.6956747278
99.6618608086
99.6618608086
99.6242897874
99.5825442082
99.4846224793
98.8027484817
81.4697981115
56.953279
46.8559
46.8559
46.8559
46.8559
46.8559
46.8559
46.8559
52.17031
52.17031
56.953279
56.953279
61.2579511
65.13215599
71.7480604429
74.5813417167
79.4108867905
83.3228183003
86.4914828233
89.0581010868
90.1522909782
91.1370618803
92.0233556923
92.0233556923
92.0233556923
92.8210201231
92.8210201231
92.8210201231
93.5389181108
93.5389181108
93.5389181108
93.5389181108
93.5389181108
94.1850262997
94.1850262997
94.1850262997
94.7665236697
94.7665236697
95.2898713028
95.2898713028
95.7608841725
96.1847957552
96.9096845617
97.0406223134
96.9298342421
95.6406600252
99.9781525499
99.9757250555
99.9757250555
99.9757250555
99.9730278394
99.9730278394
99.9693279546
99.9618870751
99.9543224093
99.9543224093
99.9492471214
99.9492471214
99.9436079127
99.9436079127
99.9373421252
99.9303801391
99.922644599
99.9140495544
99.9140495544
99.9044995049
99.8938883388
99.8938883388
99.8820981542
99.8689979491
99.8689979491
99.8544421657
99.8544421657
99.838269073
99.82029897
99.82029897
99.82029897
99.8003321889
99.8003321889
99.7781468766
99.7781468766
99.7534965295
99.7534965295
99.726107255
99.726107255
99.6956747278
99.6956747278
99.6618608086
99.6618608086
99.6618608086
99.6242897874
99.5825442082
99.4846224793
98.8027484817
65.13215599
40.951
34.39
34.39
40.951
40.951
40.951
40.951
40.951
40.951
46.8559
46.8559
46.8559
46.8559
52.17031
52.17031
56.953279
61.2579511
65.13215599
68.618940391
74.5813417167
79.4108867905
84.9905364703
86.4914828233
89.0581010868
90.1522909782
91.1370618803
91.1370618803
92.0233556923
92.0233556923
92.0233556923
92.8210201231
92.8210201231
92.8210201231
93.5389181108
93.5389181108
93.5389181108
93.5389181108
94.1850262997
94.1850262997
94.7665236697
95.2898713028
95.2898713028
96.1847957552
96.5663161797
96.9804369415
97.0332862688
95.474462131
99.9781525499
99.9757250555
99.9757250555
99.9757250555
99.9730278394
99.9730278394
99.9693279546
99.9588901683
99.9543224093
99.9543224093
99.9492471214
99.9492471214
99.9436079127
99.9373421252
99.9303801391
99.922644599
99.9140495544
99.9140495544
99.9044995049
99.9044995049
99.8938883388
99.8820981542
99.8689979491
99.8689979491
99.8544421657
99.838269073
99.838269073
99.82029897
99.82029897
99.8003321889
99.8003321889
99.7781468766
99.7781468766
99.7534965295
99.7534965295
99.726107255
99.726107255
99.6956747278
99.6956747278
99.6956747278
99.6618608086
99.6618608086
99.6242897874
99.6242897874
99.5825442082
99.4846224793
98.8027484817
52.17031
17.1
9
27.1
34.39
34.39
40.951
40.951
40.951
40.951
40.951
40.951
40.951
40.951
40.951
40.951
46.8559
46.8559
46.8559
52.17031
56.953279
61.2579511
65.13215599
71.7570463519
77.123207545
81.4697981115
84.9905364703
87.8423345409
89.0581010868
90.1522909782
91.0638778285
91.1370618803
91.1370618803
92.0233556923
92.0233556923
92.8210201231
92.8210201231
92.8210201231
93.5389181108
93.5389181108
94.1850262997
94.1850262997
94.7665236697
95.2898713028
95.7608841725
96.1847957552
96.9050654043
97.0048646686
95.3915117095
99.9781525499
99.9757250555
99.9757250555
99.9757250555
99.9730278394
99.9730278394
99.9693279546
99.9588901683
99.9543224093
99.9543224093
99.9492471214
99.9492471214
99.9436079127
99.9373421252
99.9303801391
99.922644599
99.9140495544
99.9044995049
99.9044995049
99.8938883388
99.8820981542