/*--------------------------------*- C++ -*----------------------------------*\
| =========                 |                                                 |
| \\      /  F ield         | OpenFOAM: The Open Source CFD Toolbox           |
|  \\    /   O peration     | Version:  v1906                                 |
|   \\  /    A nd           | Web:      www.OpenFOAM.com                      |
|    \\/     M anipulation  |                                                 |
\*---------------------------------------------------------------------------*/
FoamFile
{
    version     2.0;
    format      ascii;
    class       surfaceScalarField;
    location    "982";
    object      phia;
}
// * * * * * * * * * * * * * * * * * * * * * * * * * * * * * * * * * * * * * //

dimensions      [0 3 -1 0 0 0 0];
oriented        oriented;


internalField   nonuniform List<scalar> 
18240
(
0.0013466692478
-0.00134660602445
0.00282096169862
-0.00147422142472
0.00429418620889
-0.00147315824195
0.00574866093082
-0.00145440273268
0.00717636655576
-0.00142764062141
0.0085705599479
-0.00139412086295
0.00992517581455
-0.00135455245407
0.0112347662305
-0.00130951751349
0.0124944345627
-0.00125960669741
0.0136999144796
-0.00120540682651
0.0148475065586
-0.00114753242436
0.0159341600454
-0.00108658041091
0.0169573774924
-0.00102315994446
0.0179152903987
-0.000957840062299
0.0188065329052
-0.000891187354693
0.0196303157986
-0.000823710507735
0.0203862755906
-0.000755907147466
0.0210745532077
-0.000688205928265
0.0216956253697
-0.000621022207996
0.0222503936478
-0.000554697528981
0.0227400039786
-0.00048956319629
0.023165950102
-0.000425876562956
0.0235298854451
-0.000363891180495
0.0238337428169
-0.000303789244074
0.0240795409168
-0.000245756995373
0.0242695201923
-0.000189912821237
0.0244059449113
-0.000136386778764
0.0244912538235
-8.52443567238e-05
0.0245278580962
-3.65695284169e-05
0.024518305415
9.61512504969e-06
0.0244650761323
5.3260779673e-05
0.0243707511162
9.43851582154e-05
0.0242377978537
0.000132981538395
0.0240687624769
0.000169093042578
0.0238660590525
0.000202728484382
0.0236321592071
0.000233954888206
0.0233693772079
0.000262803926062
0.0230800675675
0.000289361933934
0.022766409892
0.000313676527327
0.022430611297
0.000335848041158
0.0220746915347
0.000355935669483
0.021700688567
0.000374049488523
0.0213104450559
0.000390256575064
0.0209058156127
0.000404672987375
0.0204884556806
0.000417370319738
0.0200600290791
0.000428467136218
0.0196220004365
0.000438036488398
0.0191758416862
0.000446196267723
0.0187228290305
0.000453018151795
0.0182642470896
0.000458616449798
0.0178011914007
0.000463058993029
0.0173347689099
0.000466454022875
0.0168659067628
0.000468863466691
0.0163955478502
0.000470387514305
0.0159244666174
0.000471080740205
0.0154534583763
0.000471033979996
0.0149831626213
0.000470293663605
0.0145142448987
0.000468940679377
0.0140472281141
0.000467013272851
0.0135826658395
0.000464582548352
0.0131209819344
0.000461679183437
0.0126626343472
0.000458365288087
0.0122079634266
0.000454665164829
0.0117573454551
0.000450633224014
0.0113110499344
0.000446288928979
0.0108693823249
0.000441680545611
0.0104325506624
0.000436824399013
0.0100007971842
0.000431764239355
0.00957427455692
0.000426514869661
0.00915316628916
0.000421116998712
0.00873757288679
0.000415585296141
0.00832762111322
0.000409958624298
0.00792336028164
0.00040425252956
0.00752486057376
0.00039850482916
0.00713211965594
0.000392732546329
0.0067451503511
0.000386972850427
0.00636389763411
0.000381244407413
0.00598831602168
0.000375583736008
0.00561829694676
0.000370010939776
0.00525373625033
0.00036456155233
0.00489447181707
0.000359256587382
0.00454034157582
0.000354129978272
0.00419113124992
0.000349202864617
0.00384662329776
0.000344506703187
0.00350655465436
0.000340061639674
0.00317065726006
0.000335895255862
0.00283862616344
0.000332024572771
0.00251015352827
0.000328469665337
0.00218491052238
0.000325236967439
0.00186258482362
0.000322322023916
0.00154290148241
0.000319677923664
0.00122573235389
0.000317165013864
0.000911349871664
0.0003143778734
0.000601451395262
0.000309894162764
0.000303708180741
0.000297738684537
0.000303705885509
0.0014887977903
-0.00283533558166
0.0031506944773
-0.00313604493201
0.00480348622847
-0.00312587751826
0.00643247346765
-0.00308331622097
0.00803023025941
-0.00302532562295
0.00958981435005
-0.00295363140856
0.011104631448
-0.00286929865607
0.012568629246
-0.00277344220089
0.0139763582419
-0.00266726587058
0.015323044924
-0.00255202103361
0.016604582031
-0.00242900097118
0.0178175665763
-0.00229949332517
0.0189592536509
-0.00216477993457
0.0200275744022
-0.00202609024408
0.021021063185
-0.0018846107301
0.0219388639017
-0.00174144193721
0.0227806388638
-0.00159761859552
0.0235465714235
-0.00145407070888
0.0242372643828
-0.00131165374371
0.0248537457922
-0.00117111289099
0.0253973633387
-0.00103312161562
0.0258697982642
-0.000898247393935
0.0262729600107
-0.000766996273542
0.0266090107624
-0.000639778063654
0.0268802622856
-0.00051695451633
0.0270892113476
-0.000398802310966
0.0272384388848
-0.000285563105121
0.0273306550992
-0.000177403535104
0.0273686001527
-7.4466295195e-05
0.027355096802
2.31728182893e-05
0.0272929492791
0.000115453574638
0.0271850098805
0.00020237607503
0.0270340882357
0.000283945359084
0.026843007928
0.000360221935114
0.0266145081434
0.000431267312979
0.0263513172353
0.000497191370349
0.0260560584969
0.000558098553406
0.0257313256791
0.000614137261499
0.0253795896145
0.000665445344074
0.0250032769396
0.00071220013626
0.024604678302
0.00075456395041
0.0241860296377
0.000792734479654
0.0237494222913
0.000826890520626
0.0232968861372
0.000857242396248
0.0228303019468
0.000883978136618
0.0223514857072
0.000907313598484
0.0218621035997
0.000927439351758
0.0213637568917
0.000944570227511
0.0208578998487
0.000958893186913
0.0203459245757
0.00097061608054
0.0198290821299
0.000979916798731
0.0193085666383
0.00098699107297
0.0187854397564
0.000992003210472
0.0182607133463
0.000995132791325
0.0177352773337
0.000996527270358
0.017209980183
0.000996347428366
0.0166855600966
0.000994722077602
0.0161627225308
0.00099179210622
0.0156420746473
0.000987667462611
0.0151241991572
0.000982469606758
0.0146095919145
0.000976290878219
0.0140987314868
0.000969235142043
0.0135920198395
0.000961379585406
0.0130898471714
0.00095281333423
0.0125925356923
0.00094360167381
0.0121003994384
0.000933822417769
0.0116136912458
0.000923532522969
0.0111326574241
0.000912802018063
0.0106574880858
0.000901682970678
0.0101883667167
0.00089024082439
0.00972542408545
0.00087852568439
0.00926878286271
0.00086660096245
0.00881851534101
0.000854516957195
0.00837468333968
0.000842336760539
0.00793729996383
0.000830112126871
0.00750636507012
0.000817906642198
0.00708183124014
0.000805773884709
0.00666363509494
0.000793777897675
0.00625166761167
0.000781973652216
0.00584580155709
0.000770424889226
0.00544586620225
0.00075918688747
0.00505167112102
0.000748321748211
0.00466298531343
0.000737883454538
0.00427955759038
0.000727930643272
0.00390110007439
0.000718513868444
0.00352730537743
0.000709685779678
0.00315783438366
0.000701490250558
0.00279233013016
0.00069396939583
0.00243040850189
0.000687153281114
0.00207166414178
0.000681061600495
0.00171564662615
0.000675690351813
0.00136180128762
0.000671005633867
0.0010092517424
0.000666922575386
0.000655934607703
0.000663206606476
0.000296899137952
0.000656769731923
0.000600602898138
0.00151510696841
-0.00435037387503
0.0031982898123
-0.00481915415991
0.00487482613098
-0.00480234075855
0.00652744250806
-0.00473585910452
0.00814797398478
-0.00464578436329
0.00972915184851
-0.00453473628121
0.0112642096159
-0.00440428434025
0.0127469677719
-0.00425612801341
0.0141718914317
-0.00409211829777
0.0155341428629
-0.00391420095542
0.016829589983
-0.00372437791839
0.0180548215303
-0.00352465440273
0.0192071209381
-0.00331701043365
0.0202844563476
-0.00310335643966
0.0212854303173
-0.00288551727642
0.0222092542638
-0.0026651981444
0.0230556832861
-0.00244398188925
0.0238249838102
-0.00222330519121
0.024517861937
-0.00200446806022
0.0251354317844
-0.00178861861244
0.0256791440596
-0.00157677220107
0.0261507604581
-0.00136980179684
0.02655228672
-0.00116846317533
0.0268859556995
-0.000973387377615
0.0271541663938
-0.000785108356611
0.0273594757692
-0.000604054537797
0.0275045432425
-0.00043057640582
0.0275921298746
-0.000264935697966
0.0276250469624
-0.000107332025523
0.0276061610541
4.21103731183e-05
0.0275383459824
0.000183317060727
0.0274244920772
0.00031627868979
0.0272674620717
0.000441020751452
0.0270701043139
0.000557625372466
0.0268352095932
0.000666204320474
0.0265655286733
0.000766914883229
0.0262637317144
0.000859934674615
0.0259324292066
0.000945479241251
0.0255741336
0.00102377697085
0.0251912828793
0.00109508720353
0.024786204272
0.00115967546254
0.0243611400423
0.00121783194564
0.0239182132577
0.00126984712466
0.0234594554298
0.00131603039229
0.0229867743282
0.00135668604231
0.0225019831758
0.00139213190843
0.0220067705821
0.00142267580475
0.0215027310053
0.00144863403175
0.0209913368188
0.00147030839325
0.0204739697414
0.00148800454819
0.0199518950277
0.00150200979599
0.0194262934907
0.00151261127531
0.0188982376637
0.00152007471833
0.0183687239689
0.00152466254787
0.017838650641
0.00152661380588
0.0173088495084
0.00152616215668
0.0167800653481
0.00152351712711
0.0162529867302
0.00151888199763
0.0157282264826
0.00151243643026
0.0152063510593
0.00150435413755
0.0146878617829
0.00149478687467
0.014173222292
0.00148388173383
0.0136628403418
0.00147176641722
0.0131570929994
0.00145856593779
0.0126563088622
0.00144438902903
0.0121607908312
0.00142934403626
0.0116707987597
0.00141352631358
0.0111865697737
0.00139703308608
0.0107083014492
0.00137995168668
0.0102361697872
0.00136237322647
0.00977031312712
0.0013443815675
0.00931084796969
0.00132606567975
0.00885785385893
0.00130750928381
0.00841138730725
0.00128880184718
0.00797146790913
0.00127002888373
0.00753809062906
0.00125128158533
0.007111213369
0.00123264779722
0.00669076787129
0.00121422033392
0.00627664893243
0.00119608867939
0.00586872412759
0.00117834605285
0.00546682479182
0.00116108188775
0.00507075472816
0.00114438772691
0.00468028302267
0.00112835052614
0.00429515182519
0.00111305742986
0.00391507095972
0.00109858989923
0.00353972472113
0.00108502735613
0.00316876794431
0.00107244203767
0.00280183107195
0.00106090138422
0.00243851573708
0.00105046351425
0.00207839361069
0.00104117873211
0.00172099119867
0.00103308771571
0.00136576216903
0.00102622985201
0.00101202655135
0.00102065347292
0.000658970700481
0.00101625763264
0.000307443982541
0.0010082918808
0.000908044796557
0.00153845006937
-0.00588875510471
0.00324466800027
-0.00652529931677
0.0049443634036
-0.00650196272642
0.00661946006217
-0.0064108825612
0.00826132465168
-0.00628757597398
0.00986236346788
-0.00613570232993
0.0114155876229
-0.0059574361544
0.0129146592659
-0.00575512755637
0.014353942763
-0.00553133025535
0.0157285441288
-0.00528873108706
0.0170343225068
-0.00503008574943
0.0182678924148
-0.00475815414927
0.0194266012121
-0.00447564989127
0.0205085039104
-0.00418519026506
0.0215123171047
-0.00388926255217
0.0224373767486
-0.0035901904238
0.0232835787319
-0.00329011760108
0.0240513293101
-0.00299099013666
0.024741481461
-0.00269455580391
0.025355286216
-0.00240235968663
0.0258943320379
-0.00211575570183
0.0263605028761
-0.00183591112075
0.026755924891
-0.00156382515757
0.0270829337916
-0.00130033713172
0.027344029923
-0.0010461469408
0.0275418544036
-0.000801822425177
0.0276791511654
-0.000567818273623
0.0277587498347
-0.000344480489855
0.0277835326978
-0.00013206280204
0.0277564224885
6.92716031009e-05
0.0276803531819
0.000259435526748
0.0275582604825
0.000438419439149
0.0273930567717
0.000606270588681
0.0271876254338
0.000763101700915
0.0269447979656
0.000909074819716
0.0266673520941
0.0010444026324
0.0263579910501
0.00116933561173
0.0260193447991
0.00128416422904
0.0256539518433
0.0013892066749
0.0252642629207
0.00148481172156
0.0248526249997
0.00157134699596
0.0244212870843
0.00164920233671
0.0239723862165
0.00171877850966
0.0235079551408
0.00178049086949
0.023029910235
0.00183475842345
0.0225400608774
0.00188200765731
0.0220400992739
0.00192266192197
0.0215316113902
0.00195714538003
0.0210160686328
0.00198587279283
0.0204948401767
0.00200925364087
0.0199691863876
0.00202768246805
0.019440272283
0.00204154330334
0.0189091624726
0.00205120077211
0.0183768353867
0.00205700497064
0.0178441793978
0.00205928353671
0.0173120073463
0.00205834709828
0.0167810534202
0.00205448243703
0.0162519874642
0.00204795854544
0.0157254121671
0.00203902091043
0.0152018766482
0.00202789810817
0.0146818735411
0.00201479712446
0.0141658514359
0.00199991031424
0.0136542115479
0.00198341157679
0.0131473187196
0.0019654634336
0.012645497497
0.00194621382068
0.0121490415557
0.00192580300707
0.0116582091577
0.00190436075015
0.0111732310148
0.00188201279033
0.0106943052322
0.00185887814476
0.0102216037546
0.00183507496375
0.00975526700538
0.00181071779483
0.00929540914697
0.00178592265884
0.00884211268062
0.00176080419011
0.0083954327975
0.00173547986947
0.00795539222101
0.00171006701737
0.00752198492561
0.00168468619157
0.00709517147764
0.00165945806926
0.00667488237091
0.00163450607143
0.00626101407738
0.00160995320964
0.00585343219425
0.0015859240306
0.0054519683493
0.00156254152182
0.00505642328923
0.00153992848115
0.00466656470926
0.00151820457472
0.00428213032254
0.00149748722638
0.00390282656177
0.0014778889052
0.00352833149688
0.00145951761898
0.00315829407471
0.0014424745252
0.0027923362539
0.00142685422324
0.00243005156673
0.00141274312784
0.00207100449571
0.0014002207262
0.00171472580143
0.00138936144502
0.00136070880435
0.00138024201342
0.0010084183497
0.00137293905693
0.000657455586329
0.00136721564565
0.000309452061925
0.00135629089994
0.00121749470321
0.00156841910702
-0.00745710557628
0.00330651106288
-0.00826331775778
0.00503748680927
-0.00823286533383
0.0067426397125
-0.00811596219155
0.00841289271222
-0.00795775606937
0.01004028138
-0.00776301827777
0.011617529198
-0.00753461162792
0.013138088121
-0.00727561443672
0.0145961866306
-0.00698935718118
0.0159868610607
-0.00667933433007
0.0173059634013
-0.00634911747156
0.0185501534659
-0.00600227408735
0.0197168716362
-0.00564229861827
0.0208043020123
-0.00527255179221
0.0218113214884
-0.00489621398249
0.0227374454167
-0.00451624700478
0.0235827642836
-0.00413537004218
0.0243478826419
-0.00375604287621
0.0250338535203
-0.00338046210524
0.0256421198401
-0.00301056234213
0.0261744546074
-0.00264802795969
0.0266329112638
-0.00229430628565
0.0270197742322
-0.00195062789958
0.0273375206085
-0.00161802439522
0.0275887813951
-0.00129734997771
0.0277763130534
-0.00098929753751
0.0279029667642
-0.000694416891766
0.0279716666098
-0.000413126522268
0.0279853838011
-0.000145727707653
0.0279471190174
0.000107587325194
0.0278598801018
0.000346723789131
0.0277266663252
0.000571681162698
0.0275504511932
0.000782532027167
0.0273341694769
0.000979428284037
0.0270807014777
0.00116258601305
0.0267928647819
0.00133228106234
0.0264734007451
0.00148883969536
0.0261249691193
0.00163263443062
0.0257501371045
0.00176407557404
0.0253513763408
0.00188360790319
0.0249310541188
0.0019917029566
0.0244914323842
0.00208885635585
0.0240346608848
0.00217558063478
0.0235627780002
0.00225240295209
0.0230777057279
0.00231985826932
0.0225812522615
0.0023784873013
0.0220751088036
0.00242882997419
0.0215608538408
0.00247142358499
0.0210399517431
0.00250679660228
0.0205137586406
0.00253546715063
0.0199835226999
0.00255793734373
0.0194503913912
0.00257469230046
0.0189154131845
0.00258619526266
0.018379545862
0.00259288739125
0.0178436592458
0.00259518391824
0.0173085440783
0.00259347491452
0.0167749152818
0.00258812262929
0.0162434208623
0.00257946331515
0.0157146451769
0.00256780577519
0.0151891173265
0.00255343417017
0.0146673139419
0.00253660763767
0.0141496666219
0.00251756387345
0.013636563879
0.00249651956437
0.0131283573223
0.00247367442791
0.0126253625557
0.002449212122
0.0121278639809
0.00242330439046
0.011636114624
0.00239611210262
0.0111503396029
0.00236778916334
0.010670735002
0.00233848337451
0.0101974701895
0.0023083398404
0.00973068598377
0.00227750142857
0.00927049609255
0.0022461114916
0.0088169848693
0.00221431380385
0.0083702081885
0.00218225452847
0.00793019110814
0.0021500816067
0.00749692848347
0.00211794598568
0.0070703828179
0.00208600051492
0.00665048487719
0.0020544005218
0.00623713195994
0.00202330232415
0.00583018870704
0.00199286327745
0.00542948594551
0.00196324003866
0.0050348218134
0.00193458822658
0.00464596124899
0.00190706057948
0.00426263745467
0.0018808063685
0.00388455199038
0.00185596959099
0.00351137646774
0.00183268829431
0.00314275303847
0.00181109300211
0.00277829599814
0.00179130624585
0.00241759229499
0.00177344175346
0.00206020282659
0.00175760512942
0.00170566385562
0.00174389536759
0.00135349312422
0.00173240790608
0.00100321164969
0.00172321582663
0.00065448984029
0.00171593260977
0.000308903910753
0.00170187223438
0.00152639653766
0.00160631493351
-0.0090633517418
0.00338560857286
-0.0100425389189
0.0051568340054
-0.0100040173747
0.00690051070549
-0.00985956586758
0.00860703898628
-0.00966421140072
0.0102680096895
-0.00942391635448
0.0118757919787
-0.009142321566
0.0134235777562
-0.0088233282265
0.0149054293025
-0.00847113712146
0.0163163039624
-0.00809013783534
0.0176520550024
-0.00768479783917
0.0189094128466
-0.00725956181581
0.0200859484266
-0.00681876467273
0.0211800237725
-0.00636655827943
0.0221907313036
-0.00590685335691
0.0231178269427
-0.00544327526887
0.0239616579732
-0.00497913451691
0.0247230906893
-0.00451740993257
0.0254034381736
-0.00406074486536
0.026004392976
-0.00361145343044
0.026527964044
-0.00317153636526
0.0269764218316
-0.00274270252881
0.0273522493845
-0.00232639506802
0.0276581020777
-0.00192381792431
0.0278967722365
-0.0015359622346
0.0280711604722
-0.00116362918227
0.0281842492622
-0.000807450442175
0.0282390808209
-0.000467904232763
0.0282387351115
-0.000145329580094
0.0281863108899
0.000160062506469
0.0280849065352
0.000448177610623
0.0279376024201
0.000719033228986
0.0277474463059
0.000972734546146
0.0275174384607
0.00120948098191
0.0272505184561
0.00142954929357
0.0269495549426
0.00163328627749
0.0266173350322
0.00182109971278
0.0262565569052
0.00199345108337
0.0258698217187
0.00215084768927
0.0254596284903
0.00229383648311
0.0250283680594
0.00242299715026
0.0245783198748
0.00253893674328
0.0241116477658
0.00264228337939
0.0236303984885
0.00273368133148
0.0231364992575
0.00281378506523
0.0226317580477
0.00288325457961
0.0221178629217
0.00294274967283
0.0215963841159
0.00299292551173
0.0210687751847
0.00303442720639
0.0205363768418
0.0030678857683
0.0200004198345
0.00309391323512
0.0194620303655
0.00311309931471
0.0189222344458
0.00312600739989
0.0183819645414
0.00313317224102
0.0178420649707
0.00313509717724
0.017303299257
0.00313225311571
0.0167663560006
0.00312507719107
0.0162318563307
0.00311397316683
0.0157003596392
0.00309931154738
0.0151723705287
0.00308143131819
0.0146483438549
0.00306064133201
0.0141286906729
0.0030372231169
0.0136137821761
0.0030114331935
0.0131039543149
0.00298350654766
0.0125995104126
0.00295365944258
0.0121007243351
0.00292209309883
0.0116078417677
0.00288899655033
0.0111210820094
0.00285455009998
0.0106406380706
0.002818927829
0.0101666773232
0.0027823004856
0.00969934070645
0.00274483736707
0.00923874255759
0.00270670842553
0.00878496927806
0.00266808537567
0.00833807870524
0.00262914293574
0.0078980985945
0.00259005913973
0.00746502587268
0.00255101574791
0.00703882525001
0.00251219784313
0.00661942864085
0.00247379352801
0.0062067341505
0.00243599295093
0.00580060586976
0.00239898745653
0.00540087339807
0.00236296821806
0.00500733213163
0.00232812502797
0.00461974339433
0.00229464472239
0.00423783524829
0.00226270980026
0.00386130320933
0.00223249682842
0.00348981151873
0.00220417509108
0.00312299434893
0.00217790520487
0.00276045746038
0.00215383809271
0.00240177993237
0.0021321141909
0.00204651666623
0.00211286328887
0.00169420219895
0.00209620487663
0.00134435789681
0.00208224736825
0.000996510444852
0.00207105839993
0.000650311214486
0.00206212711192
0.000307223754092
0.00204495522006
0.00183361815698
0.00165296568748
-0.0107162489966
0.00348324465874
-0.0118727444424
0.00530422052965
-0.011824920316
0.00709541271241
-0.0116506849223
0.00884656649525
-0.0114152924193
0.0105487295517
-0.0111260068199
0.01219384182
-0.010787361575
0.0137747857699
-0.0104042002192
0.0152854322847
-0.00998171208083
0.0167206580179
-0.00952529241265
0.0180763355645
-0.00904040473301
0.0193493015897
-0.00853245768888
0.0205373063079
-0.00800669985326
0.021638949421
-0.0074681324647
0.02265360522
-0.00692144096032
0.0235813414718
-0.0063709440498
0.0244228342283
-0.00582056065385
0.0251792830015
-0.00527379293025
0.0258523281051
-0.00473372516467
0.0264439742668
-0.00420303575006
0.0269565214612
-0.00368402080423
0.0273925058295
-0.00317862521921
0.0277546498216
-0.00268847857908
0.0280458224209
-0.00221493122759
0.0282690065989
-0.00175908841319
0.0284272734395
-0.00132183930717
0.028523759429
-0.000903881102059
0.0285616466207
-0.000505737463708
0.0285441431059
-0.000127773566437
0.0284744646472
0.000229792021727
0.0283558165564
0.000566875232524
0.0281913779023
0.000883519910555
0.0279842834592
0.00117987544083
0.0277376123036
0.00145619704501
0.0274543740024
0.0017128308967
0.0271374984417
0.00195020357288
0.026789826386
0.0021688118837
0.0264141020715
0.00236921393587
0.0260129662287
0.00255202044899
0.0255889508122
0.00271788724325
0.0251444739156
0.00286750778164
0.0246818362234
0.00300160661158
0.0242032175869
0.00312093260529
0.0237106751109
0.00322625286484
0.0232061414095
0.00331834627076
0.0226914244173
0.0033979975789
0.0221682074531
0.00346599113235
0.0216380508816
0.00352310512656
0.0211023940851
0.00357010558506
0.0205625590247
0.00360774101063
0.0200197540921
0.00363673694596
0.0194750794344
0.00365779141026
0.0189295324371
0.00367157049656
0.0183840144417
0.00367870506096
0.0178393373777
0.00367978779774
0.0172962312886
0.00367537155915
0.0167553514521
0.00366596819068
0.0162172860114
0.00365204864556
0.01568256287
0.00363404361642
0.0151516567313
0.00361234534206
0.0146249951207
0.0035873098027
0.0141029642654
0.00355925987546
0.0135859137731
0.00352848865135
0.0130741609927
0.00349526342563
0.0125679941083
0.00345982957613
0.0120676748656
0.00342241481195
0.0115734400852
0.00338323304174
0.0110855028671
0.00334248834013
0.0106040527312
0.00330037831571
0.0101292555913
0.00325709737488
0.00966125287518
0.00321283924689
0.00920016066164
0.00316779928691
0.00874606819444
0.0031221759881
0.00829903660378
0.00307617223781
0.00785909722586
0.00302999580621
0.00742625029423
0.00298385961333
0.00700046341718
0.002937981308
0.00658167055046
0.00289258270297
0.00616977090068
0.00284788863655
0.00576462839711
0.00280412578785
0.00536607119081
0.00276152104924
0.00497389174623
0.00272029995459
0.00458784701122
0.00268068479761
0.00420765915815
0.00264289290284
0.00383301641713
0.00260713471853
0.00346357443604
0.00257361215724
0.00309895774656
0.00254251689642
0.0027387617553
0.00251402902782
0.0023825550222
0.00248831582913
0.00202988231347
0.00246553092759
0.00168026867511
0.00244581346268
0.00133322582147
0.00242928538955
0.000988265337597
0.00241601420526
0.000645002883365
0.00240538475523
0.000304814724666
0.00238513883631
0.00213843084211
0.00170918693531
-0.012425367372
0.00360096461131
-0.0137644500667
0.00548188907029
-0.0137057716012
0.00733021958521
-0.0134989426912
0.00913488857195
-0.0132198886676
0.0108862829461
-0.0128773287802
0.0125758318801
-0.0124768383254
0.0141960597397
-0.0120243562425
0.0157406278742
-0.0115262087115
0.0172043407017
-0.0109889341672
0.0185831211601
-0.0104191145477
0.0198739613139
-0.00982322773581
0.0210748540365
-0.00920752300532
0.022184710388
-0.0085779198976
0.0232032671548
-0.00793992946012
0.0241309880374
-0.00729859743873
0.0249689623394
-0.00665846823558
0.0257188044924
-0.00602356925924
0.0263825583164
-0.00539741406132
0.026962609233
-0.00478302275745
0.0274616076091
-0.00418295628942
0.0278824049251
-0.00359936077884
0.0282280035097
-0.00303401654114
0.0285015185981
-0.00248838693682
0.028706150506
-0.00196366218304
0.0288451635529
-0.00146079555699
0.0289218686794
-0.000980530767694
0.0289396071003
-0.00052342185015
0.0289017336856
-8.98475357204e-05
0.0288115996141
0.000319977210686
0.0286725325344
0.000705991943148
0.0284878256102
0.00106827490472
0.0282607163182
0.00140703126153
0.0279943743904
0.00172258390288
0.0276918898683
0.00201535877631
0.027356263037
0.00228587214123
0.0269903960538
0.00253471901439
0.0265970859192
0.00276256259078
0.0261790185202
0.00297012477637
0.0257387635538
0.00315817751653
0.0252787701998
0.00332753486026
0.0248013635225
0.00347904541011
0.0243087415728
0.00361358511542
0.0238029732696
0.00373205015329
0.0232859970685
0.00383534992729
0.0227596205362
0.0039244000297
0.0222255208343
0.00400011526376
0.0216852462347
0.00406340266496
0.021140218637
0.00411515468104
0.020591737174
0.00415624253577
0.0200409828103
0.00418750998787
0.0194890239541
0.00420976756983
0.0189368229025
0.00422378753079
0.0183852430643
0.00423029957525
0.017835056705
0.00422998758252
0.0172869531039
0.0042234873531
0.0167415468259
0.00421138548664
0.0161993859776
0.00419421935867
0.0156609601588
0.0041724782068
0.015126707993
0.00414660521001
0.0145970240002
0.00411700049008
0.0140722647377
0.00408402485064
0.0135527540517
0.00404800413217
0.0130387874215
0.00400923395837
0.0125306353335
0.00396798474004
0.0120285457192
0.00392450670099
0.0115327454832
0.00387903481795
0.0110434411983
0.00383179345427
0.0105608190651
0.00378300063488
0.0100850442306
0.003732871773
0.00961625961634
0.00368162287076
0.00915458433868
0.00362947303776
0.00870011190543
0.00357664642644
0.00825290823581
0.00352337345896
0.00781300970044
0.00346989150743
0.00738042118458
0.00341644492084
0.00695511436804
0.00336328460891
0.00653702617744
0.00331066707956
0.00612605759487
0.00325885317204
0.00572207273258
0.00320810637649
0.00532489834548
0.00315869099855
0.00493432365193
0.00311087004969
0.00455010062032
0.00306490312608
0.00417194456544
0.00302104414665
0.00379953520007
0.00297953920796
0.0034325179818
0.00294062441948
0.00307050590518
0.0029045239646
0.00271308162123
0.00287144824292
0.00235980006388
0.00284159228668
0.00201019160207
0.00281513428449
0.00166376600438
0.00279223412293
0.00132001722007
0.00277302935232
0.000978433825819
0.00275759274448
0.000638596944812
0.00274521696656
0.000301816766658
0.00272191462145
0.00244024552505
0.00177592950612
-0.0142012288686
0.00374068514272
-0.0157291325287
0.00569264627587
-0.0156576602645
0.00760852366243
-0.01541474731
0.00947625237565
-0.0150875449934
0.0112854266101
-0.0146864307532
0.0130268777383
-0.0142182174997
0.014692727517
-0.0136901343253
0.016276419805
-0.0131098296692
0.0177727099464
-0.0124851533286
0.0191776189348
-0.0118239530196
0.020488361435
-0.011133900169
0.0217032542557
-0.0104223463363
0.0228216114901
-0.00969620820391
0.0238436301066
-0.00896187984814
0.0247702704162
-0.00822517020366
0.025603134411
-0.00749126551181
0.0263443466638
-0.0067647156048
0.0269964414709
-0.00604944391448
0.0275622614558
-0.00534877872727
0.0280448709384
-0.00466550283354
0.0284474874804
-0.00400191544483
0.0287734315822
-0.0033598999601
0.0290260934691
-0.00274098931929
0.0292089124086
-0.00214642291794
0.0293253640905
-0.00157719031845
0.029378950424
-0.00103406157576
0.0293731886666
-0.000517605943799
0.0293115975115
-2.82037072321e-05
0.0291976807089
0.000433945231558
0.0290349064944
0.00086881583069
0.0288266969238
0.00127653262574
0.028576405448
0.00165736929029
0.0282873047765
0.00201172956296
0.0279625754101
0.00234013150391
0.0276052965913
0.00264319273289
0.0272184388354
0.0029216169017
0.02680485802
0.00317618193988
0.0263672901779
0.00340772951051
0.0259083471894
0.00361715580343
0.025430512815
0.00380540290435
0.0249361394818
0.00397345083525
0.0244274454518
0.00412230963223
0.0239065128622
0.0042530116789
0.0233752863348
0.00436660381966
0.0228355726506
0.00446413956399
0.0222890412106
0.00454667102548
0.0217372257483
0.00461524097895
0.0211815270067
0.00467087479718
0.0206232167731
0.00471457272641
0.0200634429291
0.00474730237002
0.0195032357939
0.00476999188565
0.0189435153316
0.00478352382055
0.018385099375
0.00478873006836
0.0178287123623
0.00478638785047
0.0172749946403
0.00477721711277
0.0167245118002
0.00476187916108
0.0161777640577
0.00474097679704
0.0156351951647
0.00471505567543
0.0150972008786
0.00468460701782
0.0145641365439
0.0046500713139
0.0140363238683
0.00461184305038
0.0135140565419
0.00457027604099
0.0129976048612
0.00452568934869
0.0124872191063
0.00447837335569
0.0119831319163
0.00442859597283
0.0114855594977
0.00437660856251
0.0109947019838
0.00432265160952
0.0105107428359
0.00426695976039
0.0100338476566
0.00420976633784
0.0095641623288
0.00415130701008
0.00910181087181
0.00409182280422
0.00864689291973
0.0040315622005
0.00819948121301
0.00397078257184
0.00775961897481
0.003909750747
0.00732731754601
0.00384874301727
0.00690255410841
0.00378804438808
0.00648526984471
0.00372794742837
0.00607536832352
0.00366875052668
0.00567271442891
0.00361075592016
0.00527713358909
0.00355426730502
0.00488841159359
0.00349958739227
0.00450629473049
0.00344701521381
0.00413049050599
0.00339684352709
0.00376066866783
0.00334935611967
0.00339646278265
0.00330482533554
0.00303747209587
0.00326350961725
0.00268326392623
0.00322565134074
0.00233337638692
0.00319147473374
0.00198732159903
0.00316118402326
0.00164458927153
0.00313496142336
0.00130465108541
0.00311296273966
0.000966969363846
0.00309526983428
0.000631092159403
0.00308108944
0.000298272566982
0.00305472978098
0.00273851611161
0.00185435395227
-0.0160555147765
0.00390477613719
-0.0177794834493
0.00593997359403
-0.0176927850955
0.00793476873009
-0.017409470311
0.0098758890902
-0.0170285931506
0.0117519883227