/*--------------------------------*- C++ -*----------------------------------*\
| =========                 |                                                 |
| \\      /  F ield         | OpenFOAM: The Open Source CFD Toolbox           |
|  \\    /   O peration     | Version:  v1906                                 |
|   \\  /    A nd           | Web:      www.OpenFOAM.com                      |
|    \\/     M anipulation  |                                                 |
\*---------------------------------------------------------------------------*/
FoamFile
{
    version     2.0;
    format      ascii;
    class       volScalarField;
    location    "749";
    object      p;
}
// * * * * * * * * * * * * * * * * * * * * * * * * * * * * * * * * * * * * * //

dimensions      [0 2 -2 0 0 0 0];


internalField   nonuniform List<scalar> 
9216
(
273.661107466
273.740866442
273.905905259
274.157627898
274.494615067
274.915278758
275.417652275
275.9994241
276.657983759
277.390454026
278.193737168
279.064544719
279.999443489
280.994880402
282.047225728
283.152790838
284.307867308
285.508736789
286.751705836
288.033108172
289.349335929
290.696835192
292.072134703
293.471835791
294.892639613
296.331332511
297.784812651
299.250071671
300.724221322
302.204472034
303.688159971
305.172722441
306.655725465
308.134837881
309.607858896
311.072689325
312.527359897
313.970000827
315.398870323
316.812322539
318.208836257
319.5869815
320.945448298
322.283012277
323.598563438
324.891071037
326.159612297
327.403336915
328.621495646
329.813404751
330.978474359
332.116173179
333.226056558
334.307731719
335.360885409
336.385249913
337.380630171
338.34687077
339.283882365
340.191609834
341.070057847
341.919260289
342.739304809
343.530303612
344.292416813
345.025824664
345.730749554
346.407429721
347.056139764
347.677165889
348.270824816
348.837440609
349.377361914
349.890940417
350.378546366
350.84054872
351.277328953
351.68926295
352.0767331
352.440112003
352.779772902
353.096075246
353.389373509
353.660004677
353.908295516
354.134552045
354.339065366
354.522103257
354.683914852
354.824724904
354.9447387
355.044141948
355.123114136
355.181866162
355.221089777
355.237763646
273.581398445
273.661519875
273.826902563
274.079627426
274.41805034
274.840509103
275.34499161
275.929149895
276.59033654
277.325640018
278.131926482
279.005875264
279.944019797
280.942779119
281.998494693
283.107455615
284.265929922
285.470182783
286.716502224
288.0012107
289.320686015
290.671367254
292.049772038
293.452497987
294.876237417
296.317775407
297.77400285
299.241911943
300.718608224
302.20130403
303.687329833
305.174126325
306.659255336
308.140389789
309.615324507
311.08196536
312.538339426
313.982582854
315.41295071
316.82780381
318.225618224
319.604971235
320.964550521
322.303139432
323.619625891
324.912987189
326.182298666
327.426718222
328.645494837
329.837952998
331.003501105
332.141615997
333.251851278
334.333822106
335.387213442
336.411765243
337.407280614
338.373611499
339.310666699
340.218398122
341.096808597
341.945938721
342.765874379
343.556734188
344.318676637
345.051888122
345.756589602
346.43302522
347.081468389
347.702210991
348.295568841
348.861871452
349.401466854
349.914711941
350.401976626
350.863634811
351.300067889
351.711656381
352.098782813
352.461824073
352.801153711
353.117135063
353.41012303
353.680458022
353.928467281
354.154459693
354.35872672
354.541538147
354.70314267
354.843764535
354.963603427
355.062830444
355.14158219
355.199934725
355.23779247
355.25444069
273.415613302
273.49688316
273.663798713
273.918828723
274.260296923
274.686496521
275.195353845
275.784453449
276.451076006
277.192237731
278.004732161
278.885169535
279.830016707
280.835632285
281.898301289
283.014263751
284.179742803
285.390966203
286.644187978
287.935703523
289.261865787
290.619095132
292.003891359
293.412839624
294.842619532
296.290008222
297.751887482
299.225244838
300.707179325
302.19490109
303.685736186
305.177125035
306.66662648
308.151915038
309.630784272
311.101143214
312.561019005
314.00855239
315.441999741
316.859727745
318.26021486
319.642045311
321.003910046
322.344600186
323.663007592
324.958117905
326.229010833
327.474852951
328.694897823
329.888478699
331.055008577
332.193972946
333.304929863
334.387502866
335.441381119
336.466312579
337.462104251
338.428615656
339.365759195
340.273493935
341.151826058
342.000802958
342.820513705
343.611083432
344.372673756
345.105477393
345.809718467
346.485647326
347.133540669
347.75369652
348.346434144
348.912089156
349.451013206
349.963569235
350.45013092
350.911078101
351.346796023
351.757670961
352.144089297
352.506433403
352.845080588
353.160399301
353.452748001
353.722471725
353.969900943
354.195348527
354.399108635
354.581454087
354.742635229
354.882877544
355.002379978
355.101311568
355.1798067
355.237952012
355.275703721
355.293614404
273.160724272
273.243281254
273.412594443
273.671229236
274.017448059
274.449468506
274.96512292
275.561891049
276.236942126
276.987178924
277.809282295
278.699754117
279.654958639
280.671160076
281.744557344
282.871314135
284.047585938
285.269542393
286.533387116
287.835373341
289.171817893
290.53911163
291.933729115
293.352235363
294.791292577
296.247664412
297.718220784
299.199940471
300.689914636
302.185348238
303.683562604
305.181995793
306.67820442
308.169863274
309.654766219
311.130824886
312.596068889
314.048643709
315.486810178
316.908941617
318.313522669
319.69914579
321.064509521
322.40841446
323.729761106
325.027545445
326.3008565
327.548871682
328.770854179
329.966148217
331.134176413
332.274435069
333.386491593
334.46997994
335.524598174
336.550104132
337.546313174
338.513094101
339.450367116
340.358100002
341.236306261
342.085041526
342.904401836
343.694520233
344.455565099
345.187736876
345.891266406
346.566411713
347.213456281
347.832705854
348.424486615
348.98914198
349.527030661
350.038523454
350.52400119
350.983851549
351.418466928
351.828241309
352.213568095
352.574837088
352.912432344
353.226729308
353.51809275
353.786874108
354.033409549
354.258017571
354.460997204
354.642625871
354.803157689
354.942821435
355.061818645
355.1603213
355.238469143
355.296364999
355.33399876
355.35215077
272.81565021
272.899856201
273.07245914
273.336048178
273.688792309
274.128798349
274.653766541
275.261030057
275.947603114
276.710230806
277.545438326
278.449578111
279.418874037
280.449461397
281.537422652
282.678818301
283.869713491
285.106200109
286.384415322
287.700556467
289.050893383
290.431778047
291.839652615
293.27105557
294.722627036
296.19111276
297.673367767
299.166359001
300.667167911
302.172992172
303.681147464
305.189068253
306.69430893
308.194544128
309.68756878
311.171297461
312.64376384
314.103119212
315.547631181
316.975681443
318.385763773
319.776481155
321.146543182
322.494762662
323.820052564
325.12142225
326.397974117
327.648899603
328.873475677
330.071060762
331.241091217
332.383077304
333.496599772
334.581305986
335.636906698
336.66317241
337.659930381
338.627061264
339.564496367
340.472214555
341.350239742
342.198638019
343.017515321
343.807014721
344.567314203
345.298624032
346.001184563
346.675263628
347.321154297
347.939172238
348.529653389
349.092951252
349.629434472
350.139484062
350.623490899
351.081852904
351.514972491
351.923253753
352.307099907
352.666910537
353.003079104
353.315990302
353.606017683
353.873521187
354.118844934
354.342314962
354.544237222
354.724895539
354.884549782
355.023434018
355.141754788
355.23968948
355.317385123
355.374956701
355.412409209
355.430568601
272.378608277
272.464906085
272.64174511
272.911721568
273.272875353
273.72316238
274.260106253
274.880845754
275.582190847
276.360679961
277.212635569
278.134216629
279.121466604
280.170356166
281.276820285
282.436789648
283.646216764
284.90109719
286.197486559
287.531513957
288.899392424
290.297427033
291.72202123
293.169681715
294.637022417
296.120767629
297.617754722
299.124936349
300.639382425
302.158281707
303.678943187
305.198796878
306.715394716
308.226411101
309.729642586
311.223007386
312.704544572
314.172412718
315.624888291
317.060363516
318.477344039
319.874446112
321.25039364
322.604014822
323.93423874
325.24009161
326.520693069
327.775252213
329.003063736
330.203503905
331.376026713
332.520159927
333.635501374
334.721715184
335.778528305
336.805727015
337.80315372
338.770703775
339.708322583
340.616002709
341.493781246
342.341737177
343.159988948
343.948691991
344.708036417
345.438244614
346.139568964
346.812289435
347.456711244
348.073162382
348.661991173
349.223563695
349.75826123
350.266477575
350.748616398
351.205088474
351.636308986
352.04269474
352.424661465
352.782621069
353.116979004
353.428131631
353.716463707
353.982345919
354.226132554
354.448159243
354.648740853
354.828169476
354.986712568
355.1246112
355.242078489
355.339298424
355.41642501
355.473581017
355.510778398
355.528846218
271.847321077
271.936209895
272.118313687
272.396228904
272.767826503
273.230865126
273.782639555
274.420038566
275.139611313
275.937634216
276.810174756
277.753150464
278.762381686
279.833637302
280.962673273
282.145264203
283.377228594
284.654448488
285.972884452
287.328586702
288.717703283
290.136485955
291.581294487
293.048599808
294.534986464
296.037154601
297.551921718
299.076224232
300.607118949
302.141784368
303.677521807
305.211756133
306.742036605
308.26603744
309.781557329
311.286518988
312.778968224
314.257072547
315.719119389
317.163513891
318.58877635
319.993539279
321.37654421
322.736638194
324.072770118
325.383986813
326.66942907
327.928327539
329.159998614
330.363840296
331.539328113
332.686011087
333.803507837
334.891502781
335.949742508
336.978032306
337.976232877
338.944257212
339.882067663
340.789673159
341.667126586
342.514522282
343.331993648
344.119710821
344.877878411
345.606733242
346.306542107
346.977599471
347.620225152
348.234761922
348.82157305
349.381039758
349.913558624
350.419538897
350.899399766
351.353567582
351.782473052
352.186548411
352.566224619
352.921928554
353.254080278
353.563090334
353.849357141
354.113264464
354.355179005
354.575448091
354.774397516
354.9523295
355.109520811
355.246221074
355.362651279
355.459002626
355.53543585
355.592079734
355.628950203
355.646869962
271.218965779
271.31100335
271.499507694
271.787068113
272.171339224
272.649826979
273.219534946
273.877036068
274.618552646
275.440035603
276.337238609
277.305785083
278.341226469
279.439091211
280.594924485
281.804319383
283.062940519
284.366541256
285.71097576
287.092207067
288.506312195
289.94948521
291.418038978
292.908406168
294.417139934
295.940914528
297.476526022
299.020893163
300.57105837
302.124188787
303.677577098
305.228642485
306.774931363
308.314117824
309.844003261
311.362515842
312.867709512
314.35776251
315.830975455
317.285768971
318.720680932
320.134363325
321.525578803
322.893196952
324.236190347
325.553630419
326.844683206
328.108605019
329.344738092
330.552506226
331.731410511
332.881025121
334.000993262
335.091023252
336.150884805
337.180405495
338.179467445
339.148004211
340.085997885
340.993476377
341.870510882
342.717213478
343.533734858
344.320262128
345.077016663
345.804251972
346.502251553
347.171326691
347.811814208
348.424074106
349.00848714
349.565452276
350.095384067
350.598709933
351.075867367
351.527301089
351.953460151
352.354795023
352.731754684
353.084783726
353.414319505
353.720789354
354.004607875
354.266174321
354.505870102
354.724056414
354.921071999
355.097231074
355.252821429
355.388102701
355.503304885
355.598627255
355.674237406
355.730269421
355.766743291
355.784473678
270.490111804
270.585926162
270.782103887
271.081215074
271.480639657
271.977562702
272.568620525
273.24999096
274.017491224
274.866672963
275.792909259
276.791471145
277.857592102
278.986520176
280.173558326
281.414094222
282.703621089
284.037751278
285.412224273
286.822910618
288.265813098
289.73706622
291.232934874
292.749812752
294.284220988
295.832807235
297.392345307
298.959735329
300.532004337
302.106307157
303.67992705
305.250276909
306.814900079
308.3714707
309.917793434
311.451802932
312.97156276
314.47526383
315.961222311
317.427877083
318.873786732
320.297626167
321.698182889
323.074352968
324.425136789
325.749634628
327.047042095
328.316645516
329.557817299
330.77001133
331.952758446
333.105662036
334.22839379
335.320689654
336.382345987
337.41321597
338.413206254
339.382273868
340.320423356
341.227704155
342.104208165
342.950067493
343.765452321
344.550568878
345.305657442
346.03099036
346.726870033
347.393626831
348.031616917
348.641219967
349.222836751
349.776886605
350.30380477
350.804039619
351.2780498
351.726301283
352.149264374
352.547410682
352.921210094
353.271127753
353.5976211
353.901136957
354.182108715
354.44095361
354.678070131
354.893835561
355.088603669
355.26270257
355.416432768
355.550065409
355.663840746
355.757966888
355.832618876
355.887936651
355.923944649
355.941449152
269.656645137
269.756952673
269.962251121
270.275072371
270.692447843
271.211156141
271.827371939
272.536781115
273.334701933
274.216200216
275.176192122
276.209531779
277.311082361
278.47577084
279.698627765
280.974814152
282.299637865
283.668561916
285.077206887
286.521349439
287.996918455
289.499990126
291.02678286
292.573652712
294.137089713
295.713715321
297.300280968
298.893667632
300.490886165
302.089078177
303.685516663
305.277607569
306.862890923
308.439041027
310.003866403
311.555309263
313.091444394
314.610477465
316.110742767
317.590700426
319.048933135
320.484142452
321.895144744
323.280866809
324.640341275
325.9727018
327.277178181
328.553091386
329.799848595
331.016938292
332.203925464
333.360446944
334.486206964
335.580972917
336.64457141
337.676884571
338.677846687
339.647441107
340.585697468
341.492689162
342.368531065
343.21337744
344.02742001
344.81088612
345.564036943
346.287165686
346.98059574
347.644678734
348.279792466
348.886338687
349.46474072
350.01544092
350.538897981
351.035584092
351.505981985
351.950581873
352.369878332
352.764367137
353.134542082
353.480891832
353.803896807
354.104026136
354.381734707
354.637460331
354.871621029
355.084612473
355.27680559
355.448544346
355.600143721
355.731887886
355.844028595
355.936783962
356.010337243
356.064834629
356.10030628
356.117549648
268.713673168
268.819302727
269.035392203
269.36440572
269.802931337
270.347231811
270.99290135
271.735013994
272.568275322
273.487163058
274.486048965
275.559299017
276.701350957
277.906770386
279.170287995
280.486821202
281.85148373
283.259586391
284.706632037
286.188307018
287.700471071
289.239147022
290.800511316
292.380886013
293.976732633
295.58464792
297.201361452
298.823734799
300.44876187
302.073570043
303.695421043
305.311713033
306.919982343
308.517903462
310.103289336
311.674090874
313.228395793
314.764426789
316.280539062
317.77521726
319.247071874
320.694835176
322.117356761
323.513598763
324.882630823
326.223624889
327.535849891
328.818666393
330.071521242
331.29394232
332.485533401
333.645969218
334.774990755
335.872400819
336.938059929
337.971882547
338.973833666
339.943925761
340.882216079
341.788804267
342.663830261
343.507472434
344.319945892
345.101500899
345.852421329
346.573023108
347.263652563
347.924684659
348.556521044
349.159587922
349.734333705
350.28122646
350.800751163
351.293406772
351.759703148
352.200157862
352.615292917
353.005631412
353.371694208
353.713996589
354.033044993
354.329333798
354.60334223
354.855531369
355.086341324
355.296188547
355.485463339
355.654527536
355.803712401
355.933316741
356.043605234
356.134807005
356.207114512
356.260681312
356.295543872
356.31249013
267.655403254
267.767328408
267.996165057
268.344265356
268.807649809
269.381923582
270.061948798
270.842037726
271.716144339
272.678036922
273.7214427
274.840161586
276.028149138
277.279571596
278.58883734
279.95060989
281.359807381
282.811592983
284.301359942
285.824714137
287.37745625
288.955565109
290.555183139
292.172604585
293.804266726
295.446744084
297.096745327
298.751112398
300.406821273
302.060983723
303.710848829
305.353805827
306.98738671
308.609266022
310.217261637
311.809334342
313.383586626
314.938260686
316.471735702
317.982524434
319.469269236
320.930737547
322.365816965
323.773509979
325.152928449
326.503287909
327.823901778
329.114175539
330.373600968
331.601750453
332.798271494
333.962881417
335.095362382
336.195556708
337.2633626
338.298730257
339.301658441
340.272191453
341.210416547
342.116461723
342.99049387
343.832717165
344.643371701
345.422732213
346.171106853
346.888835915
347.576290451
348.233870699
348.862004301
349.461144254
350.031766607
350.574367881
351.089462253
351.577578514
352.039256842
352.475045436
352.885497041
353.271165423
353.632601819
353.97035141
354.284949844
354.576919851
354.846767958
355.094981356
355.322024906
355.52833834
355.714333632
355.880392594
356.026864675
356.154064978
356.262272503
356.35172878
356.42263647
356.475157066
356.50933467
356.525946766
266.47498683
266.594368617
266.83827806
267.208889091
267.701489881
268.31084167
269.030878873
269.854962744
270.77612503
271.787280466
272.881397815
274.051627218
275.291386005
276.594408411
277.954766415
279.36686917
280.825448011
282.325532795
283.862424183
285.431665085
287.02901363
288.650419071
290.292001589
291.950036426
293.62094252
295.301275396
296.987723845
298.677109595
300.366389105
302.052656422
303.733145935
305.405236439
307.066454487
308.714474306
310.347119127
311.962360836
313.558318695
315.133257136
316.685582709
318.213840282
319.716708561
321.192995076
322.641630685
324.061663744
325.452254012
326.812666394
328.142264601
329.440504808
330.706929373
331.941160692
333.142895255
334.311897974
335.447996834
336.551077953
337.621081087
338.657995624
339.661857102
340.632744254
341.57077655
342.47611223
343.348946726
344.189511435
344.998072712
345.774931015
346.520420055
347.234905902
347.918785899
348.57248736
349.196465959
349.791203796
350.357207121
350.895003723
351.405140011
351.888177823
352.344691012
352.77526186
353.180477377
353.560925528
353.917191448
354.249853676
354.559480457
354.846626136
355.111827685
355.355601374
355.578439628
355.780808063
355.963142744
356.125847651
356.269292383
356.393810105
356.499695723
356.587204307
356.656549868
356.70790307
356.74131616
356.757555094
265.164317474
265.292562729
265.554352116
265.95158325
266.478589515
267.129040272
267.895687105
268.770699687
269.745977277
270.81341039
271.965081333
273.193403381
274.49120426
275.851763706
277.268816311
278.736530609
280.249473789
281.802569451
283.391053721
285.01043332
286.656447734
288.325036802
290.012314322
291.714548007
293.428145694
295.149647447
296.875722729
298.603171523
300.328928078
302.050065123
303.763799592
305.467497853
307.158679005
308.835016372
310.494338876
312.134630796
313.754030371
315.350827314
316.92345935
318.470507908
319.990693072
321.482867927
322.946012419
324.37922685
325.781725125
327.152827846
328.491955349
329.798620764
331.072423168
332.313040892
333.520225084
334.693793562
335.833625078
336.93965403
338.011865724
339.050292216
340.05500879
341.026131059
341.963812708
342.868243795
343.739649562
344.578289638
345.384457536
346.158480286
346.900718097
347.611563894
348.291442642
348.940810338
349.560152626
350.14998298
350.710840458
351.243287023
351.747904494
352.225291156
352.676058105
353.1008254
353.500218067
353.874862051
354.225380133
354.552387905
354.856489798
355.138275246
355.398314975
355.637157485
355.855325709
356.053313896
356.23158472
356.390566627
356.530651442
356.6521922
356.755501242
356.840848721
356.908461086
356.958518764
356.991083487
357.00690845
263.713766958
263.852608204
264.135719874
264.564576461
265.132252077
265.830989934
266.652023059
267.586021935
268.623494123
269.755105297
270.971910737
272.265501125
273.628074534
275.052450926
276.532046378
278.060822477
279.633223389
281.244109581
282.888694169
284.562485258
286.261236044
287.980903318
289.717614632
291.467644081
293.227396532
294.993399694
296.762302925
298.530881068
300.29604145
302.054830584
303.804443542
305.542230891
307.265702037
308.972528397
310.660544805
312.327749334
313.972301679
315.592520284
317.18687835
318.7539989
320.292649032
321.801733513
323.280287864
324.727471075
326.142558084
327.524932141
328.874077136
330.189569993
331.471073173
332.718327382
333.931144538
335.109401102
336.253031852
337.3620242
338.43641315
339.476276951
340.48173352
341.45293764
342.390078912
343.293380432
344.163098063
344.999520215
345.802967941
346.573795225
347.312389246
348.019170496
348.69459257
349.339141548
349.953334859
350.537719598
351.092870287
351.61938611
352.117887663
352.589013315
353.033415244
353.45175525
353.844700424
354.212918742
354.557074663
354.877824776
355.175813539
355.451669162
355.705999652
355.93938906
356.152393944
356.345540068
356.519319367
356.674187154
356.810559615
356.928811574
357.029274529
357.112234936
357.177932908
357.22655994
357.258187717
357.273555357
262.111835864
262.263444011
262.572168569
263.038840749
263.654851404
264.410561786
265.295240788
266.297665008
267.406631618
268.611349001
269.901696848
271.268367628
272.702911456
274.197710933
275.745911496
277.341328804
278.978349006
280.651832425
282.357026488
284.08949053
285.845032952
287.61966043
289.40953859
291.210963893
293.020346458
294.834203257
296.649160153
298.461960393
300.269476617
302.06872194
303.856863106
305.631230251
307.389320261
309.128801263
310.847514179
312.543472465
314.214860139
315.860028344
317.477490679
319.065917486
320.624129263
322.151089353
323.645896119
325.107774736
326.536068804
327.930231872
329.289818986
330.614478339
331.903943063
333.158023243
334.376598227
335.559609317
336.707052981
337.818974679
338.895463438
339.93664728
340.942689567
341.913786295
342.850164345
343.752080593
344.619821795
345.453705063
346.254078761
347.021323582
347.755853606
348.45811711
349.12859697
349.767810486
350.376308555
350.954674124
351.503519937
352.023485619
352.515234169
352.979447976
353.416824466
353.828071496
354.213902602
354.575032185
354.91217072
355.226020038
355.517268735
355.786587742
356.034626091
356.262006916
356.469323688
356.657136732
356.825970012
356.976308223
357.108594166
357.223226413
357.320557253
357.400891099
357.464482877
357.511535734
357.542132716
357.556997385
260.344684967
260.511830149
260.851608758
261.363873338
262.03773215
262.861035605
263.820493252
264.902480681
266.093695814
267.381626913
268.754831674
270.203053624
271.717214516
273.289324544
274.912347725
276.580051265
278.28685843
280.027715964
281.797980802
283.593326489
285.409667668
287.243100368
289.089856579
290.946272511
292.808770757
294.673856077
296.538123042
298.398271986
300.251128642
302.09366186
303.923001678
305.736451801
307.53149294
309.305788308
311.05718517
312.783714302
314.48358745
316.155193099
317.797090935
319.408005188
320.986817029
322.53255619
324.044392038
325.521624318
326.963673743
328.370072601
329.740455439
331.07454991
332.372167788
333.633196212
334.857589232
336.045359769
337.196572121
338.311335195
339.389796605
340.432137793
341.438570267
342.409333018
343.34469111
344.244935361
345.110382976
345.941378937
346.738297882
347.501546212
348.231564126
348.928827331
349.593848168
350.227176004
350.829396744
351.401131428
351.943033921
352.455787768
352.940102327
353.396708332
353.826353038
354.229795086
354.607799248
354.961131126
355.290551915
355.596813269
355.880652338
356.142786996
356.383911302
356.604691218
356.805760616
356.987717577
357.151121018
357.296487631
357.424289151
357.534949952
357.628844956
357.706297811
357.767579539
357.812906299
357.842372957
357.856685978
258.395496214
258.581784227
258.959644346
259.52743325
260.271114642
261.175151828
262.222896054
263.397671816
264.683609846
266.066193364
267.532533129
269.071422216
270.673235682
272.329739721
274.03386337
275.779470223
277.561152308
279.374056126
281.213742168
283.076074337
284.957133669
286.853151256
288.760457273
290.675445737
292.59455639
294.514274981
296.431149844
298.341819744
300.243044358
302.131733108
304.004969029
305.86002153
307.694351128
309.505614478
311.291665689
313.05055536
314.780527129
316.48001234
318.147623389
319.782145979
321.382530293
322.947881339
324.477448722
325.970616128
327.426890775
328.845892984
330.227345964
331.571065799
332.876951645
334.144976124
335.375176006
336.567643276
337.722516806
338.839974816
339.920228369
340.963516072
341.97010017
342.940264077
343.874311393
344.772566287
345.635375094
346.463108839
347.256166401
348.014977906
348.740008031
349.43175881
350.090771698
350.71762862
351.31295189
351.877402933
352.411679854
352.916513946
353.39266533
353.840917905
354.262073845
354.656947816
355.026361095
355.371135713
355.692088693
355.990026473
356.265739513
356.519997163
356.753542775
356.967089136
357.161314201
357.33685719
357.494315018
357.63423911
357.757132559
357.863447633
357.953583606
358.027885097
358.086640404
358.130079279
358.15830987
358.172019817
256.243585606
256.453812843
256.879011688
257.515228573
258.34402332
259.34524065
260.497799485
261.781145542
263.176292606
264.666432589
266.23716032
267.876404761
269.574173665
271.322209459
273.113629808
274.942598789
276.804051067
278.693474332
280.606744618
282.540003728
284.489567019
286.451851862
288.423321783
290.400446649
292.379683656
294.357484117
296.330323983
298.294750337
300.247428606
302.185188133
304.105051846
306.00424655
307.880208752
309.730587143
311.553243668
313.346252093
315.107893198
316.836647792
318.531188735
320.19037198
321.81322634
323.398942274
324.946860091
326.456457947
327.927339973
329.359224749
330.751934153
332.10538251
333.419565944
334.694551861
335.930468629
337.12749559
338.285853672
339.405796881
340.487604981
341.531577651
342.538030325
343.507291857
344.439704037
345.335622859
346.195421322
347.019493435
347.808258989
348.562168638
349.281708771
349.967405762
350.619829147
351.239593508
351.827358836
352.383829353
352.909750844
353.405906674
353.873112715
354.312211496
354.724065848
355.109552308
355.4695545
355.804956611
356.116637077
356.405462482
356.672281736
356.917920524
357.143176068
357.348812219
357.535554933
357.704088114
357.855049878
357.989029218
358.106563062
358.208133738
358.294166796
358.365029132
358.421027628
358.462407013
358.48928918
358.502341131
253.863144931
254.103849732
254.588845115
255.310558208
256.244274972
257.363482635
258.641228105
260.052038918
261.573191492
263.185341581
264.872613696
266.622307014
268.424390299
270.270931843
272.15556211
274.073020623
276.018803704
277.988907561
279.979649136
281.98754268
284.009210667
286.041312779
288.080484949
290.123291231
292.166200042
294.205599541
296.237849493
298.259357524
300.266654859
302.256462305
304.225727344
306.171628629
308.091575868
309.983208876
311.844399005
313.673247816
315.468080006
317.227433819
318.950051585
320.634869699
322.281006748
323.88775036
325.454543494
326.980970608
328.466744267
329.911692479
331.315746667
332.67893006
334.001346251
335.283167723
336.524624369
337.725992218
338.887582695
340.009732842
341.092796932
342.137139841
343.143132529
344.111149797
345.041570412
345.934779466
346.791172728
347.611162517
348.395184582
349.143705316
349.857228691
350.536302277
351.181521873
351.793534355
352.373038555
352.920784119
353.437568448
353.924231971
354.381652105
354.810736299
355.21241458
355.587631948
355.937340859
356.262493976
356.564037215
356.842903136
357.10000463
357.336228952
357.552432079
357.749433464
357.928011192
358.088897598
358.232775326
358.360273876
358.471966577
358.568367997
358.64993172
358.717048681
358.77004552
358.809182493
358.83459673
358.846932573
251.22141347
251.501761357
252.063717531
252.893929406
253.958594483
255.222389059
256.650577387
258.211494085
259.878025758
261.628168195
263.444832732
265.315162678
267.229636971
269.1811762
271.164373515
273.174897795
275.209068266
277.263574038
279.335301408
281.421229924
283.518362156
285.623660675
287.73397989
289.845999364
291.956183997
294.060809685
296.156048373
298.238093269
300.303281566
302.348190901
304.369680443
306.364880464
308.331174358
310.266192459
312.167817383
314.034185058
315.863673232
317.654887126
319.406648784
321.117986835
322.788122668
324.416454689
326.002542236
327.546089409
329.046929889
330.505013189
331.920391941
333.293209764
334.623689187
335.912119202
337.158842435
338.364242243
339.528730232
340.652734792
341.736691249
342.781034167
343.786192256
344.752586177
345.680629372
346.570731798
347.42330623
348.238776583
349.017587483
349.760214284
350.467172622
351.139026733
351.776395864
352.379958322
352.9504529
353.488677671
353.995486292
354.471782212
354.918511245
355.336653135
355.727212656
356.091210731
356.429675894
356.743636209
357.034111699
357.302107184
357.548605514
357.774561128
357.980894008
358.168484025
358.338165787
358.490723978
358.626889247
358.747334614
358.8526724
358.943451623
359.020155836
359.083201292
359.132935657
359.169636073
359.193455349
359.205013022
248.275943454
248.609212774
249.272401859
250.242714752
251.47298045
252.915643251
254.525700613
256.263790906
258.097813517
260.003241229
261.962397198
263.963119838
265.997266081
268.059368044
270.145579192
272.252929734
274.37885117
276.520907421
278.676666182
280.843648578
283.019303056
285.200962014
287.385759993
289.570525419
291.751694895
293.925351546
296.087362336
298.233585661
300.360078802
302.463236554
304.53982596
306.586944724
308.601956174
310.58247856
312.526406182
314.431919346
316.297462026
318.121717558
319.9035986
321.642239649
323.336980339
324.987345846
326.593027858
328.15386522
329.669826545
331.140995677
332.567558697
333.949791776
335.288048837
336.582748138
337.834357836
339.043380966
340.210340649
341.335766351
342.42018205
343.464097028
344.467999921
345.432356453
346.357611092
347.24419248
348.092522268
348.90302657
349.676149094
350.412364772
351.112192743
351.7762076
352.405048058
352.999422427
353.560110637
354.087962787
354.583894487
355.048879483
355.4839403
355.890137765
356.268560193
356.620312949
356.94650869
357.24825848
357.52666359
357.782807894
358.017750608
358.232519412
358.428103903
358.605449537