/*--------------------------------*- C++ -*----------------------------------*\
| =========                 |                                                 |
| \\      /  F ield         | OpenFOAM: The Open Source CFD Toolbox           |
|  \\    /   O peration     | Version:  v1906                                 |
|   \\  /    A nd           | Web:      www.OpenFOAM.com                      |
|    \\/     M anipulation  |                                                 |
\*---------------------------------------------------------------------------*/
FoamFile
{
    version     2.0;
    format      ascii;
    class       volVectorField;
    location    "732";
    object      U;
}
// * * * * * * * * * * * * * * * * * * * * * * * * * * * * * * * * * * * * * //

dimensions      [0 1 -1 0 0 0 0];


internalField   nonuniform List<vector> 
9216
(
(0.00156671288883 -0.00156779837147 0)
(0.0016067360454 -0.00488581555645 6.54279616408e-28)
(0.00159540224933 -0.00821194806268 1.08754806796e-31)
(0.00157225476377 -0.0115180450149 0)
(0.00154112752404 -0.0147654548859 0)
(0.00150283120728 -0.0179401799749 0)
(0.00145821127979 -0.0210281779244 0)
(0.00140806983789 -0.024017110375 0)
(0.00135318977806 -0.0268962886306 0)
(0.00129437209608 -0.0296566660655 0)
(0.00123236819978 -0.0322908354727 0)
(0.00116792107225 -0.0347929367403 0)
(0.0011016818338 -0.0371585862101 0)
(0.00103427709965 -0.0393847153104 0)
(0.00096621280327 -0.0414694600313 0)
(0.000897972866091 -0.0434119644884 0)
(0.000829904848502 -0.0452122651672 0)
(0.000762352047955 -0.0468710891111 0)
(0.000695513871047 -0.0483897576448 0)
(0.000629613037517 -0.0497699970431 0)
(0.000564723186149 -0.0510138749854 0)
(0.000500973896672 -0.0521236315494 0)
(0.000438339162971 -0.0531016517596 0)
(0.0003768836693 -0.0539503170439 0)
(0.000316506298084 -0.0546720123757 0)
(0.000257232197705 -0.0552689960926 0)
(0.00019890691535 -0.0557434374635 0)
(0.000141538695197 -0.0560973019503 0)
(8.49392041636e-05 -0.0563324165124 0)
(2.91210434611e-05 -0.0564503691215 0)
(-2.61196433647e-05 -0.0564526045829 0)
(-8.07488842943e-05 -0.0563403319767 0)
(-0.000134965539569 -0.0561146387143 0)
(-0.000188685992203 -0.0557764390322 0)
(-0.000242081493119 -0.0553266085712 0)
(-0.000294999967507 -0.0547659437599 0)
(-0.000347564274859 -0.0540953266205 0)
(-0.000399533079928 -0.0533157046708 0)
(-0.000450963121969 -0.0524282734876 0)
(-0.000501510858417 -0.0514344706487 0)
(-0.000551160100738 -0.0503361649461 0)
(-0.00059946580181 -0.0491356523043 0)
(-0.00064634616162 -0.0478358338848 0)
(-0.000691269993343 -0.0464401988994 0)
(-0.000734110130627 -0.044952976663 0)
(-0.000774273898638 -0.0433791011798 0)
(-0.000811609573569 -0.0417243299345 0)
(-0.000845481795636 -0.0399952005165 0)
(-0.000875722126406 -0.0381991255661 0)
(-0.000901657664758 -0.0363443657733 0)
(-0.000923099500906 -0.0344401054902 0)
(-0.00093934765859 -0.0324964446848 0)
(-0.000950215670614 -0.0305244216804 0)
(-0.000955039793088 -0.0285359746803 0)
(-0.000953723805061 -0.0265438303573 0)
(-0.000945763866593 -0.0245613739123 0)
(-0.00093126815456 -0.0226023698025 0)
(-0.000910002744094 -0.0206807651556 0)
(-0.000882362657808 -0.0188102777761 0)
(-0.000848460254363 -0.0170041473682 0)
(-0.000808994045838 -0.0152746931456 0)
(-0.000764340341784 -0.0136331578862 0)
(-0.000715374966264 -0.0120894395889 0)
(-0.000662654051239 -0.010652004583 0)
(-0.000607330147512 -0.00932755349365 0)
(-0.000550468666849 -0.00812050331627 0)
(-0.000493710057457 -0.00703239312294 0)
(-0.000438314339384 -0.00606167978284 0)
(-0.000385686697362 -0.00520396983685 0)
(-0.000336528554792 -0.00445266113116 0)
(-0.000291558748163 -0.0037996529655 0)
(-0.000250886349569 -0.00323601840823 0)
(-0.000214787928814 -0.00275241796887 0)
(-0.000183042912969 -0.00233948459325 0)
(-0.000155597909582 -0.00198812037759 0)
(-0.000131910690864 -0.00168989249419 0)
(-0.000111643594331 -0.00143728988687 0)
(-9.41245238413e-05 -0.00122391934222 0)
(-7.90682886107e-05 -0.00104437648461 0)
(-6.60180782379e-05 -0.000894051538916 0)
(-5.48739966122e-05 -0.000768860311438 0)
(-4.5268029005e-05 -0.000665224281325 0)
(-3.70683270947e-05 -0.000580004255483 0)
(-2.96486686542e-05 -0.000511260515218 0)
(-2.21600456872e-05 -0.000449998749155 0)
(-1.8930139799e-05 -0.000414230939261 0)
(-1.76101412465e-05 -0.000376035948725 0)
(-1.50897335676e-05 -0.000343807625737 0)
(-1.50677498554e-05 -0.000317014280294 0)
(-1.6343641167e-05 -0.000286398919635 0)
(-1.66899900217e-05 -0.000255558700476 0)
(-1.74711117109e-05 -0.000222035491421 0)
(-2.04921061109e-05 -0.000184476311231 0)
(-2.41109483057e-05 -0.000142340723968 0)
(-2.81214947101e-05 -8.97517691465e-05 0)
(-3.05004070431e-05 -2.95079188543e-05 0)
(0.00489886137826 -0.00162426681909 0)
(0.00516137981626 -0.00519991783488 0)
(0.00512211563669 -0.00874423162719 -6.7277420608e-28)
(0.00504612433477 -0.01226957662 0)
(0.00494504053108 -0.0157289786166 0)
(0.00482141798253 -0.0191093044956 0)
(0.00467762851707 -0.0223959281344 0)
(0.0045161544144 -0.0255758176395 0)
(0.00433951724004 -0.0286376425247 0)
(0.0041502753086 -0.0315718454054 0)
(0.00395087924718 -0.0343706352366 0)
(0.00374369506159 -0.0370279068063 0)
(0.00353085446858 -0.0395391373241 0)
(0.00331433323105 -0.0419012293947 0)
(0.00309579970918 -0.0441123599274 0)
(0.00287675393698 -0.0461717916063 0)
(0.00265836291122 -0.0480797141312 0)
(0.00244165855686 -0.0498370574411 0)
(0.00222734400885 -0.0514453519964 0)
(0.00201604769563 -0.0529065630747 0)
(0.00180808516621 -0.0542229830444 0)
(0.00160376917164 -0.05539709383 0)
(0.00140311459743 -0.0564314939996 0)
(0.00120620744758 -0.0573287889418 0)
(0.00101284329385 -0.0580915500086 0)
(0.000822960970712 -0.0587222286455 0)
(0.000636207958272 -0.0592231432877 0)
(0.000452445739394 -0.0595964139346 0)
(0.000271237141194 -0.0598439733142 0)
(9.2430977306e-05 -0.0599675209109 0)
(-8.44333372219e-05 -0.0599685533217 0)
(-0.000259457536728 -0.0598483457466 0)
(-0.000433059746989 -0.0596080127061 0)
(-0.000605217340697 -0.0592484943146 0)
(-0.000776234350763 -0.0587706462647 0)
(-0.000945893844631 -0.0581752609023 0)
(-0.00111431543558 -0.0574631784322 0)
(-0.00128102120412 -0.0566353323854 0)
(-0.00144588911014 -0.0556928816315 0)
(-0.00160813775039 -0.0546372719346 0)
(-0.00176738024125 -0.0534703767584 0)
(-0.00192253253803 -0.052194559702 0)
(-0.00207296791071 -0.0508128053242 0)
(-0.00221735027226 -0.0493287640032 0)
(-0.00235488139919 -0.0477468549175 0)
(-0.00248405361941 -0.0460722825823 0)
(-0.00260397046478 -0.0443111066863 0)
(-0.00271301309295 -0.0424702404965 0)
(-0.00281021435694 -0.0405575043118 0)
(-0.00289385084098 -0.0385816346978 0)
(-0.00296286980078 -0.0365523419282 0)
(-0.00301545807659 -0.0344803376119 0)
(-0.00305054772099 -0.032377365477 0)
(-0.00306642843917 -0.0302561800409 0)
(-0.00306231810142 -0.028130446562 0)
(-0.0030370175167 -0.0260145749396 0)
(-0.00299042412885 -0.0239234467744 0)
(-0.00292218959986 -0.0218721541271 0)
(-0.00283317531444 -0.0198756072751 0)
(-0.00272415043444 -0.0179481624135 0)
(-0.00259701571885 -0.0161031576091 0)
(-0.00245335394716 -0.0143526981033 0)
(-0.00229560823287 -0.0127074694384 0)
(-0.00212579401988 -0.0111767441172 0)
(-0.00194719848678 -0.00976816896807 0)
(-0.00176364968156 -0.00848694762673 0)
(-0.00158026907206 -0.00733492328766 0)
(-0.00140161855569 -0.00631021364914 0)
(-0.00123200190368 -0.00540756964665 0)
(-0.00107399298298 -0.00461926117364 0)
(-0.000929517548672 -0.00393606576891 0)
(-0.000799163111849 -0.00334804103412 0)
(-0.000683488304129 -0.00284492654538 0)
(-0.000582083814406 -0.00241643417438 0)
(-0.000494474100697 -0.00205257300768 0)
(-0.000419154257273 -0.00174409993026 0)
(-0.000354673438737 -0.00148291547536 0)
(-0.000299053861259 -0.00126229993219 0)
(-0.000251080843568 -0.00107675358493 0)
(-0.000209589445959 -0.000921586934152 0)
(-0.000174074610054 -0.000792564906197 0)
(-0.000143666340694 -0.00068585416943 0)
(-0.000117862911326 -0.000597945485763 0)
(-9.56845525548e-05 -0.000525743749322 0)
(-7.58983682281e-05 -0.000462994129849 0)
(-6.24292062918e-05 -0.000406055550801 0)
(-5.33294659708e-05 -0.000367441320175 0)
(-4.54649613914e-05 -0.000336253345587 0)
(-4.41857622626e-05 -0.000305090960326 0)
(-4.72548737078e-05 -0.000280497266634 0)
(-4.96023682002e-05 -0.000254403568637 0)
(-5.36729084554e-05 -0.000219325870776 0)
(-6.07930417626e-05 -0.00018080370796 0)
(-7.69997045857e-05 -0.000145291647064 0)
(-9.61471310359e-05 -9.44873930047e-05 0)
(-8.83502272778e-05 -2.6659132433e-05 0)
(0.00829035739957 -0.00164553394984 0)
(0.00873906476117 -0.00526508439157 0)
(0.00866506964856 -0.00884611749065 -6.71823062507e-28)
(0.00853321923154 -0.0124106835774 0)
(0.00835997567772 -0.0159071330818 0)
(0.00814890271329 -0.0193216757297 0)
(0.00790379912782 -0.0226392351768 0)
(0.00762882272865 -0.0258465513377 0)
(0.00732830196657 -0.0289321960054 0)
(0.00700659642678 -0.0318866330784 0)
(0.00666793346792 -0.0347021889762 0)
(0.00631632284895 -0.0373729610241 0)
(0.00595543542546 -0.0398946857201 0)
(0.00558858212496 -0.0422645703692 0)
(0.00521863423541 -0.0444811133706 0)
(0.00484806292055 -0.0465439102452 0)
(0.00447888654245 -0.0484534701239 0)
(0.00411275742572 -0.0502110319983 0)
(0.00375091644262 -0.0518184045739 0)
(0.00339431301106 -0.053277811407 0)
(0.00304354929988 -0.0545917655573 0)
(0.00269902389278 -0.0557629488909 0)
(0.0023608533481 -0.0567941220733 0)
(0.00202903574472 -0.0576880353227 0)
(0.00170334282833 -0.0584473692392 0)
(0.00138350448325 -0.0590746717219 0)
(0.00106906886636 -0.0595723240955 0)
(0.000759611800156 -0.0599424994535 0)
(0.000454564763381 -0.0601871505565 0)
(0.000153454154458 -0.0603079876934 0)
(-0.000144301116866 -0.0603064883656 0)
(-0.000439115803079 -0.0601838940352 0)
(-0.00073147240134 -0.059941242288 0)
(-0.0010216104729 -0.0595793905377 0)
(-0.00130979216033 -0.0590990734333 0)
(-0.00159595558895 -0.0585009522983 0)
(-0.00188001845647 -0.057785701635 0)
(-0.00216150122832 -0.0569540857165 0)
(-0.00243987598539 -0.0560070694462 0)
(-0.00271416873552 -0.0549459142426 0)
(-0.00298336281345 -0.0537723009311 0)
(-0.00324598838423 -0.0524884275869 0)
(-0.00350058458331 -0.0510971223734 0)
(-0.00374527609276 -0.0496019193005 0)
(-0.00397828442293 -0.048007138043 0)
(-0.0041974759339 -0.0463179205968 0)
(-0.00440089500062 -0.0445402705225 0)
(-0.00458625840982 -0.042681060655 0)
(-0.00475148304796 -0.0407480593758 0)
(-0.00489412538134 -0.0387499546686 0)
(-0.00501192053956 -0.0366964118086 0)
(-0.00510223642424 -0.034598142873 0)
(-0.00516271011747 -0.0324669756412 0)
(-0.00519082290688 -0.0303158762456 0)
(-0.00518467190277 -0.0281588748888 0)
(-0.00514260978816 -0.0260108685455 0)
(-0.00506394082359 -0.0238873293154 0)
(-0.00494843756967 -0.0218040342629 0)
(-0.00479710282504 -0.0197766712061 0)
(-0.00461171203565 -0.0178203392378 0)
(-0.00439524847397 -0.0159489344976 0)
(-0.00415081362433 -0.0141749369677 0)
(-0.00388220362052 -0.012509291421 0)
(-0.00359266864303 -0.0109618352963 0)
(-0.00328708589299 -0.00954150477494 0)
(-0.00297259005669 -0.00825483309085 0)
(-0.00265823023572 -0.00710419485275 0)
(-0.0023528204566 -0.0060871338167 0)
(-0.0020637072775 -0.00519699214594 0)
(-0.0017955617259 -0.00442437248694 0)
(-0.0015509779425 -0.00375867742161 0)
(-0.00133098205026 -0.00318905071756 0)
(-0.00113611879282 -0.00270456957556 0)
(-0.000966061402716 -0.00229424460751 0)
(-0.000819691906302 -0.00194731286762 0)
(-0.000694604267346 -0.00165383958694 0)
(-0.000587719541419 -0.00140537499097 0)
(-0.000495608673334 -0.00119536792859 0)
(-0.000415786847973 -0.0010188961875 0)
(-0.000346748281286 -0.000871776646038 0)
(-0.000287594346235 -0.000749968191661 0)
(-0.00023722167733 -0.00064967269765 0)
(-0.000194717877035 -0.000567443866018 0)
(-0.000159172286563 -0.000500406945475 0)
(-0.000130422088827 -0.000442251678232 0)
(-0.000108499591957 -0.000391220057311 0)
(-9.3225324414e-05 -0.000362035863982 0)
(-7.88653952347e-05 -0.000319937893233 0)
(-7.07667932558e-05 -0.000284341636866 0)
(-7.32287068369e-05 -0.000263661180788 0)
(-8.47971195548e-05 -0.000247024581741 0)
(-8.93901111424e-05 -0.000200716050408 0)
(-0.000104667365128 -0.000167936047551 0)
(-0.000125394498663 -0.000124377126683 0)
(-0.000143624844225 -7.57275125562e-05 0)
(-0.000141827640598 -2.38960957173e-05 0)
(0.0117471971816 -0.00167182949294 0)
(0.0123879136457 -0.00534741565487 0)
(0.0122811410783 -0.00898092629596 6.71733773501e-28)
(0.0120913730721 -0.0125967535266 0)
(0.0118423433344 -0.0161410203524 0)
(0.0115393556171 -0.0195991462367 0)
(0.0111879598173 -0.0229554611229 0)
(0.0107942115057 -0.0261963674895 0)
(0.0103644183606 -0.0293103125641 0)
(0.00990490251232 -0.0322878231438 0)
(0.00942178839747 -0.0351214441933 0)
(0.0089208405545 -0.0378056162314 0)
(0.00840733142659 -0.0403365072672 0)
(0.007885966273 -0.0427118140303 0)
(0.00736082853152 -0.0449305499399 0)
(0.00683537956487 -0.0469928293507 0)
(0.00631245968122 -0.0488996611142 0)
(0.00579433787529 -0.0506527543641 0)
(0.00528274086601 -0.0522543451572 0)
(0.00477892826663 -0.0537070410252 0)
(0.00428372659856 -0.0550136892109 0)
(0.00379761287501 -0.056177261722 0)
(0.00332073934414 -0.0572007622155 0)
(0.00285301735098 -0.0580871455908 0)
(0.00239412678217 -0.0588392559324 0)
(0.00194359927537 -0.0594597727073 0)
(0.00150081225389 -0.0599511725089 0)
(0.00106507488757 -0.0603156958726 0)
(0.000635609796837 -0.060555328378 0)
(0.000211647114484 -0.0606717852054 0)
(-0.00020760171255 -0.0606665129164 0)
(-0.000622837195639 -0.0605406909152 0)
(-0.00103470290975 -0.0602952539174 0)
(-0.00144366363114 -0.0599309233159 0)
(-0.00185004277185 -0.0594482549828 0)
(-0.00225388702151 -0.0588476983194 0)
(-0.00265501632284 -0.0581296775062 0)
(-0.00305288438145 -0.057294682225 0)
(-0.00344665286264 -0.0563433791196 0)
(-0.00383506202385 -0.0552767278786 0)
(-0.00421654448686 -0.0540961096293 0)
(-0.00458911955681 -0.0528034480359 0)
(-0.00495055599671 -0.0514013276319 0)
(-0.00529829130912 -0.0498930876589 0)
(-0.00562963231928 -0.0482828969428 0)
(-0.00594167361776 -0.0465757920483 0)
(-0.00623149396734 -0.0447776939489 0)
(-0.00649602439411 -0.0428954006047 0)
(-0.00673219100556 -0.0409365859804 0)
(-0.00693671003062 -0.0389098202876 0)
(-0.00710620041807 -0.0368246425665 0)
(-0.00723700407185 -0.0346916852206 0)
(-0.00732543891687 -0.0325228261872 0)
(-0.00736785252317 -0.03033130228 0)
(-0.00736114268432 -0.0281316741289 0)
(-0.00730294952248 -0.025939583707 0)
(-0.0071920182495 -0.0237713583371 0)
(-0.00702793988008 -0.0216438144472 0)
(-0.00681190552382 -0.0195738907816 0)
(-0.00654670948816 -0.0175779483432 0)
(-0.00623694541739 -0.0156706740743 0)
(-0.00588723436937 -0.0138650066521 0)
(-0.00550324951998 -0.0121717987716 0)
(-0.00508801679146 -0.0106014196397 0)
(-0.0046472786905 -0.00916541336162 0)
(-0.00419206071225 -0.00787316395562 0)
(-0.00373702197712 -0.00672819718345 0)
(-0.00329667041172 -0.00572692541824 0)
(-0.00288229065444 -0.00485994849957 0)
(-0.00250043436487 -0.00411477145466 0)
(-0.00215367543416 -0.00347851168179 0)
(-0.00184276781613 -0.00293916042306 0)
(-0.00156828727601 -0.0024850866877 0)
(-0.00133014866294 -0.00210432185456 0)
(-0.00112676129341 -0.00178477863044 0)
(-0.00095446793144 -0.0015152371066 0)
(-0.000807998923066 -0.00128656086569 0)
(-0.000681566432711 -0.00109261250776 0)
(-0.000571157483666 -0.000929805675823 0)
(-0.000475348878866 -0.000795028521436 0)
(-0.000393368767354 -0.000684440804764 0)
(-0.000323792706881 -0.000594188596943 0)
(-0.00026522985082 -0.000520946241196 0)
(-0.000216563539839 -0.000462258516378 0)
(-0.000177455651542 -0.000409389324281 0)
(-0.000150299680714 -0.00037130968326 0)
(-0.000129240469426 -0.000338048383539 0)
(-0.000111857255752 -0.000298927088796 0)
(-0.000104447250947 -0.000273438427628 0)
(-0.000100863490561 -0.000238689894858 0)
(-0.000109938406865 -0.000209059921888 0)
(-0.000132633353604 -0.000188279285255 0)
(-0.000143527661388 -0.000139943399005 0)
(-0.000166080285853 -9.96464240939e-05 0)
(-0.000188290634194 -6.12640678328e-05 0)
(-0.000190096757948 -2.03872904168e-05 0)
(0.0152659790449 -0.00170702922186 0)
(0.0160985073334 -0.00545864258952 0)
(0.0159567215492 -0.00916500663634 0)
(0.015705471708 -0.0128507952286 0)
(0.0153760370044 -0.0164600106054 0)
(0.0149757172113 -0.0199770804597 0)
(0.0145120950009 -0.0233855751426 0)
(0.0139933920887 -0.0266714580099 0)
(0.0134281309261 -0.0298230331405 0)
(0.0128248053405 -0.0328309471525 0)
(0.0121915984327 -0.0356880836432 0)
(0.011536158944 -0.0383893916173 0)
(0.010865437917 -0.040931666617 0)
(0.0101855865074 -0.0433133048027 0)
(0.00950190496219 -0.0455340483817 0)
(0.00881883931408 -0.0475947359827 0)
(0.00814000890487 -0.0494970691235 0)
(0.00746826343806 -0.0512434004532 0)
(0.00680574969476 -0.0528365481485 0)
(0.00615399330599 -0.0542796360861 0)
(0.0055139740236 -0.0555759600546 0)
(0.00488620860637 -0.0567288763426 0)
(0.00427081722052 -0.0577417114276 0)
(0.00366759675176 -0.0586176880429 0)
(0.00307607247024 -0.0593598666373 0)
(0.00249556070763 -0.0599710977166 0)
(0.00192520753179 -0.0604539852002 0)
(0.00136404547094 -0.0608108571086 0)
(0.000811025035827 -0.0610437453402 0)
(0.000265072591445 -0.0611543712392 0)
(-0.000274878332534 -0.061144143897 0)
(-0.000809821577825 -0.0610141596946 0)
(-0.00134064124063 -0.0607652200447 0)
(-0.00186803537688 -0.0603978622406 0)
(-0.00239247438033 -0.0599124028966 0)
(-0.00291411558857 -0.0593089999105 0)
(-0.00343276417442 -0.0585877348555 0)
(-0.00394779151645 -0.0577487137771 0)
(-0.00445811521486 -0.0567921882074 0)
(-0.00496214194086 -0.0557186905963 0)
(-0.0054577899165 -0.0545291809353 0)
(-0.00594247887832 -0.0532251935602 0)
(-0.00641321300657 -0.0518089750116 0)
(-0.0068666248098 -0.0502835975436 0)
(-0.00729910727332 -0.0486530381764 0)
(-0.00770687641144 -0.0469222111024 0)
(-0.00808608910269 -0.0450969566659 0)
(-0.00843283975162 -0.043183995395 0)
(-0.00874316960285 -0.0411908813249 0)
(-0.00901293268854 -0.0391259957301 0)
(-0.00923770114903 -0.0369986301237 0)
(-0.00941263447172 -0.0348191961168 0)
(-0.00953257840434 -0.0325995278286 0)
(-0.00959234713507 -0.0303531719212 0)
(-0.00958737427126 -0.0280954519228 0)
(-0.00951433609743 -0.0258431129758 0)
(-0.00937147046991 -0.0236135789365 0)
(-0.00915768706481 -0.0214250734963 0)
(-0.00887421182295 -0.0192964885514 0)
(-0.00852495041998 -0.0172463263537 0)
(-0.00811719325756 -0.0152903104655 0)
(-0.00765697459778 -0.0134420008152 0)
(-0.00715398199124 -0.011710747693 0)
(-0.00660695313719 -0.0101064581297 0)
(-0.00602033738281 -0.00864606836686 0)
(-0.00541044146042 -0.00734502861433 0)
(-0.00480083071655 -0.00620919602959 0)
(-0.00421461360355 -0.00523273973628 0)
(-0.00366840446824 -0.00440104538881 0)
(-0.00317007645665 -0.00369600454749 0)
(-0.00272023486864 -0.00310122170773 0)
(-0.00231793855471 -0.00260384200456 0)
(-0.00196405737772 -0.00219210296637 0)
(-0.00165953557239 -0.00185284817847 0)
(-0.00140272751967 -0.00157174209486 0)
(-0.00118833035781 -0.00133517051042 0)
(-0.00100773660773 -0.0011325526563 0)
(-0.000850956619427 -0.000958593725807 0)
(-0.000711712682088 -0.00081273586387 0)
(-0.000590110446825 -0.000694036796257 0)
(-0.000486650377739 -0.000598453917655 0)
(-0.00039924452308 -0.000521569654476 0)
(-0.000325748440878 -0.000460237077529 0)
(-0.000264889279852 -0.000412363619095 0)
(-0.000214677876409 -0.000366130046055 0)
(-0.000188131283285 -0.000344080564645 0)
(-0.000167027033608 -0.000314873033296 0)
(-0.000147960898022 -0.000280939500785 0)
(-0.000132150660754 -0.000240225557756 0)
(-0.000132477085775 -0.000214942457977 0)
(-0.000137715157215 -0.00017968957142 0)
(-0.000163290864753 -0.000157768238144 0)
(-0.0001927774371 -0.000127092186476 0)
(-0.000204238479465 -8.32309610031e-05 0)
(-0.000219232842059 -4.93103165052e-05 0)
(-0.000221274519145 -1.65336856273e-05 0)
(0.0188680052653 -0.0017520961371 0)
(0.0198948279655 -0.00560174271166 0)
(0.0197146316123 -0.00940241095721 0)
(0.019396782856 -0.0131783127985 0)
(0.01898047797 -0.0168708252921 0)
(0.018475335197 -0.0204631190719 0)
(0.0178913312771 -0.0239378215104 0)
(0.0172392115578 -0.0272803718089 0)
(0.0165300392491 -0.0304789443642 0)
(0.0157747608658 -0.0335244052931 0)
(0.0149838404195 -0.0364101446363 0)
(0.0141669751874 -0.0391318349637 0)
(0.013332897559 -0.0416871418632 0)
(0.0124892577025 -0.0440754128563 0)
(0.0116425775602 -0.046297366481 0)
(0.0107982623718 -0.0483547979967 0)
(0.00996065525238 -0.0502503125833 0)
(0.0091331210746 -0.0519870919376 0)
(0.00831814663847 -0.0535686961908 0)
(0.00751744830707 -0.0549988999082 0)
(0.00673207790855 -0.0562815592083 0)
(0.00596252423158 -0.05742050569 0)
(0.00520880412395 -0.0584194628877 0)
(0.00447054582895 -0.0592819806026 0)
(0.00374706002912 -0.0600113834774 0)
(0.00303740532122 -0.060610730187 0)
(0.00234044336696 -0.0610827811319 0)
(0.00165489361858 -0.0614299724092 0)
(0.000979381414064 -0.0616543957567 0)
(0.000312491924093 -0.0617577830171 0)
(-0.000347178779682 -0.0617415014486 0)
(-0.0010009610726 -0.0616065477365 0)
(-0.00165004876933 -0.0613535610348 0)
(-0.00229542288562 -0.0609828489686 0)
(-0.0029377763771 -0.0604944266938 0)
(-0.00357742556235 -0.0598880783924 0)
(-0.00421423079482 -0.0591634422898 0)
(-0.00484751158622 -0.0583201204973 0)
(-0.00547598521714 -0.0573578149578 0)
(-0.00609771458271 -0.0562764859848 0)
(-0.00671009919684 -0.0550765277795 0)
(-0.00730989173982 -0.0537589499672 0)
(-0.00789327387424 -0.0523255498633 0)
(-0.00845596037403 -0.0507790555159 0)
(-0.00899335482211 -0.0491232192664 0)
(-0.00950069795229 -0.0473628415732 0)
(-0.00997321455515 -0.0455037218127 0)
(-0.0104061681704 -0.0435525423156 0)
(-0.0107948287857 -0.0415167366966 0)
(-0.0111342820515 -0.0394044060811 0)
(-0.0114191508743 -0.0372243950041 0)
(-0.0116433116881 -0.0349866095074 0)
(-0.0117998323661 -0.0327025822778 0)
(-0.0118814069439 -0.0303861380179 0)
(-0.0118814355869 -0.028053699507 0)
(-0.0117953763687 -0.0257237130164 0)
(-0.0116214500046 -0.0234147394595 0)
(-0.0113567296594 -0.0211465833003 0)
(-0.0110018701547 -0.0189411793539 0)
(-0.0105619715568 -0.0168209529696 0)
(-0.0100495938534 -0.0148027197101 0)
(-0.00947076508092 -0.0129018149804 0)
(-0.00884804936958 -0.0111217952002 0)
(-0.00816366460649 -0.00946779087367 0)
(-0.00741545478198 -0.00796891551889 0)
(-0.00662857116533 -0.00665366945658 0)
(-0.00584231190048 -0.00553238006949 0)
(-0.00509398807759 -0.00459450847394 0)
(-0.0044078151674 -0.00381541914639 0)
(-0.00379166941697 -0.00316660820684 0)
(-0.0032392507015 -0.00262637909187 0)
(-0.0027448575255 -0.00218298759536 0)
(-0.00231093371152 -0.0018266878634 0)
(-0.001941811931 -0.00154299565741 0)
(-0.00163680109351 -0.0013135765748 0)
(-0.00138851468095 -0.00112024886801 0)
(-0.0011829860396 -0.000949189357573 0)
(-0.0010018723145 -0.000796590459377 0)
(-0.000834631565399 -0.000668961139654 0)
(-0.000687104556111 -0.000569967645663 0)
(-0.000563912672903 -0.000493576083684 0)
(-0.000460698268701 -0.000433287024277 0)
(-0.00037372743245 -0.000386571658895 0)
(-0.000302172557965 -0.000350610160132 0)
(-0.00024521813043 -0.000316606796515 0)
(-0.000215410096914 -0.000299525698157 0)
(-0.000189549533508 -0.000270613733761 0)
(-0.000176498571869 -0.000249924069196 0)
(-0.000169949831261 -0.00022587494736 0)
(-0.000172073314524 -0.000200439047172 0)
(-0.000168104229337 -0.000157689901109 0)
(-0.00018557547709 -0.000127594559937 0)
(-0.000223336031551 -0.00010771208364 0)
(-0.000241085445041 -7.52425606823e-05 0)
(-0.000249284606469 -4.33718542351e-05 0)
(-0.00025226442205 -1.45521859212e-05 0)
(0.0225750053772 -0.00180819934742 0)
(0.0237997410864 -0.00578002046096 0)
(0.0235765257097 -0.00969819444771 6.66969638972e-28)
(0.0231852215857 -0.0135860059135 0)
(0.022673469986 -0.0173814898372 0)
(0.0220536492543 -0.0210662278873 0)
(0.0213386095483 -0.0246216985875 0)
(0.0205420926143 -0.0280327498116 0)
(0.0196781325585 -0.0312874836072 0)
(0.0187604922449 -0.0343771457707 0)
(0.0178021996272 -0.0372958691395 0)
(0.0168151998616 -0.0400403343413 0)
(0.0158101253982 -0.0426093840263 0)
(0.0147961743528 -0.0450036248006 0)
(0.0137810811074 -0.0472250437969 0)
(0.0127711585872 -0.0492766584696 0)
(0.0117713917286 -0.0511622107016 0)
(0.0107855626864 -0.0528859094552 0)
(0.00981639174718 -0.0544522214161 0)
(0.00886568135398 -0.0558657054324 0)
(0.00793445428655 -0.057130884867 0)
(0.00702308066741 -0.0582521509891 0)
(0.00613139061359 -0.0592336908217 0)
(0.00525877244837 -0.0600794332641 0)
(0.00440425658893 -0.060793008412 0)
(0.00356658809493 -0.0613777157926 0)
(0.00274428936188 -0.0618364984702 0)
(0.00193571768956 -0.0621719207892 0)
(0.00113911940916 -0.0623861489191 0)
(0.000352686197945 -0.0624809330395 0)
(-0.000425385550088 -0.0624575984396 0)
(-0.00119682597457 -0.0623170308848 0)
(-0.00196321444253 -0.0620596828422 0)
(-0.00272589088691 -0.0616855905911 0)
(-0.00348585733288 -0.0611944060474 0)
(-0.00424366895848 -0.0605854545074 0)
(-0.00499932318681 -0.0598578207393 0)
(-0.00575214923748 -0.0590104677181 0)
(-0.00650071262554 -0.0580423903631 0)
(-0.00724274211469 -0.0569528033606 0)
(-0.00797509857896 -0.0557413564915 0)
(-0.00869379496665 -0.0544083662425 0)
(-0.00939408488099 -0.0529550412497 0)
(-0.010070618115 -0.0513836756848 0)
(-0.0107176608609 -0.0496977725246 0)
(-0.0113293467315 -0.0479020671603 0)
(-0.0118999119595 -0.0460024227357 0)
(-0.0124238326031 -0.044005604968 0)
(-0.0128957873902 -0.0419189900048 0)
(-0.013310347698 -0.0397503120485 0)
(-0.0136614457831 -0.0375076534184 0)
(-0.0139416672223 -0.0351998707232 0)
(-0.0141418765917 -0.0328376157094 0)
(-0.0142516196023 -0.0304347673349 0)
(-0.0142610896869 -0.0280094131827 0)
(-0.0141642113621 -0.0255831188975 0)
(-0.0139614853233 -0.0231749239592 0)
(-0.0136451701074 -0.0208054858787 0)
(-0.0132134503712 -0.0185017236427 0)
(-0.0126725292553 -0.0162940444334 0)
(-0.0120467487316 -0.0141990998412 0)
(-0.011333036297 -0.0122404527762 0)
(-0.0106016690198 -0.0104036426795 0)
(-0.0097793688915 -0.00867385683858 0)
(-0.00884619100696 -0.00711096668683 0)
(-0.00784580076736 -0.00577187706153 0)
(-0.0068477368027 -0.00467460398357 0)
(-0.00591378455083 -0.00379823204897 0)
(-0.00507940593493 -0.00309871177174 0)
(-0.00434996661213 -0.00252742076488 0)
(-0.00369976894107 -0.00205439151652 0)
(-0.00311133885333 -0.00167551147342 0)
(-0.00259384953557 -0.00138904773545 0)
(-0.00216107797411 -0.00117870844832 0)
(-0.00181526874185 -0.00101843938539 0)
(-0.00154645654381 -0.000881351245602 0)
(-0.00133234613716 -0.000745907260219 0)
(-0.00113655393052 -0.000610237688696 0)
(-0.000938200516566 -0.000497967698495 0)
(-0.000761007351895 -0.000423317828418 0)
(-0.000621154451562 -0.000372047476407 0)
(-0.000505588263157 -0.000331380471603 0)
(-0.000406635595015 -0.00030158232441 0)
(-0.000326242977759 -0.000279610413772 0)
(-0.000268261311631 -0.000262446883289 0)
(-0.000235964138565 -0.00025123067638 0)
(-0.000212283043101 -0.00023531864566 0)
(-0.000196234438993 -0.000215572723042 0)
(-0.000194911697113 -0.000199013027234 0)
(-0.000195619451574 -0.000171368074797 0)
(-0.000209478238247 -0.000148994969999 0)
(-0.000214404108035 -0.000112404580174 0)
(-0.000238559382053 -8.86407790855e-05 0)
(-0.000269094796778 -6.79802388726e-05 0)
(-0.000276155706921 -3.9450480681e-05 0)
(-0.00027994050543 -1.32752447309e-05 0)
(0.0264112976314 -0.00187669299068 0)
(0.0278384288087 -0.00599763041711 0)
(0.027566193024 -0.01005897449 -6.66866823138e-28)
(0.0270925066263 -0.0140826325463 0)
(0.0264741924793 -0.0180024346125 0)
(0.0257270025527 -0.0217979794153 0)
(0.0248673055566 -0.0254493767611 0)
(0.0239124641897 -0.0289408471976 0)
(0.0228800417719 -0.0322605429718 0)
(0.0217870782581 -0.0354003363296 0)
(0.0206495128768 -0.0383554350221 0)
(0.0194817702958 -0.0411239071223 0)
(0.0182965075558 -0.0437061652562 0)
(0.0171045039538 -0.0461044550095 0)
(0.0159146678311 -0.0483223801071 0)
(0.0147341300432 -0.0503644852502 0)
(0.0135683951285 -0.0522359063867 0)
(0.0124215240814 -0.053942089861 0)
(0.0112963283088 -0.0554885755148 0)
(0.0101945592966 -0.0568808354198 0)
(0.00911708429975 -0.058124158015 0)
(0.00806404228715 -0.0592235675621 0)
(0.0070349783005 -0.0601837693951 0)
(0.00602895646881 -0.0610091130157 0)
(0.00504465394138 -0.0617035663306 0)
(0.00408043884577 -0.062270696037 0)
(0.00313443620827 -0.0627136502957 0)
(0.00220458621754 -0.063035141268 0)
(0.00128869937668 -0.063237426301 0)
(0.000384513474105 -0.0633222866084 0)
(-0.000510243534706 -0.0632910121561 0)
(-0.00139777874206 -0.0631443747268 0)
(-0.00228014620159 -0.0628826238377 0)
(-0.0031591430149 -0.0625054895222 0)
(-0.00403618802318 -0.062012202178 0)
(-0.0049121852971 -0.0614015413855 0)
(-0.00578737762401 -0.060671919414 0)
(-0.00666119758397 -0.0598215064697 0)
(-0.00753212895712 -0.0588484040439 0)
(-0.00839759532624 -0.057750867814 0)
(-0.0092538965426 -0.0565275761712 0)
(-0.010096217151 -0.0551779314735 0)
(-0.0109187285191 -0.0537023678826 0)
(-0.0117147999355 -0.0521026260322 0)
(-0.0124773197006 -0.0503819420753 0)
(-0.0131990903616 -0.0485450864962 0)
(-0.0138732375253 -0.0465982010996 0)
(-0.0144935055072 -0.0445484106932 0)
(-0.0150542674261 -0.0424032442054 0)
(-0.0155501281511 -0.0401700562931 0)
(-0.0159748969948 -0.0378557057278 0)
(-0.0163202251893 -0.0354670309162 0)
(-0.0165742001526 -0.0330125247251 0)
(-0.0167214029968 -0.0305053406891 0)
(-0.0167461298359 -0.027966280363 0)
(-0.0166396174344 -0.025424096818 0)
(-0.0164138391314 -0.0228956867124 0)
(-0.0160478250084 -0.0203985372475 0)
(-0.0155313722942 -0.017968528234 0)
(-0.0148717775303 -0.0156542411063 0)
(-0.0141233261884 -0.0134632136837 0)
(-0.0132302119538 -0.0114567098405 0)
(-0.012444122306 -0.00956802383053 0)
(-0.0114999130638 -0.00771213367752 0)
(-0.0103428209409 -0.00603511832136 0)
(-0.00906435318023 -0.00465495170877 0)
(-0.00779527949748 -0.00360006460478 0)
(-0.00663969194587 -0.00282579784014 0)
(-0.00564962870127 -0.00225108718424 0)