/*--------------------------------*- C++ -*----------------------------------*\
| =========                 |                                                 |
| \\      /  F ield         | OpenFOAM: The Open Source CFD Toolbox           |
|  \\    /   O peration     | Version:  v1906                                 |
|   \\  /    A nd           | Web:      www.OpenFOAM.com                      |
|    \\/     M anipulation  |                                                 |
\*---------------------------------------------------------------------------*/
FoamFile
{
    version     2.0;
    format      ascii;
    class       volVectorField;
    location    "181";
    object      U;
}
// * * * * * * * * * * * * * * * * * * * * * * * * * * * * * * * * * * * * * //

dimensions      [0 1 -1 0 0 0 0];


internalField   nonuniform List<vector> 
9216
(
(-0.0937712281504 0.0938353006659 0)
(-0.096434045206 0.291976059894 4.51344031363e-26)
(-0.0959830272528 0.491545188261 -6.50439247037e-30)
(-0.0948955648009 0.69049571903 0)
(-0.0934090909674 0.886693449902 0)
(-0.0915606345824 1.07944665599 0)
(-0.0893827598873 1.26804203557 0)
(-0.0869041794928 1.45182244886 0)
(-0.0841537676742 1.63018936657 0)
(-0.0811613695315 1.80260461278 0)
(-0.077957598647 1.96859250654 0)
(-0.0745734194199 2.12774120881 0)
(-0.0710395950694 2.27970300761 0)
(-0.067386234682 2.42419351155 0)
(-0.0636423180307 2.56098987929 0)
(-0.0598353770692 2.68992819643 0)
(-0.0559911681001 2.81090018433 0)
(-0.0521335102365 2.92384937663 0)
(-0.0482841028653 3.02876694077 0)
(-0.0444625028959 3.12568726542 0)
(-0.0406860604809 3.214683459 0)
(-0.0369700012187 3.29586284995 0)
(-0.0333274451955 3.36936259325 0)
(-0.0297695581362 3.43534544083 0)
(-0.026305620058 3.49399574146 0)
(-0.0229432139104 3.54551569868 0)
(-0.0196883169384 3.59012192074 0)
(-0.0165455038635 3.62804227006 0)
(-0.0135180450309 3.65951302532 0)
(-0.0106081184282 3.6847763575 0)
(-0.00781693378833 3.70407814164 0)
(-0.0051450394513 3.71766614967 0)
(-0.00259281896741 3.725789319 0)
(-0.000162307399679 3.7286910628 0)
(0.00215223064891 3.72663874237 0)
(0.00435860058642 3.71984895781 0)
(0.00645723552869 3.7085537788 0)
(0.00844926856538 3.69297991407 0)
(0.010337109164 3.67334882018 0)
(0.0121236991949 3.64987608718 0)
(0.0138122774691 3.62277069424 0)
(0.015406205057 3.5922346322 0)
(0.016908949841 3.55846269251 0)
(0.0183239918985 3.52164235684 0)
(0.0196548437928 3.48195375343 0)
(0.0209049763796 3.43956967272 0)
(0.0220778499635 3.39465562178 0)
(0.0231768499406 3.34736991889 0)
(0.0242053235525 3.29786381083 0)
(0.0251665224589 3.24628161802 0)
(0.0260636428818 3.19276089106 0)
(0.0268997736021 3.13743258635 0)
(0.0276779380553 3.08042124508 0)
(0.0284010466597 3.02184518506 0)
(0.0290719397401 2.96181669015 0)
(0.0296933434054 2.90044220827 0)
(0.0302679124609 2.83782254301 0)
(0.0307981892283 2.77405305115 0)
(0.0312866457751 2.70922383102 0)
(0.0317356452656 2.64341991511 0)
(0.0321474830248 2.57672145191 0)
(0.0325243501092 2.5092038912 0)
(0.0328683728201 2.44093815749 0)
(0.033181578312 2.37199082669 0)
(0.0334659322937 2.30242429061 0)
(0.0337233065415 2.23229692463 0)
(0.0339555145792 2.16166324324 0)
(0.0341642810474 2.09057405904 0)
(0.0343512752297 2.01907662987 0)
(0.0345180822484 1.94721480977 0)
(0.03466623433 1.87502918848 0)
(0.034797183848 1.80255723529 0)
(0.0349123322681 1.72983343178 0)
(0.0350130050617 1.65688940963 0)
(0.0351004782762 1.58375407762 0)
(0.0351759553732 1.51045375421 0)
(0.0352405913966 1.43701228992 0)
(0.0352954717778 1.3634511957 0)
(0.0353416340658 1.28978976151 0)
(0.0353800487472 1.21604518142 0)
(0.0354116384941 1.14223266934 0)
(0.0354372609927 1.06836558189 0)
(0.0354577255691 0.9944555323 0)
(0.035473777848 0.920512512376 0)
(0.0354861132194 0.846545006722 0)
(0.0354953622326 0.772560117226 0)
(0.0355020981917 0.698563684336 0)
(0.0355068167584 0.624560428627 0)
(0.035509920608 0.550554113212 0)
(0.035511647674 0.476547784213 0)
(0.0355119003225 0.402544221989 0)
(0.0355097625731 0.328546716235 0)
(0.0355015319871 0.254563046929 0)
(0.035482341656 0.180571245329 0)
(0.035379557868 0.107054143912 0)
(0.0343259311029 0.0343260903911 0)
(-0.292338174917 0.0970775912748 0)
(-0.308635286654 0.310103299038 0)
(-0.307122212436 0.522294629522 -4.56922883709e-26)
(-0.303605625653 0.733970674981 0)
(-0.298850636195 0.942555576779 0)
(-0.29296952122 1.1474198203 0)
(-0.286044506033 1.34783119788 0)
(-0.278159960424 1.54309882435 0)
(-0.26940529948 1.73258894442 0)
(-0.259874494579 1.91573062807 0)
(-0.249664558564 2.09201927574 0)
(-0.238873848254 2.26101844153 0)
(-0.227600267565 2.4223602102 0)
(-0.215939717277 2.57574431144 0)
(-0.203984637226 2.72093615846 0)
(-0.191822905603 2.85776397683 0)
(-0.179536863014 2.98611521559 0)
(-0.167202707443 3.1059324076 0)
(-0.1548899851 3.21720865639 0)
(-0.142661420736 3.31998289312 0)
(-0.130572788749 3.41433504595 0)
(-0.118673074713 3.50038122861 0)
(-0.10700461532 3.57826904861 0)
(-0.0956034781927 3.64817310312 0)
(-0.0844997640757 3.71029072344 0)
(-0.07371810586 3.76483800269 0)
(-0.0632780463625 3.81204613535 0)
(-0.0531945820628 3.85215807772 0)
(-0.0434785580294 3.8854255329 0)
(-0.0341372160426 3.91210624618 0)
(-0.0251745958423 3.93246157545 0)
(-0.0165921341757 3.94675424407 0)
(-0.00838922532707 3.95524562817 0)
(-0.000564825145016 3.95819754417 0)
(0.00688949970039 3.95584530499 0)
(0.0139844803295 3.94846182748 0)
(0.020726466938 3.9362989207 0)
(0.0271230594674 3.91960092 0)
(0.0331834125645 3.8986047102 0)
(0.0389175548185 3.87353973908 0)
(0.0443361239644 3.84462800446 0)
(0.049450083786 3.81208390575 0)
(0.0542706490218 3.77611410811 0)
(0.058809099012 3.73691746282 0)
(0.0630767603256 3.69468498043 0)
(0.067084862704 3.64959985711 0)
(0.0708445510429 3.6018375408 0)
(0.0743667680751 3.55156583575 0)
(0.0776622855477 3.49894503267 0)
(0.0807416064611 3.44412806484 0)
(0.0836150094223 3.38726067864 0)
(0.0862924656746 3.32848162068 0)
(0.0887836922423 3.26792283135 0)
(0.0910980801544 3.20570964814 0)
(0.0932447529937 3.14196100965 0)
(0.0952325036063 3.07678966486 0)
(0.0970698554749 3.01030237897 0)
(0.0987650058629 2.94260014154 0)
(0.100325888035 2.87377836867 0)
(0.101760119349 2.80392710555 0)
(0.103075062871 2.73313122153 0)
(0.104277779331 2.66147060451 0)
(0.10537508705 2.58902034713 0)
(0.106373517041 2.51585093178 0)
(0.10727937048 2.44202840715 0)
(0.108098676462 2.3676145637 0)
(0.108837246479 2.2926671006 0)
(0.109500634554 2.21723979193 0)
(0.110094188366 2.14138264472 0)
(0.11062301161 2.06514205655 0)
(0.111092011542 1.98856096559 0)
(0.111505863525 1.91167900052 0)
(0.111869054861 1.83453262359 0)
(0.112185851551 1.75715527397 0)
(0.112460338336 1.67957750483 0)
(0.112696387753 1.60182712123 0)
(0.112897696353 1.52392931222 0)
(0.113067756147 1.44590678431 0)
(0.113209886966 1.36777988957 0)
(0.113327210385 1.28956675563 0)
(0.113422678161 1.21128341074 0)
(0.113499048592 1.13294391123 0)
(0.113558910746 1.05456046447 0)
(0.11360466281 0.97614355481 0)
(0.113638530931 0.897702065681 0)
(0.113662547223 0.81924340529 0)
(0.113678557976 0.740773629162 0)
(0.113688189794 0.662297565585 0)
(0.113692820397 0.5838189322 0)
(0.113693469676 0.505340425423 0)
(0.113690576821 0.426863743603 0)
(0.113683443192 0.34838890217 0)
(0.113668527199 0.269914558944 0)
(0.113632192822 0.191375233868 0)
(0.113355917877 0.113400532338 0)
(0.107078895257 0.0354027825701 0)
(-0.494481654896 0.0980981659998 0)
(-0.522280937027 0.313233180586 0)
(-0.519329692677 0.527177278891 -4.54001931229e-26)
(-0.513253023428 0.740777762934 0)
(-0.505154869395 0.951227896334 0)
(-0.495173961691 1.15786893715 0)
(-0.48343218101 1.35994873605 0)
(-0.470066777216 1.55676377318 0)
(-0.455227888024 1.74767094263 0)
(-0.43907493393 1.93209269334 0)
(-0.421773061732 2.10952046428 0)
(-0.403489783342 2.27951641919 0)
(-0.384391819074 2.44171363601 0)
(-0.364642319089 2.59581496081 0)
(-0.344398434622 2.74159073359 0)
(-0.323809366179 2.87887558613 0)
(-0.303014797413 3.00756451705 0)
(-0.282143801456 3.12760843394 0)
(-0.261314085243 3.23900934428 0)
(-0.240631638351 3.34181535212 0)
(-0.220190629083 3.43611560116 0)
(-0.200073610523 3.52203527741 0)
(-0.180351873172 3.59973076643 0)
(-0.161086013502 3.66938503482 0)
(-0.142326558479 3.73120329015 0)
(-0.124114727472 3.78540895283 0)
(-0.106483179496 3.83223996198 0)
(-0.0894568402106 3.8719454221 0)
(-0.0730536652669 3.90478258913 0)
(-0.0572854444198 3.93101418351 0)
(-0.0421585045315 3.95090601003 0)
(-0.0276743991525 3.96472486588 0)
(-0.0138303545098 3.97273666232 0)
(-0.00061903385989 3.97520551797 0)
(0.0119679028346 3.97239350081 0)
(0.0239396434609 3.96455421669 0)
(0.0353105959542 3.95193821273 0)
(0.0460964140274 3.93479004669 0)
(0.0563136606994 3.91334741251 0)
(0.0659797771063 3.88784072227 0)
(0.0751129340438 3.8584928419 0)
(0.0837317932342 3.82551889263 0)
(0.09185534429 3.78912612101 0)
(0.0995027082132 3.74951383444 0)
(0.10669302497 3.70687339309 0)
(0.113445307147 3.66138825125 0)
(0.119778371577 3.61323403882 0)
(0.125710732801 3.56257867696 0)
(0.131260567958 3.50958252009 0)
(0.136445640223 3.45439851982 0)
(0.141283288012 3.39717240455 0)
(0.145790370555 3.338042872 0)
(0.149983274375 3.27714178958 0)
(0.153877874879 3.21459440129 0)
(0.157489554633 3.1505195369 0)
(0.160833176269 3.08502982317 0)
(0.163923108371 3.0182318938 0)
(0.16677320613 2.95022659837 0)
(0.169396841687 2.8811092076 0)
(0.171806889908 2.81096961597 0)
(0.174015760847 2.73989253916 0)
(0.176035388734 2.66795770797 0)
(0.177877264876 2.59524005631 0)
(0.179552428528 2.52180990539 0)
(0.181071499045 2.44773314178 0)
(0.18244466773 2.37307139164 0)
(0.18368172846 2.29788218911 0)
(0.184792069921 2.22221914107 0)
(0.185784704205 2.14613208642 0)
(0.18666825912 2.06966725223 0)
(0.187451004444 1.9928674049 0)
(0.188140844168 1.91577199867 0)
(0.188745340274 1.83841731967 0)
(0.189271704874 1.76083662798 0)
(0.189726821475 1.68306029562 0)
(0.190117237072 1.60511594318 0)
(0.19044918093 1.52702857291 0)
(0.190728556719 1.44882070089 0)
(0.190960958856 1.37051248618 0)
(0.19115166477 1.2921218595 0)
(0.191305648801 1.21366464929 0)
(0.191427574573 1.13515470768 0)
(0.191521806218 1.05660403428 0)
(0.19159240044 0.978022899951 0)
(0.191643114111 0.899419968525 0)
(0.191677394264 0.820802418086 0)
(0.19169837874 0.7421760584 0)
(0.191708878342 0.663545443321 0)
(0.191711361266 0.584913967666 0)
(0.19170791642 0.506283925922 0)
(0.191700222233 0.427656538337 0)
(0.191689575205 0.349031412124 0)
(0.191676942014 0.270408747366 0)
(0.191657249831 0.191726617054 0)
(0.191334007429 0.113693894453 0)
(0.180645186497 0.0355088948884 0)
(-0.699856753834 0.099296761948 0)
(-0.739477207986 0.316999681912 0)
(-0.735250754016 0.533394651964 4.50580456581e-26)
(-0.726562603319 0.749429380339 0)
(-0.714995401433 0.962215020987 0)
(-0.700752518785 1.17106334524 0)
(-0.684008196199 1.37519590952 0)
(-0.664958840672 1.57389006998 0)
(-0.643819909321 1.76648878731 0)
(-0.620820404007 1.95240522216 0)
(-0.59619748252 2.13112586888 0)
(-0.57019141763 2.30221197424 0)
(-0.543040987678 2.46529933301 0)
(-0.514979425878 2.6200966766 0)
(-0.486230966205 2.76638288457 0)
(-0.457008050625 2.90400325114 0)
(-0.42750916389 3.03286503576 0)
(-0.397917301241 3.15293251121 0)
(-0.368398984288 3.26422170422 0)
(-0.339103797231 3.36679499736 0)
(-0.310164335312 3.46075573596 0)
(-0.281696528923 3.54624295593 0)
(-0.253800233133 3.62342632371 0)
(-0.226560053391 3.69250135538 0)
(-0.200046307373 3.75368496185 0)
(-0.174316108788 3.8072113488 0)
(-0.149414488022 3.85332828547 0)
(-0.125375551898 3.89229374416 0)
(-0.102223611829 3.92437290294 0)
(-0.0799742959346 3.94983549692 0)
(-0.0586355830969 3.96895349881 0)
(-0.0382087803056 3.98199912491 0)
(-0.0186893450929 3.98924304055 0)
(-6.8041264369e-05 3.99095295167 0)
(0.0176690340745 3.98739666107 0)
(0.0345374268276 3.97882776354 0)
(0.0505569042984 3.96549956631 0)
(0.0657494698663 3.94765811759 0)
(0.080138767207 3.92554233376 0)
(0.0937497449912 3.89938362839 0)
(0.106608330514 3.86940560437 0)
(0.118741111993 3.83582387357 0)
(0.130175080123 3.79884595876 0)
(0.140937388983 3.75867126046 0)
(0.151055172033 3.71549107856 0)
(0.160555371585 3.66948867977 0)
(0.169464615722 3.62083940245 0)
(0.177809101703 3.56971079221 0)
(0.185614519439 3.5162627614 0)
(0.192905975524 3.46064776779 0)
(0.199707951127 3.40301100699 0)
(0.206044255797 3.34349061556 0)
(0.211938010092 3.2822178806 0)
(0.217411620607 3.21931745384 0)
(0.222486779755 3.15490756739 0)
(0.227184455447 3.08910024962 0)
(0.231524902259 3.02200153949 0)
(0.235527660744 2.95371169833 0)
(0.239211575651 2.8843254179 0)
(0.242594801189 2.8139320245 0)
(0.245694823094 2.74261567806 0)
(0.248528467166 2.67045556648 0)
(0.25111192291 2.59752609459 0)
(0.253460753444 2.52389706801 0)
(0.25558991914 2.44963387161 0)
(0.257513787634 2.37479764306 0)
(0.259246156393 2.29944544114 0)
(0.260800262016 2.22363040959 0)
(0.262188801089 2.14740193613 0)
(0.263423938288 2.07080580754 0)
(0.264517325155 1.99388436042 0)
(0.265480106792 1.91667662858 0)
(0.266322938392 1.8392184867 0)
(0.267055990475 1.7615427912 0)
(0.267688963169 1.68367951792 0)
(0.268231090041 1.60565589758 0)
(0.26869115021 1.52749654856 0)
(0.269077470895 1.44922360802 0)
(0.269397937479 1.37085686075 0)
(0.269659994905 1.29241386676 0)
(0.269870655774 1.21391008717 0)
(0.270036500661 1.13535900895 0)
(0.2701636842 1.0567722683 0)
(0.270257934158 0.978159772973 0)
(0.270324555148 0.899529822922 0)
(0.270368425899 0.8208892292 0)
(0.270393999902 0.742243429169 0)
(0.27040530077 0.663596595966 0)
(0.270405922485 0.584951736806 0)
(0.27039903509 0.506310767539 0)
(0.270387423711 0.427674609928 0)
(0.27037361136 0.349042845088 0)
(0.270359832449 0.270416774233 0)
(0.270337398351 0.191736020398 0)
(0.269883651959 0.113724565017 0)
(0.254692786803 0.0355262423178 0)
(-0.908038890563 0.100881324998 0)
(-0.959466934068 0.32203340928 0)
(-0.953914827218 0.541811586386 0)
(-0.942516622963 0.761147587692 0)
(-0.927343844419 0.977088621087 0)
(-0.908671065508 1.18891277981 0)
(-0.886731586469 1.39580859948 0)
(-0.861787047676 1.59702781304 0)
(-0.834123866146 1.79189448459 0)
(-0.804045944717 1.97980932794 0)
(-0.771867411411 2.16025249163 0)
(-0.737905817272 2.33278450167 0)
(-0.702475974176 2.49704545939 0)
(-0.665884576162 2.6527527402 0)
(-0.628425677839 2.79969746131 0)
(-0.590377071561 2.93773999101 0)
(-0.551997539962 3.06680476319 0)
(-0.513524944624 3.18687463877 0)
(-0.475175064179 3.29798502804 0)
(-0.437141100114 3.40021795498 0)
(-0.39959373811 3.49369621243 0)
(-0.362681674027 3.57857772379 0)
(-0.326532494617 3.65505019848 0)
(-0.291253833869 3.72332614127 0)
(-0.256934712278 3.78363825373 0)
(-0.223647000993 3.83623524748 0)
(-0.191446940142 3.88137807375 0)
(-0.160376675372 3.91933656253 0)
(-0.130465762287 3.95038645608 0)
(-0.101732621237 3.97480681596 0)
(-0.0741859072237 3.99287777747 0)
(-0.0478257953149 4.00487866859 0)
(-0.0226450911484 4.01108593233 0)
(0.0013689285971 4.0117732591 0)
(0.0242358202251 4.0072115026 0)
(0.045977314873 3.99765799304 0)
(0.0666194945114 3.98336920545 0)
(0.0861913834612 3.96459348342 0)
(0.10472416978 3.94157145319 0)
(0.12225067189 3.91453581357 0)
(0.138804885523 3.88371107766 0)
(0.154421585453 3.84931343975 0)
(0.169135989568 3.81155072346 0)
(0.182983468194 3.77062239129 0)
(0.195999305262 3.726719605 0)
(0.208218494828 3.68002532755 0)
(0.219675579454 3.63071445846 0)
(0.230404514593 3.57895399576 0)
(0.240438565884 3.52490321856 0)
(0.249810224496 3.46871388516 0)
(0.258551147987 3.41053044245 0)
(0.266692112828 3.35049024289 0)
(0.27426298654 3.28872376622 0)
(0.281292706531 3.22535484326 0)
(0.287809273935 3.16050087981 0)
(0.293839750395 3.09427307909 0)
(0.299410266288 3.02677666139 0)
(0.304546029144 2.9581110799 0)
(0.309271340792 2.88837023202 0)
(0.313609612722 2.81764266569 0)
(0.317583388166 2.7460117802 0)
(0.321214361028 2.67355602151 0)
(0.324523400035 2.60034907182 0)
(0.327530568874 2.52646003354 0)
(0.330255150442 2.45195360761 0)
(0.33271566659 2.37689026656 0)
(0.334929901187 2.30132642226 0)
(0.336914918445 2.22531458891 0)
(0.338687084012 2.14890354122 0)
(0.340262081289 2.07213846839 0)
(0.341654930131 1.99506112396 0)
(0.342880000885 1.91770997203 0)
(0.343951030539 1.84012032992 0)
(0.344881134425 1.7623245079 0)
(0.345682819834 1.68435194593 0)
(0.346367995482 1.60622934801 0)
(0.346947982716 1.5279808141 0)
(0.347433522928 1.44962797016 0)
(0.347834786537 1.37119009629 0)
(0.348161378559 1.29268425333 0)
(0.348422345572 1.21412540798 0)
(0.348626179632 1.13552655668 0)
(0.348780823395 1.05689884822 0)
(0.348893672546 0.978251705179 0)
(0.348971579296 0.89959294381 0)
(0.349020853758 0.820928892297 0)
(0.349047266872 0.742264506314 0)
(0.349056053458 0.663603481021 0)
(0.349051921171 0.584948358361 0)
(0.349039070451 0.506300624901 0)
(0.349021241263 0.427660865674 0)
(0.349001801209 0.349028513632 0)
(0.348983450593 0.270405224933 0)
(0.348953341986 0.191730604235 0)
(0.348363086762 0.113728871537 0)
(0.32872679849 0.0355311977947 0)
(-1.11997108158 0.102886238635 0)
(-1.18335373798 0.328435979637 0)
(-1.17639414617 0.552550043662 0)
(-1.16214486343 0.7761043952 0)
(-1.14317974122 0.996068205106 0)
(-1.11985070304 1.21167825898 0)
(-1.09245721114 1.42208248568 0)
(-1.06133361435 1.62650052709 0)
(-1.02684474589 1.82423280655 0)
(-0.989376608597 2.01466476047 0)
(-0.949327038575 2.19726923916 0)
(-0.907096973202 2.37160681018 0)
(-0.863082601406 2.5373241289 0)
(-0.817668578185 2.69415068637 0)
(-0.771222398562 2.84189426499 0)
(-0.724089959721 2.98043543108 0)
(-0.676592274025 3.10972137414 0)
(-0.629023255946 3.2297593697 0)
(-0.581648468077 3.34061010291 0)
(-0.534704699493 3.44238104748 0)
(-0.48840023584 3.53522005252 0)
(-0.442915688639 3.61930925113 0)
(-0.398405252256 3.69485937006 0)
(-0.354998275828 3.7621044903 0)
(-0.312801044761 3.8212972845 0)
(-0.271898688653 3.87270473785 0)
(-0.232357140538 3.91660434446 0)
(-0.194225093523 3.95328076071 0)
(-0.157535906616 3.98302288973 0)
(-0.122309429793 4.00612136715 0)
(-0.0885537201197 4.02286641089 0)
(-0.0562666430262 4.03354608248 0)
(-0.0254372432198 4.0384437896 0)
(0.00395213286614 4.03784092606 0)
(0.0319270435609 4.03201174052 0)
(0.0585159672574 4.02121825316 0)
(0.0837522864981 4.00572063612 0)
(0.107672734452 3.98576997594 0)
(0.130316579536 3.96160897199 0)
(0.151724965866 3.93347184345 0)
(0.171940354316 3.9015841491 0)
(0.191006045114 3.8661627229 0)
(0.208965773935 3.82741568321 0)
(0.225863369755 3.78554249677 0)
(0.241742470664 3.74073408745 0)
(0.256646287661 3.6931729809 0)
(0.270617413575 3.64303347731 0)
(0.283697668161 3.59048184579 0)
(0.295927977454 3.53567653496 0)
(0.307348279521 3.47876839503 0)
(0.317997455626 3.41990090753 0)
(0.327913279978 3.35921041959 0)
(0.337132387904 3.29682637988 0)
(0.345690256521 3.23287157441 0)
(0.353621198439 3.16746236017 0)
(0.360958363323 3.10070889546 0)
(0.367733748383 3.03271536575 0)
(0.373978213284 2.96358020449 0)
(0.379721500927 2.89339630805 0)
(0.38499226014 2.82225124476 0)
(0.38981807201 2.75022745755 0)
(0.394225476351 2.67740246044 0)
(0.398240000235 2.6038490286 0)
(0.401886185449 2.52963538236 0)
(0.405187616916 2.45482536531 0)
(0.408166949273 2.37947861655 0)
(0.410845933695 2.30365073773 0)
(0.413245442416 2.2273934548 0)
(0.415385493049 2.15075477512 0)
(0.417285270403 2.07377914005 0)
(0.418963147831 1.99650757352 0)
(0.420436706049 1.91897782681 0)
(0.421722751371 1.84122451993 0)
(0.422837331485 1.76327927989 0)
(0.423795750646 1.68517087619 0)
(0.424612582554 1.60692535385 0)
(0.425301682692 1.52856616417 0)
(0.425876198553 1.45011429358 0)
(0.426348579407 1.37158839067 0)
(0.426730584177 1.2930048918 0)
(0.427033288943 1.21437814527 0)
(0.427267092813 1.13572053425 0)
(0.427441723521 1.05704259869 0)
(0.427566241726 0.978353156004 0)
(0.427649045304 0.899659420646 0)
(0.427697873013 0.820967122473 0)
(0.427719809141 0.74228062362 0)
(0.427721289627 0.663603033998 0)
(0.427708112725 0.584936326533 0)
(0.42768545741 0.50628144991 0)
(0.427657914446 0.42763850751 0)
(0.42762951981 0.349006525053 0)
(0.427603231218 0.270386930426 0)
(0.427562278534 0.191718461303 0)
(0.426833603733 0.113722582919 0)
(0.402766118873 0.0355292090712 0)
(-1.33656742292 0.105348654839 0)
(-1.41212073551 0.336303089645 0)
(-1.40364254115 0.56575089395 4.42585476529e-26)
(-1.38635541689 0.79449047927 0)
(-1.36335500492 1.01939072124 0)
(-1.33507828542 1.23963663551 0)
(-1.30189940019 1.45432652384 0)
(-1.26423470058 1.66264098016 0)
(-1.22253693139 1.86385206919 0)
(-1.17728343872 2.05732748674 0)
(-1.1289644084 2.2425324533 0)
(-1.07807194444 2.41902914867 0)
(-1.02509035273 2.58647396143 0)
(-0.970487850681 2.74461296397 0)
(-0.914709807088 2.89327603262 0)
(-0.858173521191 3.03237001827 0)
(-0.801264471147 3.16187133639 0)
(-0.74433390834 3.28181829584 0)
(-0.687697636578 3.39230343005 0)
(-0.631635798831 3.49346603758 0)
(-0.576393488334 3.58548508645 0)
(-0.522182009114 3.6685725892 0)
(-0.469180622934 3.74296751573 0)
(-0.417538639489 3.80893027813 0)
(-0.367377725114 3.86673779623 0)
(-0.31879432757 3.91667913298 0)
(-0.271862132395 3.95905167534 0)
(-0.226634486156 3.99415782678 0)
(-0.183146736065 4.02230217233 0)
(-0.141418450978 4.04378907525 0)
(-0.101455497158 4.05892065497 0)
(-0.0632519599873 4.06799523895 0)
(-0.0267917568718 4.07130431099 0)
(0.0079492749215 4.06913879894 0)
(0.0410031520724 4.06177580164 0)
(0.0724062223269 4.04948358096 0)
(0.102200070299 4.0325263015 0)
(0.130429916717 4.01115810501 0)
(0.157143770027 3.98562401497 0)
(0.182391660658 3.95615992049 0)
(0.206224993235 3.92299249047 0)
(0.228695999205 3.88633919399 0)
(0.249857274816 3.84640838343 0)
(0.269761393368 3.8033994237 0)
(0.288460583786 3.75750285861 0)
(0.30600646645 3.70890060582 0)
(0.32244983972 3.65776617362 0)
(0.337840509512 3.60426489325 0)
(0.352227156735 3.5485541621 0)
(0.365657236247 3.49078369371 0)
(0.378176903363 3.43109577109 0)
(0.389830962762 3.36962550078 0)
(0.40066283688 3.30650106542 0)
(0.410714549632 3.24184397311 0)
(0.420026723408 3.17576930221 0)
(0.428638586075 3.10838594055 0)
(0.43658798657 3.03979681842 0)
(0.443911416488 2.97009913472 0)
(0.450644036863 2.89938457603 0)
(0.456819708019 2.82773952848 0)
(0.46247102214 2.75524528237 0)
(0.467629336858 2.68197822966 0)
(0.472324809818 2.60801005454 0)
(0.476586432867 2.53340791729 0)
(0.480442066049 2.45823463171 0)
(0.483918470309 2.3825488366 0)
(0.487041339271 2.30640516146 0)
(0.489835329176 2.22985438692 0)
(0.49232408747 2.15294360031 0)
(0.494530279283 2.07571634656 0)
(0.49647561235 1.99821277516 0)
(0.498180859753 1.92046978315 0)
(0.499665881067 1.84252115487 0)
(0.500949641367 1.76439769852 0)
(0.502050228718 1.6861273801 0)
(0.502984869667 1.60773545484 0)
(0.503769943344 1.5292445965 0)
(0.504420993773 1.45067502484 0)
(0.504952740953 1.3720446314 0)
(0.505379090381 1.29336910384 0)
(0.505713141551 1.21466204904 0)
(0.505967195153 1.13593511512 0)
(0.506152759492 1.05719811241 0)
(0.506280555967 0.978459133628 0)
(0.50636052417 0.899724673148 0)
(0.506401826699 0.820999745567 0)
(0.506412854497 0.742288003745 0)
(0.506401233319 0.663591856822 0)
(0.506373832665 0.584912589807 0)
(0.506336778115 0.506250482327 0)
(0.506295466388 0.427604993925 0)
(0.506254562343 0.348974517259 0)
(0.506217318689 0.270359918306 0)
(0.506163393331 0.191698761007 0)
(0.505295833589 0.113709293643 0)
(0.476801936254 0.0355239297233 0)
(-1.55881784973 0.108305377806 0)
(-1.64681345178 0.34574557437 0)
(-1.63667828266 0.581591954263 -4.38962581608e-26)
(-1.61611850567 0.816547448653 0)
(-1.58877801577 1.04735500961 0)
(-1.55518943963 1.27313542298 0)
(-1.515812562 1.49292699528 0)
(-1.47115752887 1.7058637274 0)
(-1.42177700331 1.91118462323 0)
(-1.36825131335 2.10823766057 0)
(-1.31117379951 2.2964809405 0)
(-1.25113736354 2.47548091881 0)
(-1.18872266601 2.64490814315 0)
(-1.12448822338 2.80453104467 0)
(-1.05896250082 2.95420832466 0)
(-0.992637971949 3.09388043906 0)
(-0.925967021314 3.22356062289 0)
(-0.859359501448 3.34332582295 0)
(-0.793181718616 3.45330782943 0)
(-0.727756607159 3.55368482319 0)
(-0.663364854329 3.64467348909 0)
(-0.600246752852 3.7265217889 0)
(-0.538604580291 3.79950244129 0)
(-0.478605331362 3.86390712075 0)
(-0.420383656559 3.92004136037 0)
(-0.364044888149 3.96822012501 0)
(-0.309668059108 4.00876400919 0)
(-0.25730884364 4.04199600711 0)
(-0.207002366704 4.06823879933 0)
(-0.158765846876 4.08781250227 0)
(-0.112601048361 4.10103281657 0)
(-0.068496531844 4.10820972361 0)
(-0.0264295191708 4.10964378983 0)
(0.0136326106621 4.1056372336 0)
(0.0517287517279 4.0964690184 0)
(0.0879045835588 4.08241532846 0)
(0.122210913737 4.06374445317 0)
(0.1547023207 4.04071378585 0)
(0.185436305943 4.01357081728 0)
(0.214472430709 3.98255315998 0)
(0.241871592277 3.94788857337 0)
(0.26769541728 3.90979508302 0)
(0.292005751849 3.86848114916 0)
(0.314864236738 3.82414587124 0)
(0.336331957273 3.77697922021 0)
(0.356469158198 3.72716229115 0)
(0.375335014997 3.67486756976 0)
(0.392987453603 3.6202592077 0)
(0.409483011792 3.5634933025 0)
(0.42487673577 3.50471817874 0)
(0.439222106737 3.44407466777 0)
(0.452570992321 3.38169638379 0)
(0.464973618901 3.31770999468 0)
(0.47647856086 3.25223548639 0)
(0.487132743805 3.18538641984 0)
(0.496981458733 3.11727017983 0)
(0.506068384993 3.04798821556 0)
(0.51443561976 2.97763627254 0)
(0.522123712515 2.90630461588 0)
(0.529171702844 2.834078245 0)
(0.535617160532 2.76103710017 0)
(0.541496226713 2.68725626082 0)
(0.546843655452 2.61280613633 0)
(0.551692854856 2.53775264943 0)
(0.556075927371 2.46215741278 0)
(0.560023708627 2.38607789907 0)
(0.563565804709 2.30956760523 0)
(0.566730627402 2.23267621102 0)
(0.569545427433 2.15544973268 0)
(0.572036325423 2.07793067187 0)
(0.574228340666 2.00015816046 0)
(0.576145417547 1.92216810156 0)
(0.577810449791 1.84399330716 0)
(0.579245302442 1.76566363277 0)
(0.580470831783 1.68720610935 0)
(0.581506903158 1.60864507299 0)
(0.582372406948 1.53000229247 0)
(0.583085272659 1.45129709506 0)
(0.583662481408 1.37254649085 0)
(0.584120076799 1.29376529569 0)
(0.584473174452 1.21496625305 0)
(0.58473597023 1.13616015493 0)
(0.584921747431 1.05735596198 0)
(0.585042883052 0.978560922894 0)
(0.585110853439 0.899780693334 0)
(0.585136239555 0.821019454506 0)
(0.585128732281 0.742280031706 0)
(0.585097138101 0.663564013406 0)
(0.58504938551 0.584871872376 0)
(0.584992531888 0.506203085135 0)
(0.584932768336 0.42755631503 0)
(0.584875398572 0.348929145285 0)
(0.584824041551 0.270321686877 0)
(0.584754991432 0.191670211324 0)
(0.583747720135 0.113689717506 0)
(0.550829042686 0.0355163043383 0)
(-1.78779344352 0.111799304279 0)
(-1.88855534597 0.356897448719 0)
(-1.87659307782 0.60029345492 0)
(-1.85247100417 0.842575336083 0)
(-1.82041480507 1.08033145182 0)
(-1.78106676802 1.31260398503 0)
(-1.73498647097 1.53835953149 0)
(-1.68279283827 1.75667737507 0)
(-1.62515355331 1.96675888457 0)
(-1.56276642253 2.1679310583 0)
(-1.49634124864 2.35964655449 0)
(-1.42658343371 2.54148024302 0)
(-1.35417983989 2.71312290407 0)
(-1.27978717224 2.87437280805 0)
(-1.20402294615 3.02512587372 0)
(-1.12745894378 3.16536502999 0)
(-1.05061695115 3.29514930938 0)
(-0.973966496895 3.41460309428 0)
(-0.897924279268 3.52390583138 0)
(-0.822854961768 3.62328243358 0)
(-0.749073031748 3.71299450635 0)
(-0.676845443882 3.79333246834 0)
(-0.606394805031 3.86460858457 0)
(-0.537902894821 3.92715089195 0)
(-0.471514353552 3.98129797112 0)
(-0.407340404093 4.02739450138 0)
(-0.345462505684 4.06578752701 0)
(-0.28593586488 4.09682335909 0)
(-0.228792751856 4.12084503812 0)
(-0.174045589599 4.13819028811 0)
(-0.12168980008 4.14918988501 0)
(-0.0717063956542 4.15416664221 0)
(-0.0240641829538 4.15343109744 0)
(0.0212802505955 4.14729845115 0)
(0.064373133328 4.13604810499 0)
(0.105271209566 4.11996590069 0)
(0.144035627676 4.09932416055 0)
(0.180731285999 4.07438360517 0)
(0.21542601727 4.04539422275 0)
(0.24818963104 4.01259529534 0)
(0.279093126062 3.97621555685 0)
(0.308208036255 3.9364734252 0)
(0.335605884473 3.89357726691 0)
(0.361357730936 3.84772568611 0)
(0.385533804265 3.79910783055 0)
(0.408203203934 3.74790370808 0)
(0.429433664301 3.69428450814 0)
(0.449291371333 3.63841292423 0)
(0.467840824263 3.580443474 0)
(0.485144735219 3.52052281436 0)
(0.501263960786 3.45879004973 0)
(0.51625746012 3.39537703179 0)
(0.530182275004 3.33040864991 0)
(0.543093527769 3.26400311139 0)
(0.555044433605 3.19627221116 0)
(0.56608632421 3.12732159078 0)
(0.576268680259 3.05725098669 0)
(0.585639170415 2.9861544679 0)
(0.594243695089 2.91412066339 0)
(0.602126433318 2.84123297955 0)
(0.609329891513 2.76756980823 0)
(0.615894952937 2.69320472566 0)
(0.621860927073 2.61820668297 0)
(0.627265598133 2.54264018881 0)
(0.632145272172 2.46656548451 0)
(0.636534822333 2.39003871248 0)
(0.640467731935 2.31311207836 0)
(0.643976135116 2.23583400744 0)
(0.647090854929 2.15824929585 0)
(0.649841438741 2.0803992571 0)
(0.652256190958 2.00232186442 0)
(0.65436220303 1.92405188929 0)
(0.656185380824 1.84562103669 0)
(0.657750469425 1.76705807739 0)
(0.65908107547 1.68838897768 0)
(0.660199687127 1.60963702687 0)
(0.66112769188 1.53082296289 0)
(0.661885392226 1.45196509624 0)
(0.662492019476 1.37307943254 0)
(0.66296574579 1.29417979396 0)
(0.663323694637 1.21527793963 0)
(0.66358194983 1.13638368535 0)
(0.663755563336 1.05750502259 0)
(0.663858562042 0.978648237104 0)
(0.663903953702 0.899818027234 0)
(0.663903732266 0.821017622113 0)
(0.663868882814 0.742248900124 0)
(0.663809386219 0.663512508018 0)
(0.663734223448 0.584807981723 0)
(0.663651378939 0.506133864168 0)
(0.66356784045 0.427487885135 0)
(0.663489570267 0.348866675422 0)
(0.663420606473 0.270269455076 0)
(0.663333979583 0.191631130256 0)
(0.662185701149 0.113663420757 0)
(0.624842873286 0.0355064371391 0)
(-2.02466289838 0.115882137521 0)
(-2.13856875253 0.369921812956 0)
(-2.12457127896 0.622125191908 0)