/*--------------------------------*- C++ -*----------------------------------*\
| =========                 |                                                 |
| \\      /  F ield         | OpenFOAM: The Open Source CFD Toolbox           |
|  \\    /   O peration     | Version:  v1906                                 |
|   \\  /    A nd           | Web:      www.OpenFOAM.com                      |
|    \\/     M anipulation  |                                                 |
\*---------------------------------------------------------------------------*/
FoamFile
{
    version     2.0;
    format      ascii;
    class       volVectorField;
    location    "462";
    object      Ua;
}
// * * * * * * * * * * * * * * * * * * * * * * * * * * * * * * * * * * * * * //

dimensions      [0 1 -1 0 0 0 0];


internalField   nonuniform List<vector> 
9216
(
(-0.00661774213453 0.00662073202964 0)
(-0.00680292795529 0.0206474471135 2.38345030633e-27)
(-0.00678850745275 0.0347528116346 -4.58038245536e-31)
(-0.00674000706189 0.0488483201933 0)
(-0.00667223701628 0.0627974812822 0)
(-0.00658664097855 0.0765649465328 0)
(-0.00648472917938 0.0901111598885 0)
(-0.00636741551906 0.103399484159 0)
(-0.00623573700679 0.116395576968 0)
(-0.00609053444942 0.129067559398 0)
(-0.00593289276256 0.141385975411 0)
(-0.00576367281412 0.153323945756 0)
(-0.00558398403897 0.164857087147 0)
(-0.00539464702211 0.17596356285 0)
(-0.00519671719037 0.186623920073 0)
(-0.00499089891427 0.196821030213 0)
(-0.00477811679039 0.206539853865 0)
(-0.00455889492421 0.215767287123 0)
(-0.00433396831296 0.224491880304 0)
(-0.00410364075612 0.232703619996 0)
(-0.00386842777615 0.24039363553 0)
(-0.00362840498996 0.247553952571 0)
(-0.00338387171082 0.25417722591 0)
(-0.00313470076824 0.260256501786 0)
(-0.00288101071571 0.265785011176 0)
(-0.00262252636332 0.270755971392 0)
(-0.00235924635562 0.275162467388 0)
(-0.00209082426505 0.278997315311 0)
(-0.00181721943172 0.28225305157 0)
(-0.00153811070182 0.284921861559 0)
(-0.0012535069258 0.286995747886 0)
(-0.00096319151408 0.288466432831 0)
(-0.000667329920219 0.289325678282 0)
(-0.000365959151825 0.289565395241 0)
(-5.95000825498e-05 0.289178005717 0)
(0.000251672076058 0.288156637948 0)
(0.000566790576513 0.286495617222 0)
(0.000885052410755 0.284190714863 0)
(0.00120528256561 0.281239736981 0)
(0.00152619730157 0.277642787217 0)
(0.00184619160845 0.273402916508 0)
(0.00216348722178 0.268526355392 0)
(0.00247606296715 0.263023193208 0)
(0.00278165784615 0.256907551914 0)
(0.00307786377216 0.250198283581 0)
(0.00336195335257 0.242919088797 0)
(0.00363115818125 0.235099232932 0)
(0.00388230665292 0.226773621469 0)
(0.00411232268151 0.217983495337 0)
(0.00431769005738 0.208776421451 0)
(0.00449520932366 0.199206788549 0)
(0.00464134260191 0.189335541171 0)
(0.00475322751123 0.179230112713 0)
(0.00482796395954 0.168963629469 0)
(0.00486377828711 0.158613865561 0)
(0.00485928982871 0.148261771448 0)
(0.00481459555885 0.137989319111 0)
(0.00473057497001 0.12787757759 0)
(0.00460963129409 0.118003769756 0)
(0.00445511162478 0.108439422024 0)
(0.00427140860801 0.0992474855625 0)
(0.00406351061751 0.0904814942408 0)
(0.00383650827915 0.0821841017297 0)
(0.00359572067603 0.0743875821086 0)
(0.0033460945112 0.0671133962161 0)
(0.00309280925437 0.0603729121654 0)
(0.00284027105099 0.0541674692655 0)
(0.00259289694313 0.0484895719589 0)
(0.00235389499003 0.0433237874016 0)
(0.00212636508461 0.0386483879492 0)
(0.00191206228215 0.0344366506578 0)
(0.00171270469904 0.0306584222888 0)
(0.00152871465583 0.0272814251111 0)
(0.00136060760106 0.0242725223669 0)
(0.00120777078989 0.021598825587 0)
(0.00106989024782 0.0192284731074 0)
(0.000945778749615 0.0171313198842 0)
(0.000834716602338 0.0152792001308 0)
(0.000735291115374 0.013646297126 0)
(0.000646568854778 0.0122091488131 0)
(0.000566873061646 0.0109470349784 0)
(0.000494487786645 0.00984228145965 0)
(0.000424925063121 0.0088858284694 0)
(0.000346616830611 0.00803349300164 0)
(0.000290648629644 0.00732879887624 0)
(0.000284484056096 0.00681453781383 0)
(0.000268728962127 0.00620810699469 0)
(0.0002365503518 0.00570426826885 0)
(0.000244665177363 0.00527126806077 0)
(0.000272507964478 0.00475162077106 0)
(0.000278233557371 0.0042192736206 0)
(0.000287738222663 0.00363946172094 0)
(0.000332162564176 0.00299782921113 0)
(0.000381072062113 0.00228597721718 0)
(0.00043242749548 0.00141562212049 0)
(0.000464985998944 0.000453480015322 0)
(-0.0206781680932 0.00684304009645 0)
(-0.0218303894278 0.021931673821 0)
(-0.0217561504106 0.0369326739161 -2.44994880698e-27)
(-0.0215696578089 0.0519359552962 0)
(-0.0213158804397 0.0667716450651 0)
(-0.0209998407902 0.0814100872026 0)
(-0.0206252707952 0.0958109041331 0)
(-0.0201955446876 0.109935630593 0)
(-0.0197144524299 0.123747894742 0)
(-0.0191856567392 0.137213821586 0)
(-0.0186132705051 0.150302145783 0)
(-0.0180011251229 0.162984344558 0)
(-0.0173534009979 0.175234619478 0)
(-0.0166738000739 0.187029898495 0)
(-0.0159662554157 0.198349709063 0)
(-0.0152340422648 0.209176066182 0)
(-0.0144805665736 0.21949325495 0)
(-0.0137084394117 0.229287626504 0)
(-0.0129203381062 0.238547318348 0)
(-0.0121180664899 0.247261991119 0)
(-0.0113034784248 0.255422524372 0)
(-0.0104775423025 0.263020734528 0)
(-0.00964131088783 0.270049088048 0)
(-0.00879500366097 0.276500441335 0)
(-0.00793900211227 0.282367809108 0)
(-0.00707295940363 0.287644159724 0)
(-0.00619679770481 0.292322267307 0)
(-0.00530985499952 0.296394585529 0)
(-0.00441186286603 0.299853201116 0)
(-0.00350214400537 0.30268980388 0)
(-0.00258055086202 0.304895726235 0)
(-0.00164669659598 0.306462110215 0)
(-0.00070087211576 0.307380019751 0)
(0.000256632717622 0.307640638337 0)
(0.00122474856036 0.307235603088 0)
(0.00220220323237 0.306157291853 0)
(0.00318686085378 0.304399268389 0)
(0.00417620235639 0.301956650256 0)
(0.00516682793019 0.298826639186 0)
(0.00615482158334 0.295008925519 0)
(0.00713544980876 0.290506258797 0)
(0.00810337395811 0.285324839571 0)
(0.00905256634327 0.279474890232 0)
(0.0099763160929 0.272971004341 0)
(0.0108673768023 0.265832705481 0)
(0.011717711151 0.258084761572 0)
(0.0125188992293 0.249757749311 0)
(0.013261610778 0.240888359311 0)
(0.0139363524037 0.231519957148 0)
(0.0145327455452 0.221702838442 0)
(0.0150407374463 0.211494636088 0)
(0.0154498451383 0.200960302592 0)
(0.0157508948694 0.190171984851 0)
(0.0159353503582 0.179208333234 0)
(0.0159973733831 0.168153376826 0)
(0.0159331716061 0.157094877432 0)
(0.0157428589737 0.146122086087 0)
(0.0154297259286 0.135323343644 0)
(0.0150013897462 0.124783076062 0)
(0.0144689087753 0.114579166095 0)
(0.0138465485393 0.104780028001 0)
(0.0131503546209 0.0954431020021 0)
(0.0123967197503 0.0866139037597 0)
(0.0116022214559 0.0783264572262 0)
(0.0107827367093 0.0706033359828 0)
(0.00995428914174 0.0634560093039 0)
(0.00913122255636 0.0568850890287 0)
(0.00832701397727 0.0508813705758 0)
(0.00755221272931 0.0454271091535 0)
(0.0068159344009 0.0404977442805 0)
(0.00612410131319 0.0360634922489 0)
(0.00548137949652 0.0320909832168 0)
(0.0048894621364 0.0285447318048 0)
(0.00434916883401 0.0253885186897 0)
(0.00385888099586 0.0225866067892 0)
(0.00341681253431 0.0201046164839 0)
(0.0030195526812 0.0179101683715 0)
(0.00266414714598 0.0159731696794 0)
(0.00234655826732 0.0142660303403 0)
(0.00206342880801 0.0127635960761 0)
(0.00181041611519 0.0114430239833 0)
(0.00158328219774 0.0102831265543 0)
(0.00137529016173 0.00926316464956 0)
(0.00117148740929 0.00835745608531 0)
(0.00100370035032 0.00744819850745 0)
(0.000927419021183 0.00673623724806 0)
(0.000815359582147 0.0060878569276 0)
(0.00071573790494 0.00560178094252 0)
(0.00072092794514 0.00508367481969 0)
(0.000790462060706 0.00466379089276 0)
(0.000832400987328 0.00420847465878 0)
(0.000892667489529 0.0035976206753 0)
(0.000995271529419 0.00293834782844 0)
(0.00123900156894 0.00233657961957 0)
(0.00152149590425 0.00149689683885 0)
(0.00137536912207 0.000409452737006 0)
(-0.0349444699924 0.00689837429939 0)
(-0.036913092959 0.0221143206114 0)
(-0.0367612237082 0.0372075601396 -2.45329523803e-27)
(-0.0364403884583 0.0523203506552 0)
(-0.0360125078527 0.0672634637928 0)
(-0.0354826552132 0.0820058600344 0)
(-0.0348555989755 0.0965061867446 0)
(-0.0341366673555 0.110725452908 0)
(-0.0333318445883 0.124626899119 0)
(-0.0324473768465 0.138176346538 0)
(-0.0314899093218 0.151342343228 0)
(-0.0304660542169 0.164096274979 0)
(-0.0293825629089 0.176412375627 0)
(-0.0282458590979 0.188267701736 0)
(-0.0270622545805 0.199642021517 0)
(-0.0258374697712 0.210517672367 0)
(-0.024576903374 0.220879347955 0)
(-0.0232851619482 0.230713862369 0)
(-0.0219663913758 0.24000986535 0)
(-0.0206238344174 0.24875754849 0)
(-0.0192602266796 0.256948328922 0)
(-0.0178773939808 0.264574541466 0)
(-0.0164767063465 0.271629136496 0)
(-0.0150587174084 0.27810540245 0)
(-0.0136236606949 0.283996718275 0)
(-0.0121711259904 0.289296341301 0)
(-0.0107005781716 0.293997243126 0)
(-0.00921106541799 0.29809198516 0)
(-0.0077017438558 0.301572655267 0)
(-0.0061716158533 0.304430839853 0)
(-0.00462006788735 0.306657692511 0)
(-0.00304660985866 0.308244001028 0)
(-0.00145139877538 0.309180363604 0)
(0.000164952657134 0.309457411325 0)
(0.00180091818479 0.309066108487 0)
(0.00345422532978 0.307998085182 0)
(0.0051214688557 0.306246060825 0)
(0.00679826814508 0.303804274124 0)
(0.00847898756393 0.300668990187 0)
(0.0101568905319 0.29683897859 0)
(0.0118239867643 0.292316048442 0)
(0.0134711635432 0.287105515903 0)
(0.0150881517909 0.281216715492 0)
(0.0166635833398 0.274663420159 0)
(0.0181850458789 0.267464316632 0)
(0.0196390099414 0.259643396319 0)
(0.0210109667601 0.251230439112 0)
(0.0222852348898 0.24226143738 0)
(0.0234452774841 0.232779135953 0)
(0.0244735461188 0.222833491366 0)
(0.0253522122018 0.212482161476 0)
(0.0260633321113 0.201790756423 0)
(0.0265902144048 0.190832850569 0)
(0.0269180478803 0.179689460687 0)
(0.0270357188209 0.168447956136 0)
(0.0269365530213 0.157200293009 0)
(0.0266198637994 0.146040650547 0)
(0.026091304667 0.135062667962 0)
(0.0253636813779 0.124356167303 0)
(0.0244565483356 0.11400378865 0)
(0.0233952213356 0.104077397398 0)
(0.022208001905 0.0946359765933 0)
(0.020923439379 0.0857253520631 0)
(0.0195695143855 0.0773792682121 0)
(0.0181736827302 0.0696199511889 0)
(0.0167632000475 0.062457926568 0)
(0.0153634269544 0.0558920584292 0)
(0.0139971358758 0.0499105761763 0)
(0.0126829192775 0.0444927129844 0)
(0.0114356323247 0.0396107482208 0)
(0.0102657620985 0.0352318338954 0)
(0.00918044164732 0.0313196984468 0)
(0.00818291411283 0.0278361981824 0)
(0.00727364022279 0.0247428138219 0)
(0.00645008771839 0.0220019991644 0)
(0.00570827458833 0.0195781159824 0)
(0.00504271811702 0.0174379758382 0)
(0.00444769243238 0.0155510364641 0)
(0.00391685637158 0.0138894743793 0)
(0.0034442211532 0.0124280637783 0)
(0.00302369071179 0.0111439051064 0)
(0.00264988735512 0.0100158007541 0)
(0.00231787642259 0.00902295929641 0)
(0.00202493561615 0.00815003462176 0)
(0.0017806829519 0.00726119780683 0)
(0.00161363818477 0.00659569169431 0)
(0.00144588338596 0.00608206994558 0)
(0.00126514586768 0.00537210522388 0)
(0.0011661441959 0.00475254651313 0)
(0.00122877288735 0.00438043253816 0)
(0.0014314608224 0.00407839014313 0)
(0.00148989346022 0.00326835552711 0)
(0.00171481086486 0.00270432568287 0)
(0.00201907677653 0.00197762501755 0)
(0.00228272291714 0.00119141474283 0)
(0.00222232649151 0.000367321351178 0)
(-0.0494078496769 0.00695588450024 0)
(-0.0522148087441 0.0223181991689 0)
(-0.0519976034507 0.0375354734727 2.45297086458e-27)
(-0.0515396142096 0.0527775197553 0)
(-0.0509295103755 0.067846262387 0)
(-0.0501749325545 0.0827094544733 0)
(-0.0492825498126 0.0973245820799 0)
(-0.0482599832402 0.111651841253 0)
(-0.047115720448 0.125653876293 0)
(-0.0458588016703 0.139296090838 0)
(-0.044498706869 0.152546797269 0)
(-0.0430450369257 0.165377314798 0)
(-0.0415074205159 0.17776198626 0)
(-0.0398951918221 0.1896781366 0)
(-0.0382173275859 0.201105958606 0)
(-0.0364821413261 0.212028346832 0)
(-0.0346972687553 0.222430670906 0)
(-0.0328694018054 0.232300509192 0)
(-0.0310043408317 0.241627340814 0)
(-0.0291067894065 0.250402217299 0)
(-0.0271804853704 0.258617418145 0)
(-0.0252280668278 0.266266110079 0)
(-0.0232512801515 0.273342017835 0)
(-0.0212509121893 0.279839121134 0)
(-0.0192270584117 0.285751385823 0)
(-0.0171791045005 0.291072536151 0)
(-0.015106031665 0.295795874907 0)
(-0.0130064314426 0.299914151066 0)
(-0.0108788316113 0.303419483448 0)
(-0.00872173715776 0.306303324449 0)
(-0.00653398609582 0.308556530864 0)
(-0.00431477570337 0.310169410264 0)
(-0.0020640420317 0.311131899941 0)
(0.000217461188415 0.311433800686 0)
(0.00252783604239 0.311065075144 0)
(0.0048639624391 0.310016209112 0)
(0.00722122439656 0.308278646905 0)
(0.0095934749543 0.305845267489 0)
(0.0119728591159 0.302710911732 0)
(0.0143498482268 0.298872915165 0)
(0.0167131790341 0.29433165604 0)
(0.0190499461537 0.289091067418 0)
(0.0213456283331 0.283159134285 0)
(0.023584173743 0.27654833314 0)
(0.0257480389942 0.269276060856 0)
(0.0278181803608 0.26136503315 0)
(0.0297740545691 0.252843728976 0)
(0.0315935179192 0.243746876153 0)
(0.0332529008131 0.234116049926 0)
(0.0347270536305 0.22400034297 0)
(0.0359898768524 0.213457094067 0)
(0.0370149947239 0.202552506501 0)
(0.0377772031238 0.191361985223 0)
(0.0382540536201 0.179969895174 0)
(0.038428066453 0.168468548483 0)
(0.0382885473381 0.156956286791 0)
(0.0378333963851 0.145534844267 0)
(0.0370701618341 0.134306208344 0)
(0.0360172084914 0.12336885328 0)
(0.0347037771689 0.11281330862 0)
(0.0331688033519 0.102716856627 0)
(0.0314552872385 0.0931402732076 0)
(0.0296049693419 0.0841288333931 0)
(0.0276572555496 0.0757155267227 0)
(0.0256514568263 0.0679222402391 0)
(0.0236272592151 0.0607583678 0)
(0.02162223343 0.0542200396791 0)
(0.0196694552256 0.0482912685367 0)
(0.0177957702334 0.0429463630077 0)
(0.0160218323665 0.0381526160563 0)
(0.0143623151365 0.0338724713594 0)
(0.0128267091935 0.0300652581782 0)
(0.0114193064586 0.0266887578542 0)
(0.0101397943572 0.0237009129826 0)
(0.00898384232242 0.0210614814983 0)
(0.00794470531187 0.0187330731026 0)
(0.0070141469422 0.0166815077363 0)
(0.00618341598691 0.0148757813041 0)
(0.00544343065788 0.0132879924621 0)
(0.00478544659472 0.0118931880701 0)
(0.00420121990392 0.0106690971373 0)
(0.00368381877055 0.00959565658944 0)
(0.0032284500261 0.00865465724849 0)
(0.00284028490178 0.00783178456573 0)
(0.00247961659049 0.0069412432017 0)
(0.0022674163121 0.00641941377777 0)
(0.00205102615281 0.00579271565331 0)
(0.00184195765591 0.00508567856614 0)
(0.0017656071817 0.00460543269558 0)
(0.00172005267477 0.00395561504689 0)
(0.00186582969246 0.00340874123988 0)
(0.00222349697991 0.00303039801413 0)
(0.00235150574684 0.00220647099118 0)
(0.00267212900205 0.00154419205651 0)
(0.00299422945263 0.000940403888488 0)
(0.00298351459624 0.00030780324828 0)
(-0.0640182219363 0.00703016294802 0)
(-0.0676599079843 0.022587615643 0)
(-0.0673759397841 0.0379769727754 0)
(-0.0667775456145 0.05339353459 0)
(-0.0659804248565 0.068631179138 0)
(-0.0649949982275 0.0836564481614 0)
(-0.0638301622287 0.0984254452191 0)
(-0.0624960568224 0.112897281005 0)
(-0.0610039158546 0.127033772147 0)
(-0.0593657550707 0.140799744183 0)
(-0.0575941215579 0.154163180866 0)
(-0.0557017749926 0.167095315304 0)
(-0.053701446774 0.179570644061 0)
(-0.0516055304402 0.191566871778 0)
(-0.0494258688281 0.203064783812 0)
(-0.0471734771988 0.214048055425 0)
(-0.0448583838065 0.224502999199 0)
(-0.042489414753 0.23441826231 0)
(-0.0400741161077 0.243784481054 0)
(-0.0376186280021 0.252593908064 0)
(-0.0351277088664 0.260840024818 0)
(-0.0326047119806 0.268517156689 0)
(-0.0300517121304 0.275620104614 0)
(-0.0274695741035 0.282143807342 0)
(-0.0248581587734 0.288083044515 0)
(-0.0222164547841 0.29343218729 0)
(-0.0195428319202 0.298185001035 0)
(-0.0168352091048 0.30233450024 0)
(-0.014091334811 0.305872859231 0)
(-0.0113089819219 0.308791361771 0)
(-0.00848626867557 0.311080471889 0)
(-0.0056218374058 0.312729856913 0)
(-0.00271522242612 0.313728567277 0)
(0.000232916751285 0.314065274191 0)
(0.00322047423664 0.313728575495 0)
(0.00624367249978 0.312707383163 0)
(0.00929679436238 0.31099138972 0)
(0.0123720339419 0.308571594985 0)
(0.015459344509 0.30544088255 0)
(0.0185464147496 0.301594614107 0)
(0.0216186631754 0.297031222506 0)
(0.024659335094 0.291752766645 0)
(0.0276495993576 0.28576543551 0)
(0.0305686725269 0.279079981185 0)
(0.0333938879749 0.27171210002 0)
(0.0361006963621 0.263682785452 0)
(0.0386625815954 0.255018719534 0)
(0.0410508884928 0.245752770724 0)
(0.0432346896503 0.235924680362 0)
(0.0451807565697 0.225581977491 0)
(0.0468539474182 0.214781096035 0)
(0.0482181138104 0.203588543604 0)
(0.0492378760983 0.192081823878 0)
(0.049881114973 0.180349680314 0)
(0.0501220930819 0.168491239366 0)
(0.0499444261376 0.15661384084 0)
(0.0493434303035 0.144829911004 0)
(0.0483275635088 0.133253558649 0)
(0.0469208382412 0.121996303552 0)
(0.0451636594857 0.111161362107 0)
(0.0431135769811 0.100834365842 0)
(0.0408328437148 0.0910771088961 0)
(0.0383775117069 0.0819318260486 0)
(0.0357969112198 0.0734298322573 0)
(0.03314213599 0.065593632574 0)
(0.0304674040463 0.0584320113003 0)
(0.0278247913927 0.0519372217815 0)
(0.0252591758584 0.0460867680621 0)
(0.0228058480536 0.0408474608766 0)
(0.0204909217815 0.0361794064915 0)
(0.0183326848683 0.0320385924542 0)
(0.0163427270656 0.0283783643379 0)
(0.0145259398608 0.0251507737627 0)
(0.012880508789 0.0223086770928 0)
(0.0113989834035 0.0198080934174 0)
(0.0100708102862 0.017609476396 0)
(0.00888416430912 0.0156776293953 0)
(0.0078268771473 0.0139811630961 0)
(0.00688662029835 0.0124922595091 0)
(0.00605152185635 0.0111865294974 0)
(0.00531045223175 0.0100428846731 0)
(0.00465353957358 0.00904356936138 0)
(0.00407273119721 0.00817971672033 0)
(0.00357273779901 0.00739808088816 0)
(0.00317720706379 0.00669312107639 0)
(0.00294043113438 0.00618315976377 0)
(0.00275761856391 0.00557518222499 0)
(0.00253250629335 0.00487843716676 0)
(0.00229997467187 0.00406702646568 0)
(0.00231034957698 0.00354291579687 0)
(0.00236527853282 0.00287210253422 0)
(0.00274418849166 0.00246623849638 0)
(0.00316685568914 0.00194376689372 0)
(0.00327834209142 0.00123676729326 0)
(0.00346569661438 0.00072025781596 0)
(0.00345275585033 0.000238486387056 0)
(-0.0788255664406 0.00712279112085 0)
(-0.083308892697 0.0229279429145 0)
(-0.0829548989914 0.0385374449901 0)
(-0.0822107601108 0.0541761405384 0)
(-0.0812195102919 0.0696282535098 0)
(-0.0799944976364 0.0848589489204 0)
(-0.0785471142903 0.0998226740547 0)
(-0.0768902878785 0.114477186762 0)
(-0.0750382909246 0.128783251552 0)
(-0.0730063869708 0.142704956645 0)
(-0.0708104844447 0.156209867568 0)
(-0.0684667670974 0.169269115765 0)
(-0.0659913511893 0.181857406563 0)
(-0.0633999294393 0.193952949866 0)
(-0.0607074577336 0.205537313414 0)
(-0.0579278416152 0.216595203408 0)
(-0.0550736853077 0.227114176175 0)
(-0.0521560581326 0.237084290281 0)
(-0.0491843452106 0.246497709304 0)
(-0.0461661322407 0.255348271278 0)
(-0.0431071891988 0.263631041762 0)
(-0.040011492903 0.271341870588 0)
(-0.0368813458336 0.27847697064 0)
(-0.0337175202524 0.285032535341 0)
(-0.0305194783512 0.291004406576 0)
(-0.02728559315 0.296387799646 0)
(-0.0240134221274 0.30117708708 0)
(-0.0206999644182 0.305365639238 0)
(-0.017341961396 0.308945721352 0)
(-0.0139361808521 0.311908424741 0)
(-0.0104797670988 0.314243735501 0)
(-0.00697051271332 0.315940523671 0)
(-0.00340727930257 0.31698672249 0)
(0.000209660483306 0.317369563262 0)
(0.00387824206417 0.317075891073 0)
(0.00759427018696 0.3160925809 0)
(0.0113510968645 0.314407049181 0)
(0.0151393859971 0.31200784584 0)
(0.0189469428439 0.308885306813 0)
(0.0227586632499 0.305032233392 0)
(0.0265565700999 0.300444560953 0)
(0.0303199560738 0.29512197345 0)
(0.0340255725949 0.289068427705 0)
(0.0376478347664 0.282292565429 0)
(0.0411589576425 0.274808018371 0)
(0.0445289659499 0.266633653674 0)
(0.0477255232417 0.257793845348 0)
(0.0507135789078 0.248318910695 0)
(0.0534549260799 0.238245852069 0)
(0.0559078463563 0.227619547542 0)
(0.0580271962094 0.216494414961 0)
(0.0597652991142 0.204936417841 0)
(0.0610741405604 0.193024987532 0)
(0.0619089195241 0.18085412849 0)
(0.062232764618 0.168531885725 0)
(0.0620212775456 0.156177653533 0)
(0.0612655124842 0.143918008266 0)
(0.0599728799185 0.131883633824 0)
(0.0581721019836 0.120204951991 0)
(0.0559157970693 0.109006030848 0)
(0.0532903852017 0.0983860066583 0)
(0.0503867515403 0.0884041640176 0)
(0.0472757446537 0.0790928572961 0)
(0.0440104426545 0.0704801139312 0)
(0.0406529287752 0.0625927037867 0)
(0.0372762576105 0.0554410000132 0)
(0.0339516224862 0.0490117921702 0)
(0.0307379500283 0.043272308174 0)
(0.0276787833692 0.0381780932098 0)
(0.0248045312091 0.0336794377119 0)
(0.0221360282201 0.0297242616535 0)
(0.0196867711754 0.0262584987232 0)
(0.0174621651931 0.0232265269386 0)
(0.0154578050803 0.0205739472204 0)
(0.0136609442307 0.0182517778938 0)
(0.0120553867073 0.0162182529776 0)
(0.010624775729 0.0144375768655 0)
(0.00935315852931 0.0128782419881 0)
(0.00822445649254 0.0115126435741 0)
(0.00722328606681 0.0103170274715 0)
(0.00633513177697 0.0092711200184 0)
(0.00554628558565 0.00835784013446 0)
(0.00484377074111 0.00757040646285 0)
(0.00422364619359 0.0068213581922 0)
(0.00379946744801 0.00619637077256 0)
(0.00355203690796 0.00566624343793 0)
(0.00328389817805 0.00495621395404 0)
(0.00315780337889 0.00442036418082 0)
(0.00307441144884 0.00383910170492 0)
(0.00308397165929 0.00326204943558 0)
(0.00292833756057 0.00244288161437 0)
(0.00312848063136 0.0018897176046 0)
(0.00365882552047 0.00154983863214 0)
(0.00385043621795 0.00105190831254 0)
(0.00390535551481 0.00058991033118 0)
(0.00389844890556 0.000195250634448 0)
(-0.0938760133955 0.00723532573528 0)
(-0.0992119355229 0.023343331791 0)
(-0.0987833713706 0.0392222992435 2.47077331521e-27)
(-0.0978863515877 0.0551326138823 0)
(-0.0966917206556 0.0708465859035 0)
(-0.09521593568 0.0863276943038 0)
(-0.0934731616387 0.10152837465 0)
(-0.0914794308816 0.116404732939 0)
(-0.089252401854 0.130916244717 0)
(-0.086810936136 0.145026096626 0)
(-0.084174664601 0.158701348236 0)
(-0.0813635434297 0.171913020208 0)
(-0.0783974208486 0.184636095313 0)
(-0.0752956083573 0.19684943387 0)
(-0.0720764786654 0.208535604121 0)
(-0.06875708539 0.219680629266 0)
(-0.0653528320179 0.230273655033 0)
(-0.0618771880865 0.240306545277 0)
(-0.0583414831556 0.249773418096 0)
(-0.0547547742086 0.258670139968 0)
(-0.0511238116737 0.26699380037 0)
(-0.0474530883782 0.274742191608 0)
(-0.0437449830053 0.281913318844 0)
(-0.0399999671871 0.288504960941 0)
(-0.0362168758455 0.294514296719 0)
(-0.0323932037026 0.299937602056 0)
(-0.0285254295869 0.304770016269 0)
(-0.0246093415727 0.309005370074 0)
(-0.0206403794098 0.312636069597 0)
(-0.0166139822741 0.315653005472 0)
(-0.0125259887306 0.318045614963 0)
(-0.00837298027524 0.319801823868 0)
(-0.00415278380799 0.320908218981 0)
(0.000135085696704 0.321350270077 0)
(0.00448894736264 0.321112652949 0)
(0.00890449847617 0.320179696751 0)
(0.0133743985987 0.318535953768 0)
(0.0178879426926 0.316166877699 0)
(0.0224308440704 0.313059584708 0)
(0.0269851663607 0.309203654736 0)
(0.031529404724 0.304591918082 0)
(0.036038715759 0.299221162827 0)
(0.040485243831 0.293092701083 0)
(0.0448384759352 0.286212749401 0)
(0.0490655083678 0.278592614748 0)
(0.0531311090841 0.270248740247 0)
(0.0569974572805 0.26120273389 0)
(0.0606235149367 0.251481594909 0)
(0.0639640857361 0.241118397614 0)
(0.0669688119643 0.230153734288 0)
(0.0695815633021 0.218638079325 0)
(0.0717409506561 0.206635066413 0)
(0.0733827873892 0.194225070515 0)
(0.0744451281626 0.181507973666 0)
(0.0748756300311 0.168603301684 0)
(0.074638863568 0.155646319174 0)
(0.0737201195708 0.142781261711 0)
(0.0721212869279 0.13015990568 0)
(0.0698730337903 0.117938977861 0)
(0.067035859746 0.106279390346 0)
(0.0637486712001 0.0953050531601 0)
(0.0601515650632 0.0850622031375 0)
(0.0563276579263 0.0755552730967 0)
(0.0523142012979 0.0668068035028 0)
(0.0481822402188 0.058859265568 0)
(0.0440340975627 0.0517305481664 0)
(0.0399692846074 0.0453987766547 0)
(0.0360639097223 0.0398138069567 0)
(0.0323682118673 0.0349139331268 0)
(0.0289136211778 0.0306365530123 0)
(0.0257215612372 0.0269207422872 0)
(0.0228077735718 0.0237044182442 0)
(0.0201793411128 0.0209217327183 0)
(0.0178280068923 0.0185073915406 0)
(0.0157314864102 0.0164056220914 0)
(0.013864815393 0.0145732658859 0)
(0.0122062547135 0.0129753682192 0)
(0.0107362756927 0.0115808179182 0)
(0.00943451273461 0.0103623666729 0)
(0.00828182651372 0.00929718866811 0)
(0.00726041743847 0.00836586599778 0)
(0.00635304510485 0.00755200778216 0)
(0.0055439444636 0.00685077339334 0)
(0.00482693480822 0.0061461702768 0)
(0.0044332864173 0.00564433558891 0)
(0.00416214227699 0.00508373780041 0)
(0.00391831118262 0.00448956235115 0)
(0.00369882777054 0.0038577277039 0)
(0.00367292973014 0.00333695235201 0)
(0.00359796930511 0.00268609321116 0)
(0.00370870106605 0.00218869896321 0)
(0.00362747505517 0.00153122771449 0)
(0.0038803005569 0.00114359415345 0)
(0.00425224308601 0.000853798024505 0)
(0.00426490059711 0.000479211384075 0)
(0.00425957302718 0.000158689738733 0)
(-0.109219060449 0.00736899326268 0)
(-0.115421508019 0.0238382680034 0)
(-0.114912779709 0.04003830674 -2.47039393422e-27)
(-0.113853944113 0.0562721283424 0)
(-0.112444366156 0.0722975774889 0)
(-0.110703889345 0.0880760565796 0)
(-0.10864979315 0.103557566772 0)
(-0.106301603363 0.118696224028 0)
(-0.103680784734 0.133449956999 0)
(-0.1008102298 0.147780877294 0)
(-0.0977137318673 0.161655450423 0)
(-0.0944154530406 0.175044584318 0)
(-0.0909393986821 0.18792362264 0)
(-0.087308901568 0.200272244736 0)
(-0.0835461274007 0.212074270758 0)
(-0.0796716089879 0.223317371464 0)
(-0.0757038284115 0.233992683486 0)
(-0.071658861953 0.244094336413 0)
(-0.0675501127181 0.253618904264 0)
(-0.0633881453858 0.262564802756 0)
(-0.0591806408065 0.270931660679 0)
(-0.0549324694076 0.278719699066 0)
(-0.0506458799834 0.285929151723 0)
(-0.0463207792401 0.29255975573 0)
(-0.041955078911 0.298610329886 0)
(-0.0375450752917 0.304078445656 0)
(-0.0330858413308 0.308960182335 0)
(-0.0285716130454 0.313249949531 0)
(-0.023996176559 0.316940361914 0)
(-0.0193532635088 0.320022123204 0)
(-0.0146370016837 0.32248407439 0)
(-0.00984232110357 0.324313069522 0)
(-0.00496555376329 0.325494128647 0)
(-4.9850880235e-06 0.326010629887 0)
(0.00503853978301 0.325844631221 0)
(0.0101610179639 0.324977348752 0)
(0.0153547391159 0.323389797321 0)
(0.0206078394816 0.321063581351 0)
(0.0259040082382 0.317981806182 0)
(0.0312223959587 0.314130055675 0)
(0.0365377499355 0.309497358881 0)
(0.0418207768322 0.304077049687 0)
(0.047038680606 0.297867416126 0)
(0.0521557735822 0.290872052843 0)
(0.0571339928314 0.283099873825 0)
(0.0619331162363 0.274564830735 0)
(0.0665104559377 0.265285493494 0)
(0.0708198764636 0.255284805825 0)
(0.0748101132914 0.244590451878 0)
(0.0784226401634 0.233236376073 0)
(0.0815896908452 0.221265963275 0)
(0.0842335945285 0.208737116531 0)
(0.0862690137378 0.19572870438 0)
(0.0876099760234 0.18234656753 0)
(0.0881817328569 0.168725261513 0)
(0.0879347084774 0.155021815167 0)
(0.0868489312228 0.141400126325 0)
(0.0849122699194 0.128036255397 0)
(0.0821501478605 0.11511923173 0)
(0.0786047870125 0.10288134408 0)
(0.074525940919 0.0915013516986 0)
(0.070151793495 0.0809827823775 0)
(0.0655659626581 0.071255159119 0)
(0.0607308893738 0.0623344146499 0)
(0.0557265099998 0.0543123684401 0)
(0.0507110655167 0.04722784936 0)
(0.0458309442367 0.041041434584 0)
(0.0411829726844 0.0356710856663 0)
(0.036818168369 0.0310276723859 0)
(0.0327613660306 0.0270326688378 0)
(0.0290306170801 0.0236183048712 0)
(0.0256459613 0.0207161749981 0)
(0.0226213660843 0.0182466636311 0)
(0.0199436114389 0.0161260080322 0)
(0.0175715270014 0.0142885177986 0)
(0.015465683747 0.0126929680435 0)
(0.0135990974351 0.0113089959457 0)
(0.011950867854 0.0101064676216 0)
(0.0104951840678 0.00905816883223 0)
(0.00920891502484 0.00814291173153 0)
(0.00807150513292 0.00734231317031 0)
(0.00706208194274 0.00664104323354 0)
(0.00616442454963 0.00603410220838 0)
(0.00535715252287 0.0053776032345 0)
(0.00501250028176 0.00497526079873 0)
(0.00470281647718 0.0044205651499 0)
(0.00453510098257 0.00394793075341 0)
(0.00435236660768 0.00337623606234 0)
(0.00423885913033 0.00281198615418 0)
(0.00410860297259 0.00221330989268 0)
(0.00410793053935 0.00172556934786 0)
(0.00423663511173 0.00132153052395 0)
(0.00418407115139 0.000881639903692 0)
(0.00457791593911 0.000652706039468 0)
(0.0045550387108 0.000387032799479 0)
(0.00453527910706 0.000123659442165 0)
(-0.124907394748 0.00752509485949 0)
(-0.131992938805 0.0244180120367 0)
(-0.131397266314 0.0409937589865 0)
(-0.130165700196 0.0576059900205 0)
(-0.128527037077 0.0739952664783 0)
(-0.126504884236 0.0901204628003 0)
(-0.124120065949 0.105928662707 0)
(-0.121396079909 0.12137161365 0)
(-0.118358707034 0.136405415956 0)
(-0.115035395153 0.150990921871 0)
(-0.111454629347 0.165093914044 0)
(-0.107645301927 0.178685192896 0)
(-0.103636089294 0.191740562246 0)
(-0.0994548385981 0.204240714283 0)
(-0.0951279714938 0.216171010326 0)
(-0.0906799153593 0.227521151439 0)
(-0.0861325822033 0.238284735326 0)
(-0.0815049200646 0.248458701428 0)
(-0.0768125683664 0.258042677075 0)
(-0.0720676452356 0.267038249473 0)
(-0.0672786897449 0.275448201463 0)
(-0.062450765607 0.283275756971 0)
(-0.0575857167951 0.29052388474 0)
(-0.0526825442359 0.297194700727 0)
(-0.0477378608177 0.303288994288 0)
(-0.042746375504 0.308805880255 0)
(-0.0377013680828 0.31374255842 0)
(-0.0325951339915 0.318094146558 0)
(-0.0274194058405 0.321853555816 0)
(-0.02216577757 0.325011348114 0)
(-0.0168261899714 0.327555758305 0)
(-0.0113933934572 0.329472476548 0)
(-0.0058616526844 0.330744759007 0)
(-0.000227424377507 0.331353562173 0)