/*--------------------------------*- C++ -*----------------------------------*\
| =========                 |                                                 |
| \\      /  F ield         | OpenFOAM: The Open Source CFD Toolbox           |
|  \\    /   O peration     | Version:  v1906                                 |
|   \\  /    A nd           | Web:      www.OpenFOAM.com                      |
|    \\/     M anipulation  |                                                 |
\*---------------------------------------------------------------------------*/
FoamFile
{
    version     2.0;
    format      ascii;
    class       volScalarField;
    location    "351";
    object      pa;
}
// * * * * * * * * * * * * * * * * * * * * * * * * * * * * * * * * * * * * * //

dimensions      [0 2 -2 0 0 0 0];


internalField   nonuniform List<scalar> 
9216
(
985.977218231
985.612223792
984.870011185
983.747898792
982.249404518
980.378908006
978.141711386
975.544338215
972.594032416
969.29918098
965.66871611
961.712628378
957.441274323
952.865978425
947.998255693
942.85050224
937.435143175
931.765410896
925.854428947
919.716074607
913.364007977
906.812613506
900.075982837
893.168926602
886.105917665
878.902162609
871.572511553
864.132575919
856.597609852
848.983659723
841.306423272
833.582413653
825.827799342
818.059567874
810.294352989
802.549577666
794.842273671
787.190186946
779.610596512
772.121365403
764.739766763
757.483466865
750.369367892
743.414512443
736.634952248
730.046567985
723.663972562
717.501244463
711.57087386
705.88441613
700.451493989
695.280391032
690.377134265
685.746066123
681.389045874
677.306051304
673.494539738
669.950125843
666.66612316
663.634315805
660.844655822
658.286092554
655.946342866
653.81269739
651.8717816
650.110290655
648.514721215
647.072030765
645.769343446
644.594526726
643.535864601
642.582542133
641.724287356
640.951771964
640.256238895
639.629837276
639.065254055
638.555999056
638.096053098
637.680112587
637.303255122
636.961129959
636.649604252
636.363950204
636.107227689
635.886788149
635.702279564
635.551898936
635.434962259
635.347810953
635.285806882
635.243087763
635.214306824
635.196729272
635.187833547
635.184720755
986.341524777
985.975368945
985.232047698
984.10688567
982.604093717
980.728158491
978.484532493
975.8797417
972.921171719
969.61719461
965.976901452
962.010255977
957.727788212
953.14078033
948.26092944
943.100569529
937.672310916
931.989301021
926.064847161
919.912717196
913.546750988
906.981199861
900.230330227
893.308798385
886.231248001
879.01271464
871.668217299
864.213185256
856.663042903
849.033650376
841.34088013
833.601061114
825.830546261
818.04615029
810.264704337
802.503476725
794.779713526
787.111031296
779.514942542
772.009211227
764.611363847
757.339001031
750.209296911
743.239262767
736.445238619
729.843107263
723.447782306
717.273373367
711.332675714
705.63729289
700.197139054
695.020537258
690.113759912
685.481140061
681.124693585
677.044296433
673.237437878
669.699512002
666.423733262
663.401560639
660.62276123
658.075921584
655.748567984
653.62766019
651.699673955
649.951025997
648.36810791
646.93765195
645.646726012
644.483033946
643.434858455
642.491282661
641.642079698
640.877866546
640.189959976
639.570484579
639.012214933
638.50865459
638.053878412
637.642595506
637.270004919
636.931863818
636.624414336
636.344496431
636.090405782
635.870272537
635.688589534
635.54173937
635.426120194
635.339536518
635.27913848
635.237647176
635.20925605
635.192590087
635.184588885
635.181335806
987.084660457
986.715175054
985.967607052
984.836065222
983.324813425
981.438373184
979.182315964
976.563246382
973.588697747
970.267131231
966.607803459
962.620768538
958.316729675
953.70705053
948.803598272
943.618769797
938.165332652
932.456470771
926.505628722
920.326579897
913.93327771
907.339947259
900.560945112
893.610872844
886.504444738
879.256619683
871.882474526
864.39734899
856.816721206
849.15635951
841.432196499
833.660479778
825.85763951
818.040432037
810.225794933
802.430974366
794.67336277
786.970601919
779.340398775
771.800597647
764.368971716
757.063260478
749.900937139
742.899210009
736.074767623
729.4437445
723.021446026
716.822279214
710.859459367
705.144909329
699.688955324
694.500209604
689.585279806
684.948673812
680.592573154
676.516820544
672.718820827
669.193668406
665.934222008
662.931403193
660.17444377
657.651307537
655.348986517
653.253888894
651.352055387
649.629455911
648.072143863
646.666504473
645.399373354
644.258228527
643.231243403
642.30739813
641.476460803
640.729034887
640.056498029
639.451013806
638.905452026
638.413381475
637.968985917
637.567050994
637.202890444
636.8723495
636.571793789
636.298112534
636.049009016
635.834416275
635.661384675
635.521414109
635.408283697
635.323960391
635.266638875
635.226441271
635.199786554
635.184423751
635.1762471
635.172160639
988.213701047
987.840500556
987.086388034
985.945029235
984.420776556
982.518244323
980.243148646
977.602244231
974.603251867
971.254810834
967.566388041
963.548225883
959.211243203
954.566985096
949.627522817
944.405412022
938.91359813
933.165388527
927.174368676
920.954392265
914.519511526
907.883987029
901.062233122
894.068846428
886.91856487
879.626311596
872.207164071
864.676408655
857.049515272
849.34219702
841.570386019
833.750290682
825.898366191
818.031364938
810.166294285
802.320451021
794.511360003
786.75678485
779.074641185
771.482977454
763.999858971
756.643315904
749.431197669
742.381088235
735.510132782
728.834921468
722.371289438
716.134168251
710.137357321
704.393341191
698.91303296
693.705565927
688.778030573
684.135280435
679.779722922
675.711216486
671.926996902
668.421741153
665.187695584
662.214961856
659.491862443
657.005407025
654.741709047
652.686367619
650.824727678
649.142119551
647.624044475
646.2563898
645.025599441
643.918841224
642.92409783
642.030233364
641.226992299
640.504996123
639.855698773
639.271355875
638.74496399
638.270217306
637.841442589
637.453553492
637.1019902
636.782679881
636.492005074
636.226349143
635.986015483
635.783136821
635.620016031
635.486985005
635.3816058
635.302638679
635.246488109
635.208406751
635.183771924
635.16891297
635.160554693
635.156433379
989.731740468
989.353797464
988.590834296
987.4361722
985.894301029
983.969980601
981.669117246
978.998680559
975.966636603
972.581880752
968.854155079
964.793974474
960.41253834
955.721656573
950.733663006
945.461348319
939.91788215
934.116759286
928.07173624
921.796795457
915.306100021
908.613978083
901.734896493
894.683464482
887.474423975
880.122668944
872.643248086
865.051394746
857.362536764
849.592331397
841.756677948
833.871750098
825.95400401
818.020204605
810.087420909
802.173036124
794.294722693
786.470427586
778.718319382
771.056741961
763.504128906
756.078922861
748.799457157
741.683842368
734.749818178
728.014609745
721.494750769
715.205906852
709.162662938
703.378303096
697.864551764
692.631307372
687.686349298
683.035067728
678.680209581
674.621705088
670.856568728
667.378915577
664.180107302
661.249056994
658.572734665
656.136780207
653.926059925
651.925090349
650.118285247
648.490136379
647.025387671
645.709251832
644.527623871
643.467263274
642.515900392
641.662275985
640.896118866
640.208106313
639.589804885
639.033616975
638.532713863
638.080974989
637.672919712
637.303645626
636.968761196
636.66431989
636.386753845
636.131925319
635.904633636
635.716592314
635.565275625
635.44210783
635.343190932
635.269562131
635.217900461
635.182421356
635.158912384
635.14456725
635.136266076
635.132128692
991.643435232
991.259559265
990.485373462
989.313814793
987.749559646
985.797567744
983.463991467
980.756082532
977.682121233
974.251337939
970.473826621
966.360458702
961.922791539
957.1729818
952.123696817
946.788035311
941.179449284
935.311679304
929.198693546
922.85464326
916.29382331
909.530650433
902.579646059
895.455436164
888.172753439
880.746454298
873.191535061
865.523160305
857.756687283
849.907699853
841.992036967
834.025824378
826.025499608
818.007838903
809.989969422
801.98937991
794.023911407
786.111741433
778.271343625
770.521437281
762.880910133
755.368730428
748.003833539
740.80500013
733.790712476
726.979004003
720.387287909
714.032174015
707.929256281
702.092874562
696.535832376
691.26907921
686.301354812
681.638828212
677.284760321
673.239245896
669.4990556
666.057594892
662.905026402
660.028585755
657.413303847
655.042907088
652.900603177
650.969561645
649.233075663
647.674613719
646.277950814
645.027416327
643.908179895
642.906484919
642.00976905
641.206664334
640.486925903
639.841341303
639.261647274
638.740456071
638.271177126
637.847940404
637.465521893
637.1192696
636.805029986
636.519078284
636.258037651
636.018196169
635.808101893
635.636362076
635.495718668
635.381021095
635.29158858
635.227188495
635.179425673
635.146229228
635.124542805
635.109666621
635.101150876
635.096845371
993.954614282
993.563511603
992.775624206
991.583420758
989.991816674
988.00602609
985.63251127
982.878878655
979.753801117
976.266928798
972.428794297
968.250715169
963.744694188
958.923321347
953.799677923
948.387246606
942.699827968
936.751467075
930.556390174
924.128954601
917.483610958
910.634879618
903.597339262
896.385628343
889.014455995
881.498622712
873.853046859
866.092797561
858.23313028
850.289525972
842.277732177
834.213800625
826.11412634
817.995482356
809.875046557
801.770420077
793.699631594
785.681126791
777.733737923
769.876633791
762.129247109
754.511181722
747.042099621
739.741592214
732.629037603
725.723447083
719.043300049
712.606362104
706.429478921
700.528326292
694.917106133
689.608169333
684.611569988
679.934586701
675.58124804
671.551966087
667.843303055
664.447819584
661.354136846
658.547123376
656.00901477
653.720876047
651.663782287
649.819366249
648.169717247
646.697137263
645.384193441
644.214061383
643.17096056
642.240498684
641.409811175
640.667486856
640.003393795
639.408514174
638.874830521
638.395242827
637.963473889
637.573979612
637.221865384
636.902802677
636.612940616
636.348816363
636.106955084
635.886213154
635.695905518
635.539874386
635.411723895
635.30895894
635.230505524
635.17216378
635.12830645
635.097435124
635.07752032
635.062963121
635.05450115
635.050292307
996.672377964
996.272668283
995.468461725
994.251668715
992.627495843
990.601472205
988.180440598
985.372443106
982.186633073
978.633174467
974.723135438
970.468378655
965.881449733
960.975467334
955.764015959
950.261045393
944.480777625
938.437625397
932.146122705
925.620870948
918.876499786
911.927645132
904.788941482
897.475029419
890.000573959
882.380293719
874.628996273
866.761620195
858.793279875
850.739314419
842.6153395
834.43729587
826.221501531
817.984700226
809.744102432
801.517418207
793.322874514
785.179216331
777.105684223
769.121969543
761.248141851
753.504553726
745.911721202
738.490189503
731.260385225
724.242464547
717.456155141
710.92059007
704.654117295
698.674057936
692.996388134
687.635296412
682.602629823
677.907227805
673.554255406
669.544683307
665.874987595
662.536826569
659.516983204
656.796913023
654.354700852
652.167628578
650.214109235
648.474268459
646.929162629
645.559858406
644.347398675
643.273405243
642.320818201
641.474471403
640.721252428
640.04986562
639.450453396
638.914311283
638.433756387
638.002067198
637.613370842
637.262531835
636.945069944
636.65706935
636.395085758
636.15606682
635.936889877
635.737903143
635.568858188
635.429553981
635.31578408
635.225440824
635.156328408
635.10311709
635.06463251
635.036071322
635.016741651
635.00438273
634.995960775
634.992036711
999.80517724
999.395381455
998.572075522
997.326504972
995.664230094
993.591161098
991.114601866
988.243121003
984.986451733
981.355377307
977.361610621
973.017669965
968.336753426
963.332614406
958.01944112
952.411742366
946.524243155
940.37179233
933.969285982
927.331607872
920.473589625
913.409989808
906.155492441
898.72472151
891.132270016
883.392738865
875.520783963
867.531167849
859.438815855
851.258874681
843.006777204
834.69830248
826.349644442
817.977476092
809.599009497
801.232045832
792.895011149
784.606971223
776.387621442
768.257246536
760.236649311
752.347047967
744.60994751
737.046992131
729.67980971
722.529859032
715.61828595
708.965787053
702.592458368
696.517595891
690.75938359
685.334407722
680.256948431
675.538050972
671.184545759
667.198279671
663.575933801
660.308366052
657.380603194
654.768965333
652.445012609
650.380452471
648.55046761
646.934299659
645.512714834
644.265570168
643.171867536
642.210989264
641.364072822
640.614995891
639.95060221
639.360050419
638.83404305
638.364333355
637.94364987
637.565754412
637.225284176
636.917600839
636.63872636
636.385250056
636.154223724
635.943086996
635.74906023
635.574522649
635.427884716
635.306105998
635.207261902
635.129226104
635.068754875
635.022485853
634.987712479
634.962573787
634.944526877
634.934113979
634.925748806
634.922242054
1003.36290272
1002.94143126
1002.09604476
1000.81721563
999.110924894
996.983541094
994.442920449
991.49826185
988.159991282
984.439630862
980.349661596
975.903382359
971.114767216
965.998324433
960.568959041
954.841843064
948.832295741
942.555678754
936.02730887
929.262392652
922.275984016
915.082966825
907.698059879
900.135842918
892.410797855
884.537361997
876.529987478
868.40320554
860.171692991
851.850342554
843.454339381
834.999235802
826.501037254
817.976287471
809.442150279
800.916483965
792.417898931
783.965793449
775.580357458
767.282541193
759.093981596
751.036890599
743.133906931
735.407927675
727.881932904
720.578828527
713.521320336
706.731825333
700.232402044
694.044640019
688.189423819
682.686445544
677.553300279
672.804209855
668.448375131
664.488887139
660.923117603
657.7414843
654.928924006
652.4533317
650.275328529
648.3579158
646.672541204
645.199697341
643.921853577
642.817712577
641.863156633
641.034117103
640.308979115
639.670446671
639.105836072
638.605488435
638.161139387
637.765131241
637.410587575
637.091873558
636.804284791
636.543755994
636.306900401
636.090915091
635.893441656
635.71251469
635.545906799
635.397508117
635.272695898
635.168834734
635.085797694
635.02084966
634.970100646
634.930619264
634.899211415
634.876238042
634.861157493
634.851825545
634.844327946
634.841037546
1007.35698955
1006.92211588
1006.05143271
1004.7345111
1002.97783485
1000.78831871
998.174477199
995.146258508
991.71491061
987.892830667
983.69340813
979.13086404
974.220089019
968.976482394
963.415795522
957.553982024
951.407060036
944.990990095
938.321575241
931.4143864
924.284718178
916.94757452
909.417684589
901.709542777
893.83746826
885.815675119
877.658348448
869.379720945
860.994150965
852.51620251
843.960734162
835.342988131
826.678697557
817.984195201
809.276524512
800.573543583
791.894013907
783.257662351
774.685206905
766.198335277
757.819630934
749.572443688
741.480712549
733.568756876
725.861064514
718.382114169
711.156263591
704.207735017
697.560673607
691.239216764
685.26747704
679.669097736
674.46632657
669.677961929
665.3167211
661.386881738
657.887287644
654.808146082
652.141578326
649.839799178
647.843645095
646.101711769
644.581392076
643.270453595
642.15774374
641.220281238
640.428492487
639.752573983
639.166527453
638.651474091
638.196564444
637.794790724
637.439723085
637.124240066
636.841525605
636.58673843
636.356098527
636.146133381
635.954123718
635.778002946
635.616082024
635.467092213
635.329584434
635.208012103
635.105206754
635.020884902
634.954018982
634.900928848
634.858618657
634.825457394
634.79944556
634.779517764
634.765936896
634.757791471
634.751980482
634.748850993
1011.80054064
1011.35037974
1010.45089788
1009.0906299
1007.27665405
1005.01653558
1002.31957007
999.196592791
995.659822325
991.722686654
987.399643455
982.705997236
977.657715016
972.271243407
966.563328426
960.550842677
954.250623578
947.679330329
940.853325396
933.788588925
926.500669979
919.004678402
911.315314046
903.446928603
895.413608749
887.229270786
878.907755545
870.462919581
861.908721499
853.25931031
844.529122937
835.732988865
826.886259822
818.004948625
809.105875416
800.206811995
791.326610206
782.48530242
773.704156456
765.005672751
756.413508485
747.952325741
739.647566082
731.525176547
723.611324905
715.932168719
708.513741398
701.382025649
694.563194099
688.084040319
681.972275542
676.256644369
670.965790115
666.125767273
661.754399046
657.855940357
654.431533075
651.468346142
648.99200766
646.919837492
645.154923941
643.620587204
642.279818179
641.144299934
640.219418806
639.477169195
638.877124097
638.37980986
637.951863983
637.571844133
637.234150988
636.937524221
636.678656687
636.450264955
636.244366574
636.057364836
635.887094635
635.730445771
635.585383669
635.450822636
635.325753205
635.209718655
635.102203091
635.00781514
634.928085667
634.86363115
634.811388346
634.769010485
634.734970253
634.708651396
634.688025756
634.672761451
634.661141402
634.653671977
634.650050195
634.64751339
1016.70847568
1016.24094701
1015.30882923
1013.89945971
1012.02062369
1009.68065873
1006.88978595
1003.65988814
1000.00432601
995.937736866
991.475828744
986.635172856
981.43299524
975.886968601
970.015005992
963.835058841
957.364926256
950.622082552
943.623535036
936.385720656
928.924452239
921.254916706
913.391725394
905.349005479
897.140519071
888.779790076
880.280224615
871.655215143
862.918231895
854.082911682
845.163159864
836.173267493
827.128066888
818.043105836
808.934839951
799.820828117
790.719915946
781.652388065
772.640068608
763.706346339
754.876103773
746.17553445
737.631849976
729.272896327
721.126742509
713.221326796
705.584296682
698.243139262
691.225723514
684.561131352
678.280882847
672.419746311
667.015698923
662.106674411
657.719484711
653.852843439
650.510812186
647.655833611
645.440806272
643.688551373
642.228447617
640.937456477
639.770493697
638.811516207
638.101641364
637.592690581
637.2216976
636.934808205
636.686569976
636.448851793
636.230646635
636.042723768
635.886867041
635.753014208
635.628153235
635.511347843
635.40429307
635.30303957
635.206096061
635.11406953
635.02636682
634.943753984
634.866989071
634.799165016
634.742388422
634.69552944
634.657204868
634.626254571
634.601888962
634.582882469
634.567695201
634.556460315
634.548281006
634.541896447
634.540523815
634.538606688
1022.0977056
1021.61049936
1020.64150393
1019.17668243
1017.22465749
1014.79468535
1011.89808329
1008.54796952
1004.7590457
1000.5473628
995.930086122
990.925261419
985.551581099
979.828149926
973.774248173
967.409095923
960.75162368
953.820262102
946.632764177
939.206077628
931.556280318
923.698588574
915.64743577
907.416609657
899.019423044
890.468889331
881.77787476
872.959215039
864.025800623
854.990654343
845.867025742
836.668517527
827.409268199
818.104171123
808.769124508
799.421294864
790.079372827
780.763799801
771.496934425
762.303127655
753.20866827
744.241570721
735.431186051
726.807656931
718.401280521
710.241926559
702.358695764
694.780092507
687.534776644
680.653172506
674.169693197
668.125884061
662.572500793
657.569781131
653.162643236
649.330139552
646.086124826
643.254149208
641.443693669
640.170198002
639.129205097
638.103706597
636.98201275
636.104893614
635.637192415
635.443417042
635.39347152
635.40290827
635.39335847
635.30612356
635.201661926
635.120558948
635.074760763
635.045231246
635.003744241
634.955996149
634.915176639
634.871086028
634.821986828
634.772815782
634.721895556
634.672330268
634.625381208
634.58322145
634.547367593
634.517778885
634.493528293
634.475115092
634.460881355
634.449327157
634.440114194
634.433319673
634.428195815
634.424395517
634.42438809
634.423253271
1027.98734458
1027.47786946
1026.46727686
1024.93994314
1022.90548869
1020.37426389
1017.35888607
1013.87393078
1009.9356713
1005.56180604
1000.77119107
995.583579941
990.019366127
984.099322078
977.844330413
971.275106365
964.41192022
957.274333007
949.880969293
942.249349899
934.395810556
926.335520115
918.082601874
909.650338245
901.051422741
892.298207867
883.402903086
874.377697694
865.234821517
855.98658577
846.645451157
837.224154566
827.735922834
818.194747725
808.615710936
799.015334624
789.411934245
779.825946948
770.280198035
760.800059119
751.413440734
742.150560681
733.043443349
724.12513525
715.428715447
706.986272411
698.828195135
690.983165991
683.479156406
676.345558296
669.617124086
663.340401463
657.582214034
652.447090734
648.025091489
644.236368147
641.090676768
637.437351227
636.408599581
636.007409989
635.684419199
635.292823125
634.977967293
634.81944271
634.747743895
634.695430569
634.620938825
634.490702102
634.289900458
634.107407742
634.029268931
634.056882153
634.170535719
634.310929435
634.3812547
634.397120666
634.428635435
634.443748079
634.43847865
634.432669101
634.416288022
634.398261006
634.378497581
634.360652566
634.344977992
634.332927574
634.323755421
634.317957939
634.313071124
634.308724582
634.306104132
634.304363083
634.303264892
634.302360551
634.302537009
634.302759595
1034.39895756
1033.86428679
1032.80680251
1031.20904995
1029.0818403
1026.43683203
1023.28818908
1019.65220812
1015.54700339
1010.99218637
1006.00856435
1000.61785705
994.842420258
988.704963383
982.228246834
975.434756725
968.346362464
960.983979197
953.367265038
945.514393527
937.441939008
929.164905878
920.696908925
912.050483005
903.237462342
894.269345421
885.157559569
875.913580136
866.548927676
857.075127668
847.503717429
837.846361032
828.115100382
818.322705031
808.48309417
798.611798207
788.726436138
778.847182968
768.997182655
759.202845304
749.493940935
739.903393905
730.466667847
721.220674678
712.202230161
703.446294804
694.984477992
686.844647526
679.05175796
671.630266895
664.609048413
658.032638933
651.977766775
646.631639735
642.112438733
638.072352901
635.932826727
635.628249209
635.663864893
635.673887816
635.604552619
635.466122379
635.304615528
635.160533982
635.039404245
634.929286095
634.811921024
634.671103068
634.511722549
634.369200307
634.280785331
634.250296565
634.219669832
634.066891958
633.792799119
633.76096756
633.915649199
634.028220184
634.058206298
634.101060239
634.113443041
634.125427497
634.129637367
634.134324187
634.138671866
634.143479079
634.149626754
634.155050036
634.158880194
634.16311196
634.1678083
634.171483421
634.174558534
634.176515677
634.17761162
634.17909692
1041.35686301
1040.7936575
1039.68329992
1038.00620801
1035.77462221
1033.00177313
1029.70367292
1025.89865818
1021.60699899
1016.8505203
1011.65226539
1006.03619825
1000.02692235
993.64938665
986.928554271
979.889020084
972.554585434
964.947814359
957.089619871
948.998936836
940.692548495
932.185118281
923.489454285
914.616979487
905.57831949
896.383861842
887.044128859
877.569870251
867.97192379
858.261009975
848.44762033
838.542103613
828.554971253
818.497354455
808.381553339
798.221634352
788.034061136
777.838344784
767.657666995
757.51939896
747.455395834
737.501912562
727.698938056
718.088747204
708.713565025
699.612582335
690.818995348
682.35887264
674.251538801
666.510957109
659.148968482
652.182812236
645.606260872
639.477680065
636.63656299
636.361459823
636.295383602
636.261582451
636.300298932
636.306883303
636.267385077
636.175383948
636.043692246
635.892923554
635.739398635
635.585515225
635.417612111
635.223643506
635.00897265
634.798990205
634.62118392
634.480327769
634.346331097
634.195127588
634.077962664
634.040838364
633.963116818
633.710303428
633.628518811
633.77538818
633.813941197
633.858432628
633.882155222
633.908771223
633.931340155
633.953268651
633.972502049
633.98847749
634.003007927
634.016296607
634.027883078
634.037083327
634.043914992
634.04921077
634.051958747
634.054464045
1048.88848754
1048.29290757
1047.12286597
1045.35629462
1043.00715894
1040.09059001
1036.62482627
1032.63063495
1028.13081464
1023.14973907
1017.71298864
1011.84705813
1005.57909683
998.936627911
991.947197864
984.637932039
977.034997852
969.163012453
961.044458019
952.699195691
944.14418061
935.393476809
926.458631807
917.34939552
908.074653441
898.643325474
889.064928136
879.349597003
869.507665219
859.549139218
849.483372081
839.319105308
829.064872736
818.729625795
808.3234521
797.858326206
787.348915436
776.813457683
766.274675809
755.760636082
745.305399989
734.949253809
724.738174072
714.722087991
704.951480941
695.472484704
686.32098234
677.520914559
669.084422633
661.011718441
653.285233918
645.815809254
637.999360465
637.350972486
637.259522225
637.224996819
637.227289562
637.199907804
637.180869413
637.163994145
637.129371335
637.055261048
636.937647129
636.785718806
636.61363124
636.426201755
636.217332747
635.983239651
635.730332687
635.477327278
635.243481595
635.031005437
634.818618663
634.59162407
634.379898118
634.210966474
634.060833758
633.951737957
633.895873273
633.738035447
633.491665815
633.584325898
633.636714183
633.687441486
633.726367172
633.765831592
633.795759377
633.823201055
633.848643097
633.869996239
633.887796075
633.902466226
633.913733212
633.922185016
633.927143126
633.930664568
1057.02480233
1056.39239139
1055.15485012
1053.28718576
1050.80545195
1047.72709678
1044.07306768
1039.86705709
1035.13483824
1029.90370264
1024.20206752
1018.05922768
1011.50516902
1004.57034404
997.285328029
989.680306379
981.784394294
973.624829406
965.226130937
956.609352747
947.791597463
938.785958895
929.602029918
920.246999268
910.727166497
901.049455694
891.222339001
881.255702661
871.159847538
860.944358541
850.617406328
840.185747487
829.655333753
819.032229843
808.323557635
797.538392466
786.688733781
775.790648628
764.865571369
753.941653137
743.054996329
732.250533224
721.582038683
711.110454903
700.899299752
691.006787574
681.473518707
672.321760774
663.558613464
655.17456067
647.097037503
638.759383472
637.710526543
638.058612893
638.272502912
638.309292868
638.26441306
638.219831769
638.190291442
638.165810552
638.126013129
638.051476437
637.933598977
637.774348811
637.583377283
637.366109292
637.122253809
636.853991558
636.568438372
636.278727779
635.997368922
635.726398478
635.455049971
635.176124494
634.903558859
634.651024927
634.409791073
634.19163987
634.011641552
633.86766122
633.780480139
633.644003021
633.391429554
633.456756026
633.522309987
633.584681009
633.61916333
633.659207898
633.694499078
633.723567684
633.748151218
633.768681041
633.785269502
633.796912039
633.804683683
633.809009569
1065.80083605
1065.12638347
1063.81230372
1061.83014256
1059.19848618
1055.93762402
1052.07185519
1047.62844631
1042.63669425
1037.12720321
1031.13148978
1024.68185464
1017.81136061
1010.5537445
1002.94312296
995.013416034
986.797476276
978.325979715
969.626197514
960.720832764
951.627168848
942.356819667
932.916360168
923.308979364
913.536980791
903.604444411
893.518900784
883.290865611
872.93163913
862.451029011
851.856035409
841.150873142
830.338041412
819.419787791
808.399355671
797.281933285
786.0757115
774.793304714
763.453542346
752.083474126
740.720466522
729.414235983
718.228237985
707.239104899
696.531151351
686.184850065
676.2473684
666.73852037
657.658577374
648.947443954
640.069286713
638.951526566
639.168375089
639.425036905
639.462176858
639.452991194
639.408558764
639.366344926
639.330612133
639.290810762
639.231037496
639.136863606
639.000082454
638.820171994
638.604115539
638.35668445
638.080135579
637.779534682
637.461914988
637.13665373
636.811878331
636.489851549
636.166992413
635.841978528
635.522049545
635.2135887
634.913897882
634.626330017
634.358407676
634.112623559
633.903884881
633.73727809
633.643035483
633.522607232
633.317536387
633.410915785
633.437460354
633.496290833
633.541932359
633.578005148
633.609602133
633.636634028
633.658782615
633.674581743
633.685179522
633.690377693
1075.25630005
1074.5336934
1073.13251739
1071.02028335
1068.21859133
1064.75123581
1060.6467583
1055.936904
1050.6551927
1044.83594461
1038.51393385
1031.72452194
1024.50396549
1016.88959556
1008.91965215
1000.63265093
992.066269355
983.255814599
974.232427848
965.021259185
955.639973373
946.098052032
936.397437072
926.53494518
916.506422555
906.311614304
895.957507998
885.457183545
874.825029786
864.072314017
853.204888204
842.22346991
831.125741945
819.908906244
808.571316327
797.113171559
785.537427958
773.851480388
762.069572164
750.215596682
738.326271332
726.454974265
714.675918006
703.087178041
691.806382904
680.958853977
670.597558565
660.729605374
651.29620757
641.760627684
640.618485568
640.865607328
640.979368492
640.926264409
640.829969785
640.756859218
640.689723805
640.631759646
640.574244264
640.504914719
640.410654223
640.280533186
640.108130012
639.893271467
639.642061541
639.358425276
639.045848676
638.710580904
638.359281572
637.999069363
637.635596629
637.271131502
636.905276918
636.538848278
636.175905448
635.82003364
635.472137896
635.135127884
634.812613261
634.505013762
634.218026617
633.961231305
633.754000211
633.598326997
633.515216851
633.386831326
633.217776977
633.335602117
633.394689349
633.434682975
633.473261171
633.507190747
633.53526204
633.556201227
633.56954045
633.576001983
1085.43630007
1084.65842929
1083.15766185
1080.89716182
1077.90189351
1074.19995244
1069.82545072
1064.81596189
1059.21016758
1053.04647477
1046.3628373
1039.19742965
1031.58956699
1023.5803691
1015.21283739
1006.53118812
997.579425783
988.39924116
979.027400586
969.492909286
959.814412151
949.998544814
940.040221498
929.925928042
919.640584545
909.176712574
898.541770857
887.755560856
876.839650796
865.808960336
854.668037873
843.412241133
832.032109499
820.518175912
808.863035646
797.060886386
785.107764921
773.003481882
760.754899168
748.379549558
735.90975859
723.398749185
710.929473052
698.626572631
686.659201956
675.256091768
664.457912559
654.184422604
643.875106401
642.638391504
642.945766023
643.022552774
642.776880053
642.522452662
642.329146542
642.191844503
642.083589455
641.990002449
641.893788362
641.780577308
641.638442509
641.458472602
641.236066334
640.972909808
640.674654134
640.345042685
639.989359152
639.61438094
639.22640613
638.831046667
638.432315325
638.032040551
637.630655235
637.229112088
636.82963792
636.434441189
636.045308039
635.665031147
635.296663707
634.94253244
634.606726101
634.29435116
634.013342931