/*--------------------------------*- C++ -*----------------------------------*\
| =========                 |                                                 |
| \\      /  F ield         | OpenFOAM: The Open Source CFD Toolbox           |
|  \\    /   O peration     | Version:  v1906                                 |
|   \\  /    A nd           | Web:      www.OpenFOAM.com                      |
|    \\/     M anipulation  |                                                 |
\*---------------------------------------------------------------------------*/
FoamFile
{
    version     2.0;
    format      ascii;
    class       volVectorField;
    location    "713";
    object      Ua;
}
// * * * * * * * * * * * * * * * * * * * * * * * * * * * * * * * * * * * * * //

dimensions      [0 1 -1 0 0 0 0];


internalField   nonuniform List<vector> 
9216
(
(-0.00666736366348 0.00666981835906 0)
(-0.0068541993919 0.0208003768083 2.37976015877e-27)
(-0.00683999273974 0.0350106969063 -4.61401100595e-31)
(-0.00679174871443 0.0492119579684 0)
(-0.00672415932459 0.0632671631181 0)
(-0.00663894072047 0.0771409416983 0)
(-0.0065373053391 0.0907939299529 0)
(-0.00642051287447 0.104189452417 0)
(-0.00628922094585 0.117293368198 0)
(-0.00614468669729 0.130073774763 0)
(-0.00598754192909 0.142501413713 0)
(-0.00581913031851 0.154549386159 0)
(-0.00564003763818 0.166193488595 0)
(-0.00545162678865 0.177411856546 0)
(-0.0052543635303 0.188185181835 0)
(-0.00504954740045 0.198496279458 0)
(-0.00483745110005 0.208330193371 0)
(-0.0046192378486 0.217673710128 0)
(-0.00439493426719 0.226515371247 0)
(-0.00416551862022 0.234844966122 0)
(-0.00393074666337 0.242653482033 0)
(-0.00369139283722 0.249932620763 0)
(-0.00344695285855 0.256674715087 0)
(-0.00319801210704 0.262872311173 0)
(-0.00294384948705 0.268518081585 0)
(-0.00268490367479 0.273604515715 0)
(-0.00242030947729 0.278123845778 0)
(-0.00215042477548 0.282067877178 0)
(-0.00187433548099 0.285427942603 0)
(-0.00159240444545 0.288194896444 0)
(-0.00130378292846 0.290359135855 0)
(-0.00100891744139 0.291910739723 0)
(-0.000707150918823 0.292839487719 0)
(-0.000399157895577 0.293135330378 0)
(-8.46275127979e-05 0.29278842243 0)
(0.000235445612805 0.291789773876 0)
(0.000560893295283 0.290131333226 0)
(0.000890299885179 0.287806852795 0)
(0.00122290436023 0.284811963901 0)
(0.00155681392495 0.281145220077 0)
(0.00189061530357 0.276808107373 0)
(0.00222194621669 0.271806201572 0)
(0.00254875097216 0.266149039768 0)
(0.00286827719319 0.259851321038 0)
(0.00317790301574 0.25293257474 0)
(0.00347462297154 0.245418342374 0)
(0.00375537541212 0.237339608973 0)
(0.0040170751283 0.228733908115 0)
(0.00425639007821 0.219644520549 0)
(0.00447036635832 0.210121405725 0)
(0.0046556505043 0.200220179503 0)
(0.00480971292121 0.190002693772 0)
(0.00492955578126 0.179535771857 0)
(0.00501345628396 0.168891213668 0)
(0.00505923060568 0.158144312482 0)
(0.00506631261173 0.14737323054 0)
(0.0050336725319 0.136657453858 0)
(0.00496205565269 0.126076751236 0)
(0.00485168400656 0.115709761164 0)
(0.00470456769755 0.105632817113 0)
(0.00452222595217 0.0959186706101 0)
(0.00430811415798 0.0866349235688 0)
(0.00406555967857 0.0778423781019 0)
(0.00379992468018 0.069592742001 0)
(0.00351680549851 0.0619268963742 0)
(0.00322424421208 0.0548713604489 0)
(0.0029300663529 0.0484363843742 0)
(0.0026422306663 0.0426152512111 0)
(0.00236651498615 0.0373872876685 0)
(0.00210737459271 0.0327209280737 0)
(0.0018670876453 0.0285781710191 0)
(0.00164691284195 0.0249172916535 0)
(0.00144680711482 0.0216958052441 0)
(0.00126626578053 0.0188718021014 0)
(0.00110423140912 0.0164053379082 0)
(0.000959639255813 0.0142586729264 0)
(0.00083131731674 0.0123965434886 0)
(0.00071814371545 0.0107860171419 0)
(0.000618818630349 0.0093967496373 0)
(0.000531966265222 0.00820118077414 0)
(0.000456095459883 0.00717477801565 0)
(0.000389616974851 0.00629615307469 0)
(0.000330516529802 0.00554728323606 0)
(0.00027447043401 0.00492077031635 0)
(0.000212653658546 0.00433810298889 0)
(0.000189484341692 0.00398551748224 0)
(0.000181142997361 0.00359262738773 0)
(0.000158766218009 0.00325183328858 0)
(0.000157605402079 0.00296065108167 0)
(0.000166884394784 0.00263494790441 0)
(0.00016520051676 0.00231203256149 0)
(0.000165490636852 0.0019738228778 0)
(0.000184402304746 0.00161303869785 0)
(0.000207157150207 0.00122385408799 0)
(0.000233297731129 0.000757573741712 0)
(0.000250435811019 0.000243874493826 0)
(-0.0208328225778 0.00689354911255 0)
(-0.0219942068532 0.0220934818117 0)
(-0.0219204536295 0.0372056311483 -2.44614870394e-27)
(-0.0217343460717 0.0523210377201 0)
(-0.0214808399044 0.0672690394223 0)
(-0.0211653713299 0.0820200955956 0)
(-0.0207912415885 0.0965339654075 0)
(-0.0203623318257 0.110772225957 0)
(-0.0198818857645 0.124698647107 0)
(-0.01935417273 0.138279404195 0)
(-0.0187826498083 0.151483373681 0)
(-0.0181718459125 0.164282084169 0)
(-0.0175251784619 0.176649867205 0)
(-0.0168471256869 0.188563689047 0)
(-0.0161407539627 0.200003176672 0)
(-0.0154101808025 0.210950349163 0)
(-0.0146578450101 0.221389535219 0)
(-0.0138872506908 0.231307027908 0)
(-0.0131000124878 0.240690919379 0)
(-0.0122988621218 0.249530713975 0)
(-0.0114845000729 0.257817115718 0)
(-0.0106588389304 0.265541642662 0)
(-0.00982169480647 0.27269640571 0)
(-0.0089742291037 0.279273767956 0)
(-0.00811551287638 0.28526615042 0)
(-0.00724611991741 0.290665774295 0)
(-0.00636460469659 0.29546451891 0)
(-0.00547119020098 0.299653775595 0)
(-0.00456420909355 0.30322437506 0)
(-0.00364382653036 0.30616657821 0)
(-0.00270850854762 0.30847006739 0)
(-0.00175868558886 0.310124142754 0)
(-0.000793336657618 0.311117818907 0)
(0.000186437434741 0.311440108621 0)
(0.00118069425402 0.311080262573 0)
(0.00218729728141 0.310028274384 0)
(0.00320493889711 0.308275193721 0)
(0.00423011419434 0.305813807162 0)
(0.00525982796704 0.302639014535 0)
(0.00628900965828 0.298748635567 0)
(0.00731282546012 0.294143789238 0)
(0.00832464471748 0.288829754118 0)
(0.00931786277304 0.282816269167 0)
(0.0102845158369 0.276118364914 0)
(0.0112165007381 0.268756513644 0)
(0.0121049190981 0.260757366984 0)
(0.0129405779998 0.252153713615 0)
(0.0137141387893 0.242985083535 0)
(0.0144158287245 0.233297505864 0)
(0.0150364723008 0.223143926428 0)
(0.0155664430392 0.212583738584 0)
(0.0159976086382 0.201682869956 0)
(0.0163216157498 0.190512976656 0)
(0.0165326084389 0.179150993316 0)
(0.0166248840775 0.167677907638 0)
(0.0165960464509 0.156177743749 0)
(0.0164440399024 0.14473609228 0)
(0.0161704549759 0.133438782727 0)
(0.0157770985771 0.122370465245 0)
(0.015269314549 0.111613386809 0)
(0.0146527648966 0.101246163026 0)
(0.0139371605597 0.0913423352221 0)
(0.0131338007302 0.0819683503595 0)
(0.0122583771047 0.0731814083429 0)
(0.0113292082745 0.0650276738101 0)
(0.0103716577812 0.0575376152903 0)
(0.00941224693692 0.0507220279147 0)
(0.00847634844238 0.044571631491 0)
(0.00758300676031 0.0390608071006 0)
(0.00674563284838 0.0341523800553 0)
(0.00597129413092 0.0298026787539 0)
(0.00526313647991 0.0259650102811 0)
(0.00462072113913 0.0225924770882 0)
(0.00404179703824 0.0196395860027 0)
(0.00352275567561 0.017063412472 0)
(0.00305986226186 0.0148238370784 0)
(0.00264937836457 0.0128834235492 0)
(0.00228766447589 0.0112071288609 0)
(0.00197058312505 0.00976251980311 0)
(0.00169363814721 0.00852017716064 0)
(0.00145217152275 0.00745386498655 0)
(0.00124152372086 0.00654028761969 0)
(0.00105665861307 0.0057583819932 0)
(0.000891488686121 0.00509025343972 0)
(0.000734109904618 0.00448453685649 0)
(0.000627250405636 0.00392020548389 0)
(0.000551901290582 0.00351591565481 0)
(0.000481453521985 0.00317817243827 0)
(0.000466332990053 0.00284161891214 0)
(0.000487157246965 0.00256873673401 0)
(0.000494830252351 0.00228569401096 0)
(0.000511933785266 0.00193276841905 0)
(0.000552209241548 0.00156420548452 0)
(0.000669669795808 0.00123279810594 0)
(0.0008113073463 0.000786444412872 0)
(0.000733542373985 0.000216389086851 0)
(-0.0352051097754 0.0069488894654 0)
(-0.0371892582136 0.0222763493189 0)
(-0.0370381273042 0.0374806460054 -2.44952212689e-27)
(-0.0367178201016 0.0527056114098 0)
(-0.0362905576023 0.0677610698146 0)
(-0.0357615966828 0.0826161227586 0)
(-0.0351355326975 0.0972295200581 0)
(-0.0344179138863 0.11156234704 0)
(-0.0336145033864 0.125577957281 0)
(-0.0327318035842 0.13924225801 0)
(-0.031776185951 0.15252391502 0)
(-0.0307545451025 0.165394401971 0)
(-0.0296733012493 0.177828063693 0)
(-0.0285391757859 0.189802032485 0)
(-0.0273580871145 0.201296163093 0)
(-0.0261360568462 0.212292834922 0)
(-0.0248780229599 0.222776778502 0)
(-0.0235888837087 0.2327347885 0)
(-0.0222722517378 0.242155469735 0)
(-0.0209316377856 0.251028896384 0)
(-0.0195691660328 0.25934631792 0)
(-0.0181868910139 0.267099809678 0)
(-0.0167854881972 0.27428198209 0)
(-0.0153656852672 0.280885667395 0)
(-0.0139269354677 0.286903672868 0)
(-0.0124689353009 0.292328540956 0)
(-0.010990288391 0.297152373659 0)
(-0.00949007842723 0.301366690849 0)
(-0.00796653840098 0.304962345232 0)
(-0.00641864905865 0.307929495277 0)
(-0.00484485104259 0.310257636155 0)
(-0.00324462309521 0.311935703276 0)
(-0.0016172451337 0.3129522066 0)
(3.66373772836e-05 0.313295513123 0)
(0.00171617753176 0.312954127304 0)
(0.00341886736644 0.311917128922 0)
(0.00514161043573 0.310174593001 0)
(0.00687942682035 0.307718187381 0)
(0.00862643461353 0.30454170023 0)
(0.0103747971214 0.30064174633 0)
(0.0121156077483 0.296018337505 0)
(0.0138381434106 0.290675614211 0)
(0.0155306226841 0.284622367129 0)
(0.0171798006737 0.27787269949 0)
(0.0187715341675 0.270446414992 0)
(0.0202907209464 0.262369542534 0)
(0.021721590166 0.253674549015 0)
(0.0230479902003 0.244400711197 0)
(0.0242533780528 0.234594159956 0)
(0.0253215248894 0.224308096777 0)
(0.0262362925047 0.213602634679 0)
(0.0269828659581 0.20254473498 0)
(0.0275474241053 0.19120764915 0)
(0.0279188097011 0.179670286276 0)
(0.0280879780618 0.168016081159 0)
(0.0280496689903 0.15633170363 0)
(0.0278013611062 0.144705574833 0)
(0.0273446752979 0.133226293957 0)
(0.0266838056615 0.121981153004 0)
(0.0258264405401 0.111055098734 0)
(0.0247828559797 0.100529785371 0)
(0.0235676509442 0.0904826692366 0)
(0.0222009299735 0.0809843236042 0)
(0.0207070482903 0.0720967047738 0)
(0.0191170082217 0.0638729283038 0)
(0.0174759636035 0.056349392677 0)
(0.0158339288744 0.0495369985435 0)
(0.0142364190848 0.0434211189989 0)
(0.0127172955854 0.0379677955728 0)
(0.0112982226686 0.0331314851087 0)
(0.00999023780361 0.0288615203107 0)
(0.00879708614436 0.0251060508578 0)
(0.00771709136603 0.0218145345962 0)
(0.00674525559641 0.0189392792822 0)
(0.00587476695775 0.016436371276 0)
(0.00509879890426 0.014265598374 0)
(0.00441120763458 0.0123896026931 0)
(0.00380615152816 0.0107730069337 0)
(0.00327675079196 0.00938272329737 0)
(0.00281515821326 0.00818895798783 0)
(0.00241355510874 0.00716548915943 0)
(0.00206458440007 0.00628921227741 0)
(0.00176137474283 0.00553952863477 0)
(0.00149830715613 0.00490085092282 0)
(0.00127626100953 0.00432111888153 0)
(0.00110114393935 0.00379707324584 0)
(0.000974776104004 0.0034681386064 0)
(0.00084049373812 0.00301380402099 0)
(0.000755160995449 0.0026265538934 0)
(0.0007655453743 0.00238134397292 0)
(0.000847946456894 0.00217893165992 0)
(0.000851163793721 0.00172949188062 0)
(0.000948094177665 0.00141251384276 0)
(0.00108675566386 0.00102195021853 0)
(0.00120858863736 0.000611055169792 0)
(0.00117275528342 0.000188894845923 0)
(-0.049775020282 0.0070062493233 0)
(-0.0526039872978 0.0224800330507 0)
(-0.0523878393472 0.0378081044609 2.44919700383e-27)
(-0.0519305339612 0.0531621237016 0)
(-0.051321319836 0.0683429917845 0)
(-0.0505679264044 0.0833186151002 0)
(-0.0496769783945 0.0980465672511 0)
(-0.0486561853107 0.1124871343 0)
(-0.0475139717667 0.126603066365 0)
(-0.0462594716317 0.140359870083 0)
(-0.0449020736544 0.153725973742 0)
(-0.0434514658864 0.166672805418 0)
(-0.0419171472958 0.179174822913 0)
(-0.0403085204195 0.191209451717 0)
(-0.0386343835574 0.202756980849 0)
(-0.036903086907 0.213800376224 0)
(-0.0351220278634 0.224325060677 0)
(-0.0332978892574 0.234318626855 0)
(-0.0314361615333 0.24377053219 0)
(-0.029541477991 0.252671749768 0)
(-0.027617181655 0.26101442253 0)
(-0.025665762187 0.268791501387 0)
(-0.0236884728812 0.275996409576 0)
(-0.0216858572259 0.28262271831 0)
(-0.0196574076933 0.288663866051 0)
(-0.0176021587617 0.294112909491 0)
(-0.0155183755161 0.298962326281 0)
(-0.013404189622 0.303203863034 0)
(-0.0112573142971 0.306828437439 0)
(-0.00907570996443 0.309826091119 0)
(-0.00685734594893 0.312186024356 0)
(-0.00460086364934 0.313896666337 0)
(-0.00230538503591 0.31494581528 0)
(2.87875486101e-05 0.315320902237 0)
(0.00240033950178 0.315009296581 0)
(0.00480628637145 0.313998725462 0)
(0.00724212289514 0.3122777509 0)
(0.00970126155758 0.309836362091 0)
(0.0121752116016 0.306666593143 0)
(0.0146531856362 0.302763236009 0)
(0.0171223491906 0.298124525143 0)
(0.0195676494373 0.292752874218 0)
(0.0219721403521 0.286655517223 0)
(0.0243170394455 0.279845149883 0)
(0.0265820723821 0.272340422733 0)
(0.0287457049702 0.264166407148 0)
(0.0307854100575 0.255354899566 0)
(0.0326780248669 0.245944727836 0)
(0.0343999145269 0.235981924192 0)
(0.0359275362085 0.225519932648 0)
(0.0372376731659 0.214619663948 0)
(0.0383084273382 0.203349478576 0)
(0.0391197424496 0.19178481503 0)
(0.0396548038397 0.180007519276 0)
(0.0399005783564 0.168104617232 0)
(0.0398489800193 0.156166803903 0)
(0.0394967275116 0.14428670091 0)
(0.0388459943798 0.132557004806 0)
(0.0379033952689 0.121068582237 0)
(0.0366789586272 0.109909906979 0)
(0.0351866976171 0.0991666423088 0)
(0.033444773478 0.0889222851359 0)
(0.031482850724 0.0792531535178 0)
(0.0293310649721 0.0702274410862 0)
(0.027029127323 0.061912184728 0)
(0.0246490541802 0.054356915845 0)
(0.022273454817 0.0475728128992 0)
(0.0199742642858 0.041534433213 0)
(0.0178015496799 0.0361922693666 0)
(0.0157836465107 0.0314862629893 0)
(0.0139328782374 0.0273547501418 0)
(0.0122514114659 0.0237382438828 0)
(0.0107344461438 0.0205810220487 0)
(0.0093725182635 0.0178323759408 0)
(0.00815404813777 0.015447476436 0)
(0.0070683200453 0.0133868010169 0)
(0.00610709754597 0.0116138323205 0)
(0.00526328190501 0.0100927301172 0)
(0.00452729445457 0.00878899922198 0)
(0.0038870679478 0.00767223000406 0)
(0.00333114953567 0.00671663050572 0)
(0.00284921451594 0.00589981090012 0)
(0.00243155120033 0.00520237703586 0)
(0.00207061148559 0.00461302970516 0)
(0.00176730336965 0.00405552568556 0)
(0.00155342785123 0.00363185997317 0)
(0.0013744445139 0.00324033253995 0)
(0.00120931701128 0.00279582213077 0)
(0.00112850997221 0.0024865132754 0)
(0.00106575755457 0.00210267635723 0)
(0.00110541362178 0.00178293338837 0)
(0.00125836104084 0.00155604320896 0)
(0.00129134342133 0.0011186769784 0)
(0.00142829661126 0.00077168206407 0)
(0.00156944115082 0.000464755937487 0)
(0.00155444088632 0.000152124520705 0)
(-0.0644917114303 0.00708030615136 0)
(-0.0681618029986 0.0227491525943 0)
(-0.0678791970932 0.0382489988297 0)
(-0.0672816484523 0.053777255205 0)
(-0.0664856585693 0.0691267294694 0)
(-0.0655017129522 0.0842641143211 0)
(-0.0643387168851 0.0991455977936 0)
(-0.063006858733 0.113730385054 0)
(-0.0615173717163 0.12798040048 0)
(-0.0598823132369 0.141860583912 0)
(-0.0581142074469 0.155339043287 0)
(-0.0562258343648 0.168387138081 0)
(-0.0542298659941 0.180979494654 0)
(-0.0521386800194 0.193093942108 0)
(-0.04996400893 0.204711383993 0)
(-0.0477168004218 0.21581559744 0)
(-0.0454069062226 0.226392977651 0)
(-0.0430430165532 0.236432223952 0)
(-0.0406324180941 0.245923988866 0)
(-0.0381810281258 0.254860492488 0)
(-0.0356932439991 0.263235126778 0)
(-0.0331720883745 0.271042055846 0)
(-0.0306191528358 0.278275835572 0)
(-0.0280348421202 0.284931058367 0)
(-0.0254183924521 0.291002040001 0)
(-0.0227681852196 0.296482549801 0)
(-0.0200818130106 0.301365592148 0)
(-0.017356436037 0.305643238335 0)
(-0.0145888830431 0.309306512092 0)
(-0.011776043006 0.312345321178 0)
(-0.00891501944171 0.314748482998 0)
(-0.00600353425738 0.316503765695 0)
(-0.00304014002119 0.317598017417 0)
(-2.46913412423e-05 0.31801741755 0)
(0.00304142937638 0.317747788408 0)
(0.00615485080503 0.316775019009 0)
(0.00930999320606 0.315085581277 0)
(0.0124986854376 0.312667157653 0)
(0.0157100352863 0.309509336601 0)
(0.0189302146829 0.305604389526 0)
(0.0221424987416 0.300948063229 0)
(0.0253272874225 0.295540387254 0)
(0.0284623438726 0.289386423346 0)
(0.0315230482203 0.282496947466 0)
(0.0344827665737 0.27488901278 0)
(0.0373132282014 0.266586396948 0)
(0.0399848747922 0.257619940009 0)
(0.0424672296668 0.248027813185 0)
(0.044729167432 0.237855769566 0)
(0.0467393732801 0.227157431425 0)
(0.0484668117564 0.215994559204 0)
(0.0498817142131 0.204437277737 0)
(0.0509567120453 0.192563924998 0)
(0.0516684849367 0.180460436875 0)
(0.0519992013921 0.168218980708 0)
(0.0519376795218 0.155935982527 0)
(0.0514797770994 0.143710127468 0)
(0.0506287886864 0.131639916152 0)
(0.0493947736562 0.119820500901 0)
(0.0477895310101 0.108344231545 0)
(0.0458301634897 0.0973008986038 0)
(0.0435338950458 0.0867836112144 0)
(0.0409459613467 0.0768749240672 0)
(0.0380936375192 0.0676468405258 0)
(0.035011101372 0.0591943497911 0)
(0.0318135160143 0.0515967499447 0)
(0.0286351226332 0.0448648661635 0)
(0.0255849767614 0.038951535588 0)
(0.0227300368643 0.0337792027697 0)
(0.0201004536275 0.0292645796191 0)
(0.0177044948064 0.0253308263788 0)
(0.0155393733138 0.0219089649038 0)
(0.0135947339845 0.0189368181589 0)
(0.0118540937668 0.0163599102821 0)
(0.0102984238197 0.014133072331 0)
(0.00891168082411 0.0122194324067 0)
(0.00768466822912 0.010585247763 0)
(0.00661177452591 0.00919379824318 0)
(0.00568100359082 0.00800702718749 0)
(0.00487363678718 0.00699326545897 0)
(0.00417388358321 0.00612803201905 0)
(0.00356858279323 0.00538995934841 0)
(0.00304406895345 0.00476113503428 0)
(0.00259067956677 0.0042336871726 0)
(0.00219353378951 0.00369948966421 0)
(0.00199829751868 0.00339731582194 0)
(0.00182192773274 0.00301283988885 0)
(0.00163052540702 0.00259289424663 0)
(0.00144534308902 0.00212727604209 0)
(0.00140986450354 0.00181334887509 0)
(0.00139302280794 0.00144032593842 0)
(0.00154356224625 0.00121044175071 0)
(0.00171423151072 0.000934436279895 0)
(0.00173188539087 0.000584779655184 0)
(0.00179773207594 0.000336293580142 0)
(0.00177806514316 0.000111322855727 0)
(-0.079405143178 0.00717265829259 0)
(-0.0839232359774 0.0230891091288 0)
(-0.0835708889485 0.0388087297112 0)
(-0.0828277437147 0.0545587870051 0)
(-0.0818378348424 0.0701223635373 0)
(-0.0806145803762 0.0854647794006 0)
(-0.0791694071439 0.100540562085 0)
(-0.0775152882798 0.115307568167 0)
(-0.0756665243498 0.129726674706 0)
(-0.0736384126033 0.143762095232 0)
(-0.0714468666496 0.15738153248 0)
(-0.069108074475 0.170556263209 0)
(-0.0666381168245 0.183261143884 0)
(-0.0640526431186 0.195474535887 0)
(-0.0613665151137 0.207178154875 0)
(-0.0585935291487 0.218356844562 0)
(-0.0557461179623 0.228998282777 0)
(-0.0528351560152 0.239092625204 0)
(-0.0498697589964 0.248632100675 0)
(-0.0468572097227 0.257610570449 0)
(-0.043802886871 0.266023071277 0)
(-0.0407103303865 0.273865359268 0)
(-0.0375813024527 0.281133475217 0)
(-0.0344159760102 0.28782334546 0)
(-0.0312130959735 0.293930431677 0)
(-0.0279702473166 0.299449434124 0)
(-0.0246840723222 0.304374051625 0)
(-0.021350580479 0.308696794673 0)
(-0.0179654012332 0.312408852481 0)
(-0.0145241320931 0.315499998383 0)
(-0.0110226536225 0.317958600381 0)
(-0.00745750259658 0.319771622812 0)
(-0.0038262671671 0.320924735567 0)
(-0.000128058856674 0.321402545358 0)
(0.00363606794834 0.321188905498 0)
(0.00746262785426 0.32026734637 0)
(0.0113452931421 0.318621630786 0)
(0.0152744806593 0.316236436107 0)
(0.0192370675007 0.31309814015 0)
(0.0232161773863 0.309195702814 0)
(0.0271911457747 0.304521587129 0)
(0.03113760899 0.299072695295 0)
(0.0350277810142 0.292851241856 0)
(0.038830843436 0.285865525842 0)
(0.0425134439033 0.278130547179 0)
(0.0460402091763 0.269668453082 0)
(0.0493742043034 0.26050883422 0)
(0.0524773201305 0.250688951537 0)
(0.0553105067867 0.240253999142 0)
(0.0578341452171 0.229257510834 0)
(0.0600084427519 0.217761943023 0)
(0.0617946053376 0.205839322358 0)
(0.0631563581464 0.193571534827 0)
(0.0640624782659 0.181049962889 0)
(0.0644891246755 0.16837377052 0)
(0.064421634659 0.155647341707 0)
(0.0638547897621 0.142977774143 0)
(0.062794047526 0.130471967763 0)
(0.061256273184 0.118229296213 0)
(0.0592534463629 0.106345276925 0)
(0.0568065207749 0.0949109978107 0)
(0.0539169839215 0.0840380797694 0)
(0.050672722663 0.0738129079168 0)
(0.0470745726093 0.0642926158396 0)
(0.0431039467419 0.055632100767 0)
(0.0389623099849 0.0479809572444 0)
(0.0348755853317 0.0413442662022 0)
(0.0310071669193 0.0356293156264 0)
(0.0274375823817 0.0307077002994 0)
(0.024186139922 0.0264606716849 0)
(0.0212469111517 0.0227936254462 0)
(0.0186080043319 0.0196284485482 0)
(0.0162514489896 0.0168957201859 0)
(0.0141502221979 0.0145360556664 0)
(0.012272901512 0.0125050633541 0)
(0.0105950356119 0.0107730510275 0)
(0.00910927659747 0.00931393257573 0)
(0.00781908516208 0.00808907034422 0)
(0.00671097914864 0.00705086514531 0)
(0.00575225008635 0.00616511375142 0)
(0.00492220114949 0.00541158047694 0)
(0.00420671827492 0.00476999300389 0)
(0.00358624754204 0.004224252004 0)
(0.00304962766937 0.0037561347513 0)
(0.00260140631539 0.00329309115127 0)
(0.0023775996382 0.0029879310491 0)
(0.00214265743815 0.00256727073496 0)
(0.00200013003316 0.00224275136423 0)
(0.00189485802686 0.00190175940272 0)
(0.00184272439579 0.00157144508286 0)
(0.00169596140625 0.00114661686197 0)
(0.00174385572293 0.000860746291797 0)
(0.00195666447572 0.000688472061653 0)
(0.0020019931129 0.000458860170503 0)
(0.00199693262721 0.000253086261496 0)
(0.00197794898705 8.35965194739e-05 0)
(-0.0945613949996 0.0072848576703 0)
(-0.0999384092937 0.0235040750482 0)
(-0.0995117530899 0.0394927391994 2.46713833717e-27)
(-0.0986158469212 0.0555140225634 0)
(-0.0974227294724 0.0713390273197 0)
(-0.0959489433396 0.0869313801677 0)
(-0.0942087083225 0.10224359655 0)
(-0.0922181141056 0.117231882715 0)
(-0.0899948682759 0.131855833743 0)
(-0.0875578756218 0.146078773429 0)
(-0.0849267906981 0.159867914987 0)
(-0.0821215773528 0.173194446122 0)
(-0.0791620606664 0.186033526903 0)
(-0.076067502994 0.198364200696 0)
(-0.0728561859341 0.210169219809 0)
(-0.0695450358597 0.221434786635 0)
(-0.066149275522 0.232150215148 0)
(-0.0626821464837 0.242307519271 0)
(-0.0591546838617 0.251900941326 0)
(-0.0555755897343 0.260926437091 0)
(-0.0519511777415 0.269381140494 0)
(-0.0482854273436 0.277262831547 0)
(-0.0445801037709 0.284569432778 0)
(-0.0408349699742 0.291298553665 0)
(-0.037048032626 0.29744709785 0)
(-0.0332158446686 0.30301093727 0)
(-0.0293338075347 0.307984651824 0)
(-0.025396507345 0.312361325729 0)
(-0.021398043635 0.316132395054 0)
(-0.0173324006533 0.319287523855 0)
(-0.0131938469673 0.32181459046 0)
(-0.00897734642068 0.323699637215 0)
(-0.00467907174196 0.32492694448 0)
(-0.000296954526365 0.325479230649 0)
(0.00416874910779 0.325337944941 0)
(0.0087148576713 0.324483703758 0)
(0.0133346911012 0.322896882036 0)
(0.01801754235 0.320558367841 0)
(0.0227482563525 0.317450457314 0)
(0.0275069478885 0.313557880993 0)
(0.0322689148112 0.308868898967 0)
(0.037004763966 0.303376419888 0)
(0.0416807719596 0.29707905123 0)
(0.0462594412415 0.289982002989 0)
(0.0507002004225 0.282097773794 0)
(0.0549601096907 0.273446558984 0)
(0.0589945019019 0.264056462936 0)
(0.0627573053531 0.253963542187 0)
(0.066201285772 0.243212039987 0)
(0.0692778817568 0.231854835576 0)
(0.0719376342177 0.219954513638 0)
(0.0741309127016 0.207584715649 0)
(0.0758103798282 0.194831349271 0)
(0.0769343967578 0.181792783156 0)
(0.077471471024 0.168577744394 0)
(0.077402752434 0.155301280841 0)
(0.0767214530845 0.142082195416 0)
(0.0754361970322 0.129041075939 0)
(0.0735809183525 0.116279603237 0)
(0.0711619904215 0.103894215543 0)
(0.0682136444057 0.0919642145561 0)
(0.0646660351303 0.0806496051541 0)
(0.06075651997 0.0700323507805 0)
(0.0563937192751 0.0600779874283 0)
(0.0513574946473 0.0510820455571 0)
(0.0460627330016 0.043368337843 0)
(0.0409096995124 0.0369096378658 0)
(0.0361402754937 0.0315134168871 0)
(0.0318316098699 0.0269580470805 0)
(0.0279610260598 0.0230737833142 0)
(0.0244899181815 0.0197525796357 0)
(0.0213950798178 0.0169134108667 0)
(0.0186525851721 0.0144789661972 0)
(0.0162202457308 0.0123813156613 0)
(0.0140445107772 0.0105778588149 0)
(0.0120845783061 0.00905579379663 0)
(0.0103409309599 0.00780928647488 0)
(0.00884662513707 0.00679548651245 0)
(0.00759003556238 0.00594017673529 0)
(0.00650128968514 0.00520447453818 0)
(0.00555661957157 0.00458248890277 0)
(0.00474905117195 0.00405395160994 0)
(0.00404723147263 0.00360252654309 0)
(0.00343721938562 0.00319968930112 0)
(0.00299353778017 0.00283879712773 0)
(0.00274270399662 0.00252740398678 0)
(0.00251737036481 0.00217971219289 0)
(0.00231605179971 0.00182305119106 0)
(0.00222983080349 0.00152479481439 0)
(0.00211058437812 0.00118727633976 0)
(0.00209656590317 0.00092960434507 0)
(0.00198569662577 0.000618875136369 0)
(0.00204891841345 0.000444730411645 0)
(0.00217509593592 0.000326286442732 0)
(0.00214397609916 0.000179256721874 0)
(0.00212353340645 5.90703407449e-05 0)
(-0.110009929317 0.00741815064491 0)
(-0.116259759257 0.0239985555829 0)
(-0.115753168466 0.0403078165233 -2.46675843428e-27)
(-0.114695526236 0.0566521744456 0)
(-0.113287583869 0.0727881636019 0)
(-0.111549292879 0.0886773350482 0)
(-0.109498008949 0.104269763965 0)
(-0.107153335383 0.119519669704 0)
(-0.104536808796 0.134385107561 0)
(-0.101671383648 0.1488283399 0)
(-0.098580896629 0.162816004957 0)
(-0.0952895307453 0.176319202772 0)
(-0.091821281125 0.18931348492 0)
(-0.0881994358454 0.201778750147 0)
(-0.0844460727232 0.213699044583 0)
(-0.0805815904424 0.225062266085 0)
(-0.0766242814202 0.235859773481 0)
(-0.0725899732667 0.246085907154 0)
(-0.0684917507619 0.255737433279 0)
(-0.064339785795 0.264812933116 0)
(-0.0601412791487 0.273312165082 0)
(-0.0559005270653 0.281235433128 0)
(-0.0516190947182 0.288582994259 0)
(-0.0472960868824 0.295354533235 0)
(-0.0429284779687 0.30154872172 0)
(-0.0385114822085 0.307162865246 0)
(-0.0340389297262 0.312192629543 0)
(-0.0295036471739 0.316631827136 0)
(-0.0248978360679 0.320472249541 0)
(-0.0202134745144 0.323703509623 0)
(-0.0154427730813 0.326312995452 0)
(-0.0105786348073 0.328285746177 0)
(-0.00561527363017 0.329604473782 0)
(-0.000548870497748 0.330249706433 0)
(0.00462170896056 0.330200048425 0)
(0.00989415463308 0.329432607042 0)
(0.0152619529556 0.327923620462 0)
(0.0207136851517 0.325649292013 0)
(0.0262324369075 0.32258682231 0)
(0.0317953952192 0.318715625088 0)
(0.0373736904439 0.314018656257 0)
(0.0429325453617 0.308483797449 0)
(0.048431751778 0.302105159344 0)
(0.0538264617519 0.294884193379 0)
(0.0590681747457 0.286830457565 0)
(0.0641058227193 0.27796200372 0)
(0.0688865504567 0.268305291057 0)
(0.0733562999083 0.257895013858 0)
(0.0774594074368 0.246773876884 0)
(0.081138341844 0.234993188974 0)
(0.0843326895326 0.222614336551 0)
(0.0869800413884 0.20971146603 0)
(0.0890182543064 0.196374452706 0)
(0.0903914087965 0.182710522387 0)
(0.0910575359475 0.168841628164 0)
(0.0909933370489 0.154896857766 0)
(0.0901880848339 0.141010773445 0)
(0.0886513272801 0.127331004706 0)
(0.0864655779546 0.113954692505 0)
(0.0836084655736 0.100977648774 0)
(0.0801765477876 0.0884147758195 0)
(0.0758188963923 0.0765806585428 0)
(0.0713221681323 0.0655404045667 0)
(0.0663070127612 0.0548937525762 0)
(0.0598720464834 0.0453014371124 0)
(0.0530562880534 0.0375335179307 0)
(0.0465978024772 0.0314221206694 0)
(0.0408391423308 0.0265515160583 0)
(0.0357983850718 0.0225287714947 0)
(0.0313398108811 0.0191193393763 0)
(0.0273606593355 0.0162280364136 0)
(0.0238360939459 0.0137914320623 0)
(0.0207490077967 0.0117211543158 0)
(0.0180353870597 0.00992820983311 0)
(0.0155981557865 0.00836959278054 0)
(0.013357909182 0.00706962844171 0)
(0.011333243022 0.00607606501429 0)
(0.00964363980491 0.00533818403111 0)
(0.00829505721461 0.0047055168891 0)
(0.0071036194245 0.00413168424038 0)
(0.00605702305855 0.00365932709019 0)
(0.00518398979477 0.00326048050214 0)
(0.004420865084 0.00290861358724 0)
(0.00375220450974 0.00257644106828 0)
(0.00334184356474 0.00230773875654 0)
(0.00305775382266 0.00201082804143 0)
(0.00286799646931 0.00173788236737 0)
(0.00267558240989 0.00142895401721 0)
(0.00252253056175 0.00113658067585 0)
(0.00236439048008 0.000846884497052 0)
(0.00227933276162 0.000618888633062 0)
(0.00226429802511 0.000441052658391 0)
(0.00216745259193 0.000269221855072 0)
(0.00229694817859 0.000190094651441 0)
(0.00224301860014 0.000112554196561 0)
(0.00221416884983 3.49932391926e-05 0)
(-0.125803415068 0.00757383038877 0)
(-0.132942588698 0.0245778391426 0)
(-0.132349244443 0.0412623063508 0)
(-0.131118896133 0.0579846003085 0)
(-0.129481923429 0.0744838728324 0)
(-0.127462069107 0.0907191340226 0)
(-0.125080260164 0.10663753834 0)
(-0.122360098919 0.12219093666 0)
(-0.119327466248 0.137335564386 0)
(-0.116009898114 0.152032439371 0)
(-0.112435947765 0.166247538893 0)
(-0.108634549081 0.179951883987 0)
(-0.104634385779 0.193121521316 0)
(-0.100463272213 0.205737403716 0)
(-0.096147549847 0.217785165945 0)
(-0.0917115129677 0.229254789994 0)
(-0.087176880018 0.240140156318 0)
(-0.0825623388737 0.250438483054 0)
(-0.0778831931537 0.260149665844 0)
(-0.0731511415563 0.269275542911 0)
(-0.0683742082835 0.277819122915 0)
(-0.0635568357042 0.285783821023 0)
(-0.0587001244233 0.293172751065 0)
(-0.05380219543 0.299988113286 0)
(-0.0488586259837 0.306230701969 0)
(-0.0438629167371 0.311899533473 0)
(-0.0388069460325 0.316991575439 0)
(-0.0336813990476 0.321501540888 0)
(-0.0284761735595 0.325421714953 0)
(-0.0231807978761 0.328741762607 0)
(-0.017784915917 0.331448636083 0)
(-0.0122787896215 0.333526350192 0)