/*--------------------------------*- C++ -*----------------------------------*\
| =========                 |                                                 |
| \\      /  F ield         | OpenFOAM: The Open Source CFD Toolbox           |
|  \\    /   O peration     | Version:  v1906                                 |
|   \\  /    A nd           | Web:      www.OpenFOAM.com                      |
|    \\/     M anipulation  |                                                 |
\*---------------------------------------------------------------------------*/
FoamFile
{
    version     2.0;
    format      ascii;
    class       surfaceScalarField;
    location    "430";
    object      phi;
}
// * * * * * * * * * * * * * * * * * * * * * * * * * * * * * * * * * * * * * //

dimensions      [0 3 -1 0 0 0 0];
oriented        oriented;


internalField   nonuniform List<scalar> 
18240
(
-0.000352537592645
0.000352467270665
-0.00073857155271
0.000385948074796
-0.00112425076316
0.000385608256196
-0.00150498988651
0.000380649876833
-0.00187867556953
0.000373618453839
-0.00224361644018
0.000364848479527
-0.00259824164073
0.000354561694761
-0.00294125686521
0.0003429197214
-0.00327143070199
0.000330114163075
-0.00358782724536
0.000316298025687
-0.00388954598192
0.00030166314819
-0.00417599738601
0.000286349984938
-0.00444658841022
0.000270539686262
-0.00470104141264
0.000254348819379
-0.00493902690435
0.000237938686857
-0.00516052927249
0.000221395586317
-0.00536542903422
0.000204857661185
-0.0055539183496
0.000188380143183
-0.00572603475229
0.000172079316344
-0.00588212827115
0.000155982195885
-0.00602234745335
0.000140187276498
-0.00614715869888
0.000124698053249
-0.00625678517214
0.0001096000635
-0.00635177799739
9.48780685265e-05
-0.00643240797292
8.06092004758e-05
-0.00649928761413
6.67636631184e-05
-0.00655271607513
5.34136205503e-05
-0.00659335062712
4.05177129442e-05
-0.00662150503521
2.81455990259e-05
-0.00663786894659
1.62466105631e-05
-0.00664276134062
4.88989008521e-06
-0.00663689434669
-5.98433556745e-06
-0.00662058022734
-1.63102681877e-05
-0.00659454231814
-2.61548119115e-05
-0.00655908224701
-3.54496233027e-05
-0.00651492984252
-4.42683648733e-05
-0.00646236927044
-5.25435350113e-05
-0.00640212827699
-6.03554524345e-05
-0.00633446772537
-6.76367378881e-05
-0.00626010649894
-7.44735975405e-05
-0.00617927748866
-8.07985009378e-05
-0.00609268445932
-8.67026658965e-05
-0.00600052883027
-9.21183109432e-05
-0.00590349422565
-9.71408357669e-05
-0.00580174832025
-0.000101701954026
-0.005695950247
-0.000105900175582
-0.00558623301368
-0.000109666642354
-0.00547322826189
-0.000113101996627
-0.00535703467529
-0.000116136657474
-0.00523825404708
-0.000118872261284
-0.0051169523067
-0.000121238614396
-0.00499370022452
-0.00012333738235
-0.0048685335109
-0.000125097851857
-0.00474199109724
-0.000126620681307
-0.0046140817925
-0.000127835032487
-0.00448531265529
-0.000128839759061
-0.00435566930842
-0.000129564304271
-0.00422562683031
-0.000130104919148
-0.00409515152094
-0.00013039201615
-0.00396468667479
-0.00013051870905
-0.00383418288765
-0.000130417045249
-0.00370405140843
-0.000130176489885
-0.00357423031791
-0.000129731577514
-0.00344509852662
-0.00012916783995
-0.00331658410212
-0.000128423036253
-0.00318903273979
-0.000127578474576
-0.00306236430138
-0.000126575923314
-0.00293689033027
-0.000125492325063
-0.00281252354518
-0.000124274027511
-0.00268954001631
-0.000122993415018
-0.00256784581513
-0.000121601916405
-0.00244768039975
-0.000120167240883
-0.00232894323366
-0.000118646140424
-0.00221183602732
-0.000117101460739
-0.00209625148689
-0.00011549540686
-0.00198235293913
-0.000113885809639
-0.00187002615302
-0.000112240228
-0.00175939579628
-0.000110611267684
-0.00165034073925
-0.000108971653767
-0.00154294742139
-0.000107368580344
-0.00143708819279
-0.000105779598347
-0.00133281225932
-0.000104246261116
-0.00122998636266
-0.000102750546975
-0.0011286242804
-0.000101328100759
-0.00102858879392
-9.99647482168e-05
-0.000929861146647
-9.86896785404e-05
-0.000832303523994
-9.74913780376e-05
-0.000735870923977
-9.63906521465e-05
-0.000640434896693
-9.53740429862e-05
-0.000545946153003
-9.44435674073e-05
-0.000452332915065
-9.35565330538e-05
-0.000359659645461
-9.26266942964e-05
-0.00026821927293
-9.13915221186e-05
-0.000179221787301
-8.89528843679e-05
-9.71620096802e-05
-8.20062462394e-05
-9.71318015304e-05
-0.000389682882065
0.000742072802885
-0.000824763206294
0.000820942388136
-0.00125737235514
0.000818135872423
-0.0016836905181
0.000806881455598
-0.0021017785294
0.000791626009881
-0.00250987465605
0.000772857490279
-0.00290630366568
0.000750911390859
-0.00328959640285
0.000726124814881
-0.00365842590112
0.000698865659232
-0.00401170705991
0.000669491142772
-0.00434849354163
0.000638373094596
-0.0046680829877
0.000605851146323
-0.00496988563538
0.000572267483426
-0.00525354176045
0.000537916596362
-0.00551876659297
0.000503090533539
-0.00576548439421
0.000468025175863
-0.00599365313949
0.000432955544477
-0.00620341847128
0.000398057634645
-0.00639492044874
0.000363512772678
-0.00656846922746
0.000329443759762
-0.0067243350154
0.000295987180495
-0.00686294611827
0.000263222850062
-0.00698466235119
0.000231253287288
-0.0070899951646
0.000200125776998
-0.00717936426693
0.000169918481389
-0.00725333905363
0.000140654860696
-0.00731237805943
0.000112396234058
-0.00735709064938
8.51485466474e-05
-0.00738795899572
5.89612977233e-05
-0.00740561885089
3.38268818643e-05
-0.00741056341077
9.78578737847e-06
-0.00740344403683
-1.31807779203e-05
-0.00738475939947
-3.50392598639e-05
-0.00735516992255
-5.58184637891e-05
-0.00731516786206
-7.54914865667e-05
-0.00726541088989
-9.4096241135e-05
-0.00720637789183
-0.000111611464158
-0.00713871714206
-0.000128083430333
-0.00706288765979
-0.000143496042791
-0.00697952138481
-0.00015790301566
-0.00688905162931
-0.00017129265963
-0.00679208790383
-0.000183725014203
-0.0066890331247
-0.000195191850849
-0.00658046942051
-0.000205758209763
-0.00646676589996
-0.000215418309917
-0.0063484735611
-0.00022424078399
-0.0062259257016
-0.000232221228483
-0.00609963974076
-0.000239430401184
-0.00596991249631
-0.000245864303587
-0.00583722652605
-0.000251594435776
-0.00570184277458
-0.00025661634534
-0.00556420875681
-0.000261001005686
-0.00542455117287
-0.00026474290051
-0.00528328311138
-0.000267911441767
-0.00514059946133
-0.000270499681013
-0.00499688012099
-0.000272574678464
-0.0048522910327
-0.000274128016062
-0.00470718036378
-0.000275223925854
-0.00456168811632
-0.0002758527565
-0.00441613221485
-0.000276075711717
-0.00427062950063
-0.000275882430979
-0.00412546881705
-0.00027533115764
-0.00398074618146
-0.000274411512606
-0.00383672211825
-0.000273179020204
-0.00369347350289
-0.000271624085741
-0.00355123272161
-0.000269799860576
-0.00341005851582
-0.000267698301139
-0.00327015486153
-0.000265370526899
-0.00313156271352
-0.000262810711847
-0.00299445693097
-0.000260068210354
-0.00285886054412
-0.000257139870822
-0.00272491843446
-0.000254073408351
-0.00259263525845
-0.000250868575978
-0.00246212502818
-0.000247571409786
-0.00233337352212
-0.000244184535828
-0.00220646326224
-0.000240752102248
-0.00208136079206
-0.000237279353554
-0.00195811689755
-0.000233808190424
-0.00183667889309
-0.000230346021817
-0.00171706617713
-0.00022693202747
-0.00159920733859
-0.000223575186388
-0.00148309134796
-0.000220311387602
-0.00136862918623
-0.000217150462522
-0.00125578108824
-0.000214124329824
-0.00114444223532
-0.000211242763843
-0.00103454659056
-0.000208532697525
-0.000925976190017
-0.000206002297896
-0.000818642082375
-0.000203671273467
-0.000712415742979
-0.000201542139198
-0.000607184872735
-0.000199620514164
-0.000502795223451
-0.000197890980922
-0.000399044424738
-0.000196325635026
-0.000295518632049
-0.000194865472486
-0.000191005119588
-0.000193417118646
-8.17844001704e-05
-0.000191179878017
-0.000178892923378
-0.000396642903061
0.00113863724486
-0.000837363449355
0.00126157875161
-0.00127623050882
0.00125691905078
-0.00170873096265
0.00123929711254
-0.00213273274579
0.00121554445023
-0.00254637407754
0.00118641405352
-0.00294794766702
0.0011524021671
-0.00333594300155
0.00111403550675
-0.00370903514976
0.00107187559562
-0.00406611807304
0.00102648969508
-0.00440627134491
0.000978444931611
-0.00472878598336
0.000928281851502
-0.00503311563566
0.000876516636412
-0.005318901072
0.000823618726378
-0.00558591121309
0.000770021336134
-0.00583407110348
0.000716102595976
-0.0060633967471
0.000662203211524
-0.0062740299064
0.000608609401263
-0.00646616926731
0.000555575797024
-0.00664011383305
0.000503308267522
-0.00679619142186
0.000451990310934
-0.00693481114641
0.000401764134343
-0.0070563893349
0.00035275920926
-0.00716141072308
0.000305070628939
-0.00725035120647
0.000258789145488
-0.00732374697625
0.000213976304283
-0.0073821134639
0.000170695681113
-0.00742602153442
0.000128984802042
-0.00745601193169
8.88876942123e-05
-0.00747267777847
5.04237471075e-05
-0.00747657430535
1.36216994355e-05
-0.007468307113
-2.15137992526e-05
-0.00744843685846
-5.49664677278e-05
-0.00741757276758
-8.67448802449e-05
-0.00737627250316
-0.000116844678608
-0.00732514063018
-0.000145286600054
-0.00726472391193
-0.000172076805211
-0.00719561454539
-0.00019724707913
-0.00711834133315
-0.000220813197985
-0.00703347726741
-0.000242816804588
-0.00694152695915
-0.000263281944301
-0.00684303822302
-0.000282258532216
-0.00673848639877
-0.000299777304331
-0.00662838944057
-0.000315894644065
-0.00651318961345
-0.000330646139358
-0.00639337155137
-0.000344092635957
-0.00626934206442
-0.000356272731773
-0.00614155046575
-0.000367249761541
-0.00601036706821
-0.000377063495366
-0.00587620505102
-0.000385777853274
-0.00573939847898
-0.00039343220358
-0.00560032482353
-0.000400089438666
-0.00545928316992
-0.00040578719992
-0.00531661650719
-0.000410586043443
-0.00517259102618
-0.000414521025398
-0.00502751716879
-0.000417649531339
-0.00488163073442
-0.000420003572585
-0.00473521173316
-0.000421636956778
-0.00458846822013
-0.000422578718523
-0.00444165193607
-0.000422879176414
-0.00429494558603
-0.000422564819924
-0.00414857437717
-0.00042168291542
-0.00400269761358
-0.000420258209228
-0.00385751525426
-0.000418335651979
-0.00371316447487
-0.000415939170186
-0.00356982055555
-0.000413112216137
-0.00342759915794
-0.000409878876774
-0.00328665091706
-0.000406281909446
-0.00314706994385
-0.00040234635799
-0.00300898170097
-0.000398114884763
-0.00287245828027
-0.000393614068787
-0.00273759921767
-0.000388886829901
-0.00260445385369
-0.000383961499697
-0.00247309492521
-0.000378881272685
-0.00234354831697
-0.000373676137764
-0.00221585932236
-0.000368389286001
-0.00209002987859
-0.000363051923582
-0.0019660775243
-0.000357706673528
-0.00184398020246
-0.000352385283468
-0.00172372796025
-0.000347129045997
-0.00160527524068
-0.0003419693665
-0.00148858544871
-0.000336945290155
-0.00137359064827
-0.000332086880195
-0.00126022909597
-0.000327429902706
-0.0011484121352
-0.00032300191919
-0.00103805480578
-0.000318834171358
-0.00092904962177
-0.000314950228384
-0.00082128994725
-0.000311375028277
-0.000714649402236
-0.000308125963507
-0.000608995283215
-0.000305219289396
-0.000504166373992
-0.000302664780995
-0.00039996389779
-0.000300475557354
-0.000296102580323
-0.000298676238553
-0.00019217565811
-0.000297293053718
-8.82225018278e-05
-0.000295083782067
-0.000267092468515
-0.000402842605895
0.0015414011639
-0.000849674481754
0.00170832582037
-0.00129463813037
0.00170179845056
-0.00173299116623
0.00167756551347
-0.00216246861446
0.00164493784508
-0.00258111444397
0.00160497554325
-0.00298716822913
0.00155837219115
-0.00337908233184
0.00150586555197
-0.00375552468845
0.00144823461427
-0.00411538859101
0.00138626994612
-0.00445777895358
0.00132075252517
-0.00478201049416
0.00125243030973
-0.00508758246809
0.00118200660435
-0.00537417146976
0.00111012540489
-0.00564160059378
0.00103736940527
-0.00588983225539
0.000964252907064
-0.00611893628311
0.00089122738168
-0.00632908631164
0.000818679295404
-0.00652052932251
0.000746940384298
-0.006693587254
0.00067628754264
-0.00684862885632
0.000606955214692
-0.00698607674807
0.000539135130467
-0.00710638129787
0.00047298905215
-0.00721003249702
0.00040864698264
-0.00729753505999
0.000346219307724
-0.00736942416577
0.00028579291674
-0.00742624080886
0.000227442509054
-0.00746855045799
0.000171224611684
-0.00749691788163
0.000117188213567
-0.0075119280219
6.53670182571e-05
-0.00751415982645
1.57898034811e-05
-0.00750420869268
-3.15285138607e-05
-0.00748265894352
-7.65763634567e-05
-0.0074501079606
-0.000119355814385
-0.00740713745068
-0.000159871474329
-0.00735433889229
-0.000198141148428
-0.00729228346907
-0.000234184295953
-0.00722154898918
-0.000268033239004
-0.00714268878033
-0.000299720935948
-0.00705625998429
-0.000329292619785
-0.00696279160498
-0.00035679294006
-0.00686281414642
-0.000382277983175
-0.00675682699078
-0.000405801831281
-0.00664532927594
-0.00042742896411
-0.00652878680297
-0.000447220362752
-0.00640766403255
-0.000465246260855
-0.0062823906887
-0.000481571885142
-0.00615339467067
-0.000496270544514
-0.00602106853743
-0.000509409158958
-0.00588580311913
-0.000521061631012
-0.00574795404517
-0.000531294272591
-0.00560787576263
-0.000540179416759
-0.00546588828457
-0.00054778090289
-0.00532231132002
-0.000554167842493
-0.00517743140528
-0.000559400277348
-0.00503153578882
-0.000563543021689
-0.00488488011626
-0.000566651642515
-0.00473772173379
-0.000568786252668
-0.00459028809451
-0.000569997909534
-0.00444280911655
-0.000570342235115
-0.00429548648792
-0.000569866343795
-0.00414852477226
-0.000568622125088
-0.00400210180075
-0.000566653757739
-0.00385639823268
-0.00056401050103
-0.00371156922898
-0.000560734862049
-0.0035677722608
-0.000556874726851
-0.00342514027086
-0.000552472209849
-0.00328380755992
-0.000547574989954
-0.00314388462752
-0.000542225885496
-0.00300548205259
-0.00053647327599
-0.00286868719924
-0.000530361424396
-0.00273358603859
-0.000523939914089
-0.00260024186292
-0.000517254753182
-0.00246871505927
-0.000510356784205
-0.00233904395167
-0.000503293589445
-0.00221126254923
-0.000496116874875
-0.00208538357818
-0.000488875199372
-0.00196141426223
-0.000481620356746
-0.00183934158036
-0.000474400937218
-0.00171914612901
-0.00046726775721
-0.0016007895825
-0.000460268255221
-0.00148422669136
-0.000453451025284
-0.00136939489387
-0.000446861035769
-0.00125622447203
-0.000440543322019
-0.0011446301798
-0.000434539002106
-0.00103451952943
-0.000428888176286
-0.000925786201452
-0.000423626735409
-0.000818316190442
-0.000418788599262
-0.000711982189694
-0.000414403463212
-0.000606646300604
-0.00041049927702
-0.000502154149989
-0.0004071027137
-0.000398332546295
-0.000404244547129
-0.000294990522805
-0.000401965881203
-0.000191993162335
-0.000400240125001
-8.98890563855e-05
-0.000397139116711
-0.000356957500919
-0.000410835127019
0.00195215726647
-0.000866148188648
0.00216355488555
-0.00131936903209
0.00215493446974
-0.00176556159704
0.00212367351563
-0.00220232739375
0.00208161917174
-0.00262760375748
0.00203016752043
-0.00303955856471
0.0019702428341
-0.00343660086088
0.00190282372883
-0.00381738599676
0.00182893594483
-0.00418081594721
0.00174961617757
-0.00452602751347
0.00166588079572
-0.00485237911021
0.00157869875567
-0.0051594282235
0.00148897310043
-0.00544691199508
0.00139752678524
-0.00571472108682
0.0013050967719
-0.00596288032216
0.00121233073175
-0.00619152401601
0.00111979046601
-0.00640088044045
0.00102795553592
-0.00659125115322
0.000937231871586
-0.00676300070214
0.000847958403942
-0.00691654044197
0.000760417378618
-0.00705232327778
0.000674841058536
-0.00717083128696
0.000591421436558
-0.00727257447581
0.00051031533855
-0.00735808098903
0.00043165243207
-0.00742789861827
0.000355538087986
-0.00748258640077
0.000282059454276
-0.00752271776461
0.000211286196643
-0.00754887254666
0.000143275002436
-0.00756164100518
7.80686901384e-05
-0.0075616157292
1.56997105578e-05
-0.00754939593371
-4.38117806176e-05
-0.00752557910147
-0.000100454519842
-0.00749076559962
-0.000154229134833
-0.00744554989018
-0.000205144667275
-0.00739052558572
-0.000253221285956
-0.00732627622503
-0.000298486979103
-0.00725338077733
-0.000340980189968
-0.00717240428707
-0.000380746223152
-0.00708390388891
-0.000417839836587
-0.00698841942048
-0.000452321338892
-0.00688648000889
-0.000484259163582
-0.00677859478992
-0.000513725732009
-0.00666526007901
-0.000540800025452
-0.00654695024974
-0.000565563276286
-0.00642412547452
-0.000588101600408
-0.00629722284971
-0.000608501621742
-0.0061666646398
-0.000626853181167
-0.00603284965406
-0.000643244964643
-0.00589616191134
-0.000657767338105
-0.00575696231679
-0.000670508080787
-0.00561559761766
-0.000681555344441
-0.00547239234963
-0.000690993555717
-0.00532765794795
-0.000698906530244
-0.00518168497742
-0.00070537363013
-0.00503475222393
-0.000710473007759
-0.00488711915028
-0.000714278054875
-0.00473903480582
-0.000716860773547
-0.00459073050413
-0.000718288555241
-0.00444242837586
-0.000718627611493
-0.004294334213
-0.000717940062423
-0.00414664553817
-0.000716287376479
-0.00399954463311
-0.000713727741891
-0.00385320601633
-0.000710319412637
-0.0037077896461
-0.000706118292436
-0.00356344776933
-0.000701181116741
-0.00342031836612
-0.0006955631924
-0.00327853135832
-0.000689321323454
-0.00313820233833
-0.000682511638563
-0.00299943818484
-0.000675192220182
-0.00286233117507
-0.000667420985608
-0.00272696405905
-0.000659257977299
-0.00259340461699
-0.000650763271596
-0.00246171027194
-0.000641998937988
-0.00233192318373
-0.000633026983447
-0.00220407445846
-0.000623910986289
-0.00207817982362
-0.000614714092418
-0.0019542434971
-0.000605500363456
-0.00183225449888
-0.000596332862123
-0.00171219020492
-0.000587274744029
-0.00159401330115
-0.00057838747015
-0.00147767503491
-0.000569731687651
-0.00136311280186
-0.000561365612047
-0.0012502530606
-0.000553345727126
-0.00113900947123
-0.000545725377938
-0.00102928542464
-0.000538555346026
-0.00092097263034
-0.000531882728659
-0.000813953059291
-0.000525751522672
-0.000708097984669
-0.000520202164712
-0.00060326906525
-0.000515272526599
-0.000499317731287
-0.000510998989052
-0.00039608940501
-0.000507420203376
-0.000293432633897
-0.000504572352887
-0.000191258082016
-0.000502363052401
-9.00850072592e-05
-0.000498261984408
-0.000447019406933
-0.000420997195648
0.00237307539172
-0.000887327644337
0.00262980016627
-0.00135121791611
0.00261873998585
-0.00180749195779
0.00257986262843
-0.00225358790852
0.00252763045704
-0.00268731516924
0.00246381015802
-0.00310675312714
0.00238959631786
-0.00351026123318
0.00230624747354
-0.00389648269868
0.00221507323602
-0.00426433851573
0.00211738800367
-0.00461301142555
0.00201446997769
-0.00494192434723
0.00190752821863
-0.00525071350039
0.00179767915891
-0.00553920091125
0.00168593146378
-0.00580736557544
0.00157317917885
-0.00605531753569
0.00146020090979
-0.00628327283694
0.00134766459342
-0.00649153315707
0.00123613527653
-0.00668046689753
0.00112608577912
-0.00685049536875
0.00101790777155
-0.00700207996926
0.000911923776534
-0.00713571411953
0.00080839787029
-0.00725191521497
0.000707546245868
-0.00735122072467
0.000609545571798
-0.00743418323731
0.000514540883332
-0.00750136905906
0.000422650998524
-0.00755335479702
0.00033397365108
-0.00759072710139
0.000248588258812
-0.00761407968209
0.000166558876477
-0.00762401334055
8.79350912209e-05
-0.00762113286923
1.2753679484e-05
-0.00760604675553
-5.89618439495e-05
-0.00757936397531
-0.000127199369688
-0.0075416935766
-0.000191959836254
-0.00749364098175
-0.000253255518708
-0.007435807767
-0.000311110825421
-0.00736878773812
-0.00036556110449
-0.00729316688323
-0.000416653046232
-0.00720951949596
-0.000464443204906
-0.00711840843939
-0.000508998214784
-0.00702038146094
-0.000550393036544
-0.00691597187584
-0.000588711020094
-0.00680569515665
-0.000624041929984
-0.00669005009186
-0.000656481935691
-0.00656951570902
-0.000686131509654
-0.0064445529303
-0.000713095419783
-0.00631560183485
-0.000737480573758
-0.00618308379035
-0.000759396095744
-0.00604739904927
-0.000778951203411
-0.00590892931478
-0.000796255430041
-0.00576803562745
-0.000811416594595
-0.00562506128876
-0.000824541234491
-0.00548032998835
-0.000835732741233
-0.00533414898961
-0.000845092047837
-0.00518680741622
-0.000852715974448
-0.00503857957177
-0.000858698208102
-0.00488972330186
-0.000863127900711
-0.00474048331311
-0.000866090938461
-0.00459108951653
-0.000867668791302
-0.00444176020195
-0.000867940040899
-0.00429270029265
-0.00086697946038
-0.00414410425919
-0.000864859720782
-0.00399615423933
-0.000861650637796
-0.0038490226038
-0.000857420952884
-0.00370286994277
-0.000852237678079
-0.00355784725033
-0.000846167827177
-0.00341409381732
-0.000839277779701
-0.00327173904023
-0.000831634851478
-0.00313090029554
-0.000823306623615
-0.00299168442326
-0.000814362261478
-0.00285418567573
-0.000804871772454
-0.00271848694265
-0.000794907021807
-0.00258465786879
-0.000784540915924
-0.0024527559029
-0.000773848096153
-0.00232282466967
-0.00076290406115
-0.00219489491639
-0.000751785555569
-0.00206898320124
-0.000740569664832
-0.00194509280496
-0.000729333938577
-0.00182321277509
-0.000718155496572
-0.0017033188449
-0.000707110946763
-0.00158537283885
-0.000696275544602
-0.0014693236167
-0.000685722973488
-0.00135510681083
-0.000675524596671
-0.00124264578223
-0.000665749171666
-0.00113185161763
-0.000656462236541
-0.00102262408021
-0.000647725837843
-0.00091485182372
-0.000639598132984
-0.00080841339396
-0.000632133288333
-0.000703177690403
-0.000625381390593
-0.000599005200414
-0.000619389017641
-0.000495750261305
-0.000614199914822
-0.000393263337547
-0.000609854575027
-0.000291399554615
-0.000606383555748
-0.0001900640559
-0.000603648291576
-8.97109208066e-05
-0.000598566275122
-0.000536706217957
-0.000433593354014
0.00280658925496
-0.000913643504653
0.00310976598729
-0.00139079523108
0.00309580637326
-0.00185955612446
0.00304853852478
-0.00231715757869
0.00298514688538
-0.00276125139435
0.00290781908718
-0.00318981142214
0.00281807154467
-0.00360114288259
0.00271749423759
-0.00399388257484
0.00260772838799
-0.00436698583585
0.00249040688196
-0.00471970254866
0.0023671025495
-0.00505154633081
0.00223928809902
-0.00536225941336
0.00210830867716
-0.00565177698554
0.0019753658142
-0.00592019232558
0.00184151174838
-0.00616772533407
0.001707651609
-0.0063946944068
0.00157455193179
-0.00660149319407
0.00144285292623
-0.00678857116923
0.00131308333002
-0.00695641890374
0.00118567582164
-0.00710555643078
0.00106098247363
-0.00723652535124
0.000939288852925
-0.00734988287421
0.000820826835399
-0.00744619844375
0.000705785252206
-0.00752605114072
0.000594318842685
-0.00759002865217
0.000486554973448
-0.00763872609645
0.000382598863064
-0.0076727456972
0.000282536980098
-0.00769269572338
0.00018643947836
-0.0076991899215
9.43613822445e-05
-0.00769284618504
6.34365339739e-06
-0.0076742850493
-7.7587586343e-05
-0.00764412788403
-0.000157419357931
-0.00760299535633
-0.000233153333702
-0.00755150494285
-0.000304804952367
-0.00749026918654
-0.000372403582229
-0.00741989315113
-0.000435992024454
-0.00734097271971
-0.000495626163624
-0.00725409217927
-0.000551374135641
-0.00715982276175
-0.000603315641582
-0.00705872051998
-0.000651540810812
-0.00695132524031
-0.000696149256147
-0.00683815872101
-0.000737248736367
-0.00671972412418
-0.000774954047524
-0.0065965046985
-0.000809385591645
-0.00646896358912
-0.000840668210062
-0.0063375430221
-0.00086892977038
-0.00620266455299
-0.00089430002445
-0.00606472868511
-0.000916909302733
-0.00592411551071
-0.000936887478298
-0.00578118472906
-0.000954362859896
-0.00563627660619
-0.000969461324309
-0.00548971231787
-0.000982305482118
-0.00534179512891
-0.000993014045179
-0.00519281097717
-0.00100170133702
-0.00504302974458
-0.00100847693552
-0.00489270595883
-0.00101344556355
-0.00474208001736
-0.00101670702857
-0.00459137888785
-0.00101835649572
-0.00444081714757
-0.00101848469403
-0.00429059755727
-0.00101717851134
-0.00414091181316
-0.00101452140523
-0.00399194091211
-0.00101059421815
-0.00384385556011
-0.001005475688
-0.00369681627736
-0.000999243343321
-0.0035509734727
-0.000991974008046
-0.00340646729946
-0.000983744639185
-0.00326342745535
-0.000974632723675
-0.00312197282899
-0.000964716937426
-0.0029822111285
-0.000954077372335
-0.00284423839739
-0.000942795939593
-0.00270813858621
-0.00093095639454
-0.00257398301632
-0.000918644447219
-0.00244183001009
-0.000905947594312
-0.00231172439002
-0.000892954943758
-0.00218369725943
-0.000879756883036
-0.002057765604
-0.000866444655146
-0.00193393229017
-0.000853109914496
-0.00181218582829
-0.000839844118635
-0.00169250061614
-0.000826738026603
-0.00157483689131
-0.000813880983491
-0.00145914121269
-0.000801360421876
-0.00134534660278
-0.000789261122595
-0.00123337322754
-0.00077766477256
-0.00112312869314
-0.000766649283915
-0.00101450891338
-0.000756288473032
-0.000907398591555
-0.00074665152183
-0.000801672265494
-0.000737802842271
-0.000697195397437
-0.000729801897489
-0.000593825713787
-0.000722703111263
-0.000491414685849
-0.000716555854199
-0.000389811713522
-0.000711404945477
-0.000288867856633
-0.000707277471397
-0.000188468145876
-0.000703996387904
-8.90226779013e-05
-0.000697961543091
-0.000625706000495
-0.00044890130037
0.0032554110532
-0.000945632737189
0.00360641172155
-0.00143887303479
0.00358896143204
-0.00192272764433
0.00353230767173
-0.00239416610202
0.00345650010372
-0.00285064812423
0.00336421588458
-0.00329002450894
0.00325736278363
-0.00371054511971
0.00313792978709
-0.0041108527561
0.00300795106397
-0.00448996019628
0.00286942951994
-0.00484721471815
0.00272427244212
-0.00518225492377
0.00257424392414
-0.00549496439919
0.00242093404344
-0.00578542579549
0.00226574345521
-0.00605387811993
0.0021098807048
-0.00630067893654
0.00195436953394
-0.00652627241929
0.00180006304461
-0.00673116347599
0.00164766222258
-0.00691589766566
0.00149773642499
-0.00708104638707
0.00135074420179
-0.00722719650836
0.00120705307304
-0.00735494373551
0.00106695745815
-0.00746488874816
0.000930694199991
-0.0075576355171
0.000798455424114
-0.00763379087996
0.000670398740704
-0.00769396502262
0.000546654851176
-0.00773877208099
0.000427332943008
-0.00776883081527
0.000312524086859
-0.00778476474623
0.00020230322632
-0.00778720197518
9.67299374467e-05
-0.00777677462873
-4.15075791533e-06
-0.00775411741475
-0.000100310190493
-0.00771986560787
-0.000191734770945
-0.00767465385343
-0.000278426858385
-0.00761911350329
-0.000360405123656
-0.00755387051229
-0.00043770439283
-0.0074795429699
-0.000510375261459
-0.00739673899247
-0.000578483662983
-0.00730605437945
-0.000642109963343
-0.00720807078491
-0.000701348095593
-0.00710335370188
-0.000756304250393
-0.00699245107032
-0.000807095701167
-0.00687589169326
-0.00085384922228
-0.00675418435959
-0.00089669975034
-0.00662781673469
-0.000935788669016
-0.00649725502246
-0.000971262438427
-0.00636294331942
-0.00100327086144
-0.00622530380233
-0.00103196579773
-0.00608473651145
-0.00105749951202
-0.00594162002642
-0.00108002356928
-0.00579631161657
-0.00109968734692
-0.00564914834103
-0.00111663720592
-0.00550044748513
-0.00113101525103
-0.0053505079899
-0.00114295886429
-0.00519961105887
-0.00115259978299
-0.00504802178407
-0.00116006406852
-0.00489598978811
-0.00116547155207
-0.00474375088597
-0.00116893626706
-0.00459152761295
-0.00117056626139
-0.00443953075446
-0.00117046446291
-0.00428795963371
-0.00116872880406
-0.00413700336666
-0.0011654534174
-0.0039868408253
-0.00116072896207
-0.0038376415256
-0.00115464399418
-0.00368956525074
-0.00114728535899
-0.00354276254804
-0.00113873955443
-0.00339737405995
-0.00112909305293
-0.00325353066825
-0.0011184334924
-0.00311135263304
-0.00110684982703
-0.00297094947099
-0.00109443322064
-0.00283241902651
-0.00108127697181
-0.00269584719206
-0.0010674770418
-0.00256130703739
-0.00105313174796
-0.00242885848512
-0.00103834191133
-0.00229854760664
-0.00102321034782
-0.00217040635393
-0.00100784166607
-0.00204445210261
-0.000992341611845
-0.00192068752115
-0.000976816581502
-0.00179910040961
-0.000961372887401
-0.00167966375703
-0.000946116077487
-0.00156233588605
-0.000931150195011
-0.0014470607154
-0.000916577006252
-0.00133376818016
-0.000902495323015
-0.00122237469031
-0.000889000239683
-0.00111278377299
-0.000876182577994
-0.00100488673566
-0.000864128218157
-0.00089856353943
-0.000852917723759
-0.000793683805051
-0.00084262585119
-0.00069010796896
-0.000833321258726
-0.000587688694047
-0.000825066423031
-0.000486273348577
-0.000817917419794
-0.000385704319966
-0.000811921574547
-0.000285822585116
-0.000807106562095
-0.000186500158877
-0.000803268913976
-8.81153595869e-05
-0.000796297931147
-0.000713797376023
-0.000467260540774
0.00372259158335
-0.000983976841854
0.00412304325239
-0.0014964405092
0.00410133920751
-0.00199824924216
0.00403403085147
-0.00248604729264
0.00394421250914
-0.0029570623301
0.00383514537353
-0.00340900606643
0.00370922099289
-0.00384007778278
0.00356891602241
-0.0042489481478
0.00341673603532
-0.00463472186899
0.00325511794165
-0.00499688570508
0.00308635114999
-0.00533524887386
0.0029125221451
-0.00564988150946
0.00273548200368
-0.00594105613526
0.0025568336973
-0.00620919496842
0.00237793554626
-0.0064548252155
0.00219991621123
-0.00667854266876
0.00202369745284
-0.00688098376725
0.00185002084337
-0.00706280506901
0.00167947591776
-0.0072246693995
0.00151252744433
-0.00736723724327
0.00134954064562
-0.00749116246442
0.00119080328794
-0.00759709104731
0.00103654436002
-0.00768566204324
0.000886949036079
-0.00775750969912
0.00074217013138
-0.00781326614313
0.000602336227904
-0.00785356395941
0.000467556961824
-0.0078790382824
0.000337925964371
-0.00789032812942
0.000213522048821
-0.00788807688049
9.44091813351e-05
-0.00787293161278
-1.93639487287e-05
-0.00784554286688
-0.000127765170558
-0.007806562205
-0.000230779917743
-0.00775664026393
-0.000328411428693
-0.00769642449232
-0.000420681613249
-0.00762655656201
-0.00050763101696
-0.0075476698395
-0.000589318598172