/*--------------------------------*- C++ -*----------------------------------*\
| =========                 |                                                 |
| \\      /  F ield         | OpenFOAM: The Open Source CFD Toolbox           |
|  \\    /   O peration     | Version:  v1906                                 |
|   \\  /    A nd           | Web:      www.OpenFOAM.com                      |
|    \\/     M anipulation  |                                                 |
\*---------------------------------------------------------------------------*/
FoamFile
{
    version     2.0;
    format      ascii;
    class       surfaceScalarField;
    location    "352";
    object      phi;
}
// * * * * * * * * * * * * * * * * * * * * * * * * * * * * * * * * * * * * * //

dimensions      [0 3 -1 0 0 0 0];
oriented        oriented;


internalField   nonuniform List<scalar> 
18240
(
-0.00019893310879
0.000198890693275
-0.00040710358709
0.000208131931787
-0.000613926506656
0.000206775996416
-0.000817722684531
0.00020375875066
-0.00101744691003
0.000199675161397
-0.00121214284522
0.000194659786431
-0.00140100727402
0.000188813545392
-0.00158328973143
0.000182247362148
-0.0017583987642
0.000175056446929
-0.00192578608489
0.000167353023641
-0.00208506775029
0.000159227474487
-0.00223588655095
0.000150785088853
-0.00237804476766
0.000142102610116
-0.00251134847512
0.000133270416781
-0.00263575142355
0.000124346122289
-0.00275118586529
0.000115401463005
-0.00285771723725
0.000106473595806
-0.00295536555152
9.76155987594e-05
-0.00304426994022
8.8845912932e-05
-0.00312450368553
8.0201314701e-05
-0.00319624738715
7.16848296259e-05
-0.00325959971255
6.33202796252e-05
-0.00331475775112
5.50990295151e-05
-0.00336182467394
4.7035445707e-05
-0.00340099625229
3.91127201924e-05
-0.00343236583182
3.13389438982e-05
-0.00345611650581
2.36921790829e-05
-0.00347232306342
1.61771229182e-05
-0.00348115031064
8.76932940523e-06
-0.0034826509666
1.47286951509e-06
-0.00347697118761
-5.73701741884e-06
-0.00346414218091
-1.28546194565e-05
-0.00344429633524
-1.99023217097e-05
-0.00341744986679
-2.68693047088e-05
-0.00338373203938
-3.37736033081e-05
-0.00334315474149
-4.05966981776e-05
-0.00329585965686
-4.7350257382e-05
-0.00324186954658
-5.40053964017e-05
-0.00318135835763
-6.0566054103e-05
-0.00311437789686
-6.69910231636e-05
-0.0030411565782
-7.32762511196e-05
-0.00296179466937
-7.93673575412e-05
-0.00287659728819
-8.52530316509e-05
-0.00278573191367
-9.08657173372e-05
-0.00268960094684
-9.61880647296e-05
-0.00258845711175
-0.000101139658511
-0.00248281886879
-0.000105697737694
-0.00237304226698
-0.000109769046275
-0.002259779193
-0.000113325630415
-0.00214350694429
-0.000116262736745
-0.00202502310565
-0.000118549842856
-0.00190493521509
-0.000120077777298
-0.00178418024463
-0.000120824207822
-0.00166347725079
-0.000120693229523
-0.00154385761482
-0.000119691614707
-0.0014260871768
-0.000117761653423
-0.00131119943792
-0.00011496187071
-0.00119990028292
-0.000111292576826
-0.00109310165152
-0.000106874988271
-0.000991328898688
-0.000101770724894
-0.000895255033613
-9.61524410554e-05
-0.000805140394907
-9.01198576272e-05
-0.000721363380056
-8.38575167075e-05
-0.000643916022926
-7.74615324041e-05
-0.000572908952211
-7.1088804972e-05
-0.000508123934767
-6.48078656399e-05
-0.000449468633191
-5.8737205859e-05
-0.000396580024253
-5.2917723535e-05
-0.000349227213058
-4.7433344435e-05
-0.000306960896892
-4.22984084742e-05
-0.000269475997374
-3.7562770479e-05
-0.000236295882118
-3.32127877481e-05
-0.00020710251537
-2.92681498448e-05
-0.000181440433717
-2.5694436795e-05
-0.000159019084135
-2.24937256583e-05
-0.000139428772014
-1.96226659369e-05
-0.000122422950553
-1.70767790758e-05
-0.000107645294073
-1.48107376553e-05
-9.48974809258e-05
-1.2818027606e-05
-8.38787233365e-05
-1.10528032437e-05
-7.44440903069e-05
-9.50402029146e-06
-6.63662468427e-05
-8.11307609982e-06
-5.96127212631e-05
-6.82219892148e-06
-5.42841460725e-05
-5.36518386151e-06
-4.97249760322e-05
-4.62817259404e-06
-4.52070771055e-05
-4.56239375446e-06
-4.12419175839e-05
-4.04095274586e-06
-3.78346906096e-05
-3.46732800905e-06
-3.44468638309e-05
-3.48078775708e-06
-3.06644139172e-05
-3.86941316848e-06
-2.6754385918e-05
-4.03285431797e-06
-2.2689566274e-05
-4.19045055731e-06
-1.80238353862e-05
-4.81231457588e-06
-1.24409123943e-05
-5.75716264917e-06
-6.072413625e-06
-6.58684926884e-06
-6.18067287457e-06
-0.000210302210505
0.00040914981577
-0.000433239131253
0.000431026142414
-0.000653919236042
0.000427410207479
-0.000871111053237
0.000420907220625
-0.00108382202798
0.000412339561548
-0.00129109345817
0.000401887859381
-0.00149206612847
0.000389738994213
-0.00168596357339
0.000376101406396
-0.00187214019019
0.000361185111473
-0.00205003888007
0.00034520814934
-0.00221923535472
0.000328375246246
-0.00237938214046
0.000310888068419
-0.00253025327952
0.000292924322665
-0.00267167909948
0.000274652160806
-0.00280359338212
0.000256210347067
-0.00292596250024
0.000237726260379
-0.00303883645365
0.000219296982541
-0.00314227514257
0.000201009796467
-0.00323640385692
0.000182923728976
-0.00332133849195
0.000165091416191
-0.00339724538998
0.000147540696667
-0.00346426645404
0.000130296947575
-0.00352258284125
0.00011336449932
-0.00357234032916
9.67489075971e-05
-0.00361371631556
8.04381569013e-05
-0.00364684539169
6.4424644045e-05
-0.00367188931561
4.86862100198e-05
-0.00368896248639
3.32078906764e-05
-0.0036982049377
1.79628179224e-05
-0.00369970708329
2.93394195114e-06
-0.00369358663336
-1.19052066676e-05
-0.00367991217351
-2.65684380626e-05
-0.00365878401616
-4.10767439142e-05
-0.00363025526471
-5.54352987318e-05
-0.00359441904803
-6.96543516124e-05
-0.00355132552057
-8.37249467707e-05
-0.00350107666158
-9.76417380807e-05
-0.00344373705684
-0.000111376828226
-0.00337943804924
-0.000124905640121
-0.00330827956181
-0.0001381781738
-0.00323044532866
-0.000151149091093
-0.00314609269391
-0.000163745442489
-0.003055480705
-0.00017590193791
-0.00295884515056
-0.000187523797725
-0.00285654140325
-0.00019852770519
-0.00274890307706
-0.000208798361302
-0.00263640128943
-0.000218235362751
-0.00251948687382
-0.000226702850524
-0.00239876635751
-0.00023408302447
-0.0022748281221
-0.00024022055764
-0.0021484316043
-0.000244985035146
-0.00202031590206
-0.00024821408132
-0.0018913934418
-0.000249787420281
-0.00176253727448
-0.00024957139602
-0.00163476897549
-0.000247502432321
-0.00150902471784
-0.000243529382695
-0.00138633453792
-0.000237696297936
-0.00126757568898
-0.000230077110203
-0.00115364757899
-0.000220849870488
-0.00104522613819
-0.000210221660213
-0.000942944004761
-0.000198485147801
-0.00084717060707
-0.000185928101505
-0.000758210863728
-0.000172872447663
-0.000676126005337
-0.000159587589101
-0.00060093633892
-0.000146338216726
-0.000532468793208
-0.000133322597022
-0.000470538354037
-0.000120730607677
-0.000414811365781
-0.000108695924025
-0.000364963974586
-9.73446379409e-05
-0.000320563887665
-8.67508875539e-05
-0.000281215217374
-7.69741805902e-05
-0.000246454428889
-6.802481338e-05
-0.000215881712973
-5.99015092212e-05
-0.000189058566437
-5.25671764344e-05
-0.000165623615525
-4.59875783169e-05
-0.000145188712762
-4.01063920043e-05
-0.000127444474195
-3.48792627494e-05
-0.000112058501246
-3.02457650286e-05
-9.87743214912e-05
-2.61605763582e-05
-8.73122922599e-05
-2.25645950237e-05
-7.74607142338e-05
-1.94142107565e-05
-6.89729280962e-05
-1.66516820072e-05
-6.16214401366e-05
-1.42324694787e-05
-5.49367036488e-05
-1.21012636967e-05
-4.91901433543e-05
-1.04324751292e-05
-4.42197315053e-05
-9.58928566038e-06
-4.01102781953e-05
-8.21756871945e-06
-3.66830927605e-05
-6.9634139762e-06
-3.35026471869e-05
-6.74289217363e-06
-3.02142406936e-05
-7.25268539075e-06
-2.64849146229e-05
-7.87667580676e-06
-2.24338556121e-05
-8.36553275259e-06
-1.80312691296e-05
-9.36310307486e-06
-1.28080887896e-05
-1.11539590317e-05
-6.3386150522e-06
-1.32509124166e-05
-1.2619093037e-05
-0.000213209523183
0.000622316323208
-0.000438401255372
0.000656173029138
-0.000661546147878
0.000650510068625
-0.000881134195737
0.000640450349553
-0.00109608250237
0.000627242250383
-0.00130540032133
0.000611160590813
-0.00150820201474
0.00059249461063
-0.00170370835111
0.000571562347162
-0.00189126366992
0.000548693843771
-0.00207032380954
0.000524222474638
-0.00224046567747
0.000498469959798
-0.00240136590663
0.000471742015968
-0.00255280634513
0.000444317046495
-0.00269464742163
0.000416446494201
-0.00282683264331
0.000388347336969
-0.00294935995692
0.000360206428624
-0.00306228751291
0.000332175896575
-0.00316570525682
0.000304380098371
-0.00325974312976
0.000276912685703
-0.00334454406229
0.000249844765895
-0.00342027492744
0.000223222567984
-0.0034871012959
0.000197075793017
-0.00354520089756
0.000171415249369
-0.00359474003685
0.00014624082971
-0.00363588917317
0.000121538857399
-0.00366880070333
9.72895464956e-05
-0.00369362631715
7.34640870432e-05
-0.0037104958397
5.00316907717e-05
-0.00371953627485
2.69565382763e-05
-0.0037208514739
4.20466291834e-06
-0.00371454299374
-1.82590662618e-05
-0.00370069034363
-4.04639667795e-05
-0.00367937416041
-6.24366310495e-05
-0.00365065678492
-8.41935908496e-05
-0.00361460819633
-0.000105744660813
-0.00357128648321
-0.000127085259072
-0.00352076708365
-0.000148200566006
-0.00346312231808
-0.000169057558441
-0.00339845419189
-0.000189610698787
-0.00332687170023
-0.000209793785405
-0.00324852725028
-0.000229527905563
-0.00316359013039
-0.000248712851231
-0.00307228651089
-0.000267237587615
-0.00297486770949
-0.000284970421567
-0.00287165421942
-0.000301771504224
-0.00276299840683
-0.000317480400576
-0.00264933375529
-0.000331929739192
-0.00253113296585
-0.000344929515691
-0.00240896380513
-0.000356282510681
-0.00228344348994
-0.000365767610696
-0.00215529914179
-0.000373161103068
-0.00202531579609
-0.000378225769545
-0.00189439238793
-0.000380744090407
-0.00176347522656
-0.000380518398666
-0.00163359781643
-0.000377414573533
-0.00150579410865
-0.000371364160954
-0.00138112309786
-0.000362403580616
-0.00126056817157
-0.000350664665443
-0.0011450557069
-0.000336401165677
-0.0010353486301
-0.000319964163523
-0.000932072743742
-0.000301803540444
-0.000835635220021
-0.000282406189897
-0.000746287793465
-0.0002622672709
-0.000664091950307
-0.000241830518345
-0.000588999442555
-0.000221483661685
-0.000520832568605
-0.000201542769858
-0.000459345576451
-0.000182275386356
-0.000404200661354
-0.000163897783401
-0.000355017090761
-0.000146588351681
-0.000311352307023
-0.000130472814721
-0.000272756506256
-0.000115629165034
-0.000238758823187
-0.000102077722328
-0.000208918402023
-8.9798316664e-05
-0.000182802874226
-7.87357105281e-05
-0.000160023651494
-6.88211520563e-05
-0.000140207586476
-5.9974443524e-05
-0.000123024887567
-5.2115948078e-05
-0.000108161025721
-4.51620416867e-05
-9.53420405929e-05
-3.90342486214e-05
-8.43062680075e-05
-3.36537960686e-05
-7.48253548386e-05
-2.89506796152e-05
-6.6670710356e-05
-2.486076079e-05
-5.96184706424e-05
-2.13414152764e-05
-5.33344440385e-05
-1.84395178002e-05
-4.7876727818e-05
-1.5947413481e-05
-4.33254322472e-05
-1.42017453324e-05
-3.89127770009e-05
-1.26987447372e-05
-3.46920008063e-05
-1.12561142158e-05
-3.13094257298e-05
-1.02072492393e-05
-2.85987582578e-05
-1.00601317247e-05
-2.49566906699e-05
-1.16335085967e-05
-2.04717191493e-05
-1.29774597219e-05
-1.57813414926e-05
-1.41907245385e-05
-1.05970326615e-05
-1.64957573801e-05
-5.46878347999e-06
-1.85518271493e-05
-1.81744205973e-05
-0.000216655190053
0.000838928219006
-0.000445205837174
0.000884679629938
-0.000671639448049
0.00087689833152
-0.000894342912258
0.00086310870172
-0.00111216597792
0.000845019693139
-0.00132407338962
0.000823022465986
-0.00152914896117
0.00079752420811
-0.00172660127796
0.00076896871059
-0.00191577071925
0.00073781682514
-0.00209612465562
0.000704529957596
-0.0022672552485
0.000669553536815
-0.00242886638475
0.000633306156977
-0.00258076608057
0.000596169155456
-0.00272284934355
0.000558482231775
-0.00285508903824
0.000520538921708
-0.00297751818167
0.000482587581007
-0.00309022195885
0.000444831130438
-0.00319332159344
0.000407431388579
-0.00328696882938
0.000370511090732
-0.00337133224357
0.000334159643823
-0.00344659443825
0.000298435827702
-0.00351294080331
0.000263373636369
-0.00357055908473
0.000228984727791
-0.00361963021109
0.000195263699477
-0.00366032972269
0.000162189963745
-0.0036928202046
0.000129732324001
-0.00371725415704
9.7850340611e-05
-0.00373376769933
6.64983991563e-05
-0.00374248467413
3.56268427956e-05
-0.0037435114809
5.18584628919e-06
-0.00373694244091
-2.4873395183e-05
-0.00372285578405
-5.45946789563e-05
-0.0037013205888
-8.40153846751e-05
-0.00367239402908
-0.000113162274292
-0.00363613016413
-0.000142049985681
-0.00359257847836
-0.000170676777348
-0.00354179469613
-0.000199023378816
-0.00348384030387
-0.000227049170043
-0.00341879517266
-0.000254692144809
-0.00334675723561
-0.000281866116917
-0.00326785617203
-0.000308462467841
-0.00318225194941
-0.000334348643097
-0.00309014867356
-0.000359371720185
-0.00299179078344
-0.000383357423559
-0.00288747686256
-0.000406114328724
-0.00277755345168
-0.00042743142402
-0.00266243038869
-0.000447080964389
-0.00254257440604
-0.000464813030362
-0.00241852902909
-0.000480356722199
-0.00229091056066
-0.000493414682198
-0.00216043294143
-0.000503669052996
-0.00202790262215
-0.00051078608564
-0.00189423840728
-0.000514440201972
-0.00176045066589
-0.000514337761618
-0.00162763726793
-0.000510260943369
-0.00149693673169
-0.000502097391562
-0.00136950161642
-0.000489872648288
-0.00124643631402
-0.000473763497385
-0.00112876081246
-0.000454111850947
-0.00101733421246
-0.000431426416142
-0.000912816848209
-0.000406359552595
-0.000815626229629
-0.00037963684361
-0.000725964750707
-0.000351973166395
-0.000643842675976
-0.000323999726167
-0.000569140832878
-0.000296237508392
-0.000501634617636
-0.000269103715868
-0.000441024510737
-0.000242943888552
-0.000386935616826
-0.000218046564996
-0.000338932732788
-0.000194652116441
-0.000296528409012
-0.000172937201314
-0.000259214461659
-0.000153001993584
-0.000226482186036
-0.000134866103084
-0.000197853621026
-0.00011848183392
-0.000172883791259
-0.000103758079771
-0.000151170241929
-9.05871011863e-05
-0.000132341604688
-7.88547059386e-05
-0.000116062487038
-6.84475283293e-05
-0.000102024857671
-5.92521774742e-05
-8.99532853885e-05
-5.1159606674e-05
-7.95965258917e-05
-4.40645143787e-05
-7.07320983174e-05
-3.78700737841e-05
-6.31584058238e-05
-3.24897576404e-05
-5.66985482394e-05
-2.78570165062e-05
-5.11777438835e-05
-2.40165160719e-05
-4.60451415492e-05
-2.11384608328e-05
-4.12996943549e-05
-1.90122545484e-05
-3.68609474742e-05
-1.72088916254e-05
-3.29373898951e-05
-1.52562977692e-05
-2.89682125934e-05
-1.42611649698e-05
-2.48730321648e-05
-1.42508203246e-05
-2.18885464091e-05
-1.47255676236e-05
-1.76694065831e-05
-1.73196719662e-05
-1.26496813968e-05
-1.93449185696e-05
-8.40415206074e-06
-2.08766324189e-05
-4.40900244448e-06
-2.26951910296e-05
-2.26653841981e-05
-0.000221243263283
0.00106012832226
-0.000454479998617
0.00111787084946
-0.000685424179004
0.00110779753107
-0.000912369061966
0.00109000803962
-0.00113408823198
0.00106669328765
-0.00134948974715
0.00103837815458
-0.00155761933165
0.00100560775751
-0.00175766820029
0.000968971306495
-0.00194897564508
0.000929077712521
-0.0021310245131
0.00088653199446
-0.00230343312238
0.000841914997411
-0.00246594210765
0.000795767705258
-0.00261840048751
0.000748579783579
-0.0027607490786
0.000700782792952
-0.00289300544133
0.000652746966653
-0.00301524789065
0.000604781474013
-0.00312760239109
0.000557136841238
-0.00323022930903
0.000510009340845
-0.00332331350549
0.000463546163203
-0.0034070543822
0.000417851311165
-0.00348165916066
0.000372991339471
-0.00354733584316
0.000329001078763
-0.00360428905908
0.000285888764985
-0.00365271523439
0.000243640860343
-0.00369280029607
0.000202226213432
-0.00372471639489
0.00016159992982
-0.00374862092323
0.00012170673038
-0.0037646543679
8.2484198812e-05
-0.00377294039476
4.38657464632e-05
-0.00377358470626
5.7837130896e-06
-0.00376667623251
-3.18276215474e-05
-0.00375228715489
-6.90286306501e-05
-0.00373047554624
-0.000105870995616
-0.00370128686115
-0.000142393880004
-0.0036647584207
-0.000178620301514
-0.00362092265288
-0.000214553131788
-0.00356981363456
-0.000250171769923
-0.00351147199821
-0.00028542870783
-0.00344595319268
-0.000320247521326
-0.00337333324935
-0.000354521027327
-0.00329371766205
-0.000388111664864
-0.00320724643774
-0.000420851864315
-0.00311410197298
-0.000452546977428
-0.00301451173466
-0.000482977061945
-0.00290875424399
-0.000511900495676
-0.00279715935222
-0.000539054162052
-0.00268011442395
-0.000564153952316
-0.00255806562247
-0.000586889627686
-0.00243153053864
-0.000606920629099
-0.00230110639993
-0.00062386777408
-0.00216749286127
-0.000637312716175
-0.00203150647134
-0.00064680353939
-0.00189409899659
-0.000651879307727
-0.00175635656886
-0.000652113068141
-0.00161948087018
-0.000647169923754
-0.00148474741218
-0.000636864688084
-0.0013534580086
-0.00062119546757
-0.00122688131656
-0.000600373398328
-0.00110619822319
-0.000574828925432
-0.000992404804537
-0.000545252804742
-0.000886230992047
-0.000512569376897
-0.000788086087045
-0.000477819268826
-0.000698094850483
-0.000442006754921
-0.000616164683533
-0.000405976841429
-0.000542075602684
-0.000370378413258
-0.000475531179709
-0.000335706009428
-0.000416171843017
-0.00030236415247
-0.000363572774077
-0.00027070954647
-0.000317234401108
-0.000241054730438
-0.000276595392255
-0.000213637938625
-0.000241069032969
-0.000188587995346
-0.000210081471847
-0.000165909376542
-0.000183110245267
-0.000145505839699
-0.000159692401269
-0.000127227243824
-0.000139417085099
-0.000110912672846
-0.000121913891227
-9.64085263792e-05
-0.000106846975689
-8.35657758705e-05
-9.39130849155e-05
-7.22385586566e-05
-8.28402768406e-05
-6.22857866641e-05
-7.33865396698e-05
-5.35726506092e-05
-6.53400672671e-05
-4.59715073665e-05
-5.85218115957e-05
-3.93633422533e-05
-5.27918102346e-05
-3.3643572107e-05
-4.81537775539e-05
-2.87113515077e-05
-4.36925804371e-05
-2.56616172586e-05
-3.93785692762e-05
-2.33949087754e-05
-3.50980584672e-05
-2.15640356558e-05
-3.01763840946e-05
-2.0258061108e-05
-2.56273888382e-05
-1.88967417442e-05
-2.14199629e-05
-1.85546020535e-05
-1.80012668259e-05
-1.82490133714e-05
-1.50317803195e-05
-2.04051143257e-05
-1.07027319242e-05
-2.37932083762e-05
-6.63998102001e-06
-2.50659314624e-05
-3.4055625059e-06
-2.60649783304e-05
-2.61372401023e-05
-0.000227122868809
0.00128720764925
-0.000466432399444
0.00135713626129
-0.000703200443934
0.00134452001574
-0.000935596844544
0.00132235905093
-0.0011623009049
0.00129335151485
-0.00138214880822
0.00125818013031
-0.00159414050493
0.00121755321767
-0.00179744706617
0.00117223141922
-0.00199141100927
0.00112299485792
-0.00217553856078
0.00107061248689
-0.00234948704044
0.00101581603095
-0.00251304759145
0.000959280537988
-0.00266612659247
0.000901610668344
-0.00280872559472
0.000843333427125
-0.00294092273803
0.000784895364399
-0.00306285467151
0.000726664454512
-0.00317470138779
0.000668934273741
-0.00327667226154
0.000611930793025
-0.00336899529431
0.000555819519196
-0.00345190740462
0.000500713698233
-0.00352564757585
0.000446681632072
-0.00359045053188
0.000393754224899
-0.0036465427263
0.00034193112081
-0.0036941383267
0.000291186825351
-0.00373343702315
0.000241475392949
-0.00376462145054
0.000192735197886
-0.00378785610942
0.000144892517145
-0.00380328572065
9.78654625619e-05
-0.00381103494168
5.15670894031e-05
-0.00381120755117
5.90914921361e-06
-0.00380388704161
-3.91946364924e-05
-0.00378913693845
-8.38243473882e-05
-0.00376700271018
-0.000128049963768
-0.00373751374106
-0.000171926504904
-0.00370068717489
-0.000215489431957
-0.0036565321277
-0.000258749476007
-0.00360505583717
-0.00030168805431
-0.00354627027744
-0.000344252834554
-0.00348020029416
-0.00038635457486
-0.00340689183234
-0.000427865050675
-0.003326420514
-0.00046861693131
-0.00323889942373
-0.000508405409501
-0.00314448558789
-0.00054699172247
-0.00304338461412
-0.000584107720563
-0.00293585312855
-0.000619460629518
-0.0028221995345
-0.00065273587246
-0.00270278470109
-0.000683596658605
-0.00257802450503
-0.000711678033315
-0.00244839869873
-0.000736575163787
-0.00231446719229
-0.000757828920358
-0.00217689889062
-0.000774911840853
-0.00203650458475
-0.000787229544462
-0.00189427228919
-0.000794145355483
-0.00175137999085
-0.000795040929554
-0.00160917531451
-0.000789410239916
-0.0014691168729
-0.000776959539897
-0.00133271622866
-0.00075763136652
-0.0012014647867
-0.000731658914579
-0.00107679250427
-0.000699534190113
-0.000959914752952
-0.000662161805089
-0.000851670800767
-0.000620846663228
-0.000752437962948
-0.000577086808042
-0.000662194792764
-0.000532289548519
-0.000580666580481
-0.00048755185749
-0.000507484010823
-0.000443614805146
-0.000442257711443
-0.000400993068659
-0.000384573821867
-0.000360113170143
-0.000333958300537
-0.000321393442523
-0.00028983672798
-0.00028524317617
-0.00025154291191
-0.000251995114745
-0.000218371185871
-0.000221817921386
-0.000189650373079
-0.000194683020004
-0.000164802603718
-0.000170403744259
-0.000143349836252
-0.000148728354205
-0.000124885564408
-0.000129425496438
-0.00010904425583
-0.000112299682004
-9.54935897964e-05
-9.71677054084e-05
-8.39351669707e-05
-8.38494835627e-05
-7.41032421092e-05
-7.21717839642e-05
-6.5762803259e-05
-6.19678465593e-05
-5.87096293602e-05
-5.30802166115e-05
-5.27669631022e-05
-4.53621280305e-05
-4.77385150619e-05
-3.87288905465e-05
-4.3350524533e-05
-3.3157995907e-05
-3.9190678693e-05
-2.98853411923e-05
-3.50152838483e-05
-2.76395048575e-05
-3.12186143242e-05
-2.54364654062e-05
-2.77041641811e-05
-2.38554462448e-05
-2.35161818046e-05
-2.31783978474e-05
-1.91182150352e-05
-2.30517363856e-05
-1.4553060361e-05
-2.29124446065e-05
-1.15819278197e-05
-2.3480833095e-05
-9.04214016474e-06
-2.64506425209e-05
-5.59068544326e-06
-2.86296456207e-05
-2.82858261724e-06
-2.89418896388e-05
-2.90309367975e-05
-0.000234440963699
0.00152160537494
-0.000481325266954
0.00160397473346
-0.000725338125397
0.00158848783008
-0.000964490357093
0.00156146551434
-0.00119733909179
0.00152615449862
-0.00142263200332
0.00148342693563
-0.00163931459257
0.00143418949943
-0.00184653778253
0.00137940795674
-0.00204365430473
0.0013200644422
-0.00223020647963
0.00125711733104
-0.00240590712918
0.00119146903242
-0.0025706166766
0.00112394201799
-0.00272431819609
0.00105526380734
-0.00286709292202
0.000986059356873
-0.00299909700179
0.000916850366219
-0.00312054110684
0.000848059100112
-0.00323167262608
0.000780016109189
-0.00333276132414
0.000712969487436
-0.00342408748545
0.000647095532862
-0.0035059330623
0.000582508897587
-0.00357857455796
0.000519272711285
-0.00364227809641
0.000457407232931
-0.00369729540003
0.000396897981574
-0.00374386120837
0.00033770221887
-0.0037821909798
0.00027975498592
-0.00381247951396
0.000222973745392
-0.00383489950205
0.000167262919893
-0.0038496007265
0.000112517477222
-0.00385670911044
5.86268455746e-05
-0.00385632639228
5.47837734983e-06
-0.00384852982859
-4.70384810588e-05
-0.00383337277342
-9.90278953744e-05
-0.00381088568873
-0.000150582568478
-0.00378107839134
-0.000201778313984
-0.00374394332182
-0.000252667839527
-0.0036994603914
-0.000303274514876
-0.00364760325977
-0.000353585922378
-0.00358834725592
-0.000403548144239
-0.00352167855962
-0.000453061044953
-0.00344760436469
-0.000501975428818
-0.00336616313533
-0.000550092695852
-0.00327743420314
-0.000597167237776
-0.00318154520453
-0.000642912020526
-0.00307867680087
-0.000687006074285
-0.00296906318323
-0.000729103118066
-0.00285298960813
-0.000768837718202
-0.00273078787769
-0.000805826736142
-0.00260283348736
-0.000839660817258
-0.00246955253218
-0.000869885895176
-0.00233143905574
-0.000895972475746
-0.0021890995853
-0.00091728364355
-0.00204330866592
-0.000933055642859
-0.00189507724785
-0.000942414150223
-0.00174569569312
-0.000944462525435
-0.0015967137234
-0.000938434111089
-0.00144982968496
-0.000923884863757
-0.0013068366071
-0.000900661335051
-0.00116950704687
-0.000869026914196
-0.00103965818668
-0.000829415767096
-0.000918875153644
-0.000782975415992
-0.000808176089675
-0.000731577448239
-0.000707855857905
-0.000677436342948
-0.000617610785338
-0.000622574418177
-0.000536838330435
-0.000568368813371
-0.000464949859802
-0.000515559198145
-0.000401458160548
-0.000464547620422
-0.000345927005939
-0.00041571290708
-0.000297862061055
-0.000369529312529
-0.00025661140502
-0.000326561754361
-0.000221354365052
-0.000287311964257
-0.000191200176164
-0.000252025956742
-0.000165326276393
-0.00022060510827
-0.000143086136451
-0.00019268853894
-0.000124011645483
-0.000167849765756
-0.000107726206773
-0.000145759245921
-9.38791061792e-05
-0.00012619642948
-8.21431493879e-05
-0.000108955596392
-7.22264345547e-05
-9.38200652324e-05
-6.38699418705e-05
-8.05830114709e-05
-5.68484553463e-05
-6.90457014841e-05
-5.09708436831e-05
-5.90143713974e-05
-4.60879989863e-05
-5.03021725167e-05
-4.21162864984e-05
-4.27588845899e-05
-3.82970039591e-05
-3.7038527572e-05
-3.45221250125e-05
-3.37260304023e-05
-3.10883811859e-05
-3.11453166102e-05
-2.73457745432e-05
-2.92570297986e-05
-2.36886079261e-05
-2.75985377187e-05
-1.9854178924e-05
-2.71056691533e-05
-1.64612902202e-05
-2.65417451941e-05
-1.25838993715e-05
-2.68919425222e-05
-8.9302986901e-06
-2.7235149677e-05
-7.13321715265e-06
-2.83435089493e-05
-4.63601021787e-06
-3.12359104648e-05
-2.34018966913e-06
-3.13501535474e-05
-3.14251593803e-05
-0.000243373819929
0.00176493558687
-0.00049949646671
0.0018600534796
-0.000752322578569
0.00184126831658
-0.000999654337719
0.00180875187916
-0.00123989626962
0.00176635050241
-0.00147168701082
0.00171517162424
-0.00169391026408
0.00165636633056
-0.00190569954547
0.00159115054456
-0.00210642994497
0.00152074773437
-0.00229569814647
0.00144633809204
-0.00247329530044
0.0013690182868
-0.00263917531085
0.00128977377987
-0.00279342258361
0.00120946235781
-0.00293622065944
0.00112880837909
-0.00306782446106
0.00104840465829
-0.00318853597347
0.000968720816005
-0.00329868486211
0.000890114792201
-0.00339861267024
0.000812846872934
-0.00348866142778
0.000737093534684
-0.0035691647754
0.000662961366645
-0.00364044228712
0.000590499114872
-0.00370279502908
0.000519708862865
-0.00375650316995
0.000450554912458
-0.00380182382772
0.000382971804875
-0.00383899016221
0.000316870307327
-0.00386821009187
0.000252142964098
-0.00388966579915
0.00018866815494
-0.00390351259656
0.000126314285333
-0.00390987843272
6.49431296774e-05
-0.00390886283444
4.41390513789e-06
-0.00390053662786
-5.54129080206e-05
-0.00388494155675
-0.000114670302438
-0.00386209111864
-0.000173479462956
-0.00383197196941
-0.0002319428275
-0.00379454722421
-0.000290136834665
-0.00374976111118
-0.000348103585484
-0.00369754600836
-0.000405842637457
-0.00363783136934
-0.000463302933692
-0.00357055477254
-0.000520376217521
-0.00349567454018
-0.000576892645274
-0.00341318265827
-0.00063261978343
-0.00332311742498
-0.00068726602637
-0.00322557264227
-0.000740488580484
-0.00312070326665
-0.000791905923621
-0.00300872335244
-0.000841112341462
-0.00288989881913
-0.000887691198079
-0.00276453332589
-0.000931221050224
-0.00263295600503
-0.000971267611826
-0.00249551737832
-0.00100735500135
-0.0023526069859
-0.00103891467122
-0.00220471155461
-0.00106521441098
-0.00205250641637
-0.00108529882625
-0.00189699018114
-0.00109797179227
-0.00173958616042
-0.00110191592375
-0.00158213530553
-0.00109593282258
-0.00142664603132
-0.00107941694281
-0.00127529146084
-0.00105206086276
-0.00113010631525
-0.00101424897241
-0.000993554802079
-0.000966002210758
-0.000867879271629
-0.000908681359915
-0.000754411867642
-0.000845069911046
-0.000653271052863
-0.00077860791444
-0.000563568929581
-0.000712305384786
-0.000484125421035
-0.000647861356713
-0.000414019652251
-0.000585717269816
-0.000352715429309
-0.000525918551004
-0.000299842113037
-0.00046865299315
-0.000254973192251
-0.000414470703535
-0.000217390692388
-0.000364208667424
-0.000186039876402
-0.000318716867482
-0.000159711994007
-0.000278401831808
-0.000137335899139
-0.000243020837759
-0.000118191292657
-0.00021187504775
-0.000101881265312
-0.000184206087189
-8.81252416998e-05
-0.000159563823392
-7.65985879544e-05
-0.000137775007997
-6.69690513743e-05
-0.000118638593861
-5.89518567085e-05
-0.000101892629579
-5.22961141441e-05
-8.7295871545e-05
-4.67811731648e-05
-7.461847339e-05
-4.22206968885e-05
-6.36335588562e-05
-3.84585097973e-05
-5.41234174098e-05
-3.53519911336e-05
-4.59259673725e-05
-3.22308208351e-05
-4.02231825586e-05
-2.92868700791e-05
-3.67389416305e-05
-2.65435284999e-05
-3.39629289027e-05
-2.35861946251e-05
-3.2295435197e-05
-2.00846127119e-05
-3.11877472455e-05
-1.67367960008e-05
-3.05469769002e-05
-1.31682827694e-05
-3.02072377423e-05
-1.05915455075e-05
-2.95652498868e-05
-7.67510869531e-06
-3.02488610736e-05
-5.420415251e-06
-3.07002936646e-05
-3.89888772936e-06
-3.28535162725e-05
-1.91284242842e-06
-3.34333791279e-05
-3.33937368886e-05
-0.000254141446001
0.00201903406047
-0.000521384825918
0.00212725107478
-0.0007847799165
0.00210461865826
-0.00104186736204
0.00206579369977
-0.00129085881516
0.00201529635903
-0.00153026273378
0.00195452950681
-0.00175889453048
0.00188495184423
-0.00197587857124
0.00180808787438
-0.00218063116176
0.0017254532646
-0.0023728302501
0.00163848963466
-0.00255237600262
0.00154851610558
-0.00271934806703
0.00145669739059
-0.00287396272485
0.00136402817481
-0.00301653392664
0.0012713302193
-0.00314743906014
0.00117926007356
-0.00326709141054
0.00108832295853
-0.00337591819385
0.000998891067983
-0.00347434485551
0.000911222598207
-0.00356278353161
0.000825481056604
-0.00364162598811
0.000741752330407
-0.00371123876433
0.000660060288074
-0.00377196099632
0.000580379272645
-0.0038241028697
0.000502644986022
-0.00386794548539
0.000426762549875
-0.00390374038349
0.000352613514933
-0.00393170974529
0.000280060739465
-0.0039520457678
0.000208952950204
-0.00396491037361
0.000139127966151