/*--------------------------------*- C++ -*----------------------------------*\
| =========                 |                                                 |
| \\      /  F ield         | OpenFOAM: The Open Source CFD Toolbox           |
|  \\    /   O peration     | Version:  v1906                                 |
|   \\  /    A nd           | Web:      www.OpenFOAM.com                      |
|    \\/     M anipulation  |                                                 |
\*---------------------------------------------------------------------------*/
FoamFile
{
    version     2.0;
    format      ascii;
    class       volScalarField;
    location    "534";
    object      pa;
}
// * * * * * * * * * * * * * * * * * * * * * * * * * * * * * * * * * * * * * //

dimensions      [0 2 -2 0 0 0 0];


internalField   nonuniform List<scalar> 
9216
(
915.96988135
915.664074812
915.031436064
914.066466855
912.774576362
911.161826346
909.235760599
907.005290684
904.480549053
901.672772417
898.594150983
895.25771049
891.677155025
887.866754341
883.841189058
879.615451795
875.204702049
870.624187087
865.88911093
861.014577907
856.015477339
850.906450005
845.701787969
840.415422291
835.060836103
829.651070975
824.198650905
818.715604543
813.213397894
807.702969851
802.194671539
796.698314842
791.22311731
785.777756107
780.370318861
775.00836827
769.698895112
764.44838826
759.262790618
754.14757399
749.107696983
744.147683449
739.271581748
734.483045596
729.785294144
725.18119419
720.673220615
716.263538965
711.953965795
707.746050733
703.641036368
699.639938957
695.743507538
691.952302597
688.26665422
684.686738131
681.212532821
677.843892562
674.580503627
671.421954033
668.367689094
665.417077832
662.569368273
659.823750568
657.17931252
654.635099555
652.190071071
649.843157404
647.593217566
645.439093363
643.379569078
641.413422827
639.539388658
637.756205149
636.062580338
634.457237467
632.938883032
631.506249491
630.158066665
628.893101136
627.710131115
626.607982213
625.585505834
624.641610931
623.775245888
622.985425775
622.271217493
621.631761688
621.066260008
620.573988894
620.154282596
619.806524732
619.530088453
619.324152922
619.185448067
619.129388604
916.274691958
915.967156737
915.332871058
914.363544158
913.065447769
911.444927107
909.509696141
907.268807844
904.732538173
901.912265049
898.820327439
895.469894133
891.87481647
888.049499882
884.00876169
879.767714886
875.3416387
870.745880667
865.995744352
861.106412499
856.092853331
850.969764868
845.751498916
840.452024765
835.084868651
829.663094139
824.199254436
818.705386711
813.192974871
807.672955494
802.155689404
796.650975973
791.168031998
785.715516296
780.301512776
774.933560054
769.6186401
764.36321341
759.173210952
754.054073282
749.010745094
744.04771724
739.169023106
734.378282595
729.67869963
725.073107211
720.563965416
716.153406717
711.843233887
707.634964827
703.52982984
699.528815294
695.632659817
691.841896222
688.156846279
684.577660473
681.104311163
677.736629887
674.474298893
671.31688588
668.263834039
665.314494291
662.468114114
659.723867469
657.080842799
654.538070916
652.094512626
649.749084872
647.500648445
645.348032674
643.290023647
641.32538767
639.452860353
637.671168974
635.979022707
634.375133929
632.858209746
631.426972209
630.080151203
628.816503438
627.634806699
626.533877409
625.512566177
624.569773672
623.704447349
622.91559534
622.202284168
621.563650328
620.998898821
620.507312571
620.088253526
619.741177397
619.465661528
619.261523358
619.129243618
619.073282329
916.9087875
916.596521531
915.956474651
914.978444561
913.668802479
912.034029536
910.082034606
907.82208981
905.264709636
902.421520139
899.305116976
895.928924365
892.307048241
888.454137981
884.385246779
880.115706045
875.661000966
871.036663675
866.258168297
861.34084549
856.299798071
851.14983666
845.905414552
840.580582276
835.188939004
829.743603016
824.257176683
818.74172993
813.208776223
807.669266709
802.133575283
796.611501153
791.112261782
785.644503119
780.216297995
774.835162334
769.508058636
764.241416969
759.041142221
753.912638673
748.860820087
743.890136899
739.004588302
734.207751187
729.502793454
724.892503919
720.379306141
715.965288545
711.652218117
707.44157003
703.334540624
699.332075893
695.434883215
691.643458188
687.958094698
684.37890971
680.905851411
677.538721737
674.277182518
671.120775686
668.068927515
665.120966631
662.276126603
659.533562018
656.892349765
654.351503528
651.909974203
649.566663167
647.320422255
645.170066172
643.114372417
641.152093129
639.281955257
637.502672054
635.812943706
634.211468563
632.696944339
631.268079084
629.923592965
628.662228893
627.482754819
626.38397387
625.364727031
624.423902598
623.560439104
622.773333895
622.061646188
621.424504721
620.861111202
620.370747875
619.952783781
619.606688099
619.332051314
619.128643359
618.996699449
618.934679007
917.883607516
917.565895228
916.916846054
915.925219885
914.597583095
912.940647929
910.962617654
908.673101364
906.082981933
903.204273054
900.049969284
896.633894617
892.970549804
889.074965346
884.962558564
880.649001277
876.150094756
871.481658151
866.659425428
861.698956814
856.615558303
851.424215242
846.139532385
840.775686703
835.346384578
829.864830247
824.343696649
818.795106313
813.23061312
807.661193284
802.097236083
796.548543244
791.0243276
785.533218619
780.083267187
774.681957787
769.336217823
764.052434222
758.836466608
753.693667317
748.628897406
743.646549149
738.750564036
733.944456912
729.231335211
724.61392397
720.09458558
715.675344958
711.357909122
707.143691838
703.033832372
699.029218984
695.130506289
691.338137059
687.652357751
684.073238214
680.6006851
677.234459271
673.974186982
670.819374966
667.769419486
664.823619264
661.981182658
659.241238734
656.602842956
654.064986809
651.62660243
649.28657122
647.043727863
644.896868323
642.844753653
640.88611771
639.019671045
637.244108576
635.558113759
633.96036633
632.449546838
631.024344475
629.683461953
628.425623338
627.249579179
626.154114208
625.138052562
624.200265176
623.339674952
622.555263682
621.846077077
621.211231248
620.649917834
620.161410703
619.745072612
619.40036415
619.126854603
618.924240242
618.792599488
618.729342992
919.203185154
918.878468294
918.217114106
917.206868596
915.854597115
914.16734882
912.153736397
909.823835274
907.189036749
904.261889817
901.055938235
897.585556287
893.865785927
889.912179869
885.740651851
881.36733765
876.808466712
872.080247054
867.198762048
862.179880955
857.039180735
851.791880471
846.452785162
841.03624007
835.556092069
830.025659437
824.45770659
818.864425718
813.257421974
807.647704631
802.045680932
796.461155409
790.903331716
785.380816977
779.901630054
774.473213115
769.102443816
763.795651161
758.558631442
753.39666736
748.31454672
743.316583899
738.406640477
733.588148262
728.864131101
724.23722874
719.709719094
715.283542225
710.960322379
706.741391377
702.627809742
698.620388853
694.719710549
690.926147477
687.239880692
683.660917781
680.189108139
676.824158657
673.565646562
670.413032661
667.365671864
664.422824175
661.583663187
658.847285192
656.212716062
653.678918938
651.244799994
648.909215191
646.670975401
644.528852683
642.481585192
640.527883336
638.666434789
636.895910783
635.21497141
633.622272172
632.116469651
630.696228316
629.360226518
628.107163474
626.93576546
625.844792813
624.833046159
623.899373242
623.042675007
622.261912109
621.556110725
620.924368689
620.36586113
619.879846399
619.465671821
619.122779338
618.850709552
618.649105873
618.517978966
618.454558137
920.874168268
920.540589936
919.863475274
918.82934319
917.445468707
915.719355101
913.660155504
911.278556342
908.586612019
905.597567678
902.325678877
898.786031159
894.994363432
890.966898947
886.720186226
882.270952437
877.635970186
872.831939059
867.875381613
862.782554125
857.569370716
852.251340372
846.843514759
841.360446076
835.816152703
830.224092154
824.597139479
818.947571192
813.28705333
807.626634194
801.976740594
796.347178438
790.747136912
785.185193133
779.669323182
774.206914415
768.804779601
763.469173535
758.20581076
753.019885251
747.916090763
742.898642728
737.971300428
733.137390374
728.399829596
723.761149792
719.223521042
714.788776014
710.458433387
706.233721397
702.115600247
698.104784305
694.201762839
690.406820244
686.720054575
683.141395348
679.670619516
676.307366622
673.051152098
669.901379778
666.857352669
663.918283053
661.083301074
658.351462864
655.721757421
653.193113304
650.764404356
648.434455518
646.202047951
644.06592447
642.024794533
640.077339694
638.222218799
636.458073725
634.78353497
633.197227814
631.697778349
630.283820044
628.95400017
627.70698665
626.541474717
625.456193881
624.449914615
623.521455221
622.669688341
621.893547526
621.192033397
620.564219771
620.009259349
619.526389257
619.114936014
618.774319232
618.504053755
618.303751672
618.173395485
618.110242434
922.904996668
922.560498927
921.863928764
920.800296686
919.377404546
917.603339384
915.487943126
913.042676483
910.280430132
907.215323586
903.862502662
900.237938999
896.358236061
892.240445478
887.901896344
883.360039737
878.632309592
873.736000844
868.688164643
863.505520289
858.204382509
852.800602683
847.309521887
841.745933934
836.124056315
830.457507628
824.759290106
819.041776685
813.316701982
807.595157203
801.887588808
796.203800872
790.552961287
784.943607853
779.383661833
773.880441671
768.440679029
763.07053677
757.775628346
752.561038636
747.431345752
742.390643942
737.442567104
732.590313065
727.836668155
723.184032204
718.63444349
714.189603748
709.850902762
705.619442639
701.496061275
697.481355138
693.575700885
689.779275971
686.092077807
682.513941695
679.044557141
675.683482847
672.430160075
669.283924723
666.244017901
663.309595396
660.479735876
657.753448242
655.129678033
652.607313299
650.185189855
647.862096308
645.636778785
643.5079457
641.474272461
639.53440643
637.686971977
635.930575909
634.263813076
632.685272374
631.19354295
629.787220742
628.464915187
627.22525616
626.066900986
624.988541565
623.988911451
623.066792906
622.221023794
621.450504324
620.754203521
620.131165421
619.580514887
619.101462898
618.693311214
618.355455804
618.08738843
617.888699761
617.759358558
617.696703026
925.306058671
924.948383054
924.228356826
923.129164278
921.659266474
919.827482488
917.644513702
915.122781982
912.276210862
909.119994356
905.670366917
901.944378374
897.959678937
893.734318072
889.286560104
884.63471851
879.79701016
874.791430027
869.635646134
864.346913847
858.942007795
853.437169252
847.848066257
842.189763825
836.47670162
830.72267717
824.940833169
819.143648255
813.342930972
807.549817093
801.774771065
796.027589705
790.317410823
784.652721928
779.04137564
773.490605648
768.007044756
762.596744667
757.265197098
752.017356126
746.857661492
741.790062817
736.818044473
731.944651088
727.17251341
722.503874493
717.940615899
713.484283864
709.136115092
704.897062096
700.767817759
696.74883902
692.840369377
689.042460146
685.354990216
681.777684299
678.310129492
674.951790228
671.702021527
668.560080696
665.525137481
662.596282889
659.772536741
657.05285422
654.436131516
651.921210845
649.506884938
647.191901285
644.974966192
642.854748909
640.829885835
638.89898503
637.060630975
635.313389756
633.655814582
632.086451744
630.603846901
629.206551755
627.893130967
626.662169356
625.512279216
624.442107769
623.450344595
622.535729037
621.697057441
620.933190224
620.243058622
619.62567113
619.080119431
618.605583833
618.201337955
617.866752024
617.601295468
617.404541616
617.276446388
617.214444648
928.089870824
927.716525248
926.968661721
925.827287174
924.30167745
922.401558206
920.138690156
917.526673417
914.580690308
911.317236772
907.753858574
903.908896797
899.801247927
895.4501425
890.874944894
886.094976233
881.129361373
875.996900437
870.715964352
865.304413142
859.779534648
854.158000641
848.45583668
842.688401934
836.870375575
831.015747137
825.137809309
819.249152659
813.36166254
807.486518711
801.634199373
795.814486724
790.036477796
784.308596242
778.638610216
773.033650798
767.500232392
762.044274584
756.671125185
751.385584289
746.191929195
741.09394011
736.094926501
731.197753996
726.404871685
721.718339684
717.139856777
712.670787938
708.312191528
704.064845934
699.929275402
695.905774847
691.994433395
688.195156459
684.507686179
680.931620088
677.466427923
674.111466555
670.865993039
667.729175883
664.700104615
661.777797839
658.961209944
656.24923668
653.640719834
651.13445122
648.729176222
646.423597084
644.216376154
642.106139244
640.09147924
638.170960085
636.343121196
634.606482383
632.959549269
631.400819224
629.928787773
628.541955433
627.238834926
626.017958673
624.877886519
623.81721356
622.834578028
621.928669095
621.09823456
620.342088285
619.659117336
619.0482887
618.508655553
618.039362835
617.639652217
617.308866063
617.04645017
616.851959403
616.725335398
616.664118439
931.271287366
930.879495028
930.098941731
928.908067548
927.317150912
925.337033962
922.980774886
920.263407595
917.201635845
913.813518294
910.118164011
906.135443143
901.885718272
897.389599975
892.667729013
887.740586655
882.628334105
877.350681249
871.92678414
866.375169473
860.713683116
854.959458496
849.128899809
843.237674799
837.30071237
831.332201652
825.345590805
819.353585556
813.368148487
807.400500503
801.461127025
795.559785972
789.705520057
783.906673082
778.170910413
772.505240374
766.916037313
761.409065839
755.989505949
750.661978961
745.430574146
740.298876055
735.269992441
730.346582719
725.530886834
720.824754412
716.229673991
711.746802166
707.376992371
703.120823087
698.978625159
694.950507983
691.036384255
687.235993073
683.548921157
679.974622048
676.512433175
673.161590761
669.921242597
666.79045877
663.76824048
660.853527169
658.045202143
655.342096995
652.742995046
650.246634123
647.851708904
645.556873107
643.360741713
641.261893456
639.258873693
637.350197812
635.534355231
633.809814054
632.175026373
630.628434236
629.168476183
627.793594356
626.502242027
625.292891529
624.164042412
623.114229799
622.142032751
621.246082624
620.425071225
619.677758762
619.0029814
618.399658426
617.866798822
617.403507302
617.008989611
616.682556627
616.423628199
616.231739464
616.106813179
616.046503756
934.867754813
934.454387132
933.635708271
932.387156769
930.720244509
928.647187264
926.182628454
923.343340253
920.147855879
916.616097926
912.769025332
908.628303901
904.216005142
899.554336386
894.66540366
889.571008561
884.292479818
878.850539937
873.265206299
867.555724794
861.740532206
855.837241765
849.862644811
843.832721051
837.762650719
831.666824022
825.558846131
819.451538579
813.356939651
807.286306548
801.250123058
795.258110375
789.319240361
783.441757928
777.633204441
771.900442643
766.249682813
760.686509604
755.215909423
749.842298283
744.569550223
739.401026305
734.339604203
729.387708334
724.547340439
719.820110486
715.207267716
710.709731613
706.328122563
702.062791873
697.913850872
693.881198719
689.964548625
686.16345217
682.477321469
678.905448994
675.447024938
672.101152074
668.866858156
665.743105968
662.728801209
659.82279845
657.023905444
654.330886094
651.742462423
649.257315853
646.874088122
644.59138213
642.407762973
640.321759385
638.331865768
636.436544929
634.634231621
632.92333692
631.302253437
629.769361333
628.323035091
626.961650924
625.683594767
624.487270683
623.37110962
622.333578338
621.373188425
620.488505237
619.678156698
618.940841784
618.275338653
617.680512267
617.15532149
616.698825441
616.310189243
615.988688919
615.733715075
615.544779373
615.42178321
615.36250426
938.899625972
938.461116528
937.598152863
936.282683289
934.527742417
932.347239481
929.757755584
926.778167357
923.429201367
919.73299345
915.712679174
911.392019047
906.795061999
901.945848147
896.868151251
891.585261272
886.119807849
880.493625438
874.727660072
868.841915856
862.855436716
856.786315923
850.651723442
844.4679401
838.250388709
832.013655719
825.77150166
819.536863173
813.321851773
807.137754772
800.995043163
794.903385727
788.871663339
782.907999334
777.019786397
771.213715812
765.495807128
759.871437841
754.345373006
748.921795029
743.604333808
738.396097422
733.299703421
728.317310726
723.450652054
718.701066754
714.069533867
709.556705207
705.16293815
700.888327824
696.732738285
692.695832303
688.777099328
684.975881287
681.291395877
677.722757139
674.268993145
670.929060784
667.701857667
664.58623133
661.580985941
658.684886815
655.896663095
653.215008956
650.638583761
648.166011538
645.795880171
643.526740656
641.357106709
639.285455004
637.310226213
635.429827006
633.642633082
631.946993273
630.341234682
628.823668842
627.392598749
626.046326737
624.783162979
623.601434558
622.499494882
621.475733372
620.528585188
619.656540942
618.858156172
618.13206054
617.476966561
616.891677842
616.375096642
615.926230827
615.544200047
615.228240705
614.977710632
614.792095813
614.671271476
614.613148164
943.390549661
942.922783631
942.008473636
940.615526687
938.758868628
936.454506315
933.721395104
930.580960286
927.056553416
923.17292933
918.955772261
914.431272212
909.625751504
904.565339744
899.27569521
893.781772379
888.107636641
882.276328184
876.309776392
870.228763743
864.052934255
857.800836605
851.489987687
845.136940066
838.757338249
832.365954259
825.976701225
819.602631257
813.255927646
806.947901248
800.688997381
794.488811856
788.356110286
782.298867125
776.324297533
770.438891922
764.648449634
758.958111473
753.372391459
747.89520831
742.529917182
737.279341956
732.145808248
727.131177138
722.236879571
717.46395129
712.813068155
708.284581596
703.878553897
699.594792905
695.432885715
691.392230806
687.472068136
683.671506721
679.989549294
676.425113761
672.977051278
669.644160887
666.425200803
663.318896529
660.323946099
657.43902281
654.662775887
651.993829535
649.430780889
646.972197306
644.616613496
642.362528869
640.208405484
638.152666866
636.193697934
634.329846169
632.559424111
630.880713194
629.291968885
627.79142703
626.377311318
625.047841682
623.801243515
622.635757487
621.549649837
620.5412229
619.608825757
618.750864779
617.965813976
617.252224953
616.608736397
616.034082939
615.527103394
615.086748115
614.712085682
614.402308704
614.156738118
613.974829807
613.85643069
613.799593516
948.367957146
947.866126274
946.892274741
945.409645164
943.435533503
940.988562422
938.090608475
934.766187603
931.0417894
926.945257729
922.505246984
917.750748781
912.710683196
907.413547258
901.887115662
896.158192162
890.252413838
884.194112692
878.006238986
871.710347672
865.326643223
858.874070141
852.370428439
845.832488612
839.276082022
832.716151817
826.166764101
819.641092516
813.151394851
806.709001172
800.324314471
794.006830941
787.765171902
781.607129276
775.539706633
769.569160125
763.70103644
757.940207993
752.290906296
746.756754697
741.340801371
736.045553078
730.873009846
725.824700605
720.901719667
716.104763944
711.434170751
706.889955958
702.471852146
698.179346319
694.011716574
689.968067102
686.047360869
682.24844937
678.570098942
675.011013287
671.569851971
668.245244859
665.035802576
661.940123267
658.956795995
656.084401269
653.321509228
650.666676062
648.118439265
645.675312314
643.335779303
641.098290051
638.961256074
636.923047791
634.981993168
633.136377988
631.384447793
629.724411492
628.154446564
626.672705747
625.277325016
623.966432734
622.738159691
621.590649913
620.522071932
619.530630405
618.614577773
617.772225875
617.001957231
616.302235946
615.671617995
615.108760879
614.61243244
614.18151894
613.81503221
613.512115461
613.272048619
613.094255052
612.97854846
612.923133044
953.863674895
953.3220843
952.279055715
950.69246554
948.582614061
945.971414873
942.884357519
939.349712841
935.397716899
931.059843317
926.368188721
921.354954994
916.052011435
910.490521566
904.700624425
898.711167912
892.549498542
886.241316937
879.810609352
873.279661681
866.669153353
859.998315176
853.285120938
846.546472336
839.798337307
833.055816765
826.333141729
819.643627409
812.999619094
806.412462713
799.892499184
793.449092193
787.090679201
780.824827973
774.658290134
768.597049791
762.64636579
756.810808684
751.094294681
745.500118762
740.03098843
734.689058706
729.475968492
724.392878167
719.440508274
714.619179179
709.928851601
705.369167801
700.939493092
696.638957096
692.466494047
688.420881295
684.500775163
680.70474337
677.031293379
673.478896185
670.046005301
666.731070882
663.532549129
660.448907312
657.478624882
654.620191247
651.872100907
649.232846651
646.700911543
644.274760426
641.952831589
639.733529196
637.615216975
635.596213537
633.674789611
631.849167333
630.117521639
628.477983721
626.928646416
625.467571372
624.092797764
622.802352336
621.594260541
620.466558472
619.417305414
618.444596665
617.54657649
616.721450887
615.967500052
615.283090279
614.666685238
614.11685641
613.632292722
613.211809092
612.854354136
612.559016866
612.325031519
612.151784097
612.039053056
611.985202593
959.914704748
959.326508783
958.202813646
956.495344685
954.228265707
951.427674395
948.123556432
944.348752249
940.137961232
935.526899873
930.551625798
925.247990538
919.651187141
913.795364502
907.713291811
901.436069683
894.992896894
888.41091044
881.715119865
874.928452319
868.07191153
861.164832277
854.22518622
847.269873775
840.314933038
833.375620817
826.466372168
819.600692129
812.791044822
806.048792159
799.384187011
792.806414257
786.323673637
779.943256015
773.671612944
767.514414248
761.476593673
755.562385667
749.775357826
744.118442983
738.593973029
733.203714994
727.948909156
722.830308744
717.848220942
713.002549128
708.29283633
703.718309837
699.277926588
694.970418707
690.794338242
686.748100004
682.830021376
679.038358055
675.371334877
671.827171151
668.404100174
665.100382905
661.91431599
658.844234593
655.888510616
653.045547084
650.313769506
647.691615126
645.177520939
642.769911358
640.467186328
638.267710592
636.169804699
634.171738189
632.271725242
630.467922954
628.758432215
627.141301132
625.614530768
624.176083001
622.823890186
621.555866378
620.369919754
619.263966012
618.235942353
617.283821843
616.40562779
615.59944796
614.8634483
614.195886086
613.595122207
613.059632582
612.588018486
612.179015905
611.831503731
611.544510432
611.317219957
611.148978368
611.039523644
610.987388212
966.564231939
965.921065651
964.702787381
962.854111421
960.404256061
957.384704516
953.831073498
949.781769342
945.276787157
940.35676467
935.062272217
929.433268016
923.508657576
917.325911598
910.920716846
904.3266568
897.574938761
890.694199174
883.710426172
876.647034192
869.525107208
862.363792817
855.180783859
847.992780525
840.815809718
833.66531468
826.556029883
819.501751034
812.515123009
805.607529351
798.789091157
792.068744881
785.454377706
778.952935175
772.570511474
766.312416085
760.183220147
754.186788868
748.326308809
742.604316795
737.022733154
731.582898984
726.285616369
721.131190462
716.119472915
711.249906706
706.521572677
701.933237906
697.483405632
693.170365979
688.992246205
684.947058991
681.032747213
677.247223832
673.588405786
670.054241177
666.642729368
663.351933991
660.179989183
657.125099607
654.185535065
651.359620641
648.645723424
646.042236908
643.547564186
641.160100981
638.878219502
636.700253973
634.624488517
632.64914791
630.772391511
628.992310494
627.306928324
625.714204307
624.212039932
622.798287673
621.470761914
620.227251611
619.065534357
617.983391472
616.978623796
616.049067784
615.192611656
614.407211196
613.690905042
613.041829129
612.458230217
611.938478255
611.481077654
611.084677146
610.748078569
610.47024445
610.250303284
610.087555905
609.981697768
609.931436836
973.862949364
973.154399887
971.824382846
969.809693096
967.146299549
963.872712507
960.031644097
955.668272267
950.828829744
945.559594351
939.906204572
933.913174857
927.623511078
921.078356396
914.316632013
907.374671502
900.285878166
893.080459146
885.785304374
878.424077626
871.017563909
863.584265738
856.141161533
848.704450322
841.290056516
833.913714431
826.590663374
819.335184875
812.160215996
805.077165257
798.095940076
791.225119367
784.472168868
777.843599512
771.34508113
764.981515387
758.757076794
752.67523278
746.738759438
740.949764446
735.309719598
729.819500151
724.479428097
719.289317157
714.24851861
709.35596852
704.61023726
700.009581941
695.552001662
691.235294611
687.057115296
683.015029778
679.106566771
675.329262747
671.680699638
668.158534233
664.760518877
661.484513524
658.328489602
655.290526466
652.368801454
649.561574761
646.86717042
644.283954775
641.81031378
639.444630439
637.185263559
635.030528851
632.978683193
631.02791264
629.176324503
627.421943587
625.762712428
624.19649525
622.721085213
621.334214541
620.033567026
618.816792532
617.681523013
616.625389707
615.646041005
614.741160697
613.908486103
613.145825828
612.45107673
611.82223995
611.257435702
610.754916801
610.3130807
609.930480229
609.605832847
609.338028094
609.126134
608.969403431
608.867483722
608.819265294
981.87083324
981.083664448
979.620329707
977.408821651
974.494346808
970.924720164
966.751634164
962.028466148
956.808702484
951.144966067
945.088468005
938.68867909
931.993068957
925.046814832
917.8924337
910.569342083
903.113392139
895.556469891
887.926268346
880.246356885
872.53664583
864.814272842
857.094805087
849.393472149
841.726007302
834.108697837
826.557703917
819.088154375
811.713459469
804.445030647
797.292406625
790.263622483
783.365562507
776.604188593
769.984671698
763.511462409
757.188315411
751.018282344
745.003705362
739.146230984
733.446843808
727.905910536
722.52322835
717.298073684
712.229250108
707.315137158
702.553742356
697.942757821
693.479621772
689.16158368
684.985770519
680.949251021
677.049094927
673.282424706
669.64645796
666.138539455
662.756162363
659.496978927
656.358801204
653.339592928
650.437453838
647.650597971
644.977327567
642.416004248
639.96501916
637.622763623
635.38760178
633.25784645
631.23173919
629.307435234
627.482993637
625.756372649
624.125429998
622.587927649
621.141540404
619.783867785
618.51244858
617.324777586
616.218324027
615.190551204
614.238936925
613.360994195
612.554291777
611.816474113
611.145280335
610.538561969
609.994299225
609.510615634
609.085791111
608.718273184
608.406686779
608.149842564
607.946742517
607.79658591
607.698969866
607.65297314
990.659577281
989.776564096
988.152136108
985.704787284
982.492738852
978.576307662
974.018561255
968.88269378
963.230445349
957.121370584
950.612615093
943.758891
936.612436892
929.222834959
921.636631064
913.896772695
906.041940323
898.105901489
890.117063886
882.098435222
874.068190733
866.04096364
858.029765541
850.048092772
842.111428588
834.237201463
826.443307761
818.746372673
811.16054734
803.697148222
796.365033253
789.171364188
782.122214167
775.222858575
768.477895405
761.891296234
755.466397037
749.205836194
743.111507845
737.184565393
731.425463609
725.83401322
720.409438202
715.150429583
710.055194
705.121502188
700.346742173
695.727979844
691.262027925
686.945521566
682.774996579
678.746965659
674.857988224
671.104730558
667.484013991
663.99284997
660.628461691
657.388292726
654.270003612
651.271457832
648.390698895
645.625920443
642.975431399
640.437618223
638.010906298
635.69372238
633.484459897
631.381448581
629.382929667
627.48703742
625.691787334
623.995070896
622.394656396
620.88819504
619.473231505
618.147218141
616.907532081
615.751494714
614.676392941
613.679501808
612.758107882
611.909532934
611.131157258
610.420442221
609.774951502
609.192370793
608.670525608
608.207397221
607.801136525
607.450076087
607.152740286
606.907853332
606.714345882
606.571360833
606.478439231
606.434853638
1000.31601193
999.314159058
997.491927349
994.758152356
991.190050612
986.864951972
981.860233032
976.250577296
970.106773199
963.495595036
956.480198419
949.120611863
941.474045234
933.594869407
925.534210273
917.339190598
909.0519293
900.708479343
892.337962635
883.96223734
875.596479184
867.250995177
858.934301007
850.656832851
842.433849853
834.285189392
826.232055875
818.293705572
810.485402687
802.818048403
795.299171833
787.93449133
780.728958581
773.687023006
766.812654009
760.109350005
753.580078192
747.227103316
741.051869465
735.054999552
729.236366481
723.595169202
718.130005147
712.838930549
707.719505721
702.768838842
697.983637691
693.360273328
688.894858197
684.583335866
680.421575684
676.405465168
672.530993761
668.794323623
665.191844809
661.720213719
658.376374744
655.157565894
652.06130986
649.085392393
646.227830264
643.486831156
640.860748025
638.348030394
635.947175087
633.656678713
631.474994107
629.400492578
627.43143345
625.565941843
623.801995031
622.137417084
620.569880902
619.096916532
617.71592446
616.424192851
615.218917813
614.097226122
613.056199849
612.092902452
611.204405717
610.387816893
609.640305376
608.959128216
608.341654038
607.785384831
607.287975547
606.847251209
606.461221782
606.128094556
605.846284619
605.614423584
605.431365049
605.296189794
605.208380788
605.167408768
1010.94702169
1009.79481961
1007.7247843
1004.63720771
1000.63829011
995.828664133
990.303301687
984.149754013
977.448094059
970.272016562
962.690268048
954.76793173
946.567235164
938.147748472
929.565920417
920.874015446
912.118599205
903.338803698
894.564717658
885.816406278
877.10423767
868.431259711
859.798090201
851.209622738
842.681111576
834.237517419
825.906361442
817.711481177
809.6696605
801.790536936
794.078979854
786.538276654
779.17191195
771.983439346
764.976192631
758.153260704
751.517386241
745.070565323
738.813799354
732.747121692
726.869750837
721.180203574
715.676391001
710.355687025
705.214959931
700.250602658
695.458578611
690.834486473
686.373650016
682.071228059
677.922332449
673.922142698
670.066008061
666.349531635
662.768633764
659.319593989
655.999071956
652.804108666
649.732110111
646.780815887
643.948255616
641.232696182
638.63258278
636.146476824
633.77299366
631.510742953
629.358274418
627.314031223
625.376312946
623.543249271
621.812784805
620.182674375
618.650487447
617.213619807
615.869310693
614.614663912
613.446671919
612.362242317
611.358226351
610.431449072
609.578740428