/*--------------------------------*- C++ -*----------------------------------*\
| =========                 |                                                 |
| \\      /  F ield         | OpenFOAM: The Open Source CFD Toolbox           |
|  \\    /   O peration     | Version:  v1906                                 |
|   \\  /    A nd           | Web:      www.OpenFOAM.com                      |
|    \\/     M anipulation  |                                                 |
\*---------------------------------------------------------------------------*/
FoamFile
{
    version     2.0;
    format      ascii;
    class       surfaceScalarField;
    location    "593";
    object      phi;
}
// * * * * * * * * * * * * * * * * * * * * * * * * * * * * * * * * * * * * * //

dimensions      [0 3 -1 0 0 0 0];
oriented        oriented;


internalField   nonuniform List<scalar> 
18240
(
-0.000352245295217
0.000352278206442
-0.000737930623256
0.000385725695524
-0.00112327214296
0.000385374972381
-0.00150364464158
0.000380414465416
-0.00187698434667
0.000373371577232
-0.00224153889629
0.000364598039183
-0.00259580381756
0.000354295134542
-0.00293840646332
0.000342647663389
-0.00326819919204
0.000329821220974
-0.00358415032259
0.000315997657434
-0.00388546082297
0.000301337156724
-0.00417142761918
0.000286014796612
-0.00444157716278
0.000270174287794
-0.00469550037747
0.00025397262683
-0.00493300554941
0.000237527871357
-0.00515392749528
0.000220972682227
-0.00535830296354
0.000204396043808
-0.00554615648461
0.000187905460387
-0.00571770035512
0.000171562183819
-0.00587309884919
0.000155451489851
-0.00601269377357
0.000139610910893
-0.00613674798418
0.000124108085923
-0.00624569623014
0.000108961782793
-0.00633986846983
9.42268003546e-05
-0.00641976511816
7.99077051434e-05
-0.00648576052601
6.60504369373e-05
-0.00653840105223
5.26490137685e-05
-0.00657808922453
3.97434462136e-05
-0.00660540304909
2.73197595242e-05
-0.00662076179301
1.54140251076e-05
-0.0066247651097
4.00665321658e-06
-0.00661783946964
-6.87058792646e-06
-0.00660059288371
-1.72457800342e-05
-0.00657344952366
-2.70887854358e-05
-0.00653702143149
-3.64298167262e-05
-0.00649172629372
-4.52412783943e-05
-0.00643817192872
-5.35585011348e-05
-0.00637676256342
-6.13564590494e-05
-0.00630809461749
-6.86744452266e-05
-0.0062325532879
-7.54895969322e-05
-0.00615071743584
-8.18445489006e-05
-0.00606294875789
-8.77183345816e-05
-0.0059698033482
-9.31562138947e-05
-0.00587161584526
-9.81387426622e-05
-0.00576891545594
-0.000102713098223
-0.00566200745654
-0.000106861007614
-0.00555139116924
-0.000110630776972
-0.0054373412098
-0.000114004896509
-0.00532032515681
-0.000117032094091
-0.00520058686434
-0.000119695307771
-0.0050785613249
-0.000122042982842
-0.00495446233313
-0.000124058207808
-0.00482869233804
-0.000125788595482
-0.00470143662542
-0.000127217239241
-0.00457306577948
-0.000128390437949
-0.004443738486
-0.000129291213296
-0.00431379455671
-0.00012996426259
-0.00418336830757
-0.000130392631704
-0.00405276999166
-0.000130619218747
-0.00392211162065
-0.000130627260169
-0.00379167501744
-0.000130457832364
-0.00366155178471
-0.000130094660896
-0.0035319961468
-0.000129577026934
-0.00340308066936
-0.000128889455254
-0.00327503244026
-0.000128069555378
-0.00314790596735
-0.00012710300304
-0.00302190125429
-0.000126025827731
-0.00289705518752
-0.000124825135126
-0.00277354042797
-0.00012353547195
-0.0026513764065
-0.000122145608423
-0.00253070798004
-0.000120688611526
-0.00241153702207
-0.000119155028032
-0.00229398011401
-0.000117576405849
-0.00217802151702
-0.000115945104083
-0.00206374920105
-0.000114291013098
-0.00195112984725
-0.00011260822837
-0.00184022278359
-0.000110924809652
-0.00173097747841
-0.000109236457116
-0.00162342498167
-0.000107569165026
-0.00151749825477
-0.000105920039408
-0.00141320092289
-0.000104312765693
-0.00131045064447
-0.000102745627828
-0.00120922500746
-0.000101239717235
-0.00110942809898
-9.97942026489e-05
-0.00101101355168
-9.84272147395e-05
-0.000913874492445
-9.71383082228e-05
-0.000817943996848
-9.5941822263e-05
-0.000723109171937
-9.48361250526e-05
-0.000629290951425
-9.38283363462e-05
-0.00053638669124
-9.29074752053e-05
-0.000444342464224
-9.20529319214e-05
-0.000353156894438
-9.11902786954e-05
-0.000263039661383
-9.01238459458e-05
-0.000174885581923
-8.81602854796e-05
-9.22251933814e-05
-8.26684177312e-05
-9.22292150646e-05
-0.000389350822442
0.000741665416189
-0.000824033920515
0.000820449090602
-0.00125624731953
0.000817626896344
-0.00168215476168
0.000806362714916
-0.00209983571099
0.000791090600499
-0.00250750256417
0.000772306046425
-0.00290350533275
0.000750335501561
-0.00328634245565
0.000725526268693
-0.00365471906491
0.000698234893893
-0.00400751088619
0.000668831244189
-0.00434381064873
0.000637673389923
-0.00466286995652
0.000605116091483
-0.00496414522962
0.000571485341158
-0.00524722377707
0.000537093299764
-0.00551187424702
0.00050221334434
-0.00575796098587
0.0004671015833
-0.00598550272923
0.000431971885106
-0.00619457826696
0.000397023071935
-0.00638539581006
0.000362412809512
-0.00655819178581
0.000328289311793
-0.00671331197067
0.00029476301727
-0.00685110417405
0.000261941752068
-0.00697201114925
0.000229899401873
-0.00707645724145
0.000198713811483
-0.00716495239225
0.000168432077977
-0.00723797249702
0.000139110748717
-0.00729607346349
0.000110777675525
-0.00733976501773
8.34743324318e-05
-0.00736963365635
5.72144411122e-05
-0.00738620964472
3.20283065703e-05
-0.00739009704834
7.91836648459e-06
-0.00738183649526
-1.50940393013e-05
-0.0073620442699
-3.70155285728e-05
-0.00733126465364
-5.78326426738e-05
-0.00729011326499
-7.75606118754e-05
-0.00723912721869
-9.61930405578e-05
-0.00717891437953
-0.000113752693143
-0.00710999843373
-0.000130239718039
-0.0070329724224
-0.000145683768433
-0.00694834019792
-0.00016009083381
-0.00685667355294
-0.00017349648917
-0.00675845102889
-0.000185911660262
-0.00665421777747
-0.000197376720315
-0.00654442268814
-0.000207906491193
-0.00642958010343
-0.000217544885014
-0.00631010619911
-0.000226309484418
-0.00618648161605
-0.000234246452312
-0.00605908802478
-0.000241375007659
-0.00592837074945
-0.00024774230566
-0.00579467639587
-0.000253368150112
-0.00565841450361
-0.000258299569784
-0.00551989709782
-0.000262556072117
-0.00537949844517
-0.000266183626059
-0.00523749732592
-0.00026920077581
-0.00509423395295
-0.000271651763528
-0.00494995573378
-0.000273553778936
-0.00480497048086
-0.000274948944555
-0.00465949636852
-0.000275852979955
-0.00451381057513
-0.000276305793194
-0.00436810411508
-0.000276321790541
-0.00422262515501
-0.00027593881248
-0.00407753934368
-0.000275170315329
-0.0039330670865
-0.000274052412717
-0.0037893499759
-0.000272598110054
-0.00364658143314
-0.000270842218521
-0.00350487978821
-0.000268797819777
-0.00336441175394
-0.000266498849313
-0.00322527267743
-0.000263958933076
-0.00308760243637
-0.000261211457205
-0.00295147332048
-0.000258270918505
-0.00281699798771
-0.00025517033258
-0.00268422538892
-0.000251925212783
-0.00255324052677
-0.000248568195969
-0.00242406875956
-0.00024511576332
-0.00229676713433
-0.000241599993752
-0.00217133734679
-0.000238038114674
-0.00204780850231
-0.000234461317653
-0.00192615892993
-0.000230887219341
-0.00180639023883
-0.000227345693168
-0.00168845812965
-0.000223854294586
-0.00157233768045
-0.000220441079125
-0.00145796324038
-0.000217123030503
-0.00134528488596
-0.000213925834543
-0.00123421745368
-0.000210865314873
-0.00112468816175
-0.000207964113537
-0.00101659480871
-0.000205236071071
-0.000909844526246
-0.00020269964096
-0.00080432099016
-0.000200364896326
-0.000699913797677
-0.000198243104526
-0.000596492216244
-0.000196335159192
-0.000493916577767
-0.00019463557027
-0.000391991369256
-0.000193121591243
-0.000290371823991
-0.000191750606601
-0.00018810017712
-0.000190438957867
-8.2412485518e-05
-0.000188363104435
-0.00017464549493
-0.000396308146698
0.00113801042874
-0.000836635396838
0.0012608161591
-0.00127510378146
0.00125613475176
-0.00170719701934
0.00123849598761
-0.00213078738889
0.00121472031444
-0.00254400391551
0.00118556263579
-0.00294514560826
0.00115151637509
-0.00333269078007
0.00111311151822
-0.00370532292682
0.00107090602768
-0.00406192286873
0.00102547123198
-0.00440158073815
0.000977369981909
-0.00472357241395
0.000927147714129
-0.00502736429236
0.00087531560737
-0.00531258004739
0.000822348813754
-0.00557900359946
0.000768674840199
-0.00582654093742
0.000714678386522
-0.00605522538095
0.000660693724575
-0.00626517775214
0.000607014487764
-0.00645661641227
0.000553888174785
-0.00662981755626
0.000501528942607
-0.00678513108346
0.000450112432861
-0.00692294154024
0.000399789986903
-0.0070436897568
0.000350682530645
-0.007147834183
0.000302895156462
-0.00723587765692
0.000256509358766
-0.00730832850948
0.000211597504903
-0.00736573153567
0.000168213246503
-0.00740862822427
0.000126405764164
-0.007437591092
8.62084759353e-05
-0.00745318254882
4.76532007142e-05
-0.00745599196169
1.07574279077e-05
-0.00744659291667
-2.44610816278e-05
-0.00742558249117
-5.79979184096e-05
-0.00739353689267
-8.98477999378e-05
-0.00735105240282
-0.00012001879393
-0.00729869961378
-0.000148517050671
-0.00723706602142
-0.000175361765413
-0.00716670914225
-0.000200569573294
-0.00708820045764
-0.00022416980046
-0.00700207767171
-0.000246188417993
-0.00690888985655
-0.000266663543286
-0.00680914916652
-0.000285629028846
-0.00670337693635
-0.00030313012488
-0.00659205517681
-0.000319206841389
-0.00647567342897
-0.000333909731392
-0.00635468031707
-0.000347283122295
-0.00622953085508
-0.000359380945833
-0.00610063833398
-0.000370249987443
-0.00596842183498
-0.000379945725147
-0.00583325867378
-0.000388515692684
-0.00569553177702
-0.00039601525237
-0.00555558290847
-0.000402491210382
-0.0054137596319
-0.000407997481087
-0.00527036948995
-0.000412579035645
-0.00512572619534
-0.000416287377088
-0.0049801049396
-0.000419164938674
-0.00483378753339
-0.000421260314147
-0.00468701897799
-0.000422613159934
-0.00454005121857
-0.000423269085535
-0.00439310113149
-0.000423265139213
-0.00424639265213
-0.00042264428258
-0.00410011630454
-0.000421441478223
-0.0039544694376
-0.000419697639251
-0.00380961745843
-0.000417446362598
-0.00366573202037
-0.000414727268272
-0.00352295410582
-0.000411573375233
-0.00338142999748
-0.000408023729311
-0.00324127638907
-0.000404111452959
-0.0031026140708
-0.000399875595549
-0.00296553522239
-0.000395349859758
-0.00283013472604
-0.000390573608402
-0.00269647980948
-0.000385581308605
-0.00256463897134
-0.000380412665724
-0.00243465410098
-0.000375102805814
-0.00230656697078
-0.000369691510613
-0.00218039395361
-0.000364214188166
-0.00205615008241
-0.000358710207765
-0.00193382643746
-0.000353214685373
-0.0018134117398
-0.000347765914835
-0.00169487247051
-0.000342398009183
-0.00157817199595
-0.000337147433432
-0.00146325343953
-0.000332046515515
-0.00135005630819
-0.000327129074202
-0.00123850212364
-0.000322424809437
-0.00112850852029
-0.000317964002146
-0.00101997755584
-0.000313772745077
-0.000912807089244
-0.000309876645996
-0.000806881395114
-0.000306296825505
-0.00070207884361
-0.000303052512622
-0.000598262589233
-0.000300158020453
-0.000495279825185
-0.000297625380392
-0.00039294219939
-0.000295465588782
-0.000290999460248
-0.000293699475924
-0.000189114633069
-0.000292331581826
-8.74024948e-05
-0.000290083177432
-0.000262051342156
-0.000402511738371
0.00154055915114
-0.000848956558077
0.00170730059044
-0.00129352623365
0.00170074412014
-0.00173147849957
0.0016764880506
-0.00216054856228
0.00164383000219
-0.00257877635145
0.00160383019113
-0.00298440178931
0.0015571813588
-0.00337587278073
0.00150462222961
-0.00375185818882
0.00144693086883
-0.0041112463714
0.00138489904204
-0.00445314378005
0.00131930665865
-0.00477685973301
0.00125090313393
-0.00508189568156
0.00118039057242
-0.00536792237204
0.00110841472063
-0.00563476580133
0.00103555694144
-0.00588238214142
0.000962333584265
-0.00611084488798
0.000889194672271
-0.00632032107047
0.000816529041528
-0.00651106214868
0.000744666857263
-0.00668338315764
0.00067388769714
-0.00683765819215
0.000604424321979
-0.00697430271124
0.000536471475882
-0.00709377333246
0.000470189115446
-0.00719655270359
0.000405710570441
-0.00728315273988
0.000343144308158
-0.00735410114085
0.000282580869074
-0.00740994708001
0.00022409291048
-0.00745124848732
0.000167740910359
-0.00747857932675
0.000113571703685
-0.00749251700422
6.16232518498e-05
-0.00749365070721
1.19220604487e-05
-0.00748256828454
-3.55126228762e-05
-0.00745986530764
-8.06715547938e-05
-0.00742613183782
-0.00012355200076
-0.00738196190479
-0.000164161070113
-0.00732793986758
-0.000202511528238
-0.00726465028216
-0.00023862547265
-0.00719266410335
-0.000272529985112
-0.0071125490465
-0.00030426081702
-0.00702485572919
-0.000333857823523
-0.00693012851989
-0.000361368609605
-0.00682889175286
-0.000386843787209
-0.00672166106023
-0.00041034059556
-0.00660892978746
-0.000431918035384
-0.00649118076826
-0.000451640472868
-0.00636887302613
-0.000469572728029
-0.00624245393143
-0.000485783696362
-0.00611234626075
-0.000500341456392
-0.00597896064213
-0.000513316921969
-0.00584268300475
-0.000524779042297
-0.00570388720338
-0.00053479851225
-0.00556292288096
-0.000543443119896
-0.00542012813986
-0.000550781518861
-0.00527581780591
-0.000556878781291
-0.00513029600546
-0.0005618002432
-0.00498384481655
-0.000565607297742
-0.00483673660112
-0.000568361295852
-0.00468922300894
-0.000570119606057
-0.00454154692098
-0.000570939549964
-0.00439393178688
-0.000570874724139
-0.00424659305173
-0.000569978916839
-0.00409972781058
-0.000568302675732
-0.00395352561984
-0.000565897148822
-0.00380815848787
-0.000562810858213
-0.00366379100919
-0.000559093388857
-0.00352057072725
-0.000554792330584
-0.00337863756566
-0.00054995675139
-0.00323811463454
-0.000544634268308
-0.00309911696709
-0.000538874246308
-0.00296174284792
-0.000532724978824
-0.00282608188135
-0.000526236581373
-0.00269220693358
-0.000519458275446
-0.00256018157185
-0.00051244096117
-0.00243005269713
-0.000505234620241
-0.0023018573871
-0.000497890575855
-0.00217561628771
-0.000490459038352
-0.00205133988873
-0.000482991068283
-0.00192902271605
-0.000475536296649
-0.00180864905059
-0.000468144614687
-0.0016901879488
-0.000460864096293
-0.00157359840959
-0.000453742434489
-0.00145882522513
-0.000446825088331
-0.00134580357882
-0.000440156479894
-0.001234455703
-0.000433778376184
-0.00112469485971
-0.000427730851906
-0.00101642270305
-0.000422050913251
-0.000909532456689
-0.000416773238191
-0.000803906617983
-0.000411929092806
-0.000699418800584
-0.000407547096577
-0.000595930846986
-0.000403652867332
-0.000493291648703
-0.000400271034876
-0.000391334455692
-0.000397429126701
-0.000289881200015
-0.000395160095191
-0.000188800333186
-0.000393419552467
-8.8596680777e-05
-0.000390294133238
-0.000350652048646
-0.00041051039491
0.00195110646108
-0.000865444507633
0.00216227428149
-0.0013182784974
0.00215361777947
-0.00176407820316
0.00212232747793
-0.00220044369723
0.00208023514283
-0.00262530989682
0.00202873606675
-0.00303684328763
0.00196875434707
-0.003433450321
0.0019012688908
-0.00381378518106
0.00182730525236
-0.00417674714713
0.00174790054651
-0.00452147206247
0.0016640709629
-0.00484731556829
0.0015767860193
-0.00515383442855
0.00148694861081
-0.00544076298422
0.00139538240602
-0.00570799145673
0.00130282427587
-0.00595554188331
0.00120992277826
-0.00618354846902
0.00111723968728
-0.0063922367763
0.00102525562418
-0.00658190863477
0.000934376570943
-0.00675292600258
0.000844942704634
-0.00690570093874
0.000757236396982
-0.00704068394436
0.000671491334097
-0.00715835828306
0.000587899718098
-0.00725923178443
0.00050661998249
-0.00734383431029
0.000427782075083
-0.00741271176947
0.000351493143958
-0.00746642549132
0.000277840694564
-0.00750554735105
0.000206896343981
-0.00753066009899
0.000138717198624
-0.00754235284194
7.33481861105e-05
-0.00754122176161
1.0822270249e-05
-0.00752786525959
-4.88384460481e-05
-0.0075028850653
-0.000105622034291
-0.0074668813385
-0.000159526680218
-0.00742045354787
-0.000210560834744
-0.00736419561873
-0.000258742138626
-0.00729869685007
-0.000304097985364
-0.00722453710679
-0.000346664218767
-0.00714228795633
-0.000386485559043
-0.00705250801762
-0.000423614123821
-0.0069557444093
-0.000458109702704
-0.00685252835583
-0.000490038118175
-0.00674337699227
-0.000519471378335
-0.00662878930289
-0.000546485943879
-0.00650924831693
-0.000571162822159
-0.00638521741497
-0.000593585799708
-0.00625714289406
-0.00061384153042
-0.00612545065348
-0.000632017808134
-0.00599054910364
-0.000648203710696
-0.00585282620962
-0.000662487964766
-0.00571265267118
-0.000674959188387
-0.00557037928679
-0.000685704409415
-0.0054263403343
-0.000694809453863
-0.00528085119041
-0.000702357653616
-0.00513421180066
-0.000708430404882
-0.00498670448077
-0.000713106101851
-0.00483859737731
-0.000716460881721
-0.00469014236181
-0.00071856778418
-0.00454157836165
-0.000719497664765
-0.00439312927221
-0.0007193185664
-0.00424500707359
-0.000718096765479
-0.0040974096978
-0.000715896300754
-0.00395052385575
-0.000712780083547
-0.00380452283661
-0.000708809523356
-0.00365956902658
-0.000704045629443
-0.00351581164651
-0.00069854865363
-0.00337338896476
-0.000692379104948
-0.00323242602109
-0.000685597351407
-0.00309303658467
-0.000678264492921
-0.00295532092786
-0.000670441874139
-0.00281936758303
-0.000662191780403
-0.00268525124625
-0.000653576851557
-0.00255303440495
-0.000644660598796
-0.00242276543943
-0.00063550672542
-0.0022944801708
-0.000626179480204
-0.0021682002201
-0.000616742917885
-0.00204393452169
-0.000607261121954
-0.00192167797334
-0.000597797438201
-0.00180141293013
-0.000588414600238
-0.00168310816545
-0.000579173976252
-0.00156672035193
-0.000570135629444
-0.00145219332785
-0.000561357605847
-0.00133945954449
-0.000552895953767
-0.00122843961082
-0.000544804080386
-0.00111904366208
-0.000537132752926
-0.0010111710927
-0.000529929552598
-0.000904711710781
-0.000523238912321
-0.000799545523718
-0.000517101790577
-0.00069554338927
-0.000511555902208
-0.000592566806299
-0.000506636145313
-0.000490468940923
-0.00050237591401
-0.00038909617231
-0.000498808284133
-0.000288298880632
-0.000495963240889
-0.000187983311106
-0.000493743098011
-8.86283080369e-05
-0.00048965736355
-0.00043928368645
-0.000420680837566
0.00237182420816
-0.000886641543458
0.00262827440932
-0.00135015461367
0.00261717050073
-0.00180604532041
0.00257825781245
-0.00225175037618
0.00252597982187
-0.00268507700838
0.00246210230577
-0.00310410279829
0.00238781972996
-0.00350718508278
0.00230439075141
-0.00389296530375
0.00221312501518
-0.0042603623553
0.00211533710184
-0.00460855728217
0.00201230532773
-0.00493697093799
0.0019052390379
-0.00524523796073
0.00179525488368
-0.00553317837805
0.00168336195248
-0.00580076976972
0.0015704546283
-0.00604812030299
0.00145731209297
-0.00627544482868
0.00134460275679
-0.00648304331854
0.00123289241491
-0.0066712832564
0.00112265449827
-0.00684058447597
0.00101428159868
-0.00699140779054
0.000908096992267
-0.00712424541998
0.000804365857115
-0.00723961455921
0.00070330527612
-0.00733805181274
0.000605093191816
-0.00742011000651
0.000509875665271
-0.00748635496214
0.000417772961833
-0.00753736400874
0.000328883966009
-0.00757372374654
0.000243289701823
-0.00759602913867
0.000161055495484
-0.0076048814068
8.2232688354e-05
-0.00760088721088
6.85952368679e-06
-0.00758465591754
-6.50390233156e-05
-0.00755679890618
-0.00013344918362
-0.00751792679081
-0.000198369718739
-0.00746864813091
-0.000259811324339
-0.00740956667751
-0.000317796252093
-0.00734128007171
-0.000372358205292
-0.00726437712751
-0.000423541641127
-0.00717943669897
-0.000471401453816
-0.00708702515615
-0.000516002025115
-0.00698769554255
-0.000557416691218
-0.00688198535628
-0.000595726587982
-0.00677041608198
-0.000631019967227
-0.0066534913475
-0.000663390912316
-0.00653169686407
-0.000692938579577
-0.00640549898442
-0.000719765872156
-0.00627534505427
-0.000743978689355
-0.00614166236813
-0.000765684636149
-0.00600485889976
-0.0007849923478
-0.00586532262179
-0.000802010308654
-0.00572342256382
-0.000816846318307
-0.00557950844166
-0.000829606480383
-0.00543391196401
-0.000840394861249
-0.00528694669106
-0.000849312704046
-0.00513890949448
-0.00085645832461
-0.0049900805498
-0.00086192658485
-0.00484072483455
-0.000865809042407
-0.00469109214657
-0.000868193693129
-0.00454141852735
-0.000869165365372
-0.00439192620641
-0.000868805702568
-0.00424282484923
-0.000867193749862
-0.00409431134902
-0.000864406115741
-0.00394657083367
-0.00086051767186
-0.0037997762681
-0.00085560180325
-0.00365408919666
-0.000849731120118
-0.00350965916188
-0.000842977701189
-0.00336662420598
-0.000835413723063
-0.00322511015594
-0.000827111611355
-0.00308523094306
-0.000818144511809
-0.00294708782941
-0.000808586295584
-0.00281076962494
-0.00079851183428
-0.0026763519423
-0.00078799684027
-0.00254389739219
-0.000777117942031
-0.00241345494341
-0.000765952375752
-0.00228506016361
-0.0007545778891
-0.00215873474402
-0.000743072321751
-0.00203448683139
-0.00073151338088
-0.00191231075103
-0.000719978158423
-0.00179218745157
-0.000708542827384
-0.00167408443861
-0.000697282141336
-0.00155795633502
-0.000686269094869
-0.00144374501552
-0.000675574444101
-0.00133138026623
-0.000665266368118
-0.00122078008956
-0.00065541004253
-0.00111185142499
-0.000646067337202
-0.0010044905645
-0.000637296485997
-0.000898583872626
-0.000629151877374
-0.000794008219166
-0.000621683898266
-0.00069063178824
-0.000614939038275
-0.000588314827381
-0.000608960005072
-0.000486910770604
-0.000603786250123
-0.000386270352543
-0.000599454961524
-0.000286249514944
-0.000595991555537
-0.000186745765018
-0.000593253829737
-8.81883500147e-05
-0.000588221996655
-0.000527476114386
-0.000433286873516
0.00280514785161
-0.000912979022687
0.0031080059874
-0.00138976478465
0.00309399578877
-0.00185815389793
0.00304668650034
-0.00231537584276
0.0029832413103
-0.00275908048048
0.00290584649914
-0.00318723967491
0.00281601846542
-0.0035981566225
0.00271534724496
-0.00399046620501
0.00260547411524
-0.00436312172998
0.002488032127
-0.00471537121389
0.00236459424955
-0.00504672627574
0.00223663348471
-0.00535692736052
0.00210549524595
-0.00564590774374
0.00197238151043
-0.00591375904867
0.00183834494262
-0.00616069940364
0.00170429129397
-0.00638704573438
0.0015709877029
-0.00659319012236
0.0014390751837
-0.00677958081231
0.00130908326452
-0.00694670706598
0.00118144561756
-0.00709508798341
0.00105651529441
-0.00722526417463
0.00093457904026
-0.00733779226614
0.000815869899493
-0.00743324108158
0.000700578065016
-0.00751218952165
0.000588859626322
-0.00757522507922
0.000480843484661
-0.00762294314569
0.000376636385049
-0.00765594622026
0.000276326497426
-0.00767484334561
0.00017998565899
-0.00768024904201
8.76707154825e-05
-0.0076727825107
-5.75428089115e-07
-0.00765306564855
-8.47250818617e-05
-0.00762172163695
-0.000164763204064
-0.00757937318128
-0.000240689020123
-0.00752664034723
-0.000312515867562
-0.00746413834256
-0.000380270851259
-0.00739247550437
-0.000443994541334
-0.00731225108806
-0.000503740481971
-0.00722405337926
-0.000559574523768
-0.00712845771373
-0.000611574008368
-0.00702602488594
-0.000659826795119
-0.00691729953086
-0.00070443019802
-0.00680280892485
-0.00074548980139
-0.00668306179948
-0.000783118255354
-0.00655854758164
-0.000817433991924
-0.00642973565977
-0.000848559981464
-0.00629707506209
-0.000876622448551
-0.00616099416057
-0.0009017496847
-0.0060219007621
-0.000924070854463
-0.00588018220815
-0.000943714942683
-0.00573620582272
-0.000960809726553
-0.00559031934292
-0.000975480931645
-0.00544285164937
-0.000987851441767
-0.00529411343625
-0.000998040724458
-0.00514439811839
-0.00100616433354
-0.00499398262721
-0.00101233365091
-0.00484312837449
-0.00101665571474
-0.00469208204519
-0.0010192332855
-0.00454107648671
-0.00102016498948
-0.00439033137561
-0.00101954567599
-0.00424005392323
-0.00101746681977
-0.00409043931943
-0.00101401708507
-0.00394167117842
-0.00100928288519
-0.00379392171156
-0.00100334903789
-0.00364735189612
-0.000996299359376
-0.00350211138341
-0.000988217281118
-0.00335833842354
-0.000979186356683
-0.0032161595677
-0.00096929073099
-0.00307568943004
-0.000958615470075
-0.00293703027435
-0.000947246810214
-0.00280027171132
-0.000935272264707
-0.00266549027171
-0.000922780632324
-0.00253274913938
-0.000909861884931
-0.0024020977995
-0.000896606956397
-0.002273571884
-0.000883107449803
-0.00214719296001
-0.000869455260011
-0.00202296853861
-0.00085574215996
-0.0019008920376
-0.00084205931833
-0.00178094297221
-0.000828496826049
-0.0016630871028
-0.000815143169687
-0.00154727680543
-0.000802084751752
-0.00143345139345
-0.000789405368951
-0.00132153764719
-0.000777185768409
-0.00121145028266
-0.000765503173254
-0.00110309261116
-0.00075443091232
-0.00099635710992
-0.000744038031443
-0.000891126171652
-0.000734389046827
-0.000787272824146
-0.000725543720041
-0.000684661524398
-0.000717556925237
-0.000583149324388
-0.000710478786537
-0.000482587804619
-0.000704354774288
-0.000382824768008
-0.000699224308812
-0.000283710673243
-0.000695111206347
-0.000185130689132
-0.000691841793745
-8.74757165846e-05
-0.000685885217404
-0.000614955033021
-0.000448606752368
0.00325379134228
-0.000944993172149
0.00360443159275
-0.00143788116187
0.0035869232512
-0.00192137737201
0.00353022215388
-0.00239244979004
0.00345435320445
-0.00284855605416
0.00336199223043
-0.00328754497129
0.00325504687303
-0.00370766438765
0.00313550614782
-0.00410755507649
0.00300540429878
-0.00448622781275
0.00286674433198
-0.00484302785368
0.00272143373763
-0.00517759182971
0.00257123684247
-0.00548980136058
0.00241774409156
-0.00577973720427
0.00226235655184
-0.0060476365168
0.00210628332821
-0.00629385510907
0.00195054877914
-0.00651883548252
0.00179600677502
-0.00672308098979
0.0016433591391
-0.00690713575793
0.00149317621008
-0.00707156988953
0.00134591759934
-0.00721696912077
0.00120195202246
-0.00734392817489
0.00106157518553
-0.00745304695664
0.000925025335304
-0.00754492882578
0.000792496102668
-0.00762018025707
0.000664146704228
-0.00767941124761
0.000540109559341
-0.00772323603488
0.000420495653781
-0.00775227367028
0.000305397977672
-0.0077671483106
0.000194893463545
-0.00776848896152
8.90438225089e-05
-0.00775692849225
-1.21041959891e-05
-0.00773310296866
-0.000108519679172
-0.00769764974189
-0.000200186328617
-0.00765120538375
-0.000287104106694
-0.00759440368373
-0.000369289174909
-0.00752787328394
-0.000446773735382
-0.00745223544719
-0.000519605788108
-0.00736810170798
-0.000587848544579
-0.0072760718018
-0.000651579714922
-0.00717673156559
-0.000710890471129
-0.00707065121818
-0.000765884357914
-0.00695838366078
-0.000816675930144
-0.00684046321729
-0.000863389424424
-0.0067174044089
-0.000906157212144
-0.00658970119362
-0.000945118367965
-0.00645782623219
-0.00098041707216
-0.00632223062209
-0.00101220119728
-0.00618334363541
-0.0010406207708
-0.00604157291015
-0.00106582667805
-0.00589730461513
-0.00108796928042
-0.00575090404118
-0.00110719732251
-0.00560271612521
-0.0011236567914
-0.00545306635578
-0.00113749010837
-0.00530226155917
-0.00114883531009
-0.00515059100469
-0.00115782559674
-0.0049983273256
-0.00116458889559
-0.00484572768046
-0.00116924780635
-0.00469303465979
-0.0011719195687
-0.00454047735092
-0.00117271639671
-0.00438827208498
-0.00117174581203
-0.00423662326785
-0.00116911129427
-0.00408572385368
-0.00116491288033
-0.00393575585245
-0.00115924800229
-0.00378689047491
-0.00115221220575
-0.0036392882925
-0.00114390001324
-0.00349309906788
-0.00113440560127
-0.00334846161293
-0.00112382353342
-0.00320550338233
-0.00111224925791
-0.00306434012774
-0.00109977959305
-0.00292507537089
-0.00108651296068
-0.00278779997737
-0.00107254956923
-0.00265259163474
-0.00105799136183
-0.002519514464
-0.00104294190417
-0.00238861860911
-0.00102750608344
-0.00225993997623
-0.00101178975653
-0.00213350000653
-0.000995899269779
-0.00200930559656
-0.000979940945542
-0.00188734908808
-0.000964020503337
-0.001767608388
-0.000948242464155
-0.00165004717888
-0.000932709545226
-0.00153461523219
-0.000917522048916
-0.00142124882176
-0.000902777288065
-0.00130987121006
-0.000888569011414
-0.00120039323316
-0.000874986901676
-0.00109271393195
-0.000862116077852
-0.00098672127497
-0.000850036704213
-0.000882292920614
-0.000838823601102
-0.000779297032921
-0.000828545975729
-0.000677593328075
-0.000819267248919
-0.000577034204548
-0.000811044735782
-0.000477465676674
-0.000803929376042
-0.000378730524333
-0.00079796558375
-0.000280671976799
-0.000793177298891
-0.00018315955436
-0.000789360971795
-8.65601067514e-05
-0.000782491640065
-0.000701519200215
-0.000466979289843
0.00372080716694
-0.000983366212686
0.00412085772329
-0.00149549273893
0.00409908905285
-0.00199695856674
0.00403172734041
-0.00248440597772
0.00394183995772
-0.00295506070975
0.00383268634378
-0.00340663240535
0.00370665796322
-0.00383731828659
0.00356623145685
-0.00424578697131
0.00341391241514
-0.00463114106122
0.00325213786587
-0.00499286526472
0.00308319735636
-0.00533076669341
0.00290917766135
-0.005644913471
0.00273193018311
-0.0059355760797
0.00255305839666
-0.00620317482814
0.0023739211763
-0.00644823501751
0.00219564792516
-0.00667135069833
0.00201916120679
-0.00687315660958
0.00184520358321
-0.0070543077975
0.00167436564875
-0.00721546565623
0.00150711340956
-0.00735728944741
0.0013438134034
-0.00748043193397
0.00118475487741
-0.00758553822449
0.00103016838776
-0.00767324665655
0.000880240826365
-0.00774419100341
0.000735126819076
-0.00779900312192
0.000594956890345
-0.00783831557684
0.000459842719368
-0.00786276371977
0.000329880095408
-0.00787298705218
0.000205150095563
-0.00786962969735
8.57190517714e-05
-0.00785333968806
-2.83623689949e-05
-0.00782476882666
-0.000137059494359
-0.00778457032048
-0.000240354600103
-0.00773339683935
-0.000338248206152
-0.0076718981584
-0.000430759337645
-0.00760071866465
-0.000517925615679
-0.00752049477701
-0.000599802967725