/*--------------------------------*- C++ -*----------------------------------*\
| =========                 |                                                 |
| \\      /  F ield         | OpenFOAM: The Open Source CFD Toolbox           |
|  \\    /   O peration     | Version:  v1906                                 |
|   \\  /    A nd           | Web:      www.OpenFOAM.com                      |
|    \\/     M anipulation  |                                                 |
\*---------------------------------------------------------------------------*/
FoamFile
{
    version     2.0;
    format      ascii;
    class       volScalarField;
    location    "232";
    object      pa;
}
// * * * * * * * * * * * * * * * * * * * * * * * * * * * * * * * * * * * * * //

dimensions      [0 2 -2 0 0 0 0];


internalField   nonuniform List<scalar> 
9216
(
1031.50682988
1031.13138553
1030.34169173
1029.15504184
1027.57096036
1025.5929724
1023.22567494
1020.47495571
1017.34738734
1013.85072095
1009.99317679
1005.78413723
1001.23324848
996.351325151
991.149232268
985.639028688
979.832606815
973.743102202
967.383274251
960.767202792
953.908396609
946.821790884
939.521577121
932.023504218
924.342428138
916.494910148
908.496493205
900.3645783
892.11544057
883.767356034
875.337380542
866.844685435
858.307127326
849.744748659
841.17617479
832.622221075
824.102158844
815.637371039
807.24753448
798.954262546
790.777253167
782.737862248
774.85527028
767.149935342
759.639829592
752.343734018
745.277595959
738.457642378
731.896907763
725.608166033
719.600681611
713.882982091
708.459886423
703.335156803
698.508850866
693.979881279
689.743709509
685.794809892
682.12468287
678.724185262
675.581815256
672.685863622
670.022923397
667.579827066
665.342336366
663.296844063
661.42920371
659.726192274
658.174448817
656.761713921
655.475857006
654.3059209
653.241226089
652.272254608
651.389826096
650.585853391
649.852587494
649.183271567
648.571450531
648.011537409
647.49816203
647.026614332
646.591489867
646.192113629
645.840975414
645.542762084
645.290324541
645.082652926
644.920141104
644.798454854
644.711574927
644.651450243
644.610619798
644.585491847
644.572701584
644.568217563
1031.88130609
1031.50478461
1030.72124048
1029.53355196
1027.9461872
1025.96345239
1023.59033425
1020.83278833
1017.69755841
1014.19235866
1010.32558239
1006.10653622
1001.54506862
996.651881247
991.438073862
985.915548066
980.096463784
973.993748544
967.620461453
960.990418378
954.117460533
947.016201663
939.70119901
932.187823526
924.491332177
916.627856795
908.613378002
900.464822991
892.198943497
883.833508039
875.386088051
866.875325195
858.319633752
849.738519701
841.151206588
832.577980876
824.038752424
815.554398097
807.145270148
798.832511059
790.636525736
782.578243968
774.677575325
766.954600462
759.428030113
752.116314066
745.036128654
738.203402533
731.631862302
725.33399015
719.319667201
713.597097161
708.17159782
703.04653814
698.222326849
693.697399479
689.467424055
685.526334786
681.865728928
678.47590277
675.345385935
672.461929449
669.812131072
667.382337425
665.158320569
663.126064411
661.271459275
659.580958612
658.041272507
656.6398988
655.36480952
654.204872331
653.149533054
652.189149668
651.314679029
650.51794564
649.791341086
649.128046695
648.521754118
647.966861067
647.45823153
646.991420784
646.562551805
646.168966011
645.818569598
645.521275213
645.272877066
645.069883006
644.908678222
644.7872828
644.702455523
644.643902171
644.603426728
644.579542246
644.56804397
644.56333216
1032.67110486
1032.28439922
1031.49702622
1030.30383475
1028.70904758
1026.71691309
1024.33253567
1021.56194148
1018.41200978
1014.89051109
1011.00598401
1006.76777916
1002.18590289
997.271083438
992.03458694
986.488315397
980.644597394
974.516325924
968.11672597
961.45953807
954.558763826
947.428898786
940.084656067
932.541248361
924.814088135
916.91911575
908.872474162
900.690876633
892.391253033
883.99114903
875.508341514
866.961256949
858.368553612
849.749547845
841.123759132
832.51132889
823.932526206
815.40814441
806.958966524
798.606125649
790.370531303
782.273183668
774.334565764
766.574905207
759.0135402
751.669128457
744.55899928
737.699316122
731.104434005
724.787036295
718.757531713
713.024206302
707.59271368
702.466302379
697.645460114
693.12826533
688.91021378
684.984691685
681.34295005
677.974639378
674.867863845
672.00971685
669.386369878
666.983571579
664.786731479
662.781347183
660.953049845
659.287940126
657.772582358
656.39425031
655.140871821
654.001196985
652.964704416
652.021711042
651.16325604
650.381170995
649.667955668
649.016824804
648.421588948
647.87669718
647.377148886
646.918589768
646.497309509
646.110159503
645.766201178
645.475926595
645.238648404
645.044500513
644.885686799
644.766532846
644.6855471
644.628364092
644.590089574
644.567938527
644.556058383
644.5500572
1033.86293423
1033.47110049
1032.67757165
1031.47551892
1029.86904899
1027.86238004
1025.46070279
1022.67014488
1019.49772825
1015.9513487
1012.03970754
1007.77228564
1003.15926007
998.211481752
992.94038333
987.357968338
981.4767155
975.309586092
968.869928865
962.17151094
955.228426305
948.055153096
940.666466224
933.077520984
925.303768215
917.36106119
909.265569636
901.033904778
892.683027652
884.230385926
875.693811237
867.091657944
858.44268418
849.766185088
841.081848614
832.409871179
823.77078136
815.185526372
806.675256787
798.261373889
789.96527143
781.808337354
773.811652342
765.995943359
758.381242533
750.986793609
743.830677825
736.929679225
730.298890878
723.951557652
717.898694069
712.148950086
706.708303727
701.580027387
696.764538161
692.259538236
688.060066707
684.158811977
680.546316291
677.211370383
674.141270089
671.322220194
668.739602616
666.37835818
664.223226668
662.25906217
660.471005752
658.844712318
657.366446954
656.023226979
654.802849506
653.693962429
652.686040028
651.769404754
650.935172308
650.17524405
649.482237824
648.849465826
648.270863539
647.74096693
647.254853764
646.808149921
646.396630896
646.019291275
645.687883834
645.411524409
645.18626108
645.000219131
644.851216647
644.738666402
644.658093719
644.603232177
644.567506621
644.545816332
644.533566083
644.527489581
1035.46322873
1035.06644211
1034.26471377
1033.05059949
1031.42822151
1029.40183854
1026.97674744
1024.15921631
1020.95643852
1017.37649208
1013.42827924
1009.12147936
1004.46647922
999.474324606
994.156647563
988.525623529
982.593902018
976.374575985
969.88112191
963.127386747
956.12754152
948.896088798
941.447831162
933.797898738
925.961730566
917.95511883
909.794198947
901.495505076
893.075963384
884.55295318
875.94429744
867.268319862
858.543826401
849.790152316
841.027123609
832.275081941
823.554816569
814.887555576
806.294858609
797.798564509
789.420638008
781.183068072
773.107666293
765.215914391
757.528715274
750.066190647
742.84738674
735.890023972
729.210162705
722.821917212
716.737107343
710.964984891
705.511945423
700.381372605
695.573531087
691.085642219
686.912031765
683.044443077
679.472363247
676.183425089
673.163754082
670.398361075
667.87149375
665.567013943
663.468707632
661.560585089
659.827096902
658.253330884
656.825133823
655.529216465
654.353193842
653.285616057
652.315948495
651.434556654
650.632655476
649.902270041
649.236171694
648.627827491
648.07133234
647.561355486
647.093070676
646.662104486
646.263675829
645.90062429
645.587130106
645.327788291
645.116487502
644.942387304
644.800734786
644.6943267
644.619047377
644.566987666
644.532354811
644.511133521
644.498835793
644.492665874
1037.47662302
1037.07421768
1036.26228725
1035.03292742
1033.39037615
1031.33899683
1028.88423872
1026.03255493
1022.79135654
1019.16895723
1015.17451459
1010.8179673
1006.1099693
1001.06182353
995.685414951
989.993148158
983.997886495
977.712901098
971.151823175
964.328611137
957.25752109
949.953095763
942.430154644
934.703804341
926.789445872
918.702802392
910.459938321
902.077298623
893.571733651
884.960544491
876.261507197
867.492914504
858.673593581
849.82293864
840.960909174
832.108040518
823.285411331
814.514618735
805.81770275
797.217074623
788.735389583
780.395421905
772.219883115
764.231242412
756.451491283
748.901908471
741.60276934
734.573049893
727.830075123
721.389160672
715.263213709
709.462356258
703.993567526
698.86043005
694.062996258
689.597845871
685.458304096
681.634831344
678.115481746
674.886366428
671.932061209
669.23602009
666.780993625
664.549444674
662.523918583
660.68735479
659.023326389
657.516223019
656.151376187
654.915140309
653.794925179
652.779192836
651.857422771
651.020065536
650.258481448
649.564876381
648.932231058
648.35422998
647.825186916
647.339971016
646.893936431
646.482817947
646.102120093
645.759288728
645.467425696
645.226539007
645.026724684
644.861707293
644.731683817
644.637202961
644.566282777
644.516427791
644.483812365
644.461333172
644.448482469
644.441940643
1039.90855041
1039.49953353
1038.67529229
1037.4274194
1035.76031749
1033.67851057
1031.18764665
1028.29441691
1025.00650197
1021.33251256
1017.28192124
1012.8649945
1008.09271632
1002.97671628
997.529191682
991.762839327
985.690784897
979.326527065
972.683883163
965.776953503
958.620090071
951.22788552
943.615167038
935.797009202
927.788749781
919.606021092
911.264781235
902.781356952
894.172483475
885.455353652
876.647660257
867.767641684
858.834121909
849.866547571
840.88501097
831.910263981
822.963710572
814.067381425
805.243880563
796.516306726
787.9081431
779.443118248
771.145035916
763.037575791
755.144065086
747.487219032
740.088848853
732.969527061
726.148209306
719.6417985
713.464668273
707.628152336
702.14006381
697.004306134
692.2206684
687.784870179
683.688861051
679.921375479
676.468579551
673.31464892
670.442192953
667.832691747
665.466984764
663.325772364
661.390046225
659.641437225
658.0624565
656.636670195
655.348812502
654.184848393
653.131983218
652.17862412
651.314310413
650.529638813
649.816178002
649.166386033
648.573522891
648.031565537
647.535118251
647.079319779
646.659747294
646.271968783
645.913594264
645.59609217
645.327077689
645.103310915
644.917334683
644.766305457
644.649721847
644.562028625
644.495368956
644.44788945
644.417036852
644.394462335
644.381355384
644.374804599
1042.76543382
1042.34865227
1041.50988427
1040.24009721
1038.54390806
1036.42604185
1033.892398
1030.94995915
1027.60673778
1023.8717057
1019.75472244
1015.26645352
1010.41828968
1005.22225913
999.690945062
993.837400918
987.675076118
981.217745268
974.479452931
967.474467253
960.21725231
952.722452297
945.004893961
937.079600339
928.961818605
920.667056102
912.21112483
903.610191166
894.880829246
886.040079618
877.105505846
868.095253236
859.028105899
849.92354083
840.801768907
831.683767993
822.591291293
813.54685932
804.573715933
795.695761235
786.937441396
778.323613838
769.879368928
761.629830439
753.59991604
745.814076065
738.295987002
731.06820372
724.151739889
717.565566643
711.326015779
705.446107517
699.934858534
694.796690928
690.031080469
685.632590631
681.591271967
677.893505346
674.523017853
671.461599238
668.689443644
666.185568374
663.928415033
661.896488186
660.068890008
658.425692072
656.948171781
655.618956838
654.42212129
653.343229725
652.369318644
651.488804879
650.691365701
649.967825063
649.31004611
648.71082362
648.163783844
647.663285168
647.204318864
646.782406819
646.39351806
646.03350228
645.702315808
645.411569997
645.166387653
644.961146206
644.791454929
644.655064394
644.54934785
644.466899696
644.406436675
644.36111194
644.330107066
644.310248713
644.296685621
644.290353455
1046.0548175
1045.62902609
1044.77338171
1043.47811972
1041.74809959
1039.5882946
1037.00490427
1034.00526487
1030.59778567
1026.7918755
1022.59785733
1018.02688125
1013.09082673
1007.80220809
1002.17407319
996.219911425
989.95356098
983.389132471
976.540938987
969.423448711
962.05124958
954.439038929
946.601626467
938.553959102
930.311155538
921.888555731
913.301774958
904.566766502
895.699886129
886.717964135
877.638376086
868.479117354
859.25888094
849.99713059
840.7141675
831.431183159
822.170294266
812.954549494
803.80790685
794.755170638
785.821892642
777.034228895
768.418763945
760.002297309
751.811606671
743.87317864
736.212912156
728.855762317
721.825306863
715.1431735
708.828318762
702.896114871
697.357350734
692.217297966
687.475075825
683.123708319
679.15051751
675.538609084
672.268581338
669.319424513
666.668474576
664.291692408
662.164500861
660.262693441
658.563104241
657.044010569
655.685303591
654.468577962
653.377205564
652.396365518
651.513011831
650.715684875
649.994314411
649.340062252
648.745189468
648.202930158
647.707375502
647.253364762
646.836376097
646.452413573
646.097915898
645.768988102
645.467847035
645.206903756
644.986714087
644.800913721
644.648043336
644.525769164
644.429678683
644.355226201
644.298367404
644.256559788
644.226318179
644.208626446
644.19447756
644.18852882
1049.78544945
1049.34930389
1048.47431139
1047.14981882
1045.38098031
1043.17305519
1040.532602
1037.46737335
1033.98625228
1030.0991647
1025.8169891
1021.15145153
1016.11502045
1010.72079068
1004.98237271
998.913777518
992.529314352
985.843493064
978.870948406
971.626378193
964.124510031
956.380087026
948.407881902
940.222727676
931.839568951
923.273521915
914.539944892
905.654511762
896.633290717
887.492828927
878.250238381
868.923289363
859.530510026
850.091286645
840.625956756
831.155894525
821.703570873
812.292590372
802.947683825
793.694664167
784.560325634
775.572304188
766.758884953
758.14878591
749.770907784
741.654080996
733.826780982
726.316812609
719.150885635
712.354019155
705.948678888
699.95355936
694.38213347
689.241058407
684.529136536
680.237311518
676.348847038
672.842015035
669.693441233
666.879202928
664.373397445
662.148151618
660.175019294
658.426412646
656.876515697
655.501610307
654.280101807
653.192496933
652.221415531
651.351712173
650.570407818
649.866363794
649.229925789
648.652723174
648.127545973
647.648180868
647.209294207
646.806316259
646.435322754
646.092915838
645.776127452
645.48148644
645.213666469
644.983347295
644.786915529
644.620968792
644.486268027
644.379224432
644.294238581
644.227095492
644.173061722
644.13275615
644.105685803
644.088582423
644.075063708
644.069093548
1053.96736052
1053.51943538
1052.62245869
1051.26476239
1049.45182498
1047.18924497
1044.48399528
1041.34431976
1037.77965541
1033.80054112
1029.4185092
1024.64597293
1019.49609846
1013.98267807
1008.11999254
1001.92268269
995.405619149
988.583792459
981.472214376
974.085851208
966.439579478
958.548179324
950.426352328
942.088771008
933.55014343
924.825294615
915.929250605
906.877328265
897.685224493
888.369115269
878.945754976
869.432590578
859.847887432
850.210859685
840.54180095
830.862205013
821.194867008
811.563949873
801.995009167
792.514959469
783.151984867
773.935383366
764.895363759
756.062800729
747.468982261
739.145361113
731.123324785
723.433959672
716.10771989
709.173898181
702.659637314
696.588442391
690.977844707
685.83700037
681.164324381
676.94837982
673.165778678
669.787125127
666.784123328
664.130775364
661.797836431
659.75236243
657.960701637
656.391034893
655.014519283
653.805379222
652.740569172
651.79944271
650.963840392
650.218308027
649.55025426
648.949183495
648.406069649
647.913160662
647.463914274
647.052801486
646.67517624
646.327178978
646.005601267
645.707772586
645.431473407
645.174088553
644.941389026
644.741136757
644.568887431
644.425384785
644.309520943
644.215820688
644.139764208
644.07901172
644.030577082
643.99294731
643.966576549
643.950014307
643.938341981
643.932174663
1058.61194393
1058.15069527
1057.22894589
1055.83381335
1053.97116428
1051.64697835
1048.86871282
1045.64517856
1041.98646254
1037.90381825
1033.40955066
1028.51688058
1023.23980567
1017.59294479
1011.59138457
1005.25051708
998.585890781
991.613067423
984.347508699
976.804486984
968.999040654
960.945964369
952.659845272
944.15512774
935.446206859
926.547529817
917.473703336
908.239595059
898.860435226
889.351924148
879.730344629
870.012696774
860.216853043
850.361727364
840.467449083
830.555535161
820.649037296
810.772658242
800.952807841
791.217598187
781.596751044
772.12143269
762.82400854
753.737765265
744.896618935
736.334883695
728.08711039
720.188012802
712.672383002
705.57473222
698.928522352
692.764090201
687.10563521
681.966443801
677.344717563
673.227120011
669.578572516
666.356011317
663.525307616
661.06238922
658.934915764
657.102450895
655.523853178
654.16189521
652.98455564
651.964284622
651.076781388
650.300313089
649.615644469
649.00703028
648.462828367
647.973786276
647.531777752
647.129732403
646.761974408
646.423782088
646.111302437
645.821518268
645.552045038
645.301046967
645.0671278
644.848508705
644.651698283
644.482034542
644.336068906
644.215706468
644.116258587
644.033962329
643.966493782
643.91285154
643.869853025
643.837109538
643.811908184
643.794939265
643.785853321
643.780125886
1063.73204527
1063.25582753
1062.30630688
1060.86922151
1058.95085782
1056.55763853
1053.69757011
1050.38012207
1046.61613154
1042.41768864
1037.79799861
1032.77123617
1027.35237762
1021.55702918
1015.40123655
1008.90129871
1002.07357601
994.934320669
987.499525512
979.784819815
971.805407712
963.576069084
955.111208612
946.424955801
937.531289115
928.444174863
919.17769595
909.746169988
900.164253145
890.44705296
880.610245301
870.670230684
860.644321562
850.550957794
840.409938222
830.242654772
820.072307789
809.924080458
799.82525124
789.805214975
779.895402138
770.129077031
760.541042031
751.16726621
742.044530709
733.210164245
724.701976614
716.558459047
708.819068127
701.524596964
694.716576137
688.435660007
682.716576877
677.580641328
673.024242901
669.038237474
665.564009008
662.531023474
659.899388388
657.659881838
655.777416662
654.198292168
652.869607932
651.747391708
650.796921421
649.989854741
649.301410388
648.708639355
648.190649099
647.730896346
647.319984787
646.951135704
646.617255006
646.311832067
646.030296439
645.76889285
645.524612655
645.295445537
645.07993308
644.877200562
644.686754182
644.508281534
644.34823702
644.208625067
644.089225739
643.988734967
643.904597642
643.834819257
643.778006519
643.732012812
643.694346907
643.665333251
643.643469893
643.626519944
643.620099278
643.614791248
1069.34206212
1068.84907534
1067.86859461
1066.38470681
1064.40419205
1061.93396089
1058.98265168
1055.56048507
1051.67916859
1047.3517587
1042.59251423
1037.41672291
1031.84051982
1025.88067929
1019.55439988
1012.87906907
1005.87203481
998.550380954
990.930741412
983.029156019
974.861000701
966.440987239
957.783246286
948.901466892
939.809079264
930.519437677
921.045985798
911.402381771
901.602598637
891.661023456
881.592571434
871.412857168
861.138420126
850.78699701
840.377825507
829.931962705
819.472585151
809.025252751
798.618089963
788.28186212
778.049898819
767.957859765
758.043330015
748.345308604
738.903681283
729.758850049
720.951734672
712.524269222
704.520534696
696.987959669
689.978538738
683.547606232
677.748316441
672.617144395
668.140818818
664.340372482
661.104022585
658.299010051
655.883363074
653.902827408
652.316287338
651.041559803
650.006475007
649.159039669
648.4643657
647.895698824
647.429386099
647.0410355
646.706182428
646.405568799
646.135152341
645.89338379
645.673970993
645.469876816
645.27831709
645.096702821
644.922697763
644.755618004
644.594975728
644.44099491
644.294289344
644.155630746
644.031741715
643.921585792
643.826133939
643.745197091
643.676917487
643.621434712
643.575916577
643.537588908
643.505929226
643.481120767
643.46175304
643.447268854
643.441904627
643.437217436
1075.45805314
1074.94636786
1073.93147926
1072.39558392
1070.34598251
1067.79014008
1064.73740138
1061.19885038
1057.1871913
1052.71660181
1047.8025587
1042.46165344
1036.71137875
1030.56990059
1024.05579537
1017.18777378
1009.98438457
1002.46373382
994.643230086
986.539399199
978.167782462
969.54294958
960.678616372
951.587859877
942.283379166
932.77775795
923.083670201
913.214012754
903.181973138
893.001094034
882.685358403
872.2493731
861.708634435
851.079875068
840.381460367
829.633814419
818.85983767
808.085286697
797.339067516
786.653387504
776.063716048
765.608491916
755.328582691
745.266506376
735.465588548
725.969291898
716.821097186
708.06544483
699.749688768
691.927437884
684.662301604
678.030978537
672.119280822
666.99657499
662.598499233
659.082012091
656.199306229
653.660768228
651.441250536
649.764788227
648.55176265
647.651919088
646.961309694
646.423883278
646.010767094
645.703086547
645.480845526
645.318667292
645.184507451
645.049452808
644.921868782
644.812982406
644.714626412
644.615352415
644.51628793
644.416642368
644.313783477
644.209240772
644.10328493
643.997412824
643.893273945
643.793017627
643.702703261
643.620603166
643.54878605
643.488231014
643.437615179
643.396766284
643.361083221
643.329858684
643.305112221
643.285344987
643.269994188
643.258327414
643.251802589
643.24873288
1082.09785969
1081.5653512
1080.51238638
1078.91887412
1076.79270862
1074.14194835
1070.97673946
1067.30914402
1063.15301523
1058.52381695
1053.43843759
1047.91497736
1041.97252462
1035.63089031
1028.91031216
1021.83110872
1014.41331378
1006.67629783
998.638431605
990.31681879
981.727159373
972.883760731
963.79972203
954.487251877
944.958069231
935.223781454
925.296161257
915.18726388
904.909426726
894.475241885
883.897582899
873.189782702
862.365954717
851.441433624
840.433294609
829.360917457
818.24655511
807.115878934
795.998429586
784.927910393
773.94221269
763.083098556
752.395453307
741.926119358
731.722464287
721.831028539
712.296967958
703.165134081
694.483163186
686.307167997
678.710829442
671.798631372
665.719219924
660.63276175
656.232707882
653.217960878
650.925615581
648.599566021
646.212178616
644.795484679
644.081692345
643.686055177
643.434536015
643.27409847
643.202408105
643.221263066
643.322804822
643.480361363
643.632728561
643.686796929
643.695393012
643.723886721
643.754507316
643.760906031
643.754693977
643.739131529
643.70667864
643.664109694
643.611489228
643.552032031
643.488664551
643.425132414
643.364131442
643.309090158
643.261586661
643.220830496
643.188807077
643.160125876
643.133080647
643.111270743
643.094626646
643.080359124
643.069065258
643.059958466
643.053411051
643.051787769
1089.2812272
1088.72561649
1087.63061906
1085.97347029
1083.76265644
1081.0068867
1077.71719274
1073.90675812
1069.59074967
1064.78611318
1059.5113523
1053.78631186
1047.63193361
1041.06997947
1034.12268367
1026.81234279
1019.16083929
1011.18914469
1002.91684342
994.361755269
985.539719003
976.464607145
967.148589629
957.602628813
947.837095633
937.862357568
927.689158375
917.3287001
906.792482537
896.092099678
885.239138597
874.245344679
863.123013044
851.885568276
840.54823981
829.128799725
817.648322489
806.131951974
794.609592743
783.116425243
771.693099368
760.385436783
749.243477976
738.319761077
727.666897126
717.334958139
707.369591169
697.812863094
688.706923431
680.101672943
672.070570686
664.742162092
658.380583614
653.389795531
647.988537559
645.962597446
645.124088634
644.198378874
643.641964825
643.40187791
643.306800421
643.253809704
643.194513085
643.128156378
643.070259592
643.015640475
642.933230942
642.767629698
642.481133972
642.252460974
642.309805922
642.534891376
642.776493397
642.917493307
643.0035896
643.076867048
643.110465949
643.128520571
643.126595301
643.110438266
643.08465772
643.053570491
643.021332733
642.992988447
642.968424601
642.947810651
642.931531361
642.913840401
642.898967319
642.887599209
642.87812146
642.869298109
642.861167123
642.855297907
642.84983962
642.849193902
1097.02993376
1096.44871832
1095.30752801
1093.58028875
1091.27610906
1088.40435713
1084.97706202
1081.00868846
1076.51592408
1071.51740699
1066.03348482
1060.08598674
1053.69799842
1046.89357421
1039.69736142
1032.13409856
1024.2280106
1016.00212819
1007.47761933
998.673220025
989.604893877
980.285814731
970.726753005
960.936831636
950.924520427
940.698579298
930.268634269
919.645158911
908.838998949
897.860810906
886.720743709
875.428567686
863.994198519
852.428479482
840.744067879
828.956369453
817.084529627
805.152491028
793.190030324
781.233644406
769.327063781
757.521141244
745.872780822
734.442524547
723.290690086
712.472447734
702.032955109
692.00756042
682.424583414
673.310331958
664.699287678
656.615784277
649.073724465
645.59040859
644.710616966
644.671902331
644.749745772
644.643456915
644.476400536
644.321166485
644.190109277
644.065573857
643.932425182
643.794384172
643.653654549
643.50213596
643.328921271
643.123274015
642.905193339
642.746553221
642.679446724
642.597997396
642.34534435
642.068781365
642.191798744
642.423760651
642.531033896
642.611353874
642.656323242
642.678302228
642.686036339
642.684111638
642.680674524
642.677413815
642.674524606
642.672880467
642.670791032
642.665847975
642.663497646
642.660604403
642.657092954
642.653486954
642.649535787
642.646390005
642.642861494
642.643109192
1105.3678963
1104.75843233
1103.56666075
1101.76249862
1099.35556322
1096.35588875
1092.77661255
1088.63370668
1083.94562711
1078.73295497
1073.01810546
1066.82513651
1060.1795655
1053.10812846
1045.63837965
1037.79810429
1029.61453072
1021.11340481
1012.31801999
1003.24835517
993.920498563
984.346550676
974.535146906
964.492632564
954.22468477
943.737920983
933.040841552
922.143608957
911.056916827
899.790761974
888.353733634
876.753129683
864.995728808
853.08891906
841.041850331
828.866571753
816.579256842
804.201631888
791.76250081
779.299209292
766.858739323
754.498122192
742.283522774
730.287310945
718.582167316
707.232481258
696.282991783
685.759791931
675.671872902
666.006635661
656.659328317
646.935020607
645.928993909
645.77067531
645.780920305
645.898241616
646.018064454
646.046231979
645.992328486
645.872716865
645.718873637
645.547198807
645.367584951
645.17858693
644.96969314
644.731363344
644.448409612
644.112524727
643.748415283
643.414636491
643.142807828
642.904774922
642.691462788
642.552269644
642.442983243
642.17307039
641.933334767
642.086953835
642.205013413
642.259738252
642.29809437
642.323910276
642.346552417
642.365530857
642.382203004
642.397913024
642.407812984
642.415641326
642.423204874
642.428470836
642.431935724
642.434113851
642.435625693
642.43486049
642.434211143
642.434777693
1114.32125604
1113.68073244
1112.43397441
1110.54575997
1108.02603821
1104.88541507
1101.13831899
1096.80254659
1091.89867435
1086.44950408
1080.47973392
1074.01584134
1067.08604225
1059.72015739
1051.94924323
1043.80490569
1035.31828783
1026.51878986
1017.43266149
1008.08166311
998.482083288
988.644418834
978.574039344
968.272970582
957.742605824
946.98655475
936.012373185
924.830908409
913.453824992
901.891101362
890.149687663
878.233684059
866.145661954
853.888407387
841.466418041
828.887135152
816.162355699
803.310084574
790.356754927
777.339516423
764.308330678
751.32741629
738.475328
725.842092612
713.521100104
701.595343229
690.11004869
679.082279217
668.505218037
658.28755541
647.685129774
646.400450915
646.890439786
647.207756647
647.413172171
647.570926118
647.712052053
647.797766306
647.806766965
647.733498265
647.594348836
647.405785754
647.185504517
646.936083618
646.65151648
646.327842257
645.955850049
645.53281233
645.078322356
644.630213284
644.206728136
643.791856235
643.385466744
643.027904213
642.73930506
642.519244716
642.3643318
642.143220311
641.805382595
641.819932413
641.923510473
641.9738821
642.021931473
642.05936983
642.091885795
642.121729404
642.142962146
642.162351821
642.178901405
642.192531533
642.20358512
642.2122403
642.218960995
642.221859038
642.223764184
642.224507506
1123.91834977
1123.24403816
1121.93802084
1119.95860041
1117.31547719
1114.01965734
1110.08714246
1105.53810808
1100.39576511
1094.68547077
1088.43434495
1081.67136229
1074.4275983
1066.73634787
1058.63285849
1050.1535612
1041.3347664
1032.21089985
1022.81245106
1013.16389013
1003.28196553
993.174888966
982.843017888
972.281498604
961.484806807
950.452019795
939.190305239
927.713388802
916.036183544
904.169923723
892.119804289
879.88552803
867.463828555
854.851402591
842.046791264
829.051375241
815.870724944
802.516962336
789.011896058
775.390503249
761.704391419
748.025245359
734.447218822
721.086235497
708.070574408
695.523022436
683.485735611
671.961276659
660.874620226
649.533671585
648.104805804
648.45633214
648.875657279
649.076239122
649.283025005
649.484782444
649.669607478
649.79834376
649.844841994
649.797121377
649.660690446
649.448388326
649.179374838
648.861731652
648.496343848
648.086033037
647.629726755
647.130687927
646.604102391
646.072747039
645.548181091
645.024604177
644.500942822
643.993354524
643.513081545
643.070930081
642.698286685
642.412224458
642.210540599
641.971123329
641.615142093
641.60148902
641.707619947
641.760813472
641.80645395
641.848286712
641.880110833
641.90962089
641.933538063
641.955309121
641.974018902
641.988818146
642.000421622
642.008054722
642.011707521
642.013105978
1134.18955188
1133.47907444
1132.11019496
1130.03288477
1127.25537151
1123.78862918
1119.65085391
1114.8656114
1109.45959689
1103.46110155
1096.89964197
1089.80649487
1082.21553436
1074.16382067
1065.69157355
1056.84134025
1047.65632926
1038.17799607
1028.44307257
1018.48034674
1008.3077297
997.930388203
987.341055545
976.52368071
965.460997368
954.144556955
942.582480877
930.79606035
918.807942309
906.632878025
894.273925594
881.724139747
868.971720006
856.005369782
842.816498032
829.398942269
815.749729279
801.872004548
787.779571818
773.501764066
759.088669358
744.617425084
730.199426786
715.986401237
702.164339858
688.949258488
676.353067523
664.282929859
652.057680717
650.578874211
650.939232507
651.141730147
651.197712843
651.297521587
651.482310642
651.684948124
651.865951176
651.984653738
652.01498387
651.943630828
651.77173904
651.510372077
651.177755302
650.784978088
650.338921342
649.847443401
649.315044074
648.747868651
648.157163557
647.556474997
646.953808621
646.350068637
645.747495442
645.153117779
644.570041288
643.999649914
643.454990727
642.95410559
642.52684429
642.196253416
641.981155195
641.759217471
641.455096534
641.455727776
641.527824298