/*--------------------------------*- C++ -*----------------------------------*\
| =========                 |                                                 |
| \\      /  F ield         | OpenFOAM: The Open Source CFD Toolbox           |
|  \\    /   O peration     | Version:  v1906                                 |
|   \\  /    A nd           | Web:      www.OpenFOAM.com                      |
|    \\/     M anipulation  |                                                 |
\*---------------------------------------------------------------------------*/
FoamFile
{
    version     2.0;
    format      ascii;
    class       surfaceScalarField;
    location    "232";
    object      phia;
}
// * * * * * * * * * * * * * * * * * * * * * * * * * * * * * * * * * * * * * //

dimensions      [0 3 -1 0 0 0 0];
oriented        oriented;


internalField   nonuniform List<scalar> 
18240
(
0.0121978249211
-0.0121978256151
0.0250788001876
-0.0128809761982
0.0378851740224
-0.0128063744612
0.0505306453848
-0.0126454723198
0.0629559325533
-0.0124252877091
0.0751084859185
-0.0121525543521
0.0869406961134
-0.0118322106593
0.0984097399956
-0.0114690448965
0.109477703531
-0.0110679639316
0.120111714538
-0.0106340120459
0.130284003908
-0.0101722897049
0.139971857721
-0.00968785487417
0.14915748182
-0.00918562437954
0.157827772838
-0.00867029209896
0.165974032848
-0.00814626024111
0.17359162387
-0.00761759211821
0.180679601312
-0.00708797763047
0.187240318315
-0.00656071810892
0.193279038002
-0.00603871983639
0.198803539651
-0.00552450275999
0.203823752563
-0.0050202130252
0.208351397933
-0.00452764648083
0.212399669549
-0.00404827169366
0.215982928968
-0.00358326052409
0.219116443948
-0.00313351502515
0.221816142488
-0.00269969963276
0.224098410251
-0.00228226777717
0.225979902031
-0.00188149285553
0.227477395583
-0.00149749353453
0.228607659893
-0.00113026536399
0.229387371595
-0.000779711654206
0.22983306137
-0.000445690802036
0.229961156757
-0.000128095310419
0.229788138771
0.000173016991236
0.229327737825
0.00046040105257
0.228594683702
0.000733053163008
0.22760342506
0.000991258775637
0.22636787293
0.00123555120621
0.224901425577
0.00146644751169
0.223216962289
0.0016844624036
0.221326853149
0.00189010932108
0.219242956048
0.00208389625775
0.216976630201
0.0022663260508
0.214538737728
0.0024378916718
0.211939660978
0.00259907697342
0.209189307465
0.00275035275574
0.206297129501
0.00289217820657
0.20327213109
0.00302499769715
0.200122888605
0.00314924274358
0.196857558588
0.00326532934785
0.19348389857
0.00337366029198
0.190009275078
0.00347462286753
0.186440684008
0.00356859135499
0.182784758405
0.00365592502372
0.179047788014
0.00373697068637
0.175235726591
0.00381206088689
0.171354210443
0.00388151645251
0.167408565137
0.00394564481228
0.163403822956
0.00400474249118
0.159344728983
0.00405909352263
0.155235757448
0.00410897184821
0.151081117239
0.00415463980052
0.146884767171
0.00419635038322
0.14265042099
0.00423434581226
0.138381561643
0.0042688596615
0.134081445858
0.0043001154562
0.129753117495
0.00432832867476
0.12539941181
0.0043537053946
0.121022967972
0.00437644414626
0.116626233105
0.00439673461394
0.112211474067
0.00441475934037
0.107780781364
0.00443069248737
0.103336080265
0.00444470139277
0.098879134689
0.00445694539673
0.0944115577221
0.00446757725233
0.089934815553
0.00447674202461
0.08545023747
0.00448457835751
0.0809590199076
0.0044912174517
0.0764622359801
0.00449678418926
0.0719608397063
0.00450139619533
0.0674556751335
0.00450516481947
0.062947480806
0.00450819427963
0.0584368985477
0.0045105824879
0.053924478276
0.00451242025322
0.0494106865962
0.00451379189135
0.0448959122513
0.00451477435648
0.0403804751186
0.00451543732725
0.0358646336317
0.00451584153059
0.0313485973729
0.00451603643792
0.0268325445873
0.00451605285929
0.0223166601427
0.00451588460319
0.017801223193
0.00451543704661
0.0132868670755
0.00451435624145
0.00877532909583
0.00451153811428
0.00428057885686
0.00449475038413
0.00428057892683
0.0128052749043
-0.0250031013014
0.0264780384265
-0.0265537405992
0.0400294588867
-0.0263577956913
0.0533996300734
-0.0260156443485
0.0665344859526
-0.025560144302
0.0793821688136
-0.0250002380192
0.0918939117595
-0.0243439542562
0.104025295948
-0.0236004298488
0.115736768663
-0.0227794372288
0.126993913237
-0.0218911573353
0.137767551979
-0.0209459289582
0.14803371571
-0.019954019266
0.157773509387
-0.0189254184961
0.166972886024
-0.0178696693422
0.175622355888
-0.016795730473
0.183716641055
-0.0157118778355
0.191254301011
-0.0146256378872
0.198237335578
-0.013543753173
0.204670787441
-0.0124721719369
0.210562345533
-0.0114160612983
0.215921967503
-0.0103798351749
0.220761517612
-0.00936719698815
0.225094434679
-0.00838118888898
0.228935422479
-0.00742424868105
0.23230017451
-0.006498267139
0.235205122715
-0.0056046481562
0.237667220297
-0.00474436540314
0.239703746219
-0.00391801906162
0.241332139873
-0.00312588719896
0.242569850489
-0.00236797623522
0.243434203968
-0.00164406511471
0.243942259005
-0.000953746069559
0.244110604931
-0.000296441193817
0.243954844269
0.000328777448906
0.243492334109
0.000922911281032
0.24273895571
0.00148643138147
0.241709904044
0.00202031052638
0.240419882469
0.00252557261779
0.238883079245
0.00300325083305
0.237113158629
0.00345438287079
0.235123259539
0.00388000851808
0.232925993512
0.00428116214826
0.230533451643
0.00465886803462
0.22795720903
0.00501413415959
0.22520833676
0.00534794936404
0.222297410352
0.00566127904964
0.21923452469
0.00595506399328
0.216029304752
0.00623021753109
0.212690922043
0.00648762558029
0.209228106423
0.00672814487454
0.205649163045
0.0069526038
0.201961984486
0.00716180134119
0.198174067542
0.0073565084311
0.194292525135
0.00753746735518
0.190324102558
0.00770539339618
0.186275188864
0.00786097451499
0.182151832316
0.00800487313398
0.177959751104
0.00813772596836
0.17370434789
0.00826014583956
0.169390719793
0.00837272157186
0.165023672014
0.00847601976266
0.160607727088
0.00857058468919
0.156147137618
0.00865693998879
0.15164589486
0.00873558854231
0.147107740622
0.00880701403601
0.142536175257
0.00887168080406
0.137934468811
0.00893003525702
0.133305668522
0.00898250567684
0.128652609299
0.00902950350608
0.123977920821
0.00907142309617
0.119284037441
0.00910864285808
0.114573204974
0.00914152496957
0.109847490114
0.00917041639162
0.105108786994
0.00919564854359
0.100358826194
0.00921753819233
0.0955991811522
0.00923638710523
0.0908312768304
0.00925248281962
0.0860563960482
0.00926609828394
0.0812756878639
0.00927749251393
0.0764901738905
0.00928691022942
0.0717007564497
0.00929458239952
0.0669082249254
0.00930072587423
0.0621132637453
0.00930554380521
0.057316458835
0.00930922524302
0.0525183054954
0.00931194536614
0.0477192150325
0.0093138649094
0.0429195225681
0.00931512992689
0.0381194936903
0.00931587051113
0.0333193312276
0.00931619903832
0.0285191779504
0.00931620625318
0.0237191077336
0.00931595494942
0.0189190732598
0.0093154716358
0.0141187116177
0.00931471801815
0.00931704759086
0.00931320227671
0.00451829663525
0.00929350148768
0.00879887564971
0.0129692437448
-0.0379723458602
0.0267761428354
-0.0403606405373
0.0404737688724
-0.0400554225493
0.0539882392536
-0.0395301155501
0.0672607053555
-0.0388326111816
0.0802371636394
-0.0379766970881
0.0928675119024
-0.0369743032539
0.105106373004
-0.0358392916987
0.116913531163
-0.0345865960791
0.128254190039
-0.0332318169218
0.139099061361
-0.0317908009297
0.149424312472
-0.0302792710507
0.159211399116
-0.0287125057496
0.168446804328
-0.0271050751917
0.177121708192
-0.0254706349089
0.185231606634
-0.0238217768804
0.192775900781
-0.0221699325706
0.199757470453
-0.0205253234159
0.206182248364
-0.01889695035
0.212058803071
-0.0172926165464
0.217397942111
-0.0157189746844
0.222212338268
-0.0141815936562
0.226516186161
-0.0126850372215
0.230324888177
-0.0112329511803
0.233654773896
-0.00982815326782
0.236522849406
-0.00847272412061
0.238946578724
-0.00716809510223
0.240943692018
-0.0059151327829
0.242532021389
-0.00471421692344
0.243729357037
-0.00356531228308
0.244553322283
-0.00246803068755
0.245021258646
-0.00142168280499
0.245150128346
-0.000425311192061
0.244956633394
0.000522272060961
0.244457577295
0.00142196711992
0.243668587977
0.00227542039294
0.242604834952
0.0030840633166
0.241281043326
0.00384936396358
0.239711431462
0.00457286248809
0.237909687204
0.0052561268742
0.23588896231
0.00590073322706
0.233661872769
0.00650825145943
0.23124050516
0.00708023548199
0.228636424283
0.00761821483107
0.22586068459
0.00812368891867
0.222923841553
0.0085981219051
0.219835965787
0.00904293964345
0.216606656366
0.00945952679311
0.21324505624
0.00984922561179
0.209759866345
0.0102133346336
0.20615936137
0.0105531087003
0.202451403929
0.010869758668
0.198643460068
0.0111644522372
0.194742613027
0.011438314303
0.190755578128
0.0116924282587
0.186688715854
0.0119278367159
0.182548045918
0.0121455430507
0.178339259529
0.0123465123029
0.174067732561
0.0125316728046
0.169738536967
0.0127019171294
0.165356453045
0.0128581036971
0.160925980025
0.0130010576887
0.156451347482
0.0131315725588
0.151936525155
0.0132504108649
0.147385233582
0.0133583056488
0.142800953245
0.0134559611513
0.138186934513
0.0135440540416
0.133546206207
0.0136232340076
0.128881584949
0.0136941248265
0.124195683254
0.0137573248298
0.119490918367
0.0138134078186
0.114769519976
0.0138629234107
0.110033538642
0.0139063978089
0.105284853206
0.0139443340427
0.100525178889
0.0139772126016
0.0957560744824
0.0140054915851
0.090978950187
0.0140296072155
0.0861950746445
0.0140499739096
0.0814055825816
0.0140669846838
0.0766114817425
0.0140810111601
0.0718136603831
0.0140924038709
0.0670128941517
0.0141014922039
0.06220985347
0.0141085846023
0.0574051103851
0.014113968432
0.0525991458309
0.014117910039
0.0477923563811
0.0141206544699
0.0429850611602
0.0141224252713
0.0381775078816
0.0141234239097
0.0333698778593
0.0141238291904
0.0285622876051
0.0141237966339
0.0237547834391
0.0141234592493
0.0189473208817
0.0141229343164
0.0141397315056
0.0141223075127
0.00933196774865
0.0141209661828
0.00453286877149
0.0140926006265
0.0133317444912
0.0131458729582
-0.0511182196465
0.0271307900576
-0.0543455584996
0.0410033363867
-0.0539279697088
0.0546861931359
-0.0532129731227
0.0681172041497
-0.0522636229901
0.0812400613442
-0.0510995550664
0.094003013529
-0.0497372561942
0.106359565879
-0.0481958447926
0.118268844013
-0.0464958749282
0.129695807861
-0.0446587814738
0.140611295126
-0.0427062888675
0.150991918587
-0.0406598951745
0.160819842713
-0.0385404305064
0.170082465234
-0.0363676983367
0.178772029943
-0.0341602002082
0.186885193368
-0.0319349408897
0.194422566868
-0.0297073066214
0.201388250693
-0.0274910077871
0.207789375048
-0.0252980752188
0.213635658097
-0.0231389001045
0.218938989764
-0.0210223068284
0.223713045723
-0.0189556500903
0.227972935693
-0.0169449276335
0.231734886413
-0.0149949023414
0.235015960344
-0.0131092276084
0.237833808007
-0.0112905721912
0.240206453238
-0.00954074071125
0.242152108074
-0.00786078799645
0.243689015872
-0.00625112506827
0.244835319471
-0.00471161622978
0.245608954203
-0.00324166573817
0.246027564362
-0.0018402932826
0.246108454448
-0.000506201567632
0.245868584903
0.000762141323685
0.245324020589
0.00196653118674
0.244490708646
0.00310873208778
0.243384036553
0.00419073518819
0.242018810394
0.00521458989889
0.240409280501
0.00618239218257
0.238569144097
0.00709626307676
0.236511548039
0.00795832910856
0.234249093597
0.00877070572172
0.2317938446
0.00953548432423
0.229157337415
0.0102547218575
0.226350593241
0.0109304329571
0.223384131222
0.0115645837863
0.220267983007
0.012159087743
0.217011707432
0.0127158022488
0.21362440605
0.0132365268977
0.210114738327
0.0137230022563
0.206490937301
0.0141769096472
0.202760824628
0.0145998712596
0.198931825816
0.0149934509884
0.195010984701
0.0153591553529
0.191004977973
0.0156984349418
0.186920128837
0.0160126858046
0.182762420656
0.0163032512019
0.17853750972
0.0165714232067
0.174250737949
0.016818444562
0.16990714474
0.0170455103211
0.165511478763
0.0172537696747
0.161068208927
0.0174443275215
0.156581535321
0.0176182461782
0.152055399384
0.017776546813
0.14749349407
0.0179202109887
0.142899273322
0.0180501819233
0.13827596156
0.0181673658416
0.133626562555
0.0182726330485
0.128953868348
0.0183668190825
0.124260467623
0.0184507256026
0.119548754154
0.0185251213488
0.114820934771
0.0185907428527
0.110079037433
0.018648295218
0.105324918874
0.0186984526712
0.100560272376
0.0187418591804
0.0957866351766
0.0187791288641
0.0910053960143
0.0188108464675
0.0862178023625
0.0188375676504
0.0814249678043
0.0188598193394
0.0766278791479
0.0188780999131
0.0718274036771
0.0188928794454
0.0670242961824
0.0189045998015
0.0622192061108
0.0189136747825
0.0574126845175
0.0189204901332
0.0526051910763
0.0189254035934
0.0477971008399
0.0189287448203
0.0429887108666
0.0189308153645
0.0381802462751
0.0189318886233
0.0333718655055
0.0189322100884
0.0285636639971
0.0189319982735
0.0237556758691
0.0189314475021
0.0189478745656
0.0189307357436
0.0141401956357
0.018929986583
0.00933286790402
0.018928294052
0.00453543079963
0.0188900378798
0.0178671753731
0.0133776073348
-0.0644958278298
0.0276080624369
-0.0685760144446
0.0417183984447
-0.0680383065646
0.0556287320491
-0.0671233075529
0.0692734063304
-0.0659082980789
0.0825933398936
-0.064419489417
0.0955346247903
-0.0626785418569
0.108049260537
-0.0607104812862
0.120095484213
-0.0585420993281
0.131637937999
-0.0562012359638
0.142647650657
-0.0537160022074
0.153101862075
-0.0511141072545
0.162983720345
-0.048422289416
0.172281882551
-0.0456658611633
0.180990049352
-0.0428683676073
0.189106460023
-0.0400513521414
0.196633371142
-0.0372342183004
0.203576537363
-0.0344341745495
0.209944708971
-0.0316662473486
0.215749156542
-0.0289433481808
0.221003230091
-0.0262763808635
0.225721956707
-0.0236743771767
0.229921678893
-0.0211446502716
0.23361973352
-0.0186929574056
0.236834170488
-0.0163236649951
0.239583508758
-0.0140399108665
0.241886527341
-0.0118437596817
0.243762087953
-0.00973634898373
0.245228986516
-0.00771802398833
0.246305830169
-0.00578846022861
0.24701093725
-0.00394677314804
0.247362258219
-0.00219161456949
0.247377322007
-0.000521265654598
0.247073177688
0.0010662853655
0.246466349356
0.00257335926678
0.24557279368
0.00400228752318
0.244407929798
0.00535559884422
0.242986608137
0.00663591134199
0.241323105049
0.00784589506752
0.239431124237
0.00898824369503
0.237323802297
0.010065650867
0.235013716997
0.0110807908498
0.232512898062
0.0120363030995
0.229832839715
0.0129347800531
0.226984514747
0.0137787577865
0.223978389461
0.0145707089408
0.220824439411
0.0153130376749
0.217532165383
0.0160080761649
0.214110609676
0.0166580825056
0.210568372214
0.0172652396256
0.206913626633
0.0178316551466
0.203154135951
0.0183593618669
0.199297268018
0.0188503188582
0.195350010415
0.019306412898
0.191318985011
0.0197294602996
0.187210461915
0.0201212088595
0.183030373051
0.0204833400355
0.178784325102
0.0208174711305
0.174477612078
0.021125157571
0.170115227276
0.021407895112
0.16570187489
0.0216671220601
0.161241981048
0.0219042213678
0.15673970454
0.0221205226986
0.152198947037
0.0223173043327
0.147623363036
0.0224957950157
0.143016369354
0.0226571756343
0.138381154412
0.0228025808221
0.133720687112
0.0229331003897
0.129037725562
0.023049780682
0.124334825452
0.0231536257654
0.119614348316
0.0232455985455
0.114878469507
0.0233266217257
0.110129186093
0.0233975787031
0.105368324519
0.0234593143199
0.100597548219
0.0235126355612
0.0958183650434
0.0235583121237
0.0910321346596
0.0235970769411
0.0862400758054
0.0236296265974
0.0814432735408
0.0236566217018
0.076642686377
0.0236786871769
0.0718391534185
0.0236964125079
0.0670334014068
0.0237103519191
0.0622260517695
0.0237210245288
0.0574176275743
0.023728914439
0.0526085604602
0.0237344708214
0.0477991974243
0.0237381079726
0.0429898074846
0.0237402054247
0.0381805880721
0.0237411081608
0.03337167114
0.0237411271487
0.0285631290476
0.0237405404953
0.0237549810285
0.0237395956568
0.0189472026684
0.0237385142304
0.0141397598582
0.0237374295101
0.00933291803799
0.0237351360247
0.00453622607282
0.0236867300107
0.0224034015161
0.0136719916446
-0.0781678203419
0.0282182537113
-0.0831222773809
0.0426335812295
-0.0824536349346
0.0568348152768
-0.0813245424409
0.0707519589767
-0.0798254425954
0.084322500709
-0.0779900319479
0.097489842502
-0.0758458844263
0.110204121455
-0.0734247609956
0.122422516832
-0.0707604954388
0.134109361973
-0.0678880818196
0.145236041439
-0.0648426823634
0.155780714176
-0.0616587806631
0.165727900898
-0.0583694767858
0.175067974691
-0.0550059355852
0.183796590929
-0.0515969844521
0.191914087672
-0.0481688494736
0.199424882279
-0.0447450134738
0.206336884059
-0.0413461768792
0.212660937622
-0.0379903014394
0.218410306608
-0.0346927176786
0.223600203752
-0.0314662784995
0.228247369826
-0.0283215437268
0.232369701807
-0.0252669827095
0.23598592865
-0.0223091846912
0.239115332058
-0.0194530688266
0.24177750868
-0.016702087898
0.243992170011
-0.0140584214038
0.245778975916
-0.0115231552666
0.247157398023
-0.00909644645676
0.248146609259
-0.00677767181287
0.248765396125
-0.00456556034654
0.249032090526
-0.00245830928962
0.248964518178
-0.000453693606964
0.248579927105
0.00145087616421
0.247895018791
0.00325826733319
0.246925901504
0.00497140457259
0.245688085722
0.00659341440366
0.24419647549
0.00812752136081
0.242465372008
0.00957699835006
0.240508480011
0.0109451355021
0.238338917604
0.012235213096
0.23596922843
0.0134504798555
0.233411395743
0.0145941356296
0.230676857808
0.0156693178412
0.227776524294
0.0166790911646
0.224720793241
0.0176264398663
0.221519568388
0.0185142624122
0.218182276546
0.0193453678986
0.21471788493
0.0201224740242
0.211134918201
0.0208482062659
0.207441475205
0.0215250980627
0.203645245247
0.0221555917536
0.199753523906
0.0227420401377
0.195773228281
0.0232867084689
0.191710911745
0.0237917767911
0.187572778064
0.024259342503
0.183364695017
0.0246914230535
0.179092207413
0.0250899587116
0.174760549608
0.0254568153625
0.170374657459
0.0257937872537
0.165939179826
0.0261025996934
0.161458489564
0.026384911636
0.156936694109
0.0266423181679
0.152377645616
0.0268763528449
0.147784950755
0.027088489903
0.143161980117
0.0272801463044
0.138511877332
0.0274526836461
0.133837567866
0.0276074098995
0.129141767584
0.0277455810144
0.124426991045
0.0278684023596
0.119695559617
0.0279770300348
0.114949609378
0.0280725720313
0.110191098876
0.0281560892767
0.105421816728
0.0282285965436
0.100643389119
0.0282910632522
0.0958572871629
0.0283444141659
0.0910648342108
0.0283895299838
0.0862672130578
0.028427247845
0.0814654731032
0.028458361755
0.076660537451
0.0284836229308
0.0718532099755
0.0285037400884
0.0670441823379
0.028519379664
0.062234040981
0.0285311659955
0.0574232740736
0.0285396814583
0.0526122784223
0.0285454665873
0.0478013663173
0.0285490201952
0.0429907723238
0.0285507995398
0.0381806600137
0.0285512205962
0.0333711287422
0.0285506585506
0.0285622207439
0.0285494486279
0.0237539293413
0.0285478871845
0.0189462097498
0.0285462339479
0.014139009744
0.0285446296619
0.0093325502196
0.0285415956871
0.00453630448211
0.0284829758973
0.0269397060822
0.0140346478512
-0.0922024690906
0.0289712272897
-0.0980588576644
0.0437630728907
-0.0972454814092
0.0583226578623
-0.0958841282607
0.0725745151072
-0.0940773006721
0.0864518967603
-0.0918674144104
0.0998949323598
-0.089288920815
0.112851553381
-0.0863813827838
0.125277765658
-0.0831867084621
0.137137682894
-0.0797479997785
0.148403306728
-0.0761083068992
0.159054111291
-0.0723095859057
0.169076483239
-0.0683918493926
0.178463067088
-0.0643925200713
0.187212059808
-0.0603459777884
0.195326491159
-0.0562832814198
0.202813518355
-0.0522320412451
0.209683755912
-0.0482164149916
0.21595065476
-0.0442572008245
0.221629938924
-0.0403720023592
0.226739103566
-0.036575443642
0.231296974697
-0.0328794153385
0.23532332845
-0.0292933369264
0.238838566155
-0.0258244228432
0.2418634405
-0.0224779436021
0.24441882757
-0.0192574753812
0.246525539497
-0.0161651337288
0.248204172574
-0.0132017887254
0.249474986042
-0.0103672602912
0.250357807144
-0.00766049326578
0.250871958443
-0.00507971198309
0.25103620357
-0.00262255473836
0.250868704855
-0.000286195194957
0.25038693928
0.00193264146767
0.249607841281
0.00403736508527
0.248547656257
0.00603158936309
0.24722198622
0.00791908421905
0.245645786831
0.00970372054051
0.243833377968
0.0113894070145
0.241798455937
0.012980057346
0.2395541084
0.0144795604571
0.237112831008
0.0158917570824
0.234486545276
0.0172204212068
0.231686617235
0.0184692457376
0.228723876533
0.0196418317315
0.225608635683
0.0207416805925
0.222350709242
0.0217721887378
0.218959432748
0.0227366442879
0.215443681266
0.0236382254107
0.211811887452
0.0244799999933
0.208072059063
0.0252649263734
0.204231795853
0.025995854895
0.200298305832
0.0266755300986
0.196278420871
0.027306593378
0.192178611655
0.0278915859636
0.188005001977
0.0284329521454
0.18376338241
0.0289330425933
0.179459223353
0.0293941177484
0.175097687506
0.0298183511967
0.170683641774
0.0302078329803
0.166221668656
0.0305645728134
0.161716077135
0.0308905031656
0.157170913119
0.0311874821988
0.152589969452
0.0314572965335
0.147976795541
0.0317016638414
0.143334706628
0.0319222352521
0.138666792736
0.0321205975775
0.133975927333
0.0322982753481
0.129264775728
0.0324567326707
0.124535803238
0.0325973749065
0.119791283152
0.0327215501834
0.115033304515
0.0328305507363
0.110263779752
0.0329256141123
0.105484452165
0.0330079242086
0.100696903306
0.0330786121936
0.0959025602646
0.0331387572946
0.0911027028653
0.033189387475
0.0862984708021
0.0332314800039
0.0814908707223
0.0332659619344
0.0766807832613
0.0332937104947
0.0718689700488
0.0333155534067
0.0670560806821
0.0333322691392
0.0622426596792
0.0333445871093
0.0574291534082
0.0333531878423
0.0526159170013
0.0333587031098
0.0478032212522
0.033361716063
0.0429912595203
0.0333627613941
0.0381801546827
0.0333623255611
0.0333699662497
0.0333608471136
0.0285606978767
0.0333587171318
0.0237523057563
0.0333562794439
0.0189447083209
0.0333538315123
0.0141378125653
0.0333515255331
0.00933177664913
0.0333476317593
0.00453601978788
0.0332787329284
0.0314757259393
0.0144718174005
-0.106674287416
0.0298794011533
-0.113466442293
0.0451249844834
-0.112491065618
0.0601154287975
-0.110874573443
0.0747684512651
-0.108730323983
0.0890121318777
-0.106111095847
0.102782695507
-0.103059485246
0.116025545471
-0.0996242335281
0.128695472343
-0.0958566360909
0.140756570148
-0.0918090983195
0.152181851867
-0.0875335893304
0.162952645321
-0.0830803800506
0.173057837815
-0.078497042554
0.182493033267
-0.0738277161702
0.191259675493
-0.0691126206395
0.199364180064
-0.0643877865951
0.206817105997
-0.0596849677614
0.213632388394
-0.0550316979525
0.219826644586
-0.0504514575596
0.225418559522
-0.0459639178202
0.230428351043
-0.0415852356684
0.234877312088
-0.0373283768712
0.238787424513
-0.0332034498211
0.242181037899
-0.0292180366826
0.245080606108
-0.0253775122456
0.247508474275
-0.0216853439679
0.249486709265
-0.0181433691206
0.251036967083
-0.0147520469306
0.252180391445
-0.0115106850228
0.252937538296
-0.00841764047304
0.253328322014
-0.00547049604148
0.253371979686
-0.00266621273664
0.253087042195
-1.25800589475e-06
0.252491224475
0.00252845891799
0.251601704294
0.00492688502252
0.250434866322
0.00719842710354
0.249006399586
0.00934755073686
0.247331302571
0.0113788173483
0.245423901735
0.013296807655
0.243297870342
0.0151060885544
0.240966249193
0.0168111814325
0.238441468259
0.0184165378532
0.23573536881
0.0199265205035
0.232859225667
0.0213453887391
0.229823769305
0.0226772879615
0.226639207603
0.0239262421717
0.223315247078
0.0250961491505
0.219861113488
0.0261907777753
0.216285571732
0.027213767073
0.212596944988
0.0281686266525
0.208803133058
0.0290587382286
0.204911629903
0.0298873579822
0.200929540389
0.0306576195551
0.19686359622
0.0313725374969
0.192720171115
0.0320350110278
0.188505295238
0.0326478279883
0.184224668919
0.033213668887
0.17988367569
0.0337351109585
0.175487394702
0.0342146321745
0.171040612527
0.0346546151513
0.166547834423
0.0350573509201
0.162013295074
0.035425042525
0.157440968858
0.0357598084318
0.152834579686
0.0360636857284
0.148197610445
0.0363386331114
0.143533312083
0.0365865336501
0.13884471237
0.0368091973316
0.134134624381
0.0370083633847
0.12940565471
0.0371857023939
0.124660211478
0.0373428181972
0.119900512121
0.037481249604
0.115128591025
0.0376024719017
0.110346307009
0.0377078982022
0.105555350683
0.0377988806136
0.1007572517
0.0378767112606
0.0959533859229
0.0379426231602
0.0911449825221
0.0379977909687
0.0863331310146
0.0380433316083
0.0815187882619
0.0380803047878
0.0767027854324
0.0381097134283
0.0718858349416
0.0381325040045
0.0670685373745
0.0381495668158
0.0622513883985
0.0381617361971
0.0574347856703
0.0381697906847
0.0526190357494
0.0381744531474
0.0478043610212
0.0381763909108
0.0429909066653
0.0381762158736
0.0381787477038
0.0381744846498
0.0333678962183
0.0381716987317
0.0285583088649
0.0381683046219
0.0237498948933
0.0381646935411
0.0189425246316
0.0381612019016
0.0141360531878
0.0381579971282
0.00933057239235
0.0381531126933
0.00453546535287
0.0380738401177
0.0360111913775
0.0149910298475
-0.12166531823
0.0309583069499
-0.129433720238
0.0467420848817
-0.128274844456
0.0622422016218
-0.12637469106
0.0773679806605
-0.123856103883
0.0920412672254
-0.12078438325
0.106193711615
-0.117211930452
0.119767912986
-0.113198435692
0.13271751669
-0.108806240567
0.145006953783
-0.104098536159
0.156610824504
-0.0991374607763
0.16751303826
-0.0939825945075
0.177705801205
-0.0886898061783
0.187188532561
-0.0833104481819
0.195966774578
-0.077890863291
0.204051144593
-0.0724721572224
0.211456362251
-0.0670901860119
0.218200371816
-0.0617757080881
0.224303568975
-0.0565546552707
0.229788133691
-0.0514484830669
0.234677465118
-0.0464745676087
0.238995711118
-0.0416466233645
0.242767382889
-0.0369751220686
0.24601704445
-0.0324676987011
0.248769066665
-0.028129534902
0.251047436045
-0.0239637137721
0.252875609365
-0.0199715428477
0.254276406142
-0.0161528440983
0.255271932051
-0.0125062113074
0.255883527214
-0.00902923599516
0.256131735036
-0.00571870420811
0.256036290793
-0.00257076882145
0.255616113751
0.000418918733984
0.254889158466
0.00325541393729
0.253872841723
0.00594320152419
0.252583677386
0.00848759121274
0.251037427256
0.0108938006516
0.249249116254
0.0131671281462
0.247233058636
0.0153128650797
0.245002884243
0.0173362627665
0.242571565612
0.0192424998922
0.239951445097
0.0210366582082
0.237154261621
0.0227237038297
0.234191176809
0.024308473412
0.231072800314
0.025795664327
0.227809214223
0.0271898281431
0.224409996463
0.028495366801
0.220884243161
0.0297165309764
0.217240589953
0.0308574201902
0.213487232219
0.0319219843041
0.209631944289
0.0329140260856
0.205682097618
0.0338372045883
0.201644677993
0.0346950391238
0.197526301791
0.0354909136516
0.193333231349
0.03622808143
0.189071389493
0.0369096698128
0.184746373271
0.0375386850851
0.18036346695
0.0381180172637
0.175927654322
0.0386504447931
0.171443630381
0.0391386390908
0.166915812405
0.0395851689009
0.162348350513
0.0399925044293
0.157745137724
0.0403630212397
0.153109819579
0.0406990038976
0.148445803367
0.0410026493549
0.143756266981
0.0412760700732
0.139044167469
0.0415212968861
0.134312249296
0.041740281607
0.129563052355
0.0419348993888
0.124798919768
0.0421069508443
0.120022005497
0.0422581639399
0.115234281796
0.0423901956735
0.110437546524
0.0425046335497
0.105633430351
0.0426029968669
0.100823403867
0.0426867378292
0.0960087846203
0.0427572424972
0.09119074409
0.0428158315932
0.0863703146247
0.0428637611718
0.0815483963414
0.0429022231729
0.0767257640064
0.0429323458685
0.0719030739029
0.0429551942161
0.0670808706952
0.0429717701342
0.0622595942952
0.0429830127102
0.0574395867398
0.0429897983552
0.0526210990857
0.0429929409192
0.04780429834
0.0429931917772
0.0429892744395
0.0429912398984
0.0381760473158
0.0429877119029
0.0333645740864
0.0429831720929
0.02855475643
0.0429781224106
0.0237464482238
0.0429730018896
0.0189394631379
0.0429681871189
0.0141335973049
0.0429638630754
0.00932887402154
0.0429578361363
0.00453464587309
0.0428680684405
0.0405458373182
0.0156015600532
-0.137266879287
0.0322272656546
-0.146059426715
0.0486427129588
-0.144690292674
0.0647390677574
-0.14247104676
0.0804153937677
-0.139532430769
0.0955861031594
-0.135955093498
0.110177582632
-0.131803410756
0.124129439283
-0.127150293153
0.137394411968
-0.122071214036
0.149937846468
-0.116641971421
0.161736752555
-0.110936367599
0.17277859821
-0.105024440877
0.183059961488
-0.0989711701452
0.192585142077
-0.0928356294384
0.201364809698
-0.0866705315546
0.209414742877
-0.0805220910243
0.216754691049
-0.0744301347838
0.223407376231
-0.0684283938497
0.229397638062
-0.0625449176595
0.234751717241
-0.0568025627861
0.239496666885
-0.0512195177711
0.243659878225
-0.0458098352054
0.2472687059
-0.0405839502245
0.25035017807
-0.0355491713352
0.252930777478
-0.030710134756
0.255036280846
-0.0260692175694
0.256691645528
-0.0216269079407
0.257920933897
-0.0173821328626
0.258747267397
-0.0133325451862
0.25919280299
-0.0094747719524
0.259278727164
-0.00580462872888
0.259025275428
-0.00231731741756
0.258451761073
0.000992432790353
0.257576399416
0.00413077533297
0.256416784806
0.00710281589678
0.254989548595
0.00991482719882
0.253310502423
0.0125728466122
0.251394673559
0.0150829568089
0.249256338013
0.0174512004363
0.246909055446
0.0196835451549
0.244365703263
0.0217858519082
0.241638509632
0.0237638516811
0.238739085153
0.0256231281624
0.235678453045
0.027369105383
0.232467077831
0.0290070394156
0.229114892472
0.0305420133847
0.225631324003
0.0319789351631
0.222025317666
0.0333225372147
0.218305359626
0.0345773781416
0.2144794983
0.0357478455505
0.210555364386
0.036838159929
0.206540189653
0.0378523792598
0.202440824563
0.0387944041603
0.198263754809
0.0396679833594
0.194015116833
0.0404767193689
0.189700712395
0.041224074221
0.185326022279
0.0419133751804
0.180896219182
0.0425478203464