/*--------------------------------*- C++ -*----------------------------------*\
| =========                 |                                                 |
| \\      /  F ield         | OpenFOAM: The Open Source CFD Toolbox           |
|  \\    /   O peration     | Version:  v1906                                 |
|   \\  /    A nd           | Web:      www.OpenFOAM.com                      |
|    \\/     M anipulation  |                                                 |
\*---------------------------------------------------------------------------*/
FoamFile
{
    version     2.0;
    format      ascii;
    class       volScalarField;
    location    "885";
    object      pa;
}
// * * * * * * * * * * * * * * * * * * * * * * * * * * * * * * * * * * * * * //

dimensions      [0 2 -2 0 0 0 0];


internalField   nonuniform List<scalar> 
9216
(
976.373716356
976.00914999
975.268424315
974.148330335
972.652543487
970.785310192
968.552013433
965.958988304
963.013563354
959.723881827
956.098962199
952.148494964
947.882920903
943.313207775
938.45094955
933.308129969
927.897246227
922.231065901
916.322777357
910.185745454
903.833689394
897.280440736
890.540147244
883.627034948
876.55563465
869.340547787
861.996690423
854.539061334
846.982997183
839.343939935
831.637696154
823.880200362
816.087769287
808.276857002
800.464297451
792.667046424
784.902403043
777.187735378
769.540674754
761.978823711
754.519919905
747.181528692
739.981177377
732.936038605
726.063038982
719.378540708
712.898427981
706.63779071
700.610985912
694.831317915
689.311062022
684.061126738
679.09102408
674.408505915
670.019487442
665.927689334
662.1345751
658.639085848
655.43768241
652.524235396
649.890168173
647.524453915
645.413816715
643.542895109
641.894670587
640.451089421
639.193823839
638.104816201
637.166543768
636.362103545
635.675318242
635.090960893
634.59493225
634.17445133
633.818131217
633.516058011
633.259718455
633.04189846
632.856478729
632.698293676
632.562967427
632.446818333
632.346720814
632.260013871
632.184114338
632.11912246
632.066197754
632.024848858
631.993859694
631.971516164
631.956097155
631.945796326
631.939074473
631.935081067
631.933105666
631.932425502
976.737903628
976.372190444
975.630207806
974.507066058
973.006981655
971.134361738
968.894661009
966.294299803
963.340655314
960.041958533
956.407276237
952.446392383
948.169793269
943.588540843
938.71426685
933.55904455
928.135396672
922.456171171
916.534566648
910.384016407
904.018233285
897.451104411
890.696755331
883.769455801
876.683701039
869.454126957
862.095604636
854.623161959
847.052086181
839.397847874
831.676205467
823.903126113
816.094885846
808.267982703
800.439224023
792.625625168
784.844477903
777.113229589
769.449526681
761.871071713
754.395639617
747.040913676
739.824476827
732.763632166
725.875375179
719.176206501
712.68209086
706.40826634
700.36918888
694.578331719
689.048101747
683.789610415
678.812540661
674.12487321
669.732703108
665.639948718
661.848184065
658.356435688
655.161152543
652.25617782
649.632838765
647.279992107
645.184124082
643.329508628
641.698522648
640.272460192
639.032484615
637.960275962
637.038206346
636.249241727
635.577024523
635.006138426
634.522340966
634.112748551
633.765940204
633.472035189
633.222643516
633.010705732
632.83026456
632.676285158
632.544511637
632.431372628
632.333863409
632.249472318
632.176069367
632.112649258
632.06069895
632.020784977
631.99064629
631.968856491
631.954098749
631.944290967
631.937811601
631.934108567
631.932367988
631.931676478
977.480228203
977.111354606
976.36514818
975.235674276
973.727180434
971.844140523
969.592098352
966.977589439
964.008101342
960.69199823
957.038467573
953.057434503
948.759506109
944.155882695
939.258306319
934.078975454
928.630503431
922.925841966
916.978253912
910.80124968
904.408576949
897.81417194
891.032166488
884.07685392
876.962711715
869.704379628
862.316694343
854.814676095
847.213570557
839.528839152
831.776202709
823.971629644
816.131374721
808.27195954
800.41019914
792.563167038
784.748202759
776.982855216
769.284865102
761.672082665
754.162422628
746.773756896
739.523845015
732.430208038
725.510042776
718.780086708
712.25652527
705.954854818
699.88978447
694.07509095
688.523498743
683.246500624
678.254182094
673.5549736
669.155398425
665.059771003
661.269940827
657.785084234
654.601643207
651.713377832
649.111450485
646.784509399
644.71861768
642.897338428
641.301683014
639.911427053
638.706614445
637.668461932
636.779267016
636.021765505
635.379186583
634.835698083
634.376742473
633.989222841
633.661625304
633.384142091
633.148658173
632.948473178
632.777971699
632.632387583
632.507687539
632.400514689
632.308056057
632.227956805
632.158158438
632.097816038
632.049555111
632.012593345
631.984119926
631.963739396
631.950302026
631.941207628
631.935409184
631.932170427
631.930498684
631.929677886
978.608191882
978.235657137
977.482949626
976.343726101
974.822318708
972.923306961
970.652372136
968.016214277
965.022498343
961.679783181
957.997453564
953.985641038
949.655152066
945.017387503
940.084273907
934.868188365
929.381899196
923.63850194
917.651374431
911.434128179
905.000580885
898.364725206
891.54071931
884.542872451
877.385651666
870.08368133
862.651762212
855.104880729
847.458235511
839.727251246
831.927607509
824.075251082
816.186419984
808.277648528
800.365779358
792.467952225
784.601596077
776.784394121
769.034248747
761.369217485
753.807447579
746.367082822
739.066171356
731.92255104
724.953741733
718.176823229
711.608326732
705.264117926
699.159294074
693.308068215
687.723653112
682.418109933
677.402164809
672.684955724
668.273721771
664.173426513
660.38639015
656.912003009
653.746663706
650.883969075
648.314855769
646.02778679
644.008337162
642.239212988
640.698900437
639.364286838
638.213463217
637.227210688
636.388212698
635.678925215
635.081793949
634.580252704
634.159236196
633.805308487
633.506761519
633.253885735
633.039084479
632.856323354
632.700562238
632.567430085
632.453192584
632.354822175
632.269790285
632.195961632
632.131352601
632.076133421
632.032879599
631.999545372
631.974452687
631.956500747
631.944331183
631.936357578
631.931419261
631.928578402
631.927029143
631.926271482
980.124776954
979.747539698
978.986038492
977.833598855
976.294690509
974.374046338
972.077538795
969.412090744
966.385612526
963.006927154
959.285693072
955.23232188
950.857896959
946.174090566
941.19308575
935.927500035
930.390317462
924.5948252
918.55456135
912.283269218
905.794864421
899.103409016
892.223098566
885.1682553
877.953332869
870.592925114
863.1017842
855.494840152
847.787227235
839.994308931
832.131707446
824.215327853
816.261383374
808.286412992
800.307294834
792.341246836
784.405818896
776.518867387
768.698516862
760.963100959
753.331088789
745.820991177
738.451255526
731.240146865
724.205626445
717.365227803
710.735942093
704.334111192
698.175335297
692.274385386
686.645114252
681.300341076
676.251683576
671.509299511
667.081505377
662.974271406
659.190647846
655.730305764
652.58944613
649.761369407
647.23667106
645.003926462
643.048364141
641.352513721
639.890180699
638.63284963
637.555328853
636.638621202
635.867403138
635.223751935
634.688539116
634.243969101
633.874295701
633.565624487
633.305839418
633.08526732
632.897280449
632.737039625
632.600398744
632.483449713
632.382736943
632.295717616
632.220264522
632.154528851
632.096726643
632.048364838
632.011313013
631.982754601
631.96112992
631.945935746
631.935979792
631.929528857
631.925409971
631.923053137
631.921760183
631.921118478
982.034610377
981.651474948
980.878818759
979.709585293
978.148435487
976.200307811
973.871325808
971.168701159
968.100662938
964.676375388
960.905851931
956.799865454
952.369858193
947.627851861
942.586361423
937.258312915
931.65696868
925.795860013
919.688730332
913.349488144
906.792172317
900.030927937
893.07999439
885.953702949
878.666484758
871.232885868
863.667589949
855.985445179
848.201496081
840.331016792
832.389547176
824.39292622
816.357324957
808.29927459
800.235687891
792.183869901
784.161516672
776.18669691
768.277815865
760.45355736
752.732805112
745.134542028
737.677732241
730.381188908
723.263437051
716.342578547
709.636170832
703.161125899
696.93363631
690.969124254
685.282203612
679.886625316
674.795164279
670.019375835
665.569151636
661.452004024
657.672136612
654.22955274
651.119831341
648.335697681
645.867034863
643.703397113
641.829941661
640.2326605
638.875864637
637.720505568
636.735632969
635.90477764
635.219263106
634.66000644
634.204340422
633.832466843
633.527999842
633.27657942
633.065171867
632.883743394
632.727587119
632.594086681
632.480442503
632.383074723
632.298507528
632.224990812
632.16096981
632.104879136
632.055636466
632.015632885
631.984904265
631.961367596
631.944166064
631.932788601
631.925037471
631.920244002
631.917331701
631.915392707
631.914389158
631.913884852
984.343488516
983.9531626
983.166877409
981.977114284
980.388776922
978.407065653
976.038420763
973.290416631
970.171681839
966.691807465
962.861250775
958.691235696
954.193652371
949.380957939
944.266080715
938.86232989
933.183312823
927.242861841
921.054972222
914.633752698
907.993389243
901.148122391
894.112237637
886.900067933
879.526006817
872.004530496
864.350227161
856.577831957
848.702266254
840.738679941
832.702496403
824.609456281
816.47566099
808.317613228
800.15224995
791.996965481
783.869620533
775.788532982
767.772446561
759.840474171
752.012013995
744.306638444
736.743958923
729.343472623
722.124401352
715.10553557
708.305098971
701.740648689
695.429022687
689.386338363
683.628032783
678.168916042
673.023174034
668.204217835
663.724211254
659.593094519
655.817000853
652.396369858
649.325000048
646.594620002
644.192966378
642.112930938
640.33857156
638.873128087
637.65887177
636.635307139
635.760366484
635.026674578
634.44542745
633.992170324
633.635605703
633.3529671
633.12813809
632.94676388
632.793590096
632.656603936
632.535255669
632.431392391
632.344170079
632.269632399
632.203183937
632.144748343
632.093646282
632.048288819
632.008866932
631.977764781
631.954017442
631.936594294
631.924563402
631.916637485
631.911298748
631.908183412
631.906692674
631.905548719
631.904993253
631.904727802
987.0584787
986.659580678
985.857053622
984.642822511
983.022090456
981.000380927
978.584524509
975.782541019
972.603548958
969.057661819
965.155879628
960.909977056
956.332390868
951.436108766
946.234562313
940.741525984
934.971025106
928.937254616
922.654511141
916.137139645
909.399496135
902.455926238
895.320759519
888.008317658
880.532935016
872.908988806
865.150937222
857.273363196
849.291022992
841.218898094
833.072251147
824.866681203
816.618180911
808.343191717
800.058652553
791.782038626
783.531385387
775.325291641
767.182896764
759.123826472
751.168104057
743.336025386
735.648000672
728.124369824
720.785204839
713.650117431
706.738095608
700.067393647
693.655498731
687.519188627
681.67468342
676.137867792
670.924521951
666.050411355
661.530963281
657.380052177
653.607392417
650.214277053
647.189601517
644.524114536
642.198300247
640.214942659
638.546258245
637.262963185
636.247790563
635.395845301
634.640511396
634.001094014
633.547321339
633.229118475
632.994081111
632.817030244
632.68595978
632.588598891
632.50427773
632.413573192
632.325745414
632.252408832
632.195127173
632.147370864
632.099935742
632.057280065
632.020359699
631.986307701
631.957607208
631.935860394
631.919874819
631.908790906
631.901742908
631.89723414
631.894993059
631.893804998
631.893591495
631.893759637
631.89379648
631.893865151
990.187998627
989.779049327
988.957496887
987.714610205
986.055953824
983.987444189
981.516385125
978.651335788
975.402006607
971.779141331
967.794393759
963.460201279
958.789657639
953.796387709
948.494426509
942.898105501
937.021948591
930.880581092
924.488653932
917.860785755
911.011523953
903.955325423
896.706555799
889.279505606
881.68842007
873.947539874
866.07114952
858.073631571
849.969525176
841.773588774
833.500867792
825.166763321
816.787105189
808.378225583
799.957027369
791.541043907
783.148483083
774.79824855
766.509929997
758.303755132
750.200496668
742.221331009
734.387649269
726.720828514
719.241978937
711.971692724
704.929828034
698.135367428
691.606389282
685.360185555
679.413549212
673.783239255
668.486590677
663.542133608
658.969846146
654.790126849
651.020037938
647.663690319
644.696157965
642.111068582
639.864574047
637.993843685
636.397340431
635.391348707
634.67172705
634.045475765
633.367119314
632.714455642
632.41426726
632.291315852
632.218953435
632.174075592
632.163926326
632.186263282
632.204333516
632.164279064
632.102870048
632.059371105
632.03752339
632.023101573
631.992507454
631.964446393
631.943495307
631.919987355
631.902196662
631.890316931
631.882422269
631.878137162
631.876224625
631.875653369
631.876186654
631.877500419
631.878886291
631.880437494
631.881227588
631.88170135
993.741907748
993.321311302
992.477746102
991.201713273
989.499211719
987.376630504
984.841842211
981.904052545
978.573680238
974.862221602
970.78210997
966.346571793
961.569482479
956.465224192
951.048548651
945.334447487
939.338033877
933.074438659
926.558724904
919.805823642
912.830493292
905.647302973
898.270639023
890.714731394
882.993696227
875.121589534
867.112468363
858.980456292
850.739812816
842.405006596
833.99079586
825.512311287
816.985147979
808.425460903
799.850058469
791.27648934
782.723114226
774.209152576
765.75469376
757.380660944
749.108717553
740.961107931
732.960430093
725.12934627
717.490250089
710.064923016
702.874228109
695.937898633
689.27448253
682.901497618
676.835853388
671.094603235
665.696097166
660.661546371
656.016773736
651.792832201
648.02318338
644.722503137
641.824523983
639.350744026
637.166865715
635.414686182
633.454833341
632.991664659
632.827377589
632.644891009
632.32635965
632.180244086
632.160415858
632.170885279
632.174268731
632.176582411
632.188053137
632.191457951
632.122052516
631.953356926
631.84203692
631.817521299
631.851611434
631.90004813
631.883776556
631.866528689
631.867156278
631.849590511
631.842503741
631.84156846
631.841734598
631.844922756
631.848786515
631.852508178
631.855940239
631.859516786
631.863030586
631.86601058
631.86780782
631.868723968
997.73161472
997.297637347
996.428825051
995.114791388
993.36205286
991.177564726
988.569878701
985.548970912
982.126101748
978.313659849
974.125000953
969.574284113
964.676307673
959.446347759
953.900001494
948.053038499
941.921264208
935.520400041
928.865984896
921.973302908
914.857340235
907.53277251
900.013980964
892.31509353
884.450044151
876.432643778
868.2766565
859.995877709
851.604213457
843.115763648
834.544914054
825.906434287
817.215590701
808.488268362
799.741095758
790.991567069
782.258150937
773.56037373
764.918862337
756.355330574
747.892492155
739.553885664
731.363601857
723.345915135
715.524837249
707.923634869
700.564376084
693.467590126
686.652128388
680.135301289
673.93337217
668.062541289
662.540673114
657.390171514
652.642667736
648.345008495
644.568374382
641.371141032
638.545388916
636.230336249
633.816104454
632.677528003
632.566128526
632.609963072
632.623319342
632.581517012
632.486437969
632.397651424
632.342454493
632.305544735
632.272676016
632.243433377
632.216650672
632.179111598
632.111959802
632.028702799
631.967225625
631.950210893
631.978932582
631.960414124
631.780105972
631.735955673
631.794175633
631.772576454
631.777801291
631.79181933
631.798561919
631.810016491
631.81989902
631.827740372
631.834700555
631.840900353
631.846404594
631.851055887
631.854119525
631.855544775
1002.17020601
1001.72094616
1000.82335863
999.466032654
997.656102306
995.401198553
992.710681831
989.595442415
986.067736315
982.141004461
977.829688025
973.149041718
968.114947788
962.743732142
957.051985172
951.056390049
944.773563587
938.219915258
931.411531713
924.364093008
917.092826179
909.612497833
901.937444458
894.081633751
886.058747868
877.88227704
869.565614603
861.122147812
852.565345572
843.908847883
835.166567293
826.352800679
817.482365602
808.570753163
799.634291764
790.690314454
781.757317457
772.855094084
764.004825611
755.229106099
746.551876458
737.998241686
729.594150586
721.365928217
713.339675197
705.540581503
697.992244672
690.716114103
683.731191236
677.054058663
670.699300434
664.680466482
659.011988002
653.713043269
648.816654946
644.384614887
640.569014059
637.572440584
634.473673631
632.910592715
632.80663428
632.781835929
632.789510696
632.821247968
632.821813091
632.789139907
632.723456228
632.644714212
632.570257901
632.505929078
632.451930129
632.405913868
632.361961638
632.309365696
632.236446873
632.149954877
632.071235136
632.017221422
631.985174667
631.931470349
631.879376428
631.891510424
631.866908744
631.672271879
631.690094064
631.743111905
631.750876519
631.774747578
631.791226693
631.802325881
631.812593431
631.822077863
631.830023874
631.836425062
631.84093448
631.843019984
1007.07259948
1006.60595564
1005.67571075
1004.26927924
1002.39453
1000.05990087
997.27571357
994.053940844
990.408012442
986.352605292
981.903431616
977.077027275
971.890541434
966.361528412
960.507742401
954.346938338
947.896683911
941.174191181
934.196177199
926.978764311
919.537428003
911.886997034
904.041703393
896.015273629
887.821046024
879.472096305
870.981355957
862.361715697
853.626116113
844.787636848
835.859601099
826.855698737
817.790147244
808.677881225
799.534763752
790.377811316
781.225417109
772.097554947
763.015940158
754.00411796
745.087442878
736.292908465
727.648786228
719.184043861
710.927540592
702.907049905
695.148231536
687.673740089
680.502683182
673.650457918
667.128909944
660.946785009
655.110635573
649.627302145
644.508851209
639.753372098
635.393549515
633.323836031
633.19617862
633.152705965
633.13883032
633.141532233
633.132008407
633.122692677
633.10595257
633.070877338
633.0095555
632.931029651
632.848073695
632.769912913
632.700284786
632.636579329
632.573126061
632.502154139
632.416404766
632.319701164
632.226412215
632.148359601
632.08389908
632.013899135
631.946792291
631.902514711
631.842225046
631.801655586
631.800806517
631.745462929
631.683057558
631.740726354
631.765673656
631.777020587
631.790344579
631.80344571
631.814582895
631.823172018
631.829209726
631.832044325
1012.45572878
1011.96935588
1011.00214964
1009.54017482
1007.59217849
1005.16756228
1002.27779138
998.936118857
995.157355295
990.957624136
986.35411968
981.364868606
976.008494896
970.303985676
964.270457231
957.926922554
951.292067064
944.384042744
937.220295571
929.817441421
922.191204845
914.356428295
906.327151026
898.116744329
889.738080001
881.203702213
872.525977009
863.717205791
854.789709105
845.755901604
836.628388653
827.420094435
818.144448892
808.815619846
799.448782971
790.060418133
780.668616147
771.293375896
761.956865356
752.683608994
743.500552958
734.436945653
725.523963207
716.79401085
708.279661827
700.012267679
692.020407422
684.328475906
676.955855903
669.91659545
663.219287574
656.866769631
650.855717797
645.171779763
639.751318143
634.171804676
633.729141778
633.611313291
633.598637135
633.614031569
633.595173164
633.555223986
633.521290096
633.493566262
633.46372852
633.420435644
633.356617846
633.275880391
633.186592866
633.09794751
633.012853503
632.928837678
632.842705419
632.749593074
632.646022377
632.53504332
632.425710723
632.325756108
632.235014634
632.145493014
632.059215022
631.985199493
631.911256102
631.850781957
631.809784636
631.784133399
631.770076585
631.738053984
631.750622526
631.750269751
631.767552153
631.785839682
631.800954384
631.812249287
631.819863741
631.823529763
1018.33876378
1017.83002375
1016.82104314
1015.29633962
1013.26571128
1010.73971532
1007.731179
1004.25487056
1000.32722237
995.966045337
991.190253646
986.019600052
980.474417292
974.575359085
968.343134893
961.798238374
954.960675736
947.849708961
940.483634382
932.87962158
925.053635103
917.020454958
908.793796605
900.386513253
891.810842895
883.078651308
874.201624449
865.191387131
856.059559659
846.817794102
837.477842306
828.051679399
818.551717509
808.991089508
799.383990096
789.746059704
780.09479457
770.44996487
760.834012939
751.272389233
741.79376392
732.430027341
723.21596508
714.188473844
705.385199506
696.842569343
688.59342603
680.664741805
673.076551117
665.841743883
658.966105047
652.448762495
646.27932961
640.404104259
634.420711775
633.711161906
633.939783517
634.068404691
634.110608181
634.096470144
634.065194659
634.021058168
633.97916808
633.939680078
633.896491626
633.841813548
633.770789302
633.684363814
633.587655682
633.487891994
633.386538852
633.281816226
633.172336182
633.055740667
632.931025667
632.800908866
632.671217483
632.547048425
632.429315087
632.315638762
632.207605228
632.109194017
632.016946454
631.935217856
631.870762958
631.821969566
631.787662426
631.783246752
631.762965826
631.70459785
631.740789634
631.769879414
631.79040959
631.804886633
631.814024817
631.818437993
1024.7433762
1024.20927153
1023.15309205
1021.55757503
1019.4337852
1016.79367059
1013.65168705
1010.02439844
1005.93014047
1001.38868551
996.420932616
991.048619904
985.294048921
979.179805093
972.72846171
965.962261963
958.902786184
951.570623199
943.985077038
936.163946408
928.123415656
919.878085563
911.441152663
902.824713797
894.04013869
885.09842634
876.010462169
866.787130367
857.439306024
847.977806835
838.413398381
828.756897766
819.019418504
809.212719409
799.349633486
789.44455508
779.513973187
769.577039103
759.656145585
749.777473954
739.971439439
730.272923679
720.721126389
711.358799567
702.230590425
693.380277154
684.847084069
676.661670789
668.845024736
661.408944441
654.357601568
647.686189649
641.348291424
634.950068189
634.174013801
634.323646064
634.540295511
634.609588463
634.640612474
634.62775119
634.595047205
634.551294996
634.505059854
634.456589197
634.402065777
634.336477332
634.256298594
634.161370806
634.056007213
633.943966463
633.825150548
633.699455095
633.566502131
633.425641431
633.277253686
633.123835059
632.969518086
632.818079301
632.671254774
632.529441093
632.394556303
632.269045822
632.153041286
632.04960677
631.962692267
631.891395418
631.836018588
631.801006512
631.769308529
631.744090969
631.71555218
631.759032568
631.78518933
631.802719778
631.812882467
631.81766822
1031.69405945
1031.13115346
1030.0216068
1028.34610538
1026.1172485
1023.34866937
1020.05678081
1016.26028171
1011.97974091
1007.23720155
1002.05583627
996.459646952
990.473185648
984.121266838
977.428644376
970.419640684
963.117733176
955.545124338
947.7223394
939.667910519
931.398209647
922.927483822
914.268116614
905.431091347
896.426567739
887.26442899
877.954643391
868.507348787
858.932706987
849.240688751
839.440957916
829.542937024
819.556096526
809.490395697
799.356820925
789.16798973
778.93882058
768.687275256
758.435163278
748.208973154
738.04066471
727.968303225
718.036316914
708.295003095
698.798735445
689.602186862
680.754515145
672.291319946
664.234271576
656.594253047
649.371558069
642.522643028
635.64108058
634.839143387
635.006303481
635.166491599
635.240373976
635.258953295
635.261355434
635.237528644
635.199073867
635.152395977
635.101699183
635.046012016
634.982201904
634.906589932
634.816314333
634.710960505
634.594671431
634.468523572
634.331461752
634.184424591
634.027767025
633.861891246
633.687909534
633.508176228
633.325993578
633.144594635
632.966329723
632.793018796
632.627015357
632.470745761
632.326000598
632.195685632
632.082551859
631.987059523
631.90933901
631.849160584
631.800010377
631.76161289
631.75365347
631.759548938
631.788311926
631.807877628
631.817394109
631.821816457
1039.21851745
1038.62282744
1037.45283898
1035.686861
1033.33936841
1030.42605092
1026.96569117
1022.9795399
1018.49078825
1013.5240944
1008.1052086
1002.26068081
996.017606652
989.403355274
982.445231621
975.170046301
967.603596166
959.77008892
951.691575838
943.387480023
934.874322166
926.16573902
917.272854647
908.204987989
898.970569317
889.57801997
880.036298912
870.354915752
860.543504859
850.611291487
840.566759448
830.417661996
820.171395232
809.83558546
799.418769015
788.931115883
778.385233791
767.797097208
757.187114313
746.581312373
736.01260477
725.522054451
715.159912552
704.985926481
695.067975147
685.477315277
676.279715089
667.516688146
659.209655006
651.364406697
643.938072093
636.503518577
635.673396904
635.89940459
636.060107248
636.06190423
636.037388346
636.006707194
635.972808135
635.929435401
635.881127614
635.828977294
635.772696888
635.709611385
635.636426137
635.549893082
635.447583568
635.329556375
635.199548441
635.057016515
634.900614618
634.731760773
634.551302023
634.360191617
634.159858144
633.952511065
633.740998412
633.528304659
633.317151053
633.110120161
632.910020272
632.719701306
632.541880784
632.379628152
632.235634841
632.111335587
632.007352919
631.923323115
631.856525041
631.806724585
631.781195564
631.777186772
631.798522045
631.822474001
631.827531811
631.830618203
1047.34813826
1046.71500203
1045.4763777
1043.60781291
1041.12609033
1038.04943186
1034.39951954
1030.20068077
1025.47919272
1020.26270489
1014.57984496
1008.45997578
1001.93301797
995.029239061
987.77892536
980.2118898
972.356812454
964.240457816
955.886856294
947.316579397
938.546267729
929.588580799
920.452699685
911.145407152
901.672576148
892.040653102
882.257558773
872.332545095
862.27519838
852.094305366
841.797148949
831.389467333
820.876015581
810.261415462
799.551024363
788.751753213
777.872967162
766.927589636
755.933449625
744.914865269
733.904486253
722.945435569
712.093662963
701.420017608
691.010799657
680.963073932
671.373746352
662.29020056
653.725600449
645.635603343
637.567514985
636.68980726
636.980207613
637.166509564
637.120969016
637.008897319
636.911349153
636.830417019
636.761941963
636.698979432
636.639244373
636.578912316
636.51414873
636.440831474
636.355309086
636.254439722
636.136450912
636.00322661
635.856269996
635.694029966
635.51683303
635.325896116
635.122200841
634.906807352
634.681112442
634.447056025
634.207087832
633.963939857
633.72043148
633.479492205
633.244269214
633.018046984
632.804173582
632.606103431
632.426946783
632.268990033
632.133699124
632.021607496
631.932098791
631.865487548
631.824090961
631.806086216
631.80577805
631.855640287
631.842457419
631.842742392
1056.11857642
1055.44247742
1054.12562796
1052.14036791
1049.50633398
1046.24489126
1042.38132151
1037.94371205
1032.9619899
1027.46719393
1021.49108787
1015.06604368
1008.22503496
1001.00156597
993.429398804
985.54200082
977.371702507
968.948619737
960.299457888
951.446377999
942.406168188
933.190005639
923.804081647
914.251229673
904.533382958
894.654187098
884.620636488
874.442604317
864.130662586
853.693818647
843.138199175
832.467022021
821.681595807
810.782681712
799.771620291
788.651141604
777.426255272
766.105484961
754.702492902
743.238042138
731.742402793
720.258514969
708.846216499
697.587544197
686.592423316
675.997883439
665.969402882
656.548088912
647.680455223
638.880304425
637.91282678
638.251116732
638.462572326
638.380642379
638.186968156
637.993465352
637.836502596
637.713891933
637.617232032
637.536078135
637.462697641
637.389753274
637.311170702
637.221970975
637.118380907
636.997614764
636.858884436
636.70552918
636.537529825
636.35330028
636.154426246
635.941939995
635.716693598
635.479502477
635.231407297
634.973866931
634.708810424
634.438563798
634.165765615
633.893359304
633.624613754
633.363077231
633.112515323
632.876823337
632.659716962
632.464397436
632.293397805
632.148449105
632.030453404
631.940225025
631.878420225
631.842706837
631.826124895
631.81597981
631.843025186
631.852897837
1065.57046759
1064.84482833
1063.43838568
1061.31984132
1058.51233423
1055.04115293
1050.93614115
1046.23008132
1040.957257
1035.15249432
1028.85083901
1022.08771295
1014.89924193
1007.32245733
999.395153608
991.155286316
982.639892769
973.883602774
964.916884812
955.764265822
946.442871103
936.961749206
927.322510824
917.521707627
907.554918813
897.421531355
887.128018797
876.6867942
866.111491964
855.412587067
844.595114542
833.658890031
822.600511824
811.415770764
800.101120535
788.654173273
777.074335277
765.364107954
753.531001953
741.589766159
729.56508291
717.495502795
705.43969839
693.486359568
681.770577588
670.4865012
659.967241607
650.159954743
640.50291097
639.370964767
639.713537071
639.936287157
639.81611003
639.545361224
639.253124376
638.998245584
638.797814765
638.644219145
638.524052273
638.423592919
638.33179551
638.239431113
638.139426156
638.026587126
637.897364968
637.749720759
637.584228782
637.404992811
637.211796516
637.003798129
636.783046592
636.550450916
636.30648853
636.051416702
635.785605764
635.509781538
635.225154132
634.933438977
634.636834725
634.338011146
634.040101444
633.746669099
633.461654944
633.189278053
632.933820927
632.699374833
632.489630341
632.30767874
632.155868208
632.035838416
631.94803668
631.889916427
631.853870654
631.829771971
631.843540531
631.872217687
1075.750301
1074.96728148
1073.45752149
1071.18602893
1068.18004874
1064.46975278
1060.09094788
1055.08247878
1049.48391219
1043.33421013
1036.67160108
1029.53428795
1021.961393
1013.99364342
1005.67347549
997.04440191
988.149629739
979.030010938
969.721491712
960.252337947
950.640592168
940.892464753
931.002626791
920.957456272
910.741787947
900.347921739
889.782820911
879.06554361
868.216831398
857.250816879
846.171337935
834.973047419
823.645643176
812.178488948
800.562488107
788.78940257
776.851732185
764.744077491
752.465533003
740.021996122
727.428418166
714.712461092
701.921423844
689.135643498
676.501248108
664.256351356
653.166025658
642.490828757
641.081838689
641.351793868
641.564827699
641.403147244
641.058118382
640.670268477
640.312004609
640.016578818
639.786533001
639.607818544
639.463568375
639.338507491
639.220459314
639.099841158
638.969586154
638.824738001
638.662116501
638.480629833
638.282822358
638.072446621
637.849802195
637.616280349
637.373890126
637.123261214
636.864211049
636.596125239
636.318396067
636.030755935
635.733483105
635.427485343
635.114309157
634.796120895
634.475680218