/*--------------------------------*- C++ -*----------------------------------*\
| =========                 |                                                 |
| \\      /  F ield         | OpenFOAM: The Open Source CFD Toolbox           |
|  \\    /   O peration     | Version:  v1906                                 |
|   \\  /    A nd           | Web:      www.OpenFOAM.com                      |
|    \\/     M anipulation  |                                                 |
\*---------------------------------------------------------------------------*/
FoamFile
{
    version     2.0;
    format      ascii;
    class       surfaceScalarField;
    location    "846";
    object      phia;
}
// * * * * * * * * * * * * * * * * * * * * * * * * * * * * * * * * * * * * * //

dimensions      [0 3 -1 0 0 0 0];
oriented        oriented;


internalField   nonuniform List<scalar> 
18240
(
0.00134685606769
-0.00134692810684
0.00282133394298
-0.00147456293039
0.00429475706637
-0.00147349683151
0.00574941313795
-0.0014547433052
0.00717731934435
-0.00142797679527
0.00857169001712
-0.00139445943753
0.00992650778593
-0.00135488504776
0.0112362706999
-0.00130985281335
0.0124961412687
-0.00125993436383
0.0137017880183
-0.0012057373514
0.0148495814981
-0.00114785357698
0.0159363950654
-0.00108690445025
0.0169598116107
-0.00102347284013
0.0179178765884
-0.000958155731168
0.0188093143019
-0.000891490078392
0.0196332398817
-0.000824015812339
0.0203893892189
-0.000756197755362
0.0210777987335
-0.000688498844114
0.0216990530543
-0.000621298736727
0.0222539410737
-0.000554976088416
0.0227437244257
-0.000489823824734
0.0231697768923
-0.000426138935705
0.0235338745766
-0.00036413422661
0.023837823823
-0.000304033811215
0.0240837721444
-0.000245981062871
0.0242738279931
-0.000190138230856
0.0244103896973
-0.000136590721231
0.0244957593016
-8.54495673896e-05
0.0245324863898
-3.67525701926e-05
0.0245229782478
9.43080453773e-06
0.0244698571138
5.30990599036e-05
0.0243755604863
9.42220814692e-05
0.024242700159
0.00013284142999
0.0240736770496
0.000168951498043
0.0238710512088
0.000202609958615
0.0236371479184
0.000233834716149
0.0233744281778
0.000262706614672
0.0230850999806
0.00028926273598
0.0227714895583
0.000313599866338
0.022435658056
0.000335769193536
0.0220797709439
0.000355878854146
0.021705721619
0.000373990186218
0.0213154967796
0.000390218683845
0.0209108085132
0.000404632284907
0.0204934539136
0.000417350276573
0.0200649570738
0.000428443986456
0.0196269212167
0.000438033173712
0.0191806818844
0.000446189553797
0.0187276502243
0.000453030360257
0.0182689784434
0.000458625013403
0.0178058928181
0.000463085527747
0.0173393722943
0.000466476685442
0.0168704700722
0.000468903092331
0.0164000059812
0.0004704230944
0.015928875396
0.000471132259986
0.0154577558368
0.000471081304894
0.0149874022378
0.000470355870388
0.0145183680313
0.000468998594122
0.0140512857464
0.00046708501156
0.0135866027473
0.000464649921374
0.0131248464469
0.000461759304622
0.0126663747836
0.00045844101625
0.0122116253716
0.000454752576645
0.0117608808121
0.000450716236722
0.0113145014345
0.000446382557768
0.0108727055262
0.000441769809923
0.010435785396
0.000436923234367
0.0100039026575
0.000431858765687
0.00957728763848
0.000426617934489
0.00915604985146
0.000421215847755
0.00874036082438
0.000415691685728
0.00833027991303
0.000410060914179
0.00792592083788
0.000404361389774
0.00752729295253
0.000398609741843
0.00713445176342
0.000392843103195
0.00674735574573
0.000387079635024
0.00636600123685
0.00038135594582
0.00599029481503
0.000375691704435
0.00562017290563
0.000370122809278
0.00525548969422
0.000364670057567
0.00489612183296
0.00035936814869
0.00454187179958
0.000354238347862
0.00419255804029
0.000349313386595
0.00384793371655
0.000344614045277
0.00350776273358
0.000340169949457
0.00317175404236
0.000335999831837
0.0028396245661
0.000332127858937
0.00251105071775
0.000328566466029
0.00218572301691
0.000325325595804
0.00186332603923
0.000322391014271
0.00154361599618
0.000319707391386
0.00122651039509
0.000317100912419
0.000912420910887
0.000314086184204
0.000603460696888
0.000308957306094
0.00030863043393
0.000294827559176
0.000308628719565
0.00148899178672
-0.00283599867252
0.00315108672515
-0.0031367442744
0.00480408128698
-0.00312657449835
0.00643326414387
-0.00308401277452
0.00803122402754
-0.0030260184554
0.00959100151132
-0.00295432320013
0.0111060213958
-0.00286998507231
0.012570209634
-0.0027741266859
0.0139781401974
-0.00266794311263
0.0153250134191
-0.00255269520385
0.016606749709
-0.00242966582036
0.0178199156884
-0.00230015371672
0.0189617981375
-0.00216542874125
0.0200302937954
-0.00202673301602
0.0210239725148
-0.00188523954198
0.0219419400315
-0.00174206300926
0.0227838977411
-0.00159822329718
0.023549987361
-0.00145466593162
0.0242408541012
-0.00131223025273
0.0248574812198
-0.00117167822779
0.0254012618606
-0.00103366604421
0.0258738296536
-0.000898779094538
0.0262771422339
-0.000767505109974
0.0266133116978
-0.000640272815491
0.0268847004228
-0.000517424743189
0.0270937529763
-0.000399257359099
0.0272431029756
-0.000285992318114
0.0273354066651
-0.000177816765509
0.0273734586116
-7.48527522045e-05
0.0273600262173
2.2802827552e-05
0.027297969444
0.000115110909025
0.0271900842328
0.000202050094668
0.0270392370153
0.000283646985711
0.0268481942379
0.00035994026574
0.026619752471
0.000431013227464
0.0263565826191
0.000496953726341
0.026061365675
0.000557888126878
0.0257366379281
0.000613942767216
0.0253849278683
0.000665277421704
0.0250086049533
0.000712047450457
0.0246100171298
0.000754436968446
0.0241913437423
0.000792621888992
0.0237547327643
0.000826802583682
0.0233021583298
0.000857167904137
0.0228355568924
0.000883927114016
0.0223566898176
0.000907275001837
0.0218672777544
0.000927422938642
0.0213688686913
0.00094456518664
0.0208629699145
0.000958908978471
0.0203509218217
0.000970642174095
0.0198340268225
0.000979962330309
0.0193134290906
0.000987045844992
0.0187902397797
0.000992076007195
0.0182654227398
0.000995213783626
0.0177399153668
0.000996624867162
0.0172145201949
0.000996452207126
0.0166900207286
0.000994842048249
0.0161670787205
0.00099191827727
0.0156463443379
0.000987807426313
0.0151283589146
0.000982614829392
0.014613658917
0.000976448516592
0.014102683964
0.000969397136304
0.0135958741546
0.000961552645004
0.0130935832268
0.000952989891238
0.0125961689888
0.00094378798013
0.0121039115647
0.000934011407568
0.0116170968076
0.000923729986506
0.0111359396848
0.000913001403012
0.0106606607234
0.000901889603298
0.010191414659
0.000890448671282
0.00972836006074
0.000878739610722
0.00927159342873
0.000866815458913
0.00882121225048
0.000854736431301
0.00837725474499
0.000842556226905
0.00793975662458
0.000830335541602
0.00750869667794
0.00081812954041
0.00708404754122
0.00080599977419
0.00666572727044
0.000794002822909
0.00625364438931
0.000782200671178
0.00584765555787
0.000770650531182
0.00544760515052
0.000759413739745
0.00505328907597
0.000748546770287
0.00466448908762
0.000738108695117
0.00428094278199
0.000728153353533
0.00390237283379
0.000718735345856
0.0035284631762
0.000709903174517
0.00315888325673
0.00070170342793
0.00279327003478
0.000694174122182
0.00243124592481
0.0006873456356
0.00207240069047
0.000681231476594
0.00171628229406
0.000675821724636
0.0013623103719
0.000671068472711
0.00100952549917
0.000666867696799
0.000655510631988
0.000662969174652
0.000293986520212
0.000656348875791
0.000602614072479
0.00151530035185
-0.00435137892424
0.00319868329286
-0.00482021280117
0.00487542058537
-0.00480339693392
0.00652823533629
-0.00473691318123
0.00814896729735
-0.00464683463333
0.00973034224187
-0.00453578302059
0.0112655995406
-0.00440532535423
0.0127485527549
-0.00425716366719
0.0141736741223
-0.00409314593431
0.0155361176145
-0.00391522101497
0.0168317594871
-0.00372538729326
0.0180571788433
-0.00352565362812
0.0192096686243
-0.0033179959962
0.0202871860953
-0.00310432898843
0.0212883444385
-0.00288647296423
0.0222123430318
-0.00266613779324
0.0230589486638
-0.00244490140203
0.0238284146883
-0.00222420560154
0.0245214598936
-0.00200534511275
0.0251391843825
-0.00178947361752
0.0256830524817
-0.00157760083134
0.026154811072
-0.00137060566768
0.0265564803573
-0.00116923796885
0.0268902776697
-0.000974135060815
0.0271586172336
-0.000785824686902
0.0273640399304
-0.000604741834856
0.0275092210615
-0.000431230557674
0.0275969051266
-0.000265559394522
0.0276299198698
-0.000107921322433
0.0276111149413
4.15524434419e-05
0.0275433810715
0.000182794247352
0.0274295913994
0.000315787705346
0.0272726258807
0.000440565224037
0.0270753155645
0.000557201754248
0.0268404686853
0.000665816037812
0.0265708186396
0.000766558121777
0.0262690531555
0.000859612655249
0.0259377654149
0.000945187962943
0.0255794854402
0.00102351946759
0.0251966340224
0.00109485932893
0.0247915558702
0.00115948008333
0.0243664762779
0.00121766483802
0.0239235355958
0.00126971100167
0.0234647486359
0.00131592098649
0.0229920401713
0.00135660592894
0.0225072070933
0.00139207683435
0.0220119546426
0.00142264821625
0.0215078613533
0.00144862971423
0.0209964157913
0.00147032967411
0.0204789842445
0.00148804729685
0.0199568476457
0.00150207622365
0.0194311719001
0.00151269734928
0.0189030446545
0.0015201825375
0.0183734480206
0.00152478821059
0.0178432947215
0.00152675929634
0.017313402894
0.00152632370944
0.0167845311434
0.00152369661141
0.0162573550268
0.00151907580771
0.0157325004959
0.00151264631582
0.0152105216829
0.00150457665255
0.0146919323069
0.00149502364833
0.0141771844218
0.0014841294973
0.0136666974217
0.00147202667601
0.0131608375285
0.00145883559896
0.0126599442094
0.00144466947587
0.0121643102904
0.00142963236636
0.0116742057069
0.00141382378853
0.0111898582733
0.00139733699375
0.0107114748573
0.00138026317207
0.0102392229274
0.00136268978069
0.00977324931556
0.00134470422298
0.00931366275386
0.00132639213119
0.00886055048392
0.00130784045792
0.00841396201703
0.00128913565133
0.00797392384993
0.00127036614248
0.00754042469301
0.00125162041508
0.00711342856759
0.0012329889219
0.00669286170602
0.00121456207577
0.00627862425104
0.00119643165186
0.00587057899513
0.0011786887591
0.00546856187161
0.00116142480045
0.00507237263336
0.00114472947609
0.00468178424891
0.00112869135919
0.0042965355546
0.0011133959627
0.00391633957523
0.00109892593798
0.00354087799553
0.00108535915005
0.00316980804692
0.00107276839025
0.00280275784667
0.00106121928458
0.00243932956134
0.00105076938139
0.0020790901643
0.00104146634415
0.00172155875919
0.00103334902987
0.00136616800304
0.00102645498545
0.00101219353964
0.0010208381706
0.000658729401341
0.00101643064665
0.000306505653941
0.00100857023914
0.000909118286015
0.00153864359453
-0.00589010300833
0.00324506293096
-0.00652671830336
0.00494495913769
-0.00650337898896
0.00662025570978
-0.00641229557665
0.00826232056934
-0.00628898457806
0.00986355839912
-0.00613710572089
0.0114169818288
-0.00595883274692
0.0129162509061
-0.00575651638236
0.0143557318356
-0.0055327093713
0.0157305280774
-0.00529009933511
0.0170365008937
-0.00503144084641
0.0182702618239
-0.00475949476485
0.0194291606195
-0.00447697345503
0.0205112489214
-0.00418649534031
0.0215152459902
-0.00389054636584
0.022440484069
-0.00359145151142
0.0232868619943
-0.00329135308524
0.0240547820158
-0.00299219862418
0.024745100337
-0.00269573441888
0.0253590637447
-0.00240350719331
0.0258982642076
-0.00211686932332
0.0263645812352
-0.0018369898664
0.0267601447623
-0.00156486643756
0.027087285914
-0.0013013402606
0.0273485090684
-0.00104710958304
0.0275464506535
-0.000802744252127
0.0276838588677
-0.000568697253582
0.0277635585809
-0.000345316669716
0.0277884365578
-0.00013285447978
0.027761410741
6.85239941787e-05
0.0276854197603
0.000258733345786
0.0275633944878
0.000437762001361
0.0273982520875
0.000605659027786
0.027192871156
0.00076253497085
0.0269500880886
0.000908553735197
0.0266726758578
0.00104392583555
0.0263633426635
0.00116890363493
0.0260247137693
0.0012837754543
0.0256593326758
0.0013888613957
0.0252696454904
0.00148450811954
0.0248580041775
0.00157108516981
0.0244266531941
0.00164898031474
0.0239777345365
0.00171859623438
0.0235132765008
0.00178034626791
0.023035200351
0.00183465131898
0.0225453111272
0.00188193591356
0.02204530582
0.00192262527283
0.0215367661813
0.0019571416657
0.0210211682798
0.00198590168394
0.0204998772131
0.00200931297984
0.019974157861
0.00202777188055
0.019445171312
0.00204166066047
0.0189139865279
0.00205134566959
0.01838157817
0.00205717532208
0.0178488387817
0.00205947891622
0.0173165776051
0.0020585654772
0.0167855328094
0.00205472337443
0.0162563708225
0.00204822007617
0.0157296981111
0.00203930258109
0.015206060567
0.00202819802572
0.0146859543939
0.0020151148261
0.0141698251524
0.00200024398191
0.0136580774106
0.0019837607401
0.0131510731838
0.00196582635654
0.0126491401518
0.00194659002936
0.0121525693697
0.00192619085175
0.0116616220075
0.00190475975808
0.0111765263637
0.00188242140656
0.0106974832249
0.00185929590493
0.0102246623296
0.0018355004145
0.0097582065512
0.0018111504878
0.0092982280488
0.00178636125148
0.00884481154146
0.00176124825849
0.00839801041681
0.00173592818816
0.00795784938091
0.00171051919299
0.00752432079701
0.00168514111996
0.00709738698052
0.00165991538937
0.0066769770025
0.00163496479615
0.00626298885074
0.00161041300134
0.00585528688153
0.00158638400036
0.00545370401074
0.00156300132538
0.00505803992486
0.00154038727812
0.00466806338366
0.00151866194
0.00428351120569
0.00149794225454
0.00390409063423
0.00147834092583
0.00352947890562
0.0014599654256
0.00315932528219
0.00144291688026
0.0027932504085
0.0014272892084
0.00243084661348
0.00141316855285
0.00207167469561
0.00140063386079
0.00171525919092
0.00138976009415
0.00136108275054
0.00138062714025
0.00100859661465
0.00137332094098
0.000657396252382
0.0013676279369
0.000309158378677
0.00135680532324
0.00121827555051
0.00156861335224
-0.00745879737857
0.00330690752948
-0.00826509873457
0.00503808481671
-0.00823464286427
0.00674343874636
-0.00811773572974
0.00841389279224
-0.00795952438058
0.0100414819344
-0.00776478014236
0.0116189299905
-0.00753636541686
0.0131396881744
-0.00727735857515
0.0145979852996
-0.00699108966196
0.0159888567833
-0.00668105322563
0.0173081549496
-0.00635082040177
0.0185525385144
-0.00600395881908
0.0197194482071
-0.00564396246574
0.0208070668813
-0.00527419230083
0.0218142718121
-0.00489782826832
0.0227405769865
-0.00451783251254
0.0235860733288
-0.0041369238173
0.0243513639505
-0.00375756238581
0.0250375023959
-0.00338194445572
0.0256459300977
-0.00301200515256
0.0261784206732
-0.00264942852011
0.0266370260671
-0.00229566247376
0.0270240314219
-0.00195193729484
0.0273419123466
-0.00161928522976
0.0275933006813
-0.00129856020153
0.0277809514389
-0.000990455796511
0.027907716756
-0.000695521560516
0.0279765193104
-0.0004141767017
0.027990331384
-0.00014672222113
0.0279521523132
0.00010664891795
0.0278649911133
0.000345842211901
0.0277318457415
0.000570856549351
0.0275556909525
0.000781764792445
0.0273394602979
0.00097871809242
0.0270860354227
0.00116193284895
0.0267982327455
0.00133168420268
0.0264787950245
0.00148829877184
0.026130380901
0.00163214840127
0.0257555590177
0.00176364377702
0.0253567999496
0.00188322903466
0.0249364724544
0.00199137612083
0.0244968374621
0.00208858005231
0.0240400461935
0.00217535378891
0.0235681360487
0.00225222391697
0.0230830304919
0.0023197258423
0.0225865367783
0.00237839974266
0.0220803475551
0.00242878599569
0.0215660404016
0.00247142139068
0.0210450811017
0.00250683485438
0.0205188249164
0.00253554403458
0.0199885213844
0.00255805149916
0.0194553171372
0.00257484191522
0.0189202619711
0.0025863789746
0.0183843128687
0.00259310341281
0.0178483409247
0.00259543089862
0.0173131361167
0.00259375109918
0.0167794145846
0.00258842668822
0.0162478236132
0.00257979353828
0.015718948718
0.00256816085822
0.0151933183185
0.00255381244943
0.0146714101453
0.0025370078391
0.0141536551633
0.00251798438723
0.0136404429235
0.00249695915005
0.0131321244447
0.00247413153148
0.0126290163084
0.00244968554233
0.0121314023754
0.00242379263835
0.0116395365854
0.00239661402284
0.0111536435591
0.00236830333744
0.0106739202303
0.00233900870289
0.0102005355162
0.00230887498763
0.00973363101575
0.00227804536089
0.00927332002488
0.00224666296575
0.00881968760711
0.00221487186338
0.00837278926331
0.00218281803437
0.00793265068572
0.00215064968864
0.00749926638659
0.00211851761481
0.00707259942543
0.0020865749119
0.00665258025346
0.00205497676951
0.00623910664183
0.00202387972869
0.00583204293757
0.00199344101977
0.00543122035337
0.00196381748799
0.00503643674827
0.00193516462692
0.00464745734827
0.0019076353102
0.00426401506562
0.00188137866345
0.00388581160044
0.00185653874581
0.00351251815027
0.00183325342182
0.00314377663029
0.00181165320851
0.00277920040632
0.00179186049274
0.00241837512649
0.00177398912557
0.00206085928167
0.001758145168
0.00170618600458
0.00174442919117
0.00135386908104
0.0017329397781
0.00100342885552
0.00172375697283
0.00065454750263
0.00171650662069
0.000308837599504
0.00170251287712
0.00152711164412
0.00160650995258
-0.0090653889605
0.00338600701439
-0.0100446830806
0.00515743481141
-0.0100061578005
0.00690131379413
-0.00986170161472
0.00860804428951
-0.00966634126096
0.0102692170201
-0.00942603875824
0.0118772010786
-0.00914443472742
0.0134251880617
-0.00882543014377
0.0149072401292
-0.00847322551427
0.0163183141794
-0.0080922102315
0.0176542632801
-0.00768685149221
0.0189118172874
-0.0072615938341
0.0200885468704
-0.0068207719358
0.0211828133952
-0.00636853759583
0.0221937089846
-0.00590880137118
0.0231209888393
-0.00544518864039
0.0239649999454
-0.00498100981567
0.0247266078488
-0.00451924383558
0.0254071253639
-0.00406253403198
0.0260082443004
-0.00361319471187
0.0265319733941
-0.00317322666115
0.026980582391
-0.0027443390078
0.0273565542016
-0.00232797499945
0.0276625435505
-0.00192533890579
0.02790134272
-0.00153742200316
0.0280758517412
-0.00116502584722
0.0281890531472
-0.000808782271924
0.0282439886528
-0.000469169889587
0.0282437383771
-0.000146527888615
0.0281914006529
0.000158932327158
0.0280900740817
0.000447116204524
0.0279428387185
0.000718040957028
0.0277527425995
0.00097181168193
0.0275227857415
0.00120862731983
0.0272559081287
0.0014287645227
0.0269549782111
0.00163256974377
0.0266227835687
0.00182045068542
0.0262620222328
0.00199286852157
0.0258752958723
0.002150330512
0.0254651033998
0.00229338333869
0.025033836198
0.00242260668093
0.0245837736431
0.0025386073568
0.0241170801252
0.00264201350967
0.023635802353
0.00273346921397
0.0231418681092
0.00281362898793
0.0226370853379
0.0028831526623
0.0221231426662
0.00294270011032
0.0216016103112
0.00299292635871
0.0210739423827
0.00303447660844
0.0205414795812
0.00306798175255
0.0200054531931
0.00309405393114
0.019466989413
0.00311328275274
0.0189271147718
0.00312623171828
0.0183867617305
0.00313343549228
0.0178467751055
0.00313539752446
0.0173079184189
0.00313258864817
0.0167708807469
0.0031254461071
0.0162362832218
0.0031143735994
0.0157046856886
0.00309974173575
0.0151765927587
0.00308188944506
0.0146524597192
0.00306112568201
0.0141326976411
0.0030377319257
0.0136176781268
0.00301196479503
0.0131077371507
0.00298405923643
0.012603178423
0.00295423160797
0.0121042758419
0.00292268310081
0.0116112754562
0.00288960284198
0.0111243966039
0.00285517111747
0.0106438326343
0.00281956210068
0.0101697509631
0.00278294653603
0.00970229283987
0.00274549381337
0.00924157264671
0.00270737389534
0.00878767706366
0.00266875858961
0.00834066396923
0.00262982263839
0.00790056136054
0.00259074416841
0.0074673661961
0.00255170497593
0.00704104338648
0.00251289023388
0.00662152486232
0.00247448808889
0.00620870888135
0.00243668877267
0.00580245952688
0.00239968367589
0.00540260649555
0.002363664042
0.00500894514157
0.00232881970317
0.0046212368178
0.00229533754521
0.00423920948469
0.00226340009422
0.00386255857539
0.00223318394767
0.00349094808531
0.00220485842258
0.00312401184416
0.0021785842004
0.00276135497341
0.00215451235691
0.00240255566175
0.00213278370642
0.00204716759549
0.0021135287642
0.00169472380698
0.00209686837351
0.00134474540164
0.00208291378071
0.000996762556763
0.0020717364348
0.000650436281444
0.00206282966954
0.000307249790379
0.00204569642901
0.00183436029451
0.00165316185209
-0.0107186331211
0.00348364509329
-0.0118752539267
0.00530482463964
-0.0118274253322
0.0070962203555
-0.0116531848949
0.00884757786727
-0.0114177859076
0.0105499446748
-0.0111284921437
0.0121952606654
-0.0107898366784
0.0137764080567
-0.0104066627918
0.0152872575358
-0.00998415946211
0.0167226853819
-0.00952772167387
0.0180785638736
-0.00904281262713
0.0193517291806
-0.00853484075346
0.0205399311082
-0.0080090543741
0.0216417687752
-0.00747045459828
0.0226566160088
-0.00692372670325
0.0235845399448
-0.00637318937161
0.0244262161533
-0.00582276146462
0.025182843509
-0.00527594521479
0.0258560618602
-0.00473582494838
0.0264478753236
-0.00420507922847
0.0269605834538
-0.00368600430294
0.0273967218385
-0.00318054531388
0.0277590125773
-0.0026903320513
0.028050324178
-0.00221671517215
0.0282736393486
-0.00176080018546
0.0284320287924
-0.00132347661553
0.0285286288285
-0.000905441949639
0.0285666212293
-0.000507220226007
0.0285492140243
-0.000129176925793
0.028479622814
0.000228469008491
0.0283610528281
0.000565633354438
0.0281966830205
0.000882359635353
0.0279896483349
0.00117879691773
0.0277430278243
0.0014552000627
0.027459831236
0.00171191499045
0.0271429885125
0.00194936798719
0.0267953406625
0.00216805565627
0.0264196320341
0.00236853585982
0.0260185036482
0.00255141915412
0.0255944876106
0.00271736115891
0.0251500023376
0.00286705521786
0.0246873486948
0.00300122572114
0.0242087068762
0.00312062146095
0.023716134184
0.00322600941985
0.0232115635854
0.00331816843457
0.0226968032218
0.00339788317535
0.0221735367668
0.0034659379706
0.0216433247915
0.00352311095692
0.0211076070289
0.00357016816781
0.0205677056435
0.00360785806908
0.0200248293681
0.0036369062306
0.0194800785453
0.00365801064958
0.01893445089
0.00367183745921
0.018388847932
0.00367901750456
0.0178440819168
0.00368014352714
0.0173008830671
0.00367576837402
0.0167599069643
0.00366640394279
0.0162217419241
0.00365252118555
0.015686916142
0.00363455084864
0.015155904487
0.00361288517148
0.0146291347665
0.00358788019004
0.014106993369
0.00355985878443
0.0135898301751
0.003529114103
0.0130779626901
0.00349591344647
0.0125716793625
0.0034605022541
0.0120712420911
0.00342310824512
0.0115768879513
0.00338394539479
0.0110888301895
0.00334321779378
0.01060725857
0.00330112312534
0.0101323391452
0.00325785581996
0.00966421357266
0.00321360969037
0.00920299805673
0.00316858012452
0.00874878205224
0.00312296570915
0.00830162679772
0.00307696937349
0.00786156381575
0.00303079899015
0.00742859342411
0.00298466752874
0.00700268338667
0.00293879274771
0.00658376771338
0.00289339651481
0.00617174572724
0.00284870378094
0.00576648137286
0.00280494128185
0.00536780286948
0.0027623360214
0.00497550264865
0.00272111358877
0.00458933766675
0.00268149638579
0.00420902999888
0.00264370179498
0.00383426779947
0.00260794038283
0.00346470650858
0.00257441415339
0.00309997041674
0.0025433149749
0.00273965453284
0.00251482318904
0.0023833268919
0.00248910650343
0.00203053169005
0.00246631927691
0.00168079390109
0.00244660188443
0.00133362570972
0.00243007755359
0.000988541940467
0.00241681576181
0.000645165550676
0.00240620328749
0.000304880692686
0.00238597883846
0.00213923936003
0.00170938404011
-0.0124281002134
0.00360136743288
-0.0137673261051
0.00548249661348
-0.0137086431901
0.00733103219583
-0.0135018088861
0.00913590654876
-0.0132227481552
0.010887506681
-0.0128801796301
0.0125772616042
-0.0124796783157
0.0141976955312
-0.0120271827202
0.015742469534
-0.0115290186566
0.0172063877068
-0.0109917241555
0.0185853725695
-0.0104218808204
0.0198764157264
-0.0098259661992
0.0210775095206
-0.00921022932375
0.0221875644578
-0.00858058950712
0.0232063167282
-0.00794255767356
0.0241342294322
-0.00730117946406
0.0249723912572
-0.00666099928275
0.0257224160301
-0.00602604455913
0.0263863469756
-0.00539982896452
0.0269665689434
-0.00478537275139
0.0274657317593
-0.00418523708541
0.0278866863943
-0.00360156832605
0.028232434718
-0.00303614709639
0.0285060915426
-0.00249043707317
0.0287108568265
-0.00196562884127
0.0288499945669
-0.00146267604719
0.0289268154581
-0.000982322799638
0.0289446605001
-0.000525123527558
0.0289068844278
-9.14573692597e-05
0.0288168383073
0.000318460317837
0.0286778497319
0.00070456886161
0.0284932117733
0.00106694622527
0.0282661620046
0.0014057970472
0.0279998702349
0.00172144386607
0.0276974266479
0.0020143123042
0.0273618316721
0.00228491832199
0.0269959876686
0.00253385666362
0.0266026918342
0.00276179027748
0.0261846303061
0.00296944085051
0.0257443730169
0.00315758013432
0.0252843694281
0.00332702200987
0.0248069448653
0.00347861493515
0.0243142976798
0.00361323473865
0.0238084970665
0.00373177749811
0.0232914817893
0.00383515253714
0.0227650596955
0.00392427538705
0.0222309082541
0.0040000608056
0.0216905760157
0.00406341579949
0.0211454851798
0.00411523279773
0.0205969351506
0.00415638301968
0.0200461071806
0.00418771022516
0.0194940699395
0.00421002496036
0.0189417859986
0.00422409948831
0.0183901190168
0.00423066353866
0.0178398415198
0.0042304010122
0.0172916430266
0.00422394774174
0.0167461383491
0.00421189035162
0.0162038758245
0.00419476625315
0.0156653452881
0.00417306470967
0.0151309855872
0.00414722893841
0.0146011914679
0.00411765908685
0.0140763197063
0.00408471599906
0.013556694366
0.00404872554203
0.0130426111421
0.00400998338404
0.0125343407308
0.00396875996468
0.0120321312757
0.00392530555854
0.0115362098832
0.00387985517592
0.0110467833335
0.00383263324026
0.0105640380184
0.003783857817
0.0100881392853
0.00373374439102
0.00961923023224
0.00368250901401
0.00915743016421
0.00363037088071
0.00870283274611
0.00357755420312
0.00825550406806
0.00352428950231
0.00781548063215
0.00347081421996
0.00738276746974
0.00341737281695
0.00695733635976
0.00336421628116
0.00653912434233
0.0033116012429
0.00612803245837
0.00325978862603
0.00572392489198
0.00320904205055
0.00532662840891
0.00315962591137
0.00493593224937
0.00311180335596
0.00455158833991
0.00306583407703
0.00417331196115
0.00302197214228
0.00380078272543
0.00298046376883
0.00343364598721
0.00294154525968
0.00307151456322
0.00290544099688
0.00271397089418
0.00287236169325
0.0023605696953
0.00284250281301
0.00201084124173
0.00281604310912
0.00166429519515
0.00279314310565
0.0013204265784
0.00277394158345
0.000978726908419
0.00275851196839
0.000638780385592
0.00274614635099
0.000301900511819
0.00272285552651
0.00244113865842
0.00177612788248
-0.0142043119397
0.00374109001699
-0.0157323775173
0.00569325740327
-0.0156609001986
0.00760934128148
-0.0154179819672
0.00947727725776
-0.0150907728758
0.011286659431
-0.0146896499663
0.0130283191677
-0.0142214255694
0.0146943780082
-0.0136933283388
0.0162782795726
-0.0131130061791
0.017774778812
-0.0124883084399
0.0191798963027
-0.0118270823678
0.0204908461567
-0.0111369990337
0.0217059446381
-0.0104254096446
0.0228245051811
-0.00969923066597
0.0238467241378
-0.00896485596797
0.0247735611126
-0.00822809442173
0.0256066174606
-0.0074941322152
0.0263480170512
-0.00676751926455
0.0270002935663
-0.0060521790929
0.0275662889709
-0.00535144020335
0.0280490670281
-0.00466808560529
0.0284518447206
-0.00400441483821
0.0287779420792
-0.00336231162564
0.0290307488558
-0.00274330932073
0.0292137039563
-0.00214864771939
0.0293302827191
-0.00157931684994
0.0293839868105
-0.00103608721102
0.0293783332613
-0.000519528542583
0.0293168406404
-3.00215835709e-05
0.0292030125986
0.000432233286409
0.0290403172815
0.00086721083566
0.0288321767212
0.00127503519997
0.0285819444638
0.0016559794334
0.028292893322
0.00201044686606
0.0279682039632
0.00233895519985
0.027610955802
0.00264212170508
0.0272241195817
0.00292064973546
0.0268105514061
0.0031753169338
0.0263729875813
0.00340696472663
0.0259140402514
0.00361648907836
0.0254361934796
0.00380483189763
0.0249417999806
0.0039729730387
0.0244330783358
0.00412192241472
0.0239121109801
0.00425271229266
0.0233808428601
0.0043663894418
0.0228410810555
0.00446400729881
0.0222944952888
0.00454661794179
0.0217426195846
0.00461526410774
0.0211868549977
0.00467097116556
0.0206284735944
0.00471473935029
0.0200686235546
0.00474753628417
0.0195083354614
0.00477029013162
0.0189485295621
0.00478388347399
0.018390023938
0.00478914822278
0.017833543296
0.00478686164188
0.0172797282171
0.00477774370006
0.0167291445484
0.00476245574974
0.0161822927282
0.00474160061694
0.0156396167543
0.00471572400419
0.0151015125972
0.00468531715695
0.0145683358403
0.00465082061356
0.0140404083978
0.00461262888445
0.0135180241935
0.00457109583394
0.0130014537255
0.00452654055003
0.0124909475039
0.0044792534704
0.0119867383645
0.00442950253516
0.01148904274
0.00437753917034
0.0109980609534
0.00432360389717
0.0105139766864
0.0042679314378
0.0100369557215
0.00421075516164
0.00956714415208
0.00415231082718
0.00910466616182
0.00409283952057
0.00864962157989
0.00403258982895
0.00820208328946
0.00397181919773
0.00776209468625
0.00391079457925
0.00732966722461
0.00384979235036
0.0069047782286
0.00378909765561
0.00648736895765
0.00372900316124
0.00607734308363
0.00366980740798
0.00567456552289
0.00361181274047
0.00527886176072
0.00355532301841
0.00489001757028
0.0035006410712
0.0045077792503
0.00344806610758
0.00413185424636
0.00339789102219
0.00376191228001
0.00335039980672
0.0033975868223
0.00330586498421
0.00303847705756
0.00326454526393
0.00268415021167
0.003226683303
0.00233414429939
0.00319250368186
0.00198797141334
0.00316221108716
0.00164512171585
0.00313598836296
0.00130506727685
0.00311399140818
0.000967272061774
0.00309630243973
0.000631286958657
0.00308212850551
0.00029836511365
0.00305577473792
0.0027395019879
0.00185455310363
-0.0160589497162
0.00390518327355
-0.0177830981485
0.00594058791948
-0.0176963952647
0.00793559121767
-0.0174130753726
0.00987692072272
-0.0170321919631
0.0117532303438