/*--------------------------------*- C++ -*----------------------------------*\
| =========                 |                                                 |
| \\      /  F ield         | OpenFOAM: The Open Source CFD Toolbox           |
|  \\    /   O peration     | Version:  v1906                                 |
|   \\  /    A nd           | Web:      www.OpenFOAM.com                      |
|    \\/     M anipulation  |                                                 |
\*---------------------------------------------------------------------------*/
FoamFile
{
    version     2.0;
    format      ascii;
    class       surfaceScalarField;
    location    "450";
    object      phia;
}
// * * * * * * * * * * * * * * * * * * * * * * * * * * * * * * * * * * * * * //

dimensions      [0 3 -1 0 0 0 0];
oriented        oriented;


internalField   nonuniform List<scalar> 
18240
(
0.000470799915553
-0.000470770630182
0.000949148088975
-0.000478313265568
0.00142755130045
-0.000478375176411
0.00189938612685
-0.000471798385331
0.00236125806911
-0.000461845503997
0.00281052695182
-0.00044923112366
0.0032448930426
-0.000434341394571
0.00366238013693
-0.000417448158179
0.00406121893675
-0.000398815936283
0.00443994256254
-0.000378683669813
0.00479727345124
-0.000357309969368
0.00513223962222
-0.000334925372713
0.00544403689336
-0.000311778354241
0.00573215696318
-0.000288078633389
0.00599622495348
-0.000264051161047
0.00623614038993
-0.000239873586334
0.00645189394477
-0.000215738833583
0.00664372327881
-0.000191787317663
0.00681191326335
-0.000168177418456
0.00695696781952
-0.000145012631266
0.00707939715801
-0.000122418898507
0.00717990547804
-0.000100466754316
0.00725916805397
-7.92542583934e-05
0.00731803338922
-5.88243908081e-05
0.00735729211292
-3.9252442488e-05
0.00737789128625
-2.0559106532e-05
0.00738069689077
-2.80129996487e-06
0.00736671758029
1.40182644099e-05
0.0073368614861
2.98585634356e-05
0.0072921667225
4.47323876613e-05
0.00723355648735
5.86109805044e-05
0.00716207314432
7.15194532168e-05
0.0070786317529
8.34405998955e-05
0.00698425605232
9.44101417814e-05
0.00687983332032
0.000104420555893
0.00676634992549
0.000113516051684
0.00664464951328
0.000121697068933
0.00651566611246
0.000129014192247
0.00638018763689
0.000135474143023
0.00623908464755
0.000141131877181
0.00609308077418
0.000145998782216
0.00594297541055
0.000150132347354
0.00578942251082
0.000153547237233
0.00563314569293
0.000156301941846
0.00547472645316
0.00015841323276
0.00531481045024
0.000159939352164
0.00515390599716
0.00016089828086
0.00499258061977
0.000161347083436
0.00483127024913
0.000161304237521
0.00467046554947
0.000160824937765
0.00451053197118
0.000159927634367
0.00435188576022
0.000158665203168
0.00419482452419
0.000157055639418
0.00403969331922
0.000155149217233
0.00388672501394
0.000152963147064
0.00373619736283
0.000150544990975
0.00358828186785
0.000147910853392
0.00344319331802
0.000145105560379
0.00330104540485
0.000142143780195
0.00316199480992
0.000139067645618
0.00302610121617
0.00013588993113
0.00289346863655
0.000132650053584
0.00276410704915
0.000129358258682
0.0026380742269
0.000126051097126
0.00251533573415
0.000122735333635
0.00239591093234
0.000119444213659
0.00227972793921
0.00011617974599
0.00216677760371
0.000112971129996
0.00205695997711
0.000109814026892
0.0019502496713
0.000106732551282
0.00184653094148
0.000103714420659
0.00174577679055
0.000100777657693
0.00164787055868
9.79008784886e-05
0.00155279937245
9.50954327107e-05
0.0014604618192
9.23307668711e-05
0.0013708741137
8.96118353464e-05
0.00128396556402
8.69000243548e-05
0.00119979388243
8.41945543311e-05
0.00111833344284
8.14499221766e-05
0.00103969547684
7.86584540841e-05
0.000963918033576
7.57650974519e-05
0.000891189063602
7.27464943426e-05
0.000821653755534
6.95217304113e-05
0.000755651093388
6.60171176446e-05
0.000693582238095
6.20551338188e-05
0.00063624653504
5.73460957235e-05
0.000585083626334
5.11495128566e-05
0.000544189485246
4.09006404614e-05
0.000506060103593
3.81185239481e-05
0.000460223122235
4.58402826033e-05
0.00040972691442
5.04863715788e-05
0.000354011297521
5.5715806586e-05
0.000289568432487
6.44397188965e-05
0.000210303920343
7.92578828446e-05
0.000109959910542
0.00010032553746
0.000109952185792
0.000483779676596
-0.000954519389788
0.00100629710331
-0.00100079677251
0.00151988345394
-0.00099192928183
0.00202395021171
-0.000975830774627
0.00251650425964
-0.000954367803642
0.00299522497147
-0.000927917305359
0.00345783625644
-0.000896921558707
0.00390227005039
-0.000861847388623
0.00432667806904
-0.000823193589164
0.00472949060836
-0.000781461749204
0.00510937820334
-0.000737168067232
0.00546529698413
-0.000690809944826
0.00579642932042
-0.00064288219767
0.00610222636692
-0.000593841883555
0.00638233385537
-0.000544131277682
0.00663663600114
-0.000494142515356
0.00686517092759
-0.000444247642017
0.00706817922983
-0.000394763156953
0.0072460128796
-0.00034598630979
0.0073991907106
-0.000298158923869
0.00752830365474
-0.000251508556198
0.00763407811325
-0.000206210765475
0.00771727922506
-0.00016243363229
0.0077787818066
-0.000120297767092
0.00781947237636
-7.99228968199e-05
0.00784032644393
-4.13853467002e-05
0.00784230943672
-4.76583228544e-06
0.00782645866973
2.9895370398e-05
0.00779378424684
6.25497674659e-05
0.00774535446213
9.3186934632e-05
0.00768219481218
0.000121785750597
0.00760537585503
0.000148361538944
0.00751591336248
0.000172916581115
0.00741485710963
0.000195487859454
0.00730319214883
0.000216097442697
0.00718192797152
0.0002348000317
0.00705200179281
0.000251633689976
0.00691436734346
0.000266666810897
0.00676990091992
0.000279949637712
0.0066194890454
0.000291560346458
0.00646393786953
0.000301557778384
0.0063040589635
0.000310026358188
0.00614058252501
0.000317030392949
0.00597424062371
0.000322657570612
0.00580568452314
0.000326975100196
0.00563556480945
0.000330071552933
0.0054644530471
0.000332015034159
0.00529291835983
0.000332893180127
0.00512145350777
0.000332773479791
0.00495054766463
0.000331741297807
0.00478061689052
0.000329862388609
0.00461207302472
0.000327218900212
0.00444525836867
0.000323874048599
0.00428051081746
0.000319906137617
0.00411810241033
0.000315375268922
0.00395830103316
0.000310355510216
0.00380131230702
0.00030490342008
0.00364733843585
0.000299088584519
0.00349652272169
0.000292963615793
0.00334900638313
0.000286593379824
0.00320487480937
0.000280026016988
0.00306421344696
0.000273321270795
0.00292705474569
0.000266521952665
0.00279343446165
0.000259681885163
0.0026633381432
0.00025283715379
0.00253675939675
0.000246034256187
0.0024136447013
0.000239300442147
0.00229395523471
0.000232672751994
0.00217760882326
0.000226166826345
0.00206454674464
0.000219807570057
0.00195467170967
0.000213596007808
0.00184792050189
0.0002075423247
0.00174419703963
0.000201630661917
0.00164345081239
0.000195855133625
0.00154560442874
0.000190182701339
0.00145063671841
0.000184592291637
0.00135850496031
0.000179035889318
0.00126923082596
0.000173479798978
0.0011828191311
0.000167863607807
0.00109934524709
0.000162140995906
0.00101887469953
0.000156235240362
0.00094155202895
0.000150075075232
0.00086752732698
0.000143543788944
0.00079704453095
0.000136503193469
0.000730364951466
0.000128730295747
0.000667792786357
0.000119918459518
0.000609325352103
0.000109610837275
0.000553137418158
9.70867195045e-05
0.000503967303781
8.72834587948e-05
0.000456104743626
9.36989522948e-05
0.000403569440511
0.00010301631711
0.000344609021265
0.000114672776812
0.000278167170761
0.0001308743964
0.000197829341449
0.000159588105976
9.95278045843e-05
0.000198615106076
0.000209469998563
0.000494525507544
-0.00144901356933
0.00101943005817
-0.0015256679097
0.00153868345327
-0.00151114961937
0.00204879123339
-0.0014859049915
0.00254712214698
-0.00145266587231
0.00303118527345
-0.00141194700886
0.00349865078276
-0.00136435458136
0.00394741466661
-0.00131057810135
0.00437561837737
-0.00125136528439
0.00478167875389
-0.0011874893333
0.00516427835381
-0.00111973625906
0.00552237845791
-0.0010488777742
0.00585519243737
-0.000975665505831
0.00616219016907
-0.000900808009387
0.00644306088973
-0.000824972215649
0.00669771421507
-0.000748765057164
0.00692623732484
-0.000672741992303
0.00712889663698
-0.00059739266522
0.00730609317037
-0.000523155256853
0.00745836770385
-0.000450404781719
0.00758635683682
-0.000379471396302
0.0076908030331
-0.000310629556332
0.00777251254602
-0.000244118272142
0.00783237036098
-0.00018012956832
0.00787129995551
-0.000118829123859
0.00789028223882
-6.0343113636e-05
0.00789031660236
-4.77841808357e-06
0.00787244268626
4.77922289755e-05
0.0078377020733
9.7310530745e-05
0.00778716194569
0.000143748374874
0.00772187741875
0.000187088769144
0.00764291635744
0.000227342261397
0.00755132237053
0.000264527418717
0.00744814064938
0.000298687591643
0.0073343820107
0.000329871315301
0.00721104951587
0.000358148921254
0.00707910387906
0.000383593013783
0.00693949067
0.000406294853573
0.0067931073625
0.000426345159764
0.00664083083863
0.000443850227405
0.00648348618662
0.000458913287535
0.00632187418509
0.000471650343742
0.00615674191151
0.000482172284092
0.00598880986154
0.000490600361094
0.00581874433325
0.000497049159747
0.00564718388857
0.00050164164112
0.0054747134942
0.000504493028216
0.00530189008343
0.000505725306822
0.00512921838031
0.000505452036175
0.00495717540776
0.000503792243025
0.00478618793311
0.000500856154065
0.00461665583368
0.000496758430946
0.00444893103393
0.00049160478334
0.00428333972509
0.000485504546892
0.00412016265163
0.000478558117924
0.00395965625581
0.000470868891129
0.00380203409628
0.000462531400004
0.00364748708624
0.000453642674292
0.00349616581333
0.000444290931464
0.00334820014459
0.000434566420984
0.0032036821612
0.000424550435789
0.00306268552844
0.000414325747934
0.0029252487753
0.000403965666274
0.00279139495769
0.00039354417623
0.00266111499869
0.000383124711979
0.00253438829779
0.000372770176822
0.00241116590004
0.000362531126888
0.0022913927603
0.000352455908035
0.00217499049149
0.000342578040507
0.00206188192103
0.000332926866471
0.00195197314845
0.000323514179268
0.00184518068516
0.000314345932413
0.00174141234259
0.000305408468933
0.00164059657853
0.000296681912866
0.00154266158185
0.000288126588724
0.0014475656148
0.000279698353347
0.00135527359965
0.000271335403501
0.00126578689771
0.000262974734959
0.00117911748609
0.000254538253927
0.00109531647222
0.00024594758945
0.00101444768766
0.000237106536479
0.000936615747082
0.000227909672128
0.000861942065126
0.000218217193607
0.000790591299516
0.000207853755079
0.000722741039653
0.000196577884482
0.000658566950295
0.000184089345465
0.000598104778948
0.000170067662261
0.000540383816282
0.000154803285638
0.00048903363008
0.000138628388276
0.000439760377046
0.000142966325989
0.000383888854556
0.0001588799474
0.000319271582246
0.000179283459213
0.000243808649708
0.000206333474664
0.000159043856236
0.000244341949514
7.91417800366e-05
0.000278502005285
0.000288606315541
0.000504173750436
-0.00195315597563
0.00103674010659
-0.00205820117284
0.00156404587672
-0.00203842220887
0.00208205481018
-0.00200388069726
0.00258785785886
-0.00195843591579
0.00307880167496
-0.00190285779137
0.0035524639114
-0.00183798410626
0.00400668167961
-0.00176476314541
0.00443956829304
-0.00168421959726
0.00484952886007
-0.00159741760991
0.00523525772859
-0.00150543336287
0.0055957376998
-0.00140932602575
0.00593022240934
-0.00131011913411
0.00623822509082
-0.00120877969086
0.00651949196383
-0.00110620883555
0.00677398622862
-0.00100322919476
0.00700185776135
-0.000900584257695
0.00720342697779
-0.000798932782014
0.00737915490719
-0.00069885504784
0.00752963013682
-0.000600852086447
0.00765554178905
-0.000505356183459
0.00775767107781
-0.000412732231935
0.00783686801454
-0.000323289735474
0.00789404748488
-0.000237283855119
0.00793016914378
-0.000154926809914
0.00794623688632
-7.63872004768e-05
0.00794328078039
-1.799914533e-06
0.00792235859274
6.87364736148e-05
0.00788453878623
0.000135151100531
0.00783090324645
0.000197404326434
0.00776253097679
0.000255480147266
0.00768050164505
0.000309390345422
0.00758587994992
0.000359166566562
0.00747972004383
0.000404864602551
0.00736305086483
0.000446556326375
0.00723688149624
0.000484333788073
0.00710218768818
0.00051830108601
0.00695991816595
0.000548578332011
0.00681098243991
0.000575293666333
0.00665625794362
0.000598587227606
0.0064965790986
0.000618603528654
0.0063327450747
0.000635495529207
0.00616550999002
0.000649417506703
0.00599559104711
0.000660529254983
0.00582365972533
0.000668989500507
0.00565035007423
0.000674960182326
0.00547625076846
0.000678600397155
0.00530191338194
0.000680070691784
0.00512784519875
0.000679527501135
0.00495451734632
0.000677127387108
0.0047823582696
0.000673021925787
0.00461176163653
0.000667361848646
0.00444308038666
0.000660292341409
0.00427663435954
0.000651957059343
0.00411270482277
0.000642493786321
0.00395154180223
0.00063203830751
0.0037933589946
0.000620720363084
0.00363834082268
0.000608667355199
0.00348663763894
0.000596000491345
0.00333837257847
0.000582838293655
0.00319363699244
0.000569292793278
0.00305249724561
0.000555472787691
0.00291499035453
0.00054147989575
0.00278113096743
0.000527411500034
0.00265090726912
0.000513356458806
0.00252428849006
0.000499397674508
0.00240122120668
0.000485607282266
0.00228163782079
0.000472048873137
0.00216545343752
0.000458772127583
0.00205257576203
0.00044581491442
0.00194290264398
0.000433197654553
0.00183633359897
0.000420925857038
0.0017327677136
0.000408984913946
0.00163211642134
0.000397344009153
0.00153430078572
0.000385952238264
0.00143926421121
0.000374744764473
0.00134696749578
0.000363640589099
0.00125739951064
0.000352550536819
0.00117056865181
0.000341375028993
0.00108651038357
0.000330010763566
0.00100527572051
0.000318344005602
0.000926936966199
0.000306250078457
0.000851577602035
0.000293576121138
0.000779302777342
0.000280127117076
0.000710243790049
0.000265633407078
0.000644609903328
0.00024971866045
0.000582825844248
0.000231845522486
0.000526392072473
0.000211231008126
0.000470910340877
0.000194103161545
0.000411838032407
0.000202030354115
0.000352717261823
0.000217992804244
0.000282331194891
0.000249661885314
0.000201845229996
0.000286808452165
0.000128448493179
0.000317730640114
6.33238696059e-05
0.000343616836446
0.00035192174946
0.000515973661132
-0.00246909846559
0.0010600593267
-0.00260225384776
0.00159860523522
-0.0025769351083
0.00212737935191
-0.00253262177895
0.00264328221705
-0.00247430590292
0.00314350017964
-0.00240304293735
0.00362549567669
-0.00231994699072
0.00408702894675
-0.00222626391492
0.00452617240661
-0.00212333082359
0.00494131895235
-0.00201253209215
0.0053311784303
-0.00189526112021
0.00569476915849
-0.00177288526721
0.00603139966581
-0.00164671857544
0.00634064905966
-0.00151799832647
0.00662234042974
-0.00138786995171
0.00687651637122
-0.00125737526466
0.00710340996096
-0.00112744855971
0.00730342067316
-0.000998914667122
0.00747708743336
-0.000872493644413
0.00762506849736
-0.000748805518524
0.00774811920529
-0.000628379992315
0.00784707736809
-0.00051166409543
0.00792284627101
-0.000399033135798
0.00797638511655
-0.000290797852067
0.00800869610764
-0.000187213798128
0.00802081826174
-8.84860521711e-05
0.00801381677094
5.22399341295e-06
0.00798877840125
9.37965314461e-05
0.00794680186832
0.000177148413283
0.00788899390104
0.000255232326185
0.00781645997505
0.000328033186884
0.00773030093764
0.000395567750309
0.00763160429124
0.000457880668812
0.00752144157837
0.000515044036071
0.00740086058459
0.000567153147013
0.00727088375204
0.000614325740021
0.0071325015485
0.000656697549139
0.0069866720323
0.000694421435653
0.00683431545852
0.000727663010756
0.00667631492094
0.000756599913058
0.00651351207742
0.000781417760175
0.00634670866578
0.000802309761372
0.00617666315298
0.000819473144678
0.00600409287744
0.000833109155823
0.00582967140791
0.000843419976841
0.0056540310992
0.000850609071132
0.00547776100063
0.000854878541066
0.00530140966389
0.000856429731796
0.00512548347562
0.000855460952772
0.00495044960733
0.000852168266443
0.00477673468782
0.000846743516319
0.004604727811
0.000839375242707
0.00443477946544
0.000830246971211
0.00426720453456
0.000819538219992
0.00410228141281
0.000807423010212
0.00394025494355
0.000794070925097
0.00378133564911
0.000779645783261
0.00362570257113
0.000764306699419
0.003473502567
0.000748206835808
0.00332485305359
0.000731494380234
0.00317984135123
0.000714311239608
0.00303852738771
0.000696793817599
0.00290094314443
0.000679071469253
0.00276709547338
0.000661266918064
0.00263696579232
0.000643494241119
0.00251051330347
0.000625858769993
0.00238767521565
0.00060845439835
0.00226837080976
0.000591362877662
0.00215250255906
0.000574650387852
0.00203996160767
0.000558366427572
0.00193063010358
0.000542539983687
0.00182438846535
0.000527178713842
0.00172111881937
0.000512265735101
0.00162071363332
0.000497760382679
0.00152307924749
0.000483597286329
0.00142814397321
0.000469690120149
0.00133585939512
0.000455934153162
0.00124620471357
0.000442212949299
0.00115918306651
0.000428402811485
0.00107481963725
0.000414378570143
0.000993152379412
0.00040001388675
0.000914224952955
0.000385178191542
0.000838075987614
0.000369724016675
0.000764733992367
0.000353466239159
0.000694215268907
0.000336147805702
0.000626535355289
0.000317392308
0.000561718085414
0.000296655226184
0.000499601874302
0.000273339068557
0.000439770747856
0.000253925861409
0.000376238810869
0.000265552764251
0.000309696119665
0.000284524679888
0.000243114286621
0.000316234549379
0.000172074359891
0.00035784322559
0.00010748367784
0.000382309993792
5.27123962586e-05
0.000398374474648
0.000404629708661
0.000530676181879
-0.00299974365616
0.00108981477266
-0.00316135984398
0.00164291598774
-0.00313000347012
0.00218552348749
-0.00307519652134
0.00271433518941
-0.00300308490422
0.00322636014597
-0.00291503531844
0.00371892534401
-0.0028124797412
0.00418969954411
-0.00269700583471
0.00463670695982
-0.00257030615263
0.00505833069481
-0.00243412396616
0.00545330531021
-0.00229020414044
0.00582070151848
-0.0021402501753
0.00615990319436
-0.00198588930005
0.00647058045902
-0.00182864500788
0.00675265872096
-0.00166991806556
0.00700628751052
-0.0015109743515
0.0072318083239
-0.00135294019537
0.00742972518096
-0.00119680286606
0.00760067632428
-0.00104341673891
0.00774541049575
-0.00089351223244
0.00786476531779
-0.00074770804566
0.00795965080579
-0.000606523468128
0.00803103463099
-0.00047039160115
0.00807993182094
-0.000339670389657
0.00810739490531
-0.000214653041446
0.00811450720737
-9.55752615174e-05
0.00810237517736
1.7378266706e-05
0.00807212276805
0.000124070406316
0.00802488440428
0.00022440736769
0.00796179936285
0.000318337166655
0.00788400451929
0.00040584694936
0.00779262901795
0.000486961378296
0.00768878734309
0.000561739598368
0.00757357463668
0.000630273219182
0.0074480606841
0.000692682728778
0.00731328633888
0.000749114961612
0.00717025878413
0.000799739167945
0.00701994926209
0.000844744306764
0.00686328967413
0.000884335183597
0.006701171533
0.000918729970874
0.00653444372864
0.000948156773468
0.00636391244931
0.000972851638859
0.00619033983337
0.000993055718217
0.00601444456825
0.00100901383322
0.00583690116729
0.00102097222412
0.00565834101397
0.00102917760099
0.00547935207407
0.00103387537622
0.00530048022974
0.0010353090852
0.00512222930713
0.00103371899487
0.00494506260301
0.00102934179668
0.00476940314404
0.00102240951167
0.00459563533243
0.00101314939563
0.00442410536476
0.00100178309315
0.00425512292911
0.000988526716534
0.00408896170919
0.000973590207989
0.00392586106383
0.000957177553872
0.00376602654503
0.000939486301695
0.00360963149946
0.000920707845513
0.00345681754366
0.000901027006293
0.00330769604711
0.000880622282671
0.00316234855249
0.000859665353362
0.00302082814946
0.000838321127026
0.00288315989855
0.000816746952217
0.00274934219755
0.000795092235764
0.00261934741312
0.000773497089843
0.00249312350003
0.000752091237126
0.00237059521624
0.000730991800088
0.00225166649432
0.00071030126853
0.00213622285244
0.000690104308356
0.00202413523513
0.000670464830626
0.00191526428258
0.000651422223593
0.00180946633126
0.00063298826844
0.00170659968307
0.000615144127998
0.00160653269514
0.000597839022223
0.00150915076172
0.000580990364547
0.00141436432961
0.000564486969664
0.00132211303826
0.000548194579826
0.00123236891903
0.000531964811435
0.00114513273012
0.000515644778042
0.00106042778065
0.000499087486366
0.000978286030109
0.000482157361584
0.000898732712981
0.000464731309657
0.000821766397666
0.00044668792941
0.000747342063505
0.000427886480978
0.000675357990968
0.000408125739799
0.000605668751132
0.00038707370394
0.000538171921403
0.000364142561083
0.000473431462443
0.000338069419555
0.000411867575489
0.000315479160053
0.000344251233796
0.00033315740464
0.000272879242612
0.000355887435879
0.00020623762933
0.000382867455444
0.000149922823409
0.000414146322629
9.45411598032e-05
0.000437683641507
4.62781776551e-05
0.000446628938663
0.000450900690297
0.000548721769557
-0.00354843476369
0.00112655408621
-0.00373915964783
0.00169770550952
-0.00370112240588
0.00225741055186
-0.00363486903253
0.00280211439758
-0.0035477563453
0.00332861459127
-0.00344150316971
0.00383407804239
-0.00331791099827
0.0043160683027
-0.00317896402294
0.00477255791629
-0.00302676389687
0.00520192720177
-0.00286346157212
0.00560295056132
-0.00269119609293
0.00597477351837
-0.00251204199415
0.00631688208722
-0.00232796707942
0.00662906776276
-0.00214080025188
0.00691138945301
-0.00195220975454
0.00716413520278
-0.0017636905504
0.00738778455162
-0.00157656050403
0.00758297382459
-0.00139196364161
0.0077504646731
-0.00121087967855
0.00789111746904
-0.00103413774761
0.00800586915853
-0.000862433112181
0.00809571626704
-0.000696344658292
0.00816170183185
-0.000536351965794
0.00820490611774
-0.0003828502421
0.00822643940227
-0.000236162657917
0.00822743645259
-9.65494587378e-05
0.00820905118512
3.57855871748e-05
0.00817245137795
0.000160691421678
0.00811881327078
0.000278065862516
0.00804931531014
0.000387854656395
0.00796513171512
0.000490049247732
0.00786742618924
0.000584684754149
0.00775734549557
0.000671837326102
0.00763601373833
0.000751621176139
0.00750452689036
0.000824184982166
0.00736394834043
0.000889708115841
0.00721530486215
0.00094839649048
0.00705958369827
0.001000478557
0.00689773003199
0.00104620121979
0.00673064548083
0.001085826188
0.00655918680786
0.00111962644987
0.00638416547668
0.00114788333118
0.0062063472278
0.0011708837276
0.00602645232702
0.00118891792326
0.00584515568427
0.00120227752711
0.00566308752991
0.00121125392302
0.00548083387561
0.001216136749
0.00529893746677
0.0012172128081
0.00511789847641
0.00121476493948
0.00493817565232
0.00120907126573
0.00476018718033
0.00120040436463
0.00458431196433
0.00118903078447
0.00441089059517
0.00117521047168
0.00424022669458
0.00115919651979
0.00407258791666
0.00114123482409
0.00390820727349
0.00112156402684
0.00374728408589
0.00110041535113
0.0035899852036
0.00107801267346
0.00343644583279
0.00105457244761
0.00328677057882
0.00103030378263
0.00314103410855
0.00100540829694
0.0029992819818
0.000980080002519
0.00286153118696
0.000954504841059
0.0027277708313
0.000928860079245
0.00259796273593
0.000903313162296
0.00247204224374
0.000878020230181
0.00234991931604
0.000853123853081
0.00223148007219
0.000828750269524
0.00211658915588
0.000805005639565
0.00200509309848
0.000781971945651
0.00189682495574
0.000759701939832
0.00179161075777
0.000738214505339
0.00168927712621
0.000717489901872
0.00158966116015
0.000697467057081
0.00149262009859
0.00067804288696
0.00139804187941
0.000659075731365
0.00130585222025
0.000640393340884
0.00121601865229
0.000621805663506
0.00112854713243
0.000603121571553
0.00104347127513
0.000584166164706
0.000960833590912
0.000564795773766
0.000880658540155
0.000544904537252
0.000802921363126
0.000524421263127
0.000727509199041
0.000503292641795
0.000654173219967
0.000481453843682
0.000582454995221
0.000458782134791
0.000511549351088
0.000435036494892
0.000439901804828
0.000409704797084
0.000370407555756
0.000384961352578
0.000307144414993
0.000396408689748
0.000240966665875
0.000422052959577
0.000179363868016
0.000444460738141
0.000130656430074
0.000462848676803
8.40480373118e-05
0.000484281243333
4.1025375132e-05
0.000489639352929
0.000491922966964
0.000570501150103
-0.00411890554798
0.00117095316253
-0.00433957980454
0.00176392274641
-0.0042940597541
0.00234423828842
-0.00421515246047
0.00290802713799
-0.0041115130729
0.00345183010647
-0.00398527413259
0.00397262584672
-0.00383867480326
0.00446785978977
-0.00367416617942
0.00493545388874
-0.00349432634636
0.00537379868234
-0.003301774927
0.00578173112801
-0.00309909731575
0.0061585015028
-0.00288878143401
0.00650373275108
-0.00267316770062
0.00681737523566
-0.00245441248186
0.00709965948762
-0.00223446415804
0.00735104927459
-0.00201505094923
0.00757219680893
-0.00179767915631
0.00776390191907
-0.00158364041452
0.00792707629492
-0.00137402631735
0.00806271402624
-0.00116974836523
0.00817186852319
-0.000971561180749
0.00825563601702
-0.000780086414555
0.0083151444031
-0.000595835370318
0.00835154659159
-0.000419228195543
0.00836601627996
-0.000250608922744
0.00835974515811
-9.02557013909e-05
0.00833393976199
6.16127706254e-05
0.00828981754181
0.000204834614495
0.0082286024289
0.000339301079441
0.00815151855947
0.000464957804813
0.0080597836958
0.000581802521839
0.00795460251727
0.000689883523219
0.0078371597209
0.000789296859785
0.00770861384484
0.000880182988954
0.00757009147438
0.000962722465811
0.00742268256476
0.00103713136883
0.00726743640525
0.00110365621017
0.00710535876812
0.00116256902607
0.0069374096614
0.00121416242592
0.00676450208429
0.0012587451865
0.00658750117103
0.00129663811045
0.00640722405759
0.00132817057304
0.00622443989986
0.00135367740669
0.00603987037641
0.00137349641638
0.00585419018536
0.00138796615545
0.00566802788326
0.00139742418717
0.00548196664926
0.00140220549633
0.00529654532576
0.00140264125504
0.00511225936637
0.001399057665
0.00492956202875
0.00139177507342
0.00474886546499
0.00138110713916
0.00457054202761
0.00136736023544
0.00439492544938
0.00135083290392
0.00422231219933
0.00133181552581
0.00405296266976
0.00131059004706
0.00388710249043
0.00128742989602
0.00372492361896
0.00126259994027
0.00356658550484
0.00123635658953
0.00341221597807
0.00120894789259
0.00326191215388
0.00118061369763
0.00311574103723
0.00115158571927
0.00297374008731
0.00112208753318
0.00283591752779
0.00109233432488
0.00270225257567
0.00106253235742
0.00257269561674
0.00103287795341
0.00244716832252
0.00100355591055
0.0023255641665
0.0009747370752
0.00220774909343
0.000946575056343
0.00209356345153
0.000919201776618
0.00198282455313
0.000892721977086
0.00187533165217
0.000867206671037
0.00177087244545
0.000842685968392
0.0016692326655
0.000819142128219
0.00157020810308
0.000796503917757
0.00147361824996
0.000774644249794
0.00137932133901
0.000753383025239
0.00128722595619
0.000732497294685
0.00119729875778
0.000711739428893
0.00110956138863
0.000690862913772
0.00102407738928
0.00066965177918
0.000940925026782
0.000647946969832
0.000860161076208
0.000625664959894
0.00078177590816
0.000602800456617
0.000705641903422
0.000579418642656
0.000631448559902
0.000555637175147
0.0005586079065
0.000531610915397
0.000486099473483
0.000507531297057
0.000412138258796
0.00048365216745
0.000336165467715
0.000460920016315
0.000271745709738
0.000460814939038
0.000213055324267
0.000480733057741
0.000160826417585
0.000496680465195
0.000114014177379
0.000509649444422
7.52083375517e-05
0.000523079289279
3.61409605973e-05
0.000528700175959
0.000528058436371
0.000596448606329
-0.00471532432086
0.00122384830222
-0.00496694774766
0.00184276692615
-0.0049129467391
0.00244752072346
-0.00481987449282
0.00303384242483
-0.00469780312207
0.00359796365929
-0.00454936371106
0.00413664423934
-0.0043773238359
0.00464720138644
-0.00418469183692
0.00512751360786
-0.00397460723913
0.00557600330686
-0.00375023343051
0.00599160233224
-0.00351466538306
0.00637370588629
-0.00327085425756
0.00672211850025
-0.00302154990938
0.00703699627268
-0.00276926018352
0.00731878788089
-0.00251622611452
0.00756817730106
-0.00226441116238
0.00778603001519
-0.00201550317464
0.00797334489247
-0.00177092714731
0.00813121312003
-0.00153186699783
0.00826078553001
-0.00129929387605
0.0083632487687
-0.00107399819279
0.00843981003354
-0.000856622183411
0.00849168917902
-0.000647689754466
0.00852011609868
-0.000447631149627
0.00852633112175
-0.000256800762118
0.00851158595326
-7.5488192174e-05
0.0084771436944
9.60765567002e-05
0.00842427632165
0.000257722644997
0.00835426135056
0.000409335878462
0.00826837505368
0.000550863053403
0.00816788557577
0.000682310122597
0.00805404520901
0.000803741148928
0.00792808290934
0.000915275605061
0.00779119722201
0.0010170842849
0.00764455018538
0.00110938432509
0.00748926218438
0.00119243339452
0.0073264080469
0.00126652362465
0.00715701418729
0.0013319754131
0.00698205685021
0.0013891315897
0.00680246116213
0.00143835200847
0.00661910091146
0.00148000884976
0.00643279878745
0.00151448255689
0.00624432698411
0.00154215848784
0.00605440800221
0.00156342411932
0.00586371559285
0.00157866677579
0.00567287578694
0.00158827172754
0.00548246797816
0.00159262061032
0.00529302607944
0.00159209007167
0.00510503971028
0.00158705061254
0.00491895547646
0.00157786559474
0.0047351782635
0.00156489039586
0.00455407262734
0.00154847172474
0.00437596415869
0.00152894707903
0.00420114092335
0.00150664437477
0.0040298548108
0.00148188171856
0.00386232291462
0.00145496734796
0.00369872874015
0.00142619969916
0.00353922338621
0.0013958676053
0.00338392647052
0.00136425057769
0.00323292696083
0.00133161913503
0.00308628368264
0.00129823512639
0.00294402565324
0.00126435195043
0.00280615208858
0.00123021460685
0.00267263216018
0.00119605939405
0.002543404584
0.00116211315406
0.00241837691552
0.00112859175227
0.0022974251895
0.0010956976722
0.00218039347351
0.0010636163299
0.00206709474275
0.0010325108698