/*--------------------------------*- C++ -*----------------------------------*\
| =========                 |                                                 |
| \\      /  F ield         | OpenFOAM: The Open Source CFD Toolbox           |
|  \\    /   O peration     | Version:  v1906                                 |
|   \\  /    A nd           | Web:      www.OpenFOAM.com                      |
|    \\/     M anipulation  |                                                 |
\*---------------------------------------------------------------------------*/
FoamFile
{
    version     2.0;
    format      ascii;
    class       surfaceScalarField;
    location    "950";
    object      phia;
}
// * * * * * * * * * * * * * * * * * * * * * * * * * * * * * * * * * * * * * //

dimensions      [0 3 -1 0 0 0 0];
oriented        oriented;


internalField   nonuniform List<scalar> 
18240
(
0.000850728643143
-0.000850687259584
0.00174360228998
-0.000892833542101
0.00263443031972
-0.00089078311945
0.00351807324074
-0.000883603822643
0.00439169965066
-0.000873580427281
0.00525275093888
-0.000861013644806
0.00609888634215
-0.000846088788629
0.00692788368234
-0.000828961299557
0.00773770802903
-0.000809777266532
0.00852643594743
-0.000788693578281
0.0092923467273
-0.00076586330222
0.0100338294324
-0.000741450147522
0.0107494845645
-0.000715607315229
0.011438009643
-0.000688494357314
0.0120983101859
-0.000660252359328
0.0127293638447
-0.000631024783024
0.0133303418093
-0.000600929353549
0.0139004526169
-0.000570083723838
0.0144390759418
-0.000538574099316
0.0149455877476
-0.000506486382428
0.0154195091373
-0.000473871305417
0.0158603147591
-0.000440781629862
0.0162675994948
-0.000407233389114
0.0166408718804
-0.000373249487025
0.0169797413289
-0.000338816373306
0.0172836979059
-0.000303934314434
0.0175523221622
-0.00026856882306
0.017785052166
-0.000232707807186
0.0179814177264
-0.000196307108944
0.0181407955654
-0.000159355027369
0.0182626690058
-0.0001218111729
0.0183463699443
-8.36767289077e-05
0.0183913650155
-4.49281879695e-05
0.0183969892536
-5.59770533709e-06
0.0183627575088
3.43042156996e-05
0.0182880851108
7.47023982186e-05
0.0181726233852
0.000115540871717
0.0180159675651
0.00015669088637
0.0178180108349
0.000198044067056
0.01757863747
0.000239415884238
0.0172980870429
0.000280647963855
0.0169766322828
0.000321508373252
0.0166149418199
0.000361800888852
0.0162137480778
0.000401263495687
0.0157741952743
0.000439678996098
0.0152975139103
0.000476773393383
0.0147853400894
0.000512318042678
0.0142394288932
0.000546031693683
0.0136619304041
0.000577661239687
0.0130551874696
0.000606896239943
0.0124219492507
0.000633416605176
0.0117652976826
0.000656836758843
0.0110887667853
0.000676716857573
0.0103964105527
0.000692563018712
0.00969277796344
0.000703813027787
0.00898307268456
0.000709914854143
0.00827293005106
0.000710302578773
0.00756858164723
0.000704540871639
0.00687642674274
0.000692282810499
0.00620314804901
0.00067344309773
0.00555508533909
0.000648156911871
0.00493824209612
0.000616981939227
0.00435767842754
0.000580628974272
0.0038176825022
0.000540106915478
0.0033213883609
0.000496328148271
0.00287131148569
0.000450146897417
0.00246848865066
0.000402822807268
0.00211239643627
0.000356122483243
0.00180076326857
0.000311610415697
0.00153033668198
0.000270431092868
0.00129716358557
0.000233141696479
0.00109722860508
0.000199927616171
0.000926528947281
0.000170669124386
0.000781406402255
0.000145113226265
0.000658491513241
0.000122890477226
0.00055484746509
0.000103637884956
0.000467803150954
8.70266021899e-05
0.000394972577615
7.28275180907e-05
0.000334133115256
6.08261875964e-05
0.000283373311003
5.07586074001e-05
0.000241051914864
4.23109583182e-05
0.000205843482519
3.52076771331e-05
0.000176660475489
2.91743612171e-05
0.0001527882607
2.38719096206e-05
0.000134189663937
1.85917446355e-05
0.000118677615211
1.55120819522e-05
0.000104543403727
1.41290084877e-05
9.24067508033e-05
1.21370705818e-05
8.10949643919e-05
1.13077784067e-05
6.97686203846e-05
1.1326722976e-05
5.88750774701e-05
1.08899986942e-05
4.84894599845e-05
1.03849578829e-05
3.76476184172e-05
1.08401711981e-05
2.55701405083e-05
1.20739908801e-05
1.22761089439e-05
1.32868081776e-05
1.22730338515e-05
0.000898208660521
-0.00174885321169
0.0018519584576
-0.00184654039693
0.00280049907177
-0.00183927853745
0.0037404849568
-0.00182354635528
0.0046694365551
-0.00180248686379
0.0055848383005
-0.00177637259799
0.00648424652111
-0.00174545212327
0.00736532670558
-0.00170999950802
0.00822590514601
-0.0016703111901
0.00906395413865
-0.00162670152701
0.0098776308703
-0.00157949597538
0.0106652465511
-0.00152902579823
0.0114253024928
-0.00147561970453
0.0121564461131
-0.00141959900485
0.0128575055616
-0.00136126877874
0.0135274335325
-0.00130091482948
0.014165341806
-0.00123879505395
0.0147704343026
-0.00117513926248
0.0153420436191
-0.00111014116755
0.0158795553695
-0.00104396197257
0.0163824493725
-0.000976723132372
0.016850217648
-0.000908514267861
0.0172824130952
-0.000839386389579
0.0176785633974
-0.000769364284812
0.0180382297237
-0.000698439496101
0.0183609182836
-0.00062658699203
0.018646150997
-0.000553757001451
0.0188933758747
-0.000479895803433
0.0191020510329
-0.000404935698659
0.0192715544614
-0.000328819851855
0.0194012831663
-0.000251490514556
0.0194905650336
-0.000172917456059
0.0195387720352
-9.30821561777e-05
0.0195452309185
-1.20119767138e-05
0.0195093532551
7.02395640358e-05
0.0194305477499
0.000153557121903
0.0193083634112
0.000237788800642
0.0191424001039
0.000322709559286
0.0189324609199
0.000408054469032
0.0186784571474
0.000493483434348
0.0183805627737
0.000578623707634
0.0180391095595
0.00066303713
0.0176547350232
0.000746270453881
0.0172282663722
0.000827823937293
0.0167608548253
0.00090720342315
0.0162538552239
0.000983886186617
0.0157089444761
0.00105736371396
0.0151280159318
0.00112709965918
0.0145132862923
0.0011925505862
0.0138672350607
0.00125311592381
0.0131927054194
0.00130812983079
0.0124929183123
0.00135681852341
0.0117715599565
0.00139827464928
0.0110328710335
0.00143146169757
0.0102816762825
0.00145520708575
0.009523491191
0.00146830657375
0.00876441007259
0.00146956399134
0.00801114279839
0.00145799160451
0.00727072849488
0.00143284448373
0.00655048405131
0.00139383735742
0.00585751370731
0.00134124206085
0.00519836310723
0.0012762534252
0.0045786565674
0.00120042388473
0.00400287443067
0.00111598029607
0.00347436479865
0.00102489267807
0.00299613757069
0.00092842168185
0.00256970328235
0.000829272234489
0.00219434110624
0.000731494407778
0.0018672565124
0.000638683607636
0.00158444583291
0.000553230589279
0.00134134266749
0.000476222531664
0.00113337797907
0.000407873532668
0.000956164989026
0.000347858866374
0.000805707238719
0.000295553624574
0.000678436212338
0.000250142914776
0.000571264861608
0.000210797337139
0.000481449037797
0.000176829289816
0.000406469101184
0.000147799422394
0.000343937716511
0.000123348140224
0.000291779987106
0.000102910942991
0.000248282642723
8.58013395298e-05
0.000212025184047
7.14606989873e-05
0.000181770810392
5.94229326411e-05
0.000156406563036
4.92325724575e-05
0.000134366347919
4.06275232413e-05
0.000115867095871
3.40086905918e-05
0.000100900140202
2.90928113973e-05
8.85764687718e-05
2.44591112251e-05
7.77320008751e-05
2.21501884464e-05
6.74134045342e-05
2.16438382364e-05
5.69337962067e-05
2.13678307056e-05
4.66854040812e-05
2.06319867653e-05
3.64444825395e-05
2.10783023132e-05
2.52659077202e-05
2.32493389887e-05
1.22649113502e-05
2.62827100351e-05
2.45340514525e-05
0.000906423657986
-0.00265523419437
0.00186583548086
-0.00280590740535
0.00282108373638
-0.00279448228935
0.00376784723947
-0.00277026544716
0.00470340300322
-0.00273799811985
0.00562515429218
-0.00269808001239
0.00653061248045
-0.0026508661991
0.00741742016186
-0.00259676395682
0.00828337669007
-0.00253622417191
0.00912644546832
-0.00246972780933
0.00994476876822
-0.00239777638899
0.010736663751
-0.00232087910136
0.0115006297668
-0.00223954356436
0.012235334924
-0.00215426334252
0.0129396171693
-0.00206550960707
0.0136124624932
-0.00197372018385
0.014253001256
-0.00187929309716
0.0148604796049
-0.00178257840817
0.0154342531827
-0.00168387458289
0.0159737540169
-0.00158342419768
0.0164784844046
-0.00148141369366
0.0169479819539
-0.00137797352284
0.0173818165946
-0.00127318118768
0.0177795563181
-0.00116706563518
0.0181407698777
-0.00105961274767
0.0184649951282
-0.000950773276941
0.0187517491959
-0.000840469710395
0.0190005006197
-0.000728607049792
0.0192106882558
-0.00061508026416
0.0193816981733
-0.000499787662771
0.0195128924601
-0.000382639246431
0.0196035914698
-0.000263571631643
0.0196531135995
-0.000142555413096
0.0196607642945
-1.96141963938e-05
0.0196258870175
0.000105170029619
0.0195478583674
0.000231638989469
0.0194261492158
0.00035955669609
0.0192603236146
0.000488594627645
0.0190501059299
0.000618338251038
0.0187953784865
0.000748278815252
0.0184962476808
0.000877830620934
0.0181530333886
0.00100633112225
0.0177663255193
0.00113306819963
0.0173369595465
0.00125728572227
0.0168660576137
0.00137821361202
0.0163549913045
0.00149506948004
0.0158054094899
0.00160707702607
0.0152192021076
0.00171345001296
0.014598529116
0.00181338233384
0.0139458120972
0.00190600423956
0.0132637884717
0.00199033968029
0.0125555599546
0.00206524268076
0.0118246885878
0.00212935229752
0.0110753011545
0.00218105579086
0.0103121955942
0.0022185230336
0.00954091971254
0.0022397800694
0.00876777525863
0.00224290130438
0.0079997426242
0.00222619239561
0.00724433334416
0.00218841154677
0.00650944257661
0.00212885951585
0.0058029925079
0.00204781493693
0.00513197937619
0.00194737237039
0.0045025831864
0.00182991528131
0.00391909176504
0.00169955168002
0.00338449610818
0.00155954493083
0.00290299055874
0.00140996258375
0.00247714454046
0.00125513074336
0.00210589942504
0.00110273914295
0.00178537225387
0.000959197588588
0.00151033913592
0.000828246528003
0.00127535626842
0.000711182835113
0.00107529247877
0.000607915539815
0.000905438222948
0.00051769074974
0.000761603090006
0.000439369670787
0.000640195556725
0.000371533832884
0.000538246514841
0.000312732717223
0.000453215661705
0.000261848625906
0.000382645044219
0.000218359973196
0.000324000398667
0.000181984261234
0.000275094297742
0.000151810531206
0.000234304104882
0.00012658537859
0.000200291948952
0.00010546750375
0.000171866924221
8.78425536612e-05
0.000148093163251
7.30017607072e-05
0.000128020977527
6.06953688158e-05
0.000110769749543
5.12565507537e-05
9.52145415847e-05
4.46448472938e-05
8.13544439613e-05
3.83170304189e-05
7.01437612862e-05
3.3358863681e-05
6.10898775919e-05
3.06959729866e-05
5.11336510512e-05
3.13216562215e-05
4.03156758936e-05
3.1448111727e-05
2.9913917658e-05
3.14789647145e-05
1.94275493369e-05
3.37316486963e-05
9.77828515743e-06
3.59258964415e-05
3.43098100239e-05
0.000914843052656
-0.00357003447404
0.00188223304862
-0.00377325387322
0.0028455502591
-0.00375775472659
0.00380024858854
-0.00372491949857
0.00474347900117
-0.0036811841077
0.00567255981409
-0.00362711683036
0.00658494204439
-0.00356320453106
0.00747822585293
-0.00349000433391
0.00835017805939
-0.00340813309698
0.00919874362432
-0.00331825063133
0.0100220545096
-0.00322104470184
0.010818431828
-0.00311721445117
0.0115863859927
-0.00300745592698
0.0123246100485
-0.00289244625036
0.01303197199
-0.0027728305428
0.0137075002738
-0.00264920813229
0.0143503696896
-0.00252212225592
0.0149598807384
-0.00239204985299
0.0155354412785
-0.00225939549638
0.0160765423204
-0.00212448619748
0.016582738454
-0.00198757060441
0.0170536231788
-0.00184881949218
0.0174888113707
-0.00170833023499
0.0178879170943
-0.00156613250204
0.0182505407733
-0.00142219690597
0.0185762515224
-0.0012764445636
0.018864580657
-0.00112875839661
0.0191150096314
-0.00097899534829
0.0193269708295
-0.000826999423301
0.0194998419367
-0.000672616181929
0.0196329551162
-0.00051570806609
0.0197255986833
-0.000356169921584
0.0197770361005
-0.000193945320365
0.0197865169353
-2.9046181001e-05
0.0197533065463
0.000138432029845
0.0196767062999
0.00030829273624
0.0195560934113
0.000480226542474
0.0193909483461
0.000653799330739
0.0191809007349
0.000828449964659
0.0189257580669
0.00100348949581
0.0186255495949
0.00117811307008
0.0182805469266
0.0013514134844
0.0178912952205
0.00152240760179
0.0174586159491
0.00169006076142
0.016983617092
0.00185331872517
0.0164676748038
0.00201112881959
0.0159124249436
0.00216245710374
0.0153197356559
0.00230628318742
0.0146917000921
0.00244157621789
0.0140306341233
0.0025672450294
0.0133391048525
0.0026820542083
0.0126200065081
0.00278454428131
0.011876655192
0.00287290603682
0.0111129757485
0.00294495422327
0.0103336298174
0.00299807090228
0.00954422374302
0.00302939844125
0.00875128409969
0.00303602030612
0.00796225001054
0.00301540469688
0.00718522610344
0.00296557545086
0.00642911790406
0.00288510169205
0.00570333802767
0.00277370345215
0.00501549809154
0.00263531774181
0.00437305329187
0.00247244732369
0.00377948133628
0.00229319844034
0.0032358289488
0.00210324606202
0.00274961450216
0.00189620033832
0.00232604912953
0.00167869952927
0.00196320094882
0.00146557616743
0.00165481356876
0.00126756585085
0.00139337672401
0.0010896596695
0.00117203084448
0.000932503545678
0.000984915056353
0.000795006207582
0.00082690624284
0.000675676264267
0.000693549284718
0.000572707028692
0.000581232567646
0.00048383311564
0.000487288666989
0.000406662860148
0.000409671708516
0.00033945248779
0.000346110114815
0.000281910579644
0.000293625278126
0.000234459801844
0.000249724223426
0.000195704771982
0.000213076658349
0.000163226832675
0.000182551508887
0.000135986813367
0.000156957448114
0.000113430856297
0.000135598218353
9.43556206594e-05
0.00011794498203
7.83439266897e-05
0.000100978868649
6.82185014834e-05
8.58878631942e-05
5.97323725094e-05
7.29038955012e-05
5.12982439472e-05
6.08625526723e-05
4.53977417087e-05
4.94304326687e-05
4.21255970386e-05
4.11718570164e-05
3.95783597191e-05
3.14658456762e-05
4.11522011117e-05
2.13495436273e-05
4.1591971228e-05
1.35291325454e-05
4.15493214605e-05
6.88874679184e-06
4.25619297651e-05
4.1194631659e-05
0.000925729749691
-0.00449572182291
0.00190423724809
-0.00475171638375
0.00287851788361
-0.00473199127412
0.00384390382103
-0.0046902609692
0.00479743908022
-0.00463467525602
0.00573634824328
-0.00456598202036
0.00665800547927
-0.00448481807638
0.00755995158972
-0.00439190704721
0.00843990966419
-0.00428804808635
0.00929579732492
-0.00417409556623
0.0101257342468
-0.00405093925013
0.0109280452451
-0.00391948347801
0.011701258548
-0.00378062764164
0.0124440997534
-0.00363524628926
0.0131554813434
-0.00348417135212
0.0138344883524
-0.00332817477616
0.0144803603988
-0.00316795429409
0.0150924707839
-0.00300412060052
0.0156703033697
-0.00283718872539
0.0162134279751
-0.00266757173046
0.0167214755329
-0.00249557924676
0.0171941134844
-0.00232141867207
0.0176310230146
-0.00214520096568
0.0180318779194
-0.00196694855878
0.0183963268836
-0.00178660675603
0.0187239779672
-0.00160405623469
0.0190143873362
-0.00141912779073
0.0192670501094
-0.00123161755452
0.0194813960337
-0.00104130388204
0.019656787201
-0.000847964952982
0.01979252167
-0.000651398861622
0.0198878392457
-0.000451442521495
0.0199419350099
-0.000247994415587
0.0199539759007
-4.10386634588e-05
0.0199231260287
0.000169332502966
0.0198485752168
0.000382896441432
0.0197295764524
0.000599281060136
0.0195654848282
0.000817949814594
0.0193558031667
0.00103819435414
0.0191002247452
0.00125913500059
0.0187986774443
0.00147973284064
0.0184513579266
0.00169881163778
0.0180587598122
0.00191509184918
0.0176216842717
0.00212723092826
0.0171412388439
0.00233386900023
0.0166188153939
0.00253366834265
0.0160560591673
0.00272534316284
0.0154548234326
0.00290766191345
0.0148171364873
0.00307942478058
0.0141451676154
0.00323938511633
0.0134412598716
0.00338615797125
0.0127079648585
0.00351803329468
0.0119482342811
0.00363285803069
0.0111655823899
0.00372781086137
0.0103644490895
0.00379942978607
0.0095503936437
0.00384364926277
0.00873030570165
0.00385630687161
0.00791215891273
0.00383370846812
0.00710476738581
0.00377311444965
0.00631840061005
0.00367158391235
0.00556559277925
0.00352662122248
0.00485392906219
0.00334707313358
0.00419477633373
0.00313168287389
0.00358894361672
0.00289909474588
0.0030297873178
0.00266243720717
0.00253454774153
0.00239145020675
0.00211489252402
0.00209834220111
0.00176621434731
0.0018142328992
0.00147714330298
0.00155660758988
0.00123607978375
0.00133069332463
0.00103426340491
0.00113428886466
0.000865238358236
0.000964002899259
0.00072351837465
0.000817370833627
0.000604254226874
0.00069194976413
0.000503770984554
0.000584298447786
0.000420016561588
0.00049040150737
0.000352136572137
0.000407318482423
0.000298374774685
0.000335659864899
0.00025447643454
0.000278348666571
0.000217040895987
0.000233133242855
0.000185707548258
0.000194554545739
0.00015979039809
0.000161897903658
0.000137750577464
0.000135464486263
0.000119243892381
0.000112855863603
0.000104087759559
9.34944483829e-05
8.91802378433e-05
8.31211150625e-05
7.52798115545e-05
7.36286512325e-05
6.09906039118e-05
6.55839428562e-05
4.83223535879e-05
5.80629264637e-05
3.71074290245e-05
5.3337855026e-05
2.86891898119e-05
4.79936601514e-05
2.2270911031e-05
4.75682901295e-05
1.45700866542e-05
4.92916040179e-05
8.40198384969e-06
4.77131070268e-05
4.16881326057e-06
4.67888829635e-05
4.53608347053e-05
0.000939394743353
-0.00543507411609
0.00193213701935
-0.00574441572622
0.00292040087306
-0.00572021070026
0.00389937471143
-0.00566919089757
0.00486598339468
-0.00560123990181
0.00581734084066
-0.0055172957681
0.00675072740154
-0.00541816112979
0.0076636085571
-0.00530474502933
0.00855365201581
-0.00517804864974
0.00941874012041
-0.00503914115391
0.0102569775899
-0.00488913452626
0.0110666941481
-0.00472915826546
0.0118464423037
-0.00456033437479
0.0125949900904
-0.00438375310391
0.0133113092318
-0.00420044987296
0.0139945586416
-0.00401138401259
0.0146440640604
-0.0038174198609
0.0152592939939
-0.00361931108983
0.0158398332599
-0.00341768880104
0.0163853546289
-0.00321305422957
0.0168955903099
-0.00300577619471
0.0173703038387
-0.00279609365032
0.0178092641713
-0.00258412271764
0.0182122221033
-0.00236986789687
0.018578890406
-0.00215323621082
0.0189089270371
-0.00193405375792
0.0192019223779
-0.0017120834984
0.0194573893265
-0.00148704431427
0.0196747573162
-0.00125863084145
0.0198533691797
-0.00102653489772
0.0199924827369
-0.000790469309943
0.020091275901
-0.000550191316455
0.0201488585564
-0.000305531117521
0.0201642899268
-5.64223886445e-05
0.0201366041211
0.000197068011064
0.0200648425481
0.000454709971476
0.0199480949424
0.000716083337214
0.0197855463528
0.000980556160074
0.0195765301675
0.00124727201259
0.0193205825586
0.00151514845098
0.0190174959921
0.00178289047179
0.0186673652829
0.00204901964716
0.0182706215925
0.00231192010704
0.0178280479593
0.0025698979054
0.0173407716468
0.0028212485311
0.0168102321305
0.0030643234623
0.0162381229399
0.00329758032315
0.0156263217684
0.00351960908445
0.0149768025855
0.00372910016344
0.0142915901408
0.00392478135847
0.0135727003138
0.00410522964121
0.0128222472852
0.0042687037284
0.0120425339765
0.00441277212637
0.0112364670315
0.0045341116493
0.0104079243018
0.0046281789124
0.00956238794323
0.00468940604996
0.00870715068527
0.00471172354713
0.0078509795998
0.00469004646708
0.00700294664164
0.00462127838777
0.00617480727771
0.00449983529217
0.00538646977441
0.00431505093491
0.00464125825674
0.00409236650477
0.00396412296842
0.00380888439302
0.0033485469967
0.00351471385934
0.00276015028926
0.00325084935348
0.00224643234167
0.00290516057786
0.00183413037299
0.00251061606806
0.00150986851222
0.00213846396454
0.00125112065395
0.00181531832422
0.00103918440066
0.00154259557034
0.000863518579671
0.00130992062975
0.000718113478525
0.00110937850176
0.000597457619178
0.000937999939694
0.000495912878017
0.000793474616536
0.000409431073392
0.00067076102929
0.000337069975524
0.0005627484583
0.000280852474822
0.000463520342433
0.000240591397738
0.00037591011917
0.000208456869345
0.000310474746521
0.000178276152503
0.000263309765438
0.000153019514829
0.000219806339772
0.000132975271719
0.000181936418106
0.000114915294695
0.000153517314268
9.93577745159e-05
0.00012840592036
8.50598451717e-05
0.000107785605236
7.12688819654e-05
9.69062479279e-05
5.89842872048e-05
8.59082079828e-05
4.78622924812e-05
7.67018732564e-05
3.61179813449e-05
6.98032408936e-05
2.59782129994e-05
6.34739892728e-05
1.68371802619e-05
5.71322327581e-05
1.16742248682e-05
5.27287054311e-05
8.35601184601e-06
5.26055140092e-05
4.47950360554e-06
5.15860169392e-05
2.15771909599e-06
4.91058535672e-05
4.75141732531e-05
0.00095604799285
-0.0063910803838
0.00196622292993
-0.00675454607055
0.00297159866671
-0.00672554307482
0.00396717903205
-0.00666472735934
0.00494973922833
-0.00658375662321
0.00591625964764
-0.00648377278342
0.00686390590608
-0.00636576429315
0.00779005151648
-0.00623084778524
0.00869229622825
-0.00608025084171
0.00956847952392
-0.00591528223238
0.0104166883439
-0.00573730151108
0.0112352596453
-0.00554768806987
0.0120227772264
-0.00534781088048
0.012778063501
-0.005138998656
0.0135001656117
-0.004922511698
0.0141883368007
-0.00469951525796
0.0148420125781
-0.00447105611507
0.0154607831568
-0.00423804244247
0.0160443621818
-0.00400122896133
0.0165925539314
-0.00376120732674
0.0171052195162
-0.00351840338245
0.017582244595
-0.00327308041129
0.0180235090791
-0.00302534897816
0.01842886087
-0.00277518136059
0.0187980933149
-0.00252243020947
0.0191309273553
-0.002266849015
0.0194269971937
-0.00200811417026
0.0196858397718
-0.00174584711206
0.0199068869414
-0.00147963754439
0.0200894610073
-0.00120906756738
0.0202327736852
-0.000933739564518
0.0203359294474
-0.000653303374033
0.0203979351171
-0.000367491671938
0.020417716924
-7.61573795942e-05
0.0203941462714
0.000220687364872
0.0203260756222
0.000522831578199
0.0202123845455
0.000829827923027
0.0200520358446
0.00114096146209
0.019844139604
0.00145522843104
0.0195880224676
0.00177133013908
0.0192832964846
0.0020876861249
0.018929921512
0.00240247047026
0.0185282520178
0.00271367277902
0.0180790600294
0.00301918159346
0.017583525991
0.00331688501322
0.0170431899226
0.00360477303473
0.0164598692043
0.00388103109823
0.0158355312182
0.00414408764611
0.015172174604
0.0043926243295
0.0144716611374
0.00462546191104
0.0137356793024
0.00484141787556
0.0129656557444
0.0050389184058
0.0121630234145
0.00521563657433
0.0113295275242
0.00536781921971
0.0104681074255
0.0054898323851
0.0095838196815
0.00557389938132
0.00868477342521
0.00561096187988
0.00778098991983
0.00559398161842
0.0068801629174
0.00552222466637
0.00599348842444
0.00538659976998
0.00516195434952
0.00514666513027
0.00436458380199
0.00488979848873
0.00367584549578
0.00449765395037
0.00307130075124
0.0041192735898
0.00241786348839
0.00390430703773
0.00186364838549
0.00345933411849
0.00146783886814
0.00290642420216
0.00118810088685
0.00241814620281
0.000977529541682
0.00202587868376
0.000805818476662
0.00171425807718
0.000663032765366
0.00145269332266
0.000546912663867
0.00122545907826
0.00045266328019
0.00103224221541
0.000372547934702
0.000873559737513
0.000301009541663
0.000742298345917
0.000238727809458
0.000625004124201
0.000194772856951
0.000507472160203
0.000174143778684
0.000396523543505
0.000159279259586
0.000325334854404
0.000134913617107
0.000287670488085
0.000115600380682
0.000239113404577
0.000103688685268
0.000193842886382
8.95653733179e-05
0.00016763309997
7.71385093116e-05
0.000140824114929
6.45948669554e-05
0.000120321331486
5.28472038678e-05
0.000108646906955
4.11424548321e-05
9.76073446827e-05
3.02718049417e-05
8.75671342375e-05
2.06020071571e-05
7.94684921001e-05
1.35962621211e-05
7.04756055485e-05
7.16022925606e-06
6.35639337298e-05
2.5608580791e-06
5.73244747958e-05
1.86717714363e-06
5.32967752182e-05
6.86670759347e-07
5.27607135381e-05
2.57871929291e-07
4.95271764447e-05
4.77686577206e-05
0.000975884831072
-0.00736692364774
0.00200684435728
-0.00778546393374
0.00303261637143
-0.00775127156633
0.00404796761517
-0.00768003571074
0.00504949055374
-0.00758523645882
0.00603400230051
-0.00746824177635
0.00699853042586
-0.0073302498282
0.00794033761278
-0.0071726126996
0.00885694246408
-0.00699681367704
0.00974613355772
-0.00680443166504
0.0106059777097
-0.00659710430154
0.0114348219284
-0.00637649132545
0.0122312897783
-0.00614423809069
0.0129942715108
-0.00590194017557
0.0137229085863
-0.00565110888781
0.0144165718615
-0.00539313907478
0.0150748344062
-0.00512927950423
0.0156974387272
-0.00486060800125
0.0162842602615
-0.00458801197788
0.0168352678504
-0.0043121767145
0.0173504839836
-0.00403358145806
0.0178299460783
-0.00375250464075
0.0182736716031
-0.0034690366338
0.0186816276499
-0.00318309955502
0.0190537064808
-0.00289447098667
0.0193897060243
-0.0026028102975
0.0196893152907
-0.00230768473215
0.0199521027085
-0.00200859535
0.0201775072755
-0.00170500220496
0.0203648314182
-0.00139635102222
0.0205132371707
-0.00108210358276
0.0206217455777
-0.000761768919088
0.0206892433747
-0.000434945189359
0.0207144975513
-0.000101365728912
0.0206961811639
0.000239051466688
0.0206329115074
0.000586151066221
0.0205233025319
0.000939489291216
0.0203660310596
0.00129828830047
0.0201599159224
0.00166140252556
0.019904006304
0.00202730300452
0.0195976733515
0.00239408740656
0.0192406965768
0.00275952179291
0.0188333322475
0.00312111875005
0.0183763524302
0.00347625221631
0.0178710366867
0.00382230120273
0.0173191134956
0.00415681071896
0.016722632131
0.00447763798541
0.0160837975025
0.00478307030735
0.0154047282054
0.00507184651246
0.014687260469
0.00534311685606
0.0139326690821
0.00559618865193
0.0131416154006
0.00583019011389
0.0123141242257
0.00604333591469
0.0114501510592
0.00623203023755
0.0105506761842
0.00638953083664
0.00961978722313
0.00650500783934
0.00866731403249
0.00656361366241
0.00770672373209
0.00655470933308
0.0067392741693
0.00648978153561
0.00576505065683
0.00636092355764
0.00489381414536
0.00601795776027
0.00399175020981
0.00579187808998
0.00331596836036
0.00517347266137
0.00281033734252
0.00462494255258
0.00198886434518
0.00472576565135
0.00135444891031
0.00409378078941
0.00100872226307
0.00325210134516
0.000820303181379
0.00260658792278
0.000691399667183
0.00215472938043
0.000571744628318
0.00183392570123
0.000462226638752
0.00156216406173
0.000376187170436
0.00131150953093
0.000311822704863
0.0010965688083
0.000255296259804
0.000930100065308
0.000195607423903
0.000801956326282
0.000134184655993
0.000686430200944
9.63941535688e-05
0.000545240028567
0.000104534960731
0.000388368817344
0.000117206629841
0.000312657327136
8.83863629697e-05
0.000316471825651
7.24049949604e-05
0.00025509249615
7.47754308358e-05
0.000191460876448
6.26727710517e-05
0.000179726225822
5.18202680712e-05
0.000151666535073
4.23886725591e-05
0.000129743646936
3.16535497871e-05
0.000119374054014
2.22152211731e-05
0.000107038573266
1.2399788155e-05
9.73766582805e-05
5.37003381454e-06
8.64925761807e-05
-4.08799116117e-07
7.62495004859e-05
-2.90512372648e-06
6.60561828486e-05
-4.66358053628e-06
5.90785798055e-05
-4.60131596853e-06
5.32282764573e-05
-2.98767862644e-06
5.11417863671e-05
-1.59983461353e-06
4.81327344945e-05
4.61632905985e-05
0.000999120569084
-0.0083660039746
0.00205442795259
-0.00884072793538
0.00310407505483
-0.00880087688147
0.00414254380903
-0.00871846196753
0.00516620193512
-0.00860885257287
0.00617167108637
-0.00847366893271
0.00715581340749
-0.00831435045703
0.00811576043165
-0.00813251823719
0.0090489351128
-0.00792994718505
0.0099530670732
-0.00770852271557
0.0108262006594
-0.00747019733466
0.0116666968106
-0.00721694721424
0.012473228324
-0.00695072973658
0.0132447690753
-0.00667344135855
0.0139805761736
-0.00638687683021
0.0146801655416
-0.00609268957266
0.0153432799349
-0.00579235542851
0.0159698508013
-0.00548714064338
0.0165599540794
-0.00517807738502
0.0171137629922
-0.00486594792674
0.0176314993171
-0.00455128034531
0.0181133872976
-0.00423435523978
0.0185596118147
-0.00391522389368
0.0189702840826
-0.0035937344637
0.0193454144976
-0.00326956398008
0.0196848932003
-0.00294225127392
0.0199884754145
-0.00261122892458
0.020255770368
-0.00227585173321
0.0204862308231
-0.00193542352078
0.0206791434581
-0.00158922368449
0.0208336200788
-0.00123653934633
0.0209485918244
-0.000876698642477
0.0210228099597
-0.000509120044192
0.0210548564386
-0.000133367345215
0.0210431672695
0.000250787242711
0.0209860724747
0.000643294627393
0.0208818542018
0.00104375877371
0.0207288250629
0.00145137167876
0.0205254253167
0.00186486001566
0.0202703367808
0.00228245361585
0.0199626057319
0.0027018855999
0.0196017648741
0.00312043595509
0.0191879371484
0.00353502719058
0.0187219021152
0.00394237654005
0.0182051031936
0.00433920063648
0.0176395731992
0.00472245223645
0.017027777281
0.00508956291123
0.0163723512874
0.00543863485185
0.0156757982811
0.00576856402934
0.0149400742151
0.00607900575147
0.0141662308408
0.00637022898238
0.0133539669028
0.00664265050712
0.0125014792653
0.00689605230589
0.0116056859586
0.00712805485173
0.0106638335581
0.00733161845857
0.00967718197709
0.0074918722496
0.0086598085483
0.00758115807829
0.00763753299947
0.00757714067472
0.0065924972276
0.00753494510897
0.00546088387627
0.00749259143477
0.00461694395133
0.00686194185567
0.00344670352276
0.00696216980169
0.00290664641535
0.00571356262307
0.0031099077969
0.00442172135995
0.00183004412745
0.00600568206354
0.00107605694727
0.00484779349521
0.000957483890433
0.00337072242518
0.000993629890208
0.00257040841353
0.00106828536707
0.00208007850903
0.00113745536108
0.00176470041881
0.00114274557195
0.00155686503647
0.00106273615663
0.00139147008055
0.00092455749372
0.00123474451343
0.000759248300554
0.00109537905302
0.000570144831486
0.000991047124342
0.000355065064455
0.0009014790995
0.000166786561379
0.000733461943422
0.000101512801118
0.000453628938486
0.000123105724465
0.000291032215494
4.48480197106e-05
0.00039472024045
2.17100140986e-05
0.00027820813119
5.59085207753e-05
0.000157242834154
3.64394272596e-05