/*--------------------------------*- C++ -*----------------------------------*\
| =========                 |                                                 |
| \\      /  F ield         | OpenFOAM: The Open Source CFD Toolbox           |
|  \\    /   O peration     | Version:  v1906                                 |
|   \\  /    A nd           | Web:      www.OpenFOAM.com                      |
|    \\/     M anipulation  |                                                 |
\*---------------------------------------------------------------------------*/
FoamFile
{
    version     2.0;
    format      ascii;
    class       volVectorField;
    location    "659";
    object      Ua;
}
// * * * * * * * * * * * * * * * * * * * * * * * * * * * * * * * * * * * * * //

dimensions      [0 1 -1 0 0 0 0];


internalField   nonuniform List<vector> 
9216
(
(-0.0103637419017 0.0103716143795 0)
(-0.0109367957369 0.0334729494689 3.91502186528e-27)
(-0.0109329055292 0.0569307164468 -7.07891497424e-31)
(-0.0108303461485 0.0803957225433 0)
(-0.0106842789808 0.1034708836 0)
(-0.0104987205257 0.12606195754 0)
(-0.0102783931068 0.148067499716 0)
(-0.0100263879665 0.169395481097 0)
(-0.00974580462317 0.189963090868 0)
(-0.00943943531837 0.209697036368 0)
(-0.0091104300175 0.228533546759 0)
(-0.00876159993959 0.246418643146 0)
(-0.00839610698253 0.263307918598 0)
(-0.00801664052822 0.279166487396 0)
(-0.00762621121731 0.293968473868 0)
(-0.00722723832318 0.307696692291 0)
(-0.00682245529948 0.320341933292 0)
(-0.00641391793452 0.331902475487 0)
(-0.00600401566745 0.342383277237 0)
(-0.00559440667951 0.351795421644 0)
(-0.00518712589046 0.360155305513 0)
(-0.00478344950296 0.367484095654 0)
(-0.00438508655121 0.373806982221 0)
(-0.00399297583981 0.379152695956 0)
(-0.00360854839122 0.383552857893 0)
(-0.00323245932977 0.387041573727 0)
(-0.00286590849306 0.389654887245 0)
(-0.00250931406311 0.391430449086 0)
(-0.00216368329178 0.392407063783 0)
(-0.00182923987828 0.392624425983 0)
(-0.00150684497941 0.392122701135 0)
(-0.00119647875693 0.390942562699 0)
(-0.00089876381454 0.389124312363 0)
(-0.000613594504575 0.386708031349 0)
(-0.000341532761483 0.383733448583 0)
(-8.23147583554e-05 0.380239663795 0)
(0.000163651177964 0.376264977133 0)
(0.000396765397419 0.371846750864 0)
(0.000616740301603 0.367021271799 0)
(0.000824089808581 0.361823643712 0)
(0.00101863174416 0.356287696712 0)
(0.00120097531501 0.350445900041 0)
(0.00137102980306 0.344329314411 0)
(0.00152948150389 0.337967523472 0)
(0.00167631508633 0.331388623962 0)
(0.00181227366627 0.324619172736 0)
(0.00193740028557 0.317684213475 0)
(0.00205247399971 0.31060723915 0)
(0.0021575773878 0.303410250898 0)
(0.00225350352649 0.296113733086 0)
(0.00234035631217 0.288736742517 0)
(0.00241892243445 0.281296894883 0)
(0.0024893097219 0.27381047846 0)
(0.00255228001977 0.266292447397 0)
(0.00260793136736 0.258756555884 0)
(0.00265698685636 0.251215354882 0)
(0.00269952481424 0.243680339097 0)
(0.00273622023196 0.236161941031 0)
(0.00276712746806 0.228669685458 0)
(0.00279286998634 0.221212176646 0)
(0.00281347851976 0.213797252834 0)
(0.00282952619481 0.206431961295 0)
(0.002841025336 0.19912270879 0)
(0.00284850434859 0.191875222165 0)
(0.00285196500464 0.184694690003 0)
(0.00285189874269 0.17758570648 0)
(0.00284830654909 0.170552403384 0)
(0.00284165186442 0.163598378184 0)
(0.00283194414515 0.156726815313 0)
(0.00281962681753 0.149940399605 0)
(0.00280472591207 0.143241429051 0)
(0.00278767123453 0.136631717177 0)
(0.00276851070081 0.130112698792 0)
(0.00274766401791 0.123685324415 0)
(0.00272520361253 0.11735016264 0)
(0.00270153992694 0.111107290907 0)
(0.00267676925573 0.104956396739 0)
(0.00265129063852 0.0988966680525 0)
(0.00262522107973 0.0929268965658 0)
(0.00259894380661 0.0870453710503 0)
(0.00257259090241 0.081249984714 0)
(0.0025465231911 0.075538133631 0)
(0.00252088026603 0.0699068307242 0)
(0.00249599166894 0.064352612176 0)
(0.00247199340908 0.0588716610719 0)
(0.00244916869895 0.0534597275898 0)
(0.00242762612232 0.0481122743419 0)
(0.00240755809927 0.0428244366776 0)
(0.00238894985072 0.0375912498387 0)
(0.00237167261532 0.0324078038515 0)
(0.00235499327245 0.0272699105921 0)
(0.00233690355281 0.0221755832786 0)
(0.00231174092517 0.0171296469322 0)
(0.00225423186129 0.0121831076508 0)
(0.00214679973899 0.00697722870657 0)
(0.0030492279594 0.00304933932687 0)
(-0.0335496610989 0.0110309853589 0)
(-0.0370865303996 0.0373759985037 0)
(-0.0369992287828 0.0636484844152 -4.10983715926e-27)
(-0.0364966917278 0.0899532294895 0)
(-0.0357985973653 0.115786450483 0)
(-0.0349314852069 0.141063308579 0)
(-0.0339104075629 0.1656760327 0)
(-0.0327494621677 0.18952328673 0)
(-0.0314637007298 0.212512907074 0)
(-0.0300682845174 0.234563067095 0)
(-0.0285791903591 0.255602679592 0)
(-0.0270119301772 0.275571666445 0)
(-0.0253823527942 0.294420842108 0)
(-0.0237052316889 0.312111730455 0)
(-0.0219952821431 0.328616078936 0)
(-0.0202656828193 0.343915365775 0)
(-0.0185293246371 0.358000078493 0)
(-0.0167972814937 0.37086904165 0)
(-0.0150802765661 0.382528586509 0)
(-0.0133871001889 0.392991817259 0)
(-0.0117262654682 0.402277778554 0)
(-0.0101043608571 0.410410751402 0)
(-0.00852785775637 0.417419492839 0)
(-0.00700138300645 0.42333661576 0)
(-0.00552964166099 0.428197935883 0)
(-0.00411559821924 0.432041952686 0)
(-0.00276248389405 0.434909306529 0)
(-0.00147188722717 0.43684235189 0)
(-0.000245827679852 0.437884708018 0)
(0.000915232413832 0.43808089954 0)
(0.00201025011706 0.437476014897 0)
(0.0030397186494 0.436115188391 0)
(0.00400350431385 0.434043798815 0)
(0.00490284425296 0.431306972039 0)
(0.00573818163159 0.427949194362 0)
(0.00651134569416 0.4240142227 0)
(0.0072233184462 0.419544884271 0)
(0.00787639911147 0.414582931298 0)
(0.00847196849736 0.409168894911 0)
(0.00901266730527 0.403341969471 0)
(0.00950016278267 0.397139907662 0)
(0.00993732718611 0.390598935051 0)
(0.010326016977 0.383753683837 0)
(0.0106692388894 0.376637134856 0)
(0.0109689509658 0.369280586482 0)
(0.0112282058987 0.361713621652 0)
(0.0114489841025 0.353964109801 0)
(0.0116343040178 0.346058197147 0)
(0.0117860961805 0.338020338798 0)
(0.011907272409 0.329873309975 0)
(0.0119996505825 0.32163826555 0)
(0.0120659746289 0.313334769255 0)
(0.0121078982695 0.304980875985 0)
(0.0121279495552 0.296593174487 0)
(0.0121275820335 0.288186887198 0)
(0.0121090771331 0.279775920978 0)
(0.0120736692971 0.271372977499 0)
(0.0120233807398 0.262989605516 0)
(0.0119592267549 0.254636315129 0)
(0.0118829766217 0.246322625378 0)
(0.0117954432591 0.23805717539 0)
(0.0116981650563 0.229847761596 0)
(0.0115917836723 0.221701440644 0)
(0.0114776410239 0.21362455232 0)
(0.0113562473938 0.205622810224 0)
(0.0112287890146 0.197701308127 0)
(0.0110956886214 0.189864597075 0)
(0.0109580190118 0.182116675215 0)
(0.0108161571395 0.174461051378 0)
(0.0106711004876 0.16690071995 0)
(0.010523216101 0.15943821318 0)
(0.0103734569046 0.152075564297 0)
(0.0102222064448 0.144814351376 0)
(0.0100703937222 0.137655652428 0)
(0.00991843477492 0.130600084684 0)
(0.00976724490448 0.123647755868 0)
(0.00961727774796 0.116798302299 0)
(0.00946943487244 0.11005084004 0)
(0.00932420317338 0.103404005299 0)
(0.00918246186295 0.0968559087978 0)
(0.00904471850421 0.0904041809483 0)
(0.00891181384856 0.0840459318707 0)
(0.00878425653254 0.0777778036185 0)
(0.00866282522638 0.0715959379855 0)
(0.00854800013696 0.0654960375239 0)
(0.00844045863258 0.0594733430539 0)
(0.00834059410933 0.0535227052909 0)
(0.00824888397959 0.0476385713655 0)
(0.00816544589223 0.041815052544 0)
(0.00809016203425 0.03604585844 0)
(0.008021983693 0.0303241287346 0)
(0.00795814000508 0.0246415663545 0)
(0.0078912256015 0.0189850286142 0)
(0.00780017513985 0.0133254295262 0)
(0.00757060003151 0.00755437175381 0)
(0.00697222660902 0.00214123930311 0)
(-0.0574370187851 0.0111781794928 0)
(-0.0635874770533 0.0379926425665 0)
(-0.0633691311375 0.0645971111764 -4.11358069259e-27)
(-0.0624978328429 0.0912851067706 0)
(-0.0613160669781 0.117490369236 0)
(-0.0598578113901 0.143122678618 0)
(-0.0581438528846 0.16807043226 0)
(-0.0561965145453 0.192229982197 0)
(-0.0540401523809 0.215507482048 0)
(-0.0517001970032 0.237819901351 0)
(-0.0492029504699 0.259095450913 0)
(-0.0465746149509 0.279273782853 0)
(-0.0438412465376 0.298305885152 0)
(-0.041027836072 0.316153802224 0)
(-0.0381584620521 0.332790136693 0)
(-0.0352554596664 0.348197451481 0)
(-0.032339785679 0.362367529241 0)
(-0.029430280789 0.375300600252 0)
(-0.0265442310364 0.387004497536 0)
(-0.0236967054167 0.397493838198 0)
(-0.0209012777896 0.406789187879 0)
(-0.0181694047575 0.414916292141 0)
(-0.015511258865 0.421905327732 0)
(-0.0129351051072 0.427790239179 0)
(-0.0104481957726 0.432608109152 0)
(-0.00805611101866 0.436398612287 0)
(-0.00576367918708 0.439203500956 0)
(-0.00357426570269 0.441066160638 0)
(-0.00149070246736 0.442031188336 0)
(0.000485473960427 0.442144024686 0)
(0.00235309446342 0.441450618384 0)
(0.00411214543684 0.439997097312 0)
(0.00576276542193 0.437829491327 0)
(0.00730615774174 0.434993511121 0)
(0.00874361529793 0.431534285722 0)
(0.0100773417505 0.427496164015 0)
(0.0113094987158 0.422922529132 0)
(0.0124430636685 0.417855641643 0)
(0.0134808727562 0.412336500421 0)
(0.0144264856559 0.406404723523 0)
(0.0152832331724 0.400098447442 0)
(0.0160550848796 0.393454241459 0)
(0.0167457053029 0.386507042068 0)
(0.0173593185035 0.379290097889 0)
(0.0178997759452 0.371834935777 0)
(0.0183714130914 0.364171333785 0)
(0.0187781326579 0.35632731752 0)
(0.0191242490467 0.348329159712 0)
(0.0194135910356 0.340201404205 0)
(0.0196503313153 0.331966889766 0)
(0.0198381133678 0.323646799586 0)
(0.0199808639765 0.315260706461 0)
(0.0200819489532 0.306826643172 0)
(0.0201449672682 0.29836116416 0)
(0.0201729401455 0.289879431792 0)
(0.0201690851384 0.281395288758 0)
(0.0201360420457 0.272921352919 0)
(0.0200766250755 0.264469093252 0)
(0.0199930880613 0.256048926562 0)
(0.0198878518891 0.247670290214 0)
(0.0197628100195 0.239341733363 0)
(0.0196200279429 0.231070980149 0)
(0.0194610890945 0.222865010362 0)
(0.0192877624184 0.21473010882 0)
(0.0191013877954 0.206671931381 0)
(0.0189035079657 0.198695537929 0)
(0.0186952923979 0.19080544273 0)
(0.0184781299181 0.183005631012 0)
(0.0182530898021 0.175299593938 0)
(0.0180214723158 0.167690330372 0)
(0.017784306291 0.16018036925 0)
(0.0175428554314 0.152771759846 0)
(0.0172981519584 0.145466084743 0)
(0.0170514576192 0.138264442457 0)
(0.0168038336227 0.131167455355 0)
(0.0165565559279 0.124175248936 0)
(0.0163107219619 0.117287458375 0)
(0.0160676205515 0.110503208217 0)
(0.0158283762656 0.103821121295 0)
(0.015594274584 0.0972393020968 0)
(0.0153664445936 0.0907553505322 0)
(0.0151461401178 0.0843663511952 0)
(0.0149344612079 0.0780688939078 0)
(0.0147325911452 0.0718590700977 0)
(0.0145415556907 0.0657325002191 0)
(0.0143624134966 0.0596843360172 0)
(0.014196047822 0.0537092907002 0)
(0.0140433007464 0.0478016351257 0)
(0.0139047817846 0.0419552007593 0)
(0.0137809287034 0.0361632968584 0)
(0.0136718379271 0.0304185182209 0)
(0.0135774056106 0.0247122148182 0)
(0.0134976546893 0.0190331138 0)
(0.0134325917039 0.0133614782764 0)
(0.0133276854786 0.00774260574266 0)
(0.012152473172 0.00223929484024 0)
(-0.0818826672626 0.0113079005597 0)
(-0.0907215700359 0.0385727260592 0)
(-0.0904011138784 0.0655236145732 4.11167012057e-27)
(-0.0891427481363 0.0925788823354 0)
(-0.0874387422335 0.119135290846 0)
(-0.0853391370089 0.145097597721 0)
(-0.0828737160144 0.170349875342 0)
(-0.0800747167329 0.194785479753 0)
(-0.0769772446869 0.218308508379 0)
(-0.0736182237636 0.240834680721 0)
(-0.0700356042641 0.262291697496 0)
(-0.0662673911126 0.28261935204 0)
(-0.0623510490302 0.301769360882 0)
(-0.0583227109028 0.319704981255 0)
(-0.0542168206999 0.336400434202 0)
(-0.0500655505057 0.351840197527 0)
(-0.0458986912005 0.36601818647 0)
(-0.041743274001 0.378936881307 0)
(-0.0376236869645 0.390606416439 0)
(-0.0335614677106 0.401043681941 0)
(-0.0295755964102 0.410271445404 0)
(-0.0256824016002 0.418317532462 0)
(-0.0218959605231 0.425214062883 0)
(-0.0182280487973 0.430996765116 0)
(-0.0146885781533 0.435704354983 0)
(-0.0112855315098 0.439377988044 0)
(-0.0080253901649 0.442060764976 0)
(-0.00491302629427 0.443797293116 0)
(-0.00195210425521 0.44463328508 0)
(0.000855068858827 0.444615197742 0)
(0.00350716405209 0.443789899306 0)
(0.00600401298423 0.442204397846 0)
(0.00834616787406 0.439905449998 0)
(0.0105351858422 0.436939445488 0)
(0.012573225964 0.43335212403 0)
(0.0144632464459 0.429188375567 0)
(0.0162086424593 0.424492063757 0)
(0.0178134622375 0.419305869759 0)
(0.0192820510065 0.413671156768 0)
(0.0206192754454 0.407627853603 0)
(0.0218301753965 0.401214356657 0)
(0.0229201943634 0.394467447661 0)
(0.0238948387943 0.387422228716 0)
(0.0247599110403 0.380112070776 0)
(0.0255211757021 0.372568579096 0)
(0.0261845926097 0.364821570652 0)
(0.0267559908499 0.356899068575 0)
(0.0272413001973 0.348827307139 0)
(0.0276462344488 0.340630753697 0)
(0.0279765215556 0.332332139642 0)
(0.0282375991667 0.323952507652 0)
(0.0284348443258 0.315511265601 0)
(0.0285732844836 0.30702625516 0)
(0.0286578284265 0.298513824004 0)
(0.0286929960166 0.289988910167 0)
(0.0286831512254 0.281465126036 0)
(0.0286322527415 0.272954851218 0)
(0.0285440893173 0.264469320828 0)
(0.0284220521115 0.25601871916 0)
(0.0282693708038 0.247612264556 0)
(0.0280889067963 0.23925829644 0)
(0.0278833875731 0.230964350105 0)
(0.0276552186979 0.222737231275 0)
(0.0274067126072 0.214583075911 0)
(0.0271399163491 0.206507408432 0)
(0.0268568309278 0.198515184066 0)
(0.0265592516231 0.190610829489 0)
(0.026248973914 0.1827982676 0)
(0.0259276434247 0.175080941503 0)
(0.0255969454332 0.167461823747 0)
(0.0252584623531 0.159943426566 0)
(0.0249138445901 0.15252779914 0)
(0.0245646743192 0.145216528022 0)
(0.0242126167849 0.138010726787 0)
(0.0238592901803 0.130911031197 0)
(0.0235063972608 0.123917585717 0)
(0.0231556018292 0.117030037651 0)
(0.0228086414736 0.11024752457 0)
(0.0224672117479 0.10356867116 0)
(0.0221330611006 0.0969915808095 0)
(0.0218078839695 0.0905138378082 0)
(0.0214933991845 0.0841325052191 0)
(0.021191253066 0.0778441339351 0)
(0.0209030820543 0.0716447674968 0)
(0.020630426198 0.0655299574091 0)
(0.0203747760053 0.0594947725806 0)
(0.0201374960402 0.0535338156511 0)
(0.0199198566292 0.0476412262098 0)
(0.0197229729889 0.0418106763714 0)
(0.0195478446366 0.0360353282078 0)
(0.0193953794133 0.0303077600447 0)
(0.0192666237912 0.0246198002895 0)
(0.0191630670064 0.0189623331906 0)
(0.0190834635913 0.0133206181938 0)
(0.0189379780679 0.00777023498057 0)
(0.0170410918913 0.00228227364936 0)
(-0.106728871947 0.0114747174472 0)
(-0.11826382133 0.0393334468449 0)
(-0.117834902322 0.0667635834587 0)
(-0.116174139956 0.0943113643429 0)
(-0.11392618203 0.121335996402 0)
(-0.111158304184 0.147736731979 0)
(-0.107910626988 0.173392386106 0)
(-0.104226393001 0.198192356585 0)
(-0.100152495464 0.222037980321 0)
(-0.0957382123716 0.244843341946 0)
(-0.0910340042829 0.266535539116 0)
(-0.086090347766 0.287054681429 0)
(-0.0809567851059 0.306353605046 0)
(-0.0756810372275 0.324397356071 0)
(-0.0703083648352 0.341162483696 0)
(-0.0648809906058 0.356636194627 0)
(-0.0594377784523 0.370815407594 0)
(-0.0540139528092 0.383705755155 0)
(-0.0486410649886 0.395320566959 0)
(-0.0433469614172 0.405679874194 0)
(-0.0381559704007 0.414809460237 0)
(-0.0330890371195 0.422739984321 0)
(-0.0281640352123 0.429506188356 0)
(-0.0233959678707 0.435146195867 0)
(-0.0187973057723 0.439700896531 0)
(-0.0143781696578 0.443213410389 0)
(-0.0101466302393 0.445728615921 0)
(-0.00610883430979 0.447292731203 0)
(-0.00226925260003 0.447952934027 0)
(0.00136924393413 0.447757014863 0)
(0.00480517132737 0.446753053139 0)
(0.00803841154135 0.444989175718 0)
(0.0110699056674 0.442513105014 0)
(0.0139017477522 0.43937214598 0)
(0.0165369397718 0.435612838093 0)
(0.0189793696416 0.431280780508 0)
(0.0212336310761 0.426420460827 0)
(0.0233050102921 0.421075103672 0)
(0.0251993178495 0.415286540205 0)
(0.0269228869796 0.409095096378 0)
(0.0284824161171 0.402539498565 0)
(0.029884975991 0.395656795064 0)
(0.0311378602443 0.388482293352 0)
(0.0322485978461 0.381049511626 0)
(0.0332248095606 0.373390145336 0)
(0.0340742233907 0.365534047387 0)
(0.0348045361114 0.357509223368 0)
(0.0354234311918 0.349341839991 0)
(0.0359384465062 0.341056248218 0)
(0.0363569961227 0.332675018855 0)
(0.0366862468934 0.324218992051 0)
(0.0369331467969 0.31570733754 0)
(0.0371043140571 0.307157626689 0)
(0.0372060752656 0.298585912498 0)
(0.0372443704923 0.290006818411 0)
(0.0372248036812 0.281433631186 0)
(0.0371525660272 0.272878398486 0)
(0.0370324996342 0.264352026187 0)
(0.0368690394748 0.255864376258 0)
(0.0366662891781 0.247424360013 0)
(0.0364279798075 0.239040027959 0)
(0.0361575547788 0.230718651464 0)
(0.0358581419093 0.222466798205 0)
(0.0355326429987 0.21429039699 0)
(0.0351837145583 0.206194794637 0)
(0.0348138570594 0.198184801268 0)
(0.0344253995234 0.190264727532 0)
(0.0340205836034 0.182438410551 0)
(0.0336015477881 0.174709232753 0)
(0.0331704024643 0.167080130925 0)
(0.0327292106085 0.159553600173 0)
(0.0322800512462 0.152131690273 0)
(0.0318249948978 0.144815999286 0)
(0.0313661543543 0.137607662102 0)
(0.0309056545061 0.130507338849 0)
(0.0304456705769 0.12351520061 0)
(0.0299883930705 0.116630917259 0)
(0.0295360546147 0.109853644694 0)
(0.0290908915046 0.103182016094 0)
(0.0286551608171 0.0966141340669 0)
(0.028231100373 0.0901475680179 0)
(0.0278209380145 0.0837793533043 0)
(0.0274268518408 0.0775059961167 0)
(0.0270509734136 0.0713234801544 0)
(0.0266953500458 0.0652272783664 0)
(0.0263619440018 0.0592123652522 0)
(0.0260525998853 0.0532732319778 0)
(0.0257690455824 0.0474038980544 0)
(0.0255128772205 0.0415979221524 0)
(0.0252855889745 0.0358484051178 0)
(0.025088630894 0.0301480048229 0)
(0.0249235569714 0.0244889675861 0)
(0.024791958331 0.0188632899343 0)
(0.0246895833185 0.0132576789078 0)
(0.0244932739064 0.00775164789327 0)
(0.0219823968405 0.00228788472079 0)
(-0.132115753463 0.0116829648696 0)
(-0.146389237324 0.0403024988758 0)
(-0.145839357591 0.0683518595598 0)
(-0.143752643724 0.0965319432072 0)
(-0.140929564935 0.124155757549 0)
(-0.137455770866 0.151115976195 0)
(-0.133383074145 0.177285037343 0)
(-0.128767081119 0.202547438392 0)
(-0.123667811867 0.226801110602 0)
(-0.118148119597 0.249958188576 0)
(-0.112272114766 0.271945162835 0)
(-0.106103715526 0.292702733983 0)
(-0.0997054023741 0.3121853643 0)
(-0.09313714928 0.330360584525 0)
(-0.0864555851052 0.347208108058 0)
(-0.0797133351526 0.362718805964 0)
(-0.0729585901941 0.376893590409 0)
(-0.0662348373354 0.389742254927 0)
(-0.0595807952215 0.40128231411 0)
(-0.0530304717279 0.411537884355 0)
(-0.0466133792095 0.420538638475 0)
(-0.0403548093729 0.428318861071 0)
(-0.034276198965 0.434916618192 0)
(-0.0283954819872 0.440373045352 0)
(-0.0227274689238 0.444731744568 0)
(-0.017284158353 0.448038274698 0)
(-0.0120750437126 0.450339713235 0)
(-0.0071073379281 0.451684269918 0)
(-0.00238619903013 0.452120935072 0)
(0.00208511213319 0.451699151885 0)
(0.00630504903986 0.450468506454 0)
(0.0102736991279 0.448478520958 0)
(0.0139924679816 0.445778118344 0)
(0.0174641353776 0.442415746651 0)
(0.0206926171638 0.438438938981 0)
(0.0236828679211 0.433894177263 0)
(0.0264407365307 0.428826723723 0)
(0.0289728719424 0.423280476593 0)
(0.0312865950865 0.417297846323 0)
(0.0333898200755 0.410919649827 0)
(0.0352909399078 0.404185021249 0)
(0.036998759056 0.397131337773 0)
(0.0385223884942 0.389794160025 0)
(0.0398711850179 0.382207186355 0)
(0.0410546518542 0.374402221375 0)
(0.042082381918 0.366409158382 0)
(0.042963962578 0.358255976336 0)
(0.0437089224513 0.349968750962 0)
(0.0443266414258 0.341571680616 0)
(0.0448263032442 0.333087126063 0)
(0.0452168142069 0.324535664344 0)
(0.045506765544 0.315936155142 0)
(0.0457043654648 0.307305819233 0)
(0.0458174160696 0.298660326613 0)
(0.0458532633119 0.290013893189 0)
(0.0458187921601 0.281379382973 0)
(0.0457203973511 0.272768414265 0)
(0.0455639984471 0.264191466455 0)
(0.0453550317076 0.255657985883 0)
(0.0450984837759 0.24717648746 0)
(0.0447989021424 0.238754650881 0)
(0.0444604436827 0.230399408624 0)
(0.0440868989176 0.222117025224 0)
(0.0436817496592 0.213913165701 0)
(0.043248200882 0.205792953499 0)
(0.0427892410593 0.197761016641 0)
(0.0423076752785 0.189821523254 0)
(0.0418061820856 0.181978205904 0)
(0.0412873422541 0.174234376609 0)
(0.0407536872787 0.166592932521 0)
(0.0402077197809 0.159056354609 0)
(0.0396519504731 0.151626699635 0)
(0.0390889080234 0.144305587938 0)
(0.0385211632729 0.137094187433 0)
(0.0379513282029 0.129993196276 0)
(0.0373820677647 0.123002824463 0)
(0.0368160890037 0.116122776614 0)
(0.0362561421316 0.10935223597 0)
(0.0357050018313 0.102689851546 0)
(0.0351654598465 0.0961337281073 0)
(0.0346403009541 0.0896814205648 0)
(0.0341322896918 0.0833299320977 0)
(0.0336441436409 0.0770757171593 0)
(0.0331785169579 0.0709146883326 0)
(0.032737973804 0.0648422276583 0)
(0.0323249719818 0.0588532011605 0)
(0.0319418408814 0.0529419769317 0)
(0.0315907718177 0.0471024459144 0)
(0.0312738112381 0.0413280464217 0)
(0.0309928757737 0.0356117956078 0)
(0.0307497862017 0.0299463547154 0)
(0.0305463118169 0.0243241016697 0)
(0.0303838069011 0.0187372971394 0)
(0.0302553822256 0.0131726903781 0)
(0.0300074594095 0.00770799415128 0)
(0.0269118310341 0.00228141098379 0)
(-0.158177462116 0.0119378374564 0)
(-0.175250754264 0.0414977959076 0)
(-0.174562414876 0.0703130678461 4.13518821387e-27)
(-0.172018157677 0.0992739110399 0)
(-0.168579025157 0.127635824639 0)
(-0.164350526798 0.155283340266 0)
(-0.159397775298 0.182081145439 0)
(-0.153790435727 0.207907847596 0)
(-0.147603338474 0.232657376039 0)
(-0.140914487559 0.256239704091 0)
(-0.133803080231 0.278580850603 0)
(-0.126347722929 0.29962254181 0)
(-0.118624896029 0.319321546028 0)
(-0.110707671991 0.337648751174 0)
(-0.102664701983 0.354588048013 0)
(-0.094559455185 0.370135077176 0)
(-0.086449715727 0.384295894176 0)
(-0.078387311296 0.397085604667 0)
(-0.0704180692658 0.408527020331 0)
(-0.0625819594083 0.418649382713 0)
(-0.0549134030471 0.427487196123 0)
(-0.0474416889099 0.435079200398 0)
(-0.040191462504 0.441467500001 0)
(-0.0331832230003 0.446696849183 0)
(-0.026433802342 0.450814076956 0)
(-0.0199567796584 0.453867623712 0)
(-0.0137628356689 0.455907156243 0)
(-0.00786003111656 0.456983230081 0)
(-0.00225404095329 0.457146976429 0)
(0.00305165788105 0.456449795683 0)
(0.00805559128683 0.454943070754 0)
(0.0127582112286 0.452677983191 0)
(0.0171615211414 0.449704898888 0)
(0.0212691246679 0.446073622323 0)
(0.0250859729341 0.441832871391 0)
(0.0286182214953 0.437030177942 0)
(0.0318730787259 0.431711723317 0)
(0.0348586743707 0.42592220352 0)
(0.0375839286892 0.419704714221 0)
(0.0400584410703 0.413100652802 0)
(0.0422923766309 0.406149635404 0)
(0.0442963687756 0.398889427743 0)
(0.0460814163369 0.391355889118 0)
(0.0476587935459 0.383582929525 0)
(0.049039952418 0.375602480142 0)
(0.0502364363405 0.367444477677 0)
(0.0512597856489 0.359136863148 0)
(0.0521214544977 0.350705595576 0)
(0.0528327210674 0.342174680906 0)
(0.0534046107343 0.333566216277 0)
(0.0538478153686 0.324900449316 0)
(0.0541726283529 0.316195851722 0)
(0.0543888792604 0.30746920585 0)
(0.0545058871585 0.298735702619 0)
(0.0545324167577 0.290009048567 0)
(0.0544766551995 0.281301579507 0)
(0.0543461936014 0.272624378003 0)
(0.0541480295844 0.263987391785 0)
(0.0538885746458 0.255399550252 0)
(0.0535736809546 0.246868876305 0)
(0.0532086712962 0.238402591037 0)
(0.0527983852331 0.230007209187 0)
(0.0523472253601 0.221688623696 0)
(0.0518592155282 0.21345217812 0)
(0.0513380554677 0.20530272621 0)
(0.0507871828372 0.197244678426 0)
(0.0502098280538 0.189282035687 0)
(0.0496090724112 0.18141841095 0)
(0.0489878960889 0.173657039705 0)
(0.0483492262515 0.166000780654 0)
(0.0476959732477 0.158452108158 0)
(0.0470310648992 0.151013098033 0)
(0.0463574683449 0.143685408437 0)
(0.0456782091641 0.136470257509 0)
(0.0449963786057 0.129368399402 0)
(0.0443151382512 0.122380100159 0)
(0.0436377141614 0.115505114797 0)
(0.0429673892691 0.108742666724 0)
(0.0423074871231 0.102091430518 0)
(0.0416613550267 0.0955495187471 0)
(0.0410323406236 0.0891144734771 0)
(0.040423769153 0.08278326274 0)
(0.0398389162998 0.0765522822226 0)
(0.0392809830196 0.0704173620877 0)
(0.0387530682271 0.0643737788233 0)
(0.0382581450556 0.0584162720589 0)
(0.0377990378507 0.0525390663846 0)
(0.0373784053648 0.0467358982932 0)
(0.0369987291201 0.0410000517926 0)
(0.0366623115491 0.0353244036141 0)
(0.0363712805185 0.0297014926901 0)
(0.0361275686135 0.0241235990605 0)
(0.0359323690981 0.0185828550151 0)
(0.0357767533683 0.0130656119947 0)
(0.0354783551354 0.00764661979006 0)
(0.0318107952486 0.00226847404343 0)
(-0.185060383962 0.0122435737465 0)
(-0.205010283772 0.0429392398685 0)
(-0.204161316659 0.0726775411072 -4.13298617267e-27)
(-0.201119338267 0.102578311385 0)
(-0.197012284125 0.131826646581 0)
(-0.191967618777 0.160297035738 0)
(-0.186065845467 0.187844844268 0)
(-0.179392850443 0.214341754774 0)
(-0.172040393744 0.239677165533 0)
(-0.164103605464 0.263758817588 0)
(-0.155678544284 0.286512580666 0)
(-0.146860037758 0.307881854563 0)
(-0.137739846681 0.327826619642 0)
(-0.128405158862 0.346322222914 0)
(-0.118937410711 0.363357971785 0)
(-0.109411424481 0.378935598954 0)
(-0.099894853523 0.393067656305 0)
(-0.0904479188782 0.405775895431 0)
(-0.0811234213466 0.417089692499 0)
(-0.0719669954527 0.427044575182 0)
(-0.0630175652007 0.435680903395 0)
(-0.0543079395269 0.443042743829 0)
(-0.0458654832582 0.449176958121 0)
(-0.0377127896366 0.45413250083 0)
(-0.0298682986409 0.457959898771 0)
(-0.0223468167895 0.460710866001 0)
(-0.0151599288455 0.462438001582 0)
(-0.00831630700602 0.463194523437 0)
(-0.00182194851941 0.463034007194 0)
(0.00431963411015 0.462010095038 0)
(0.0101072333884 0.460176304028 0)
(0.0155417699848 0.457585589675 0)
(0.0206260577682 0.454290136538 0)
(0.0253646770289 0.450341267492 0)
(0.0297637658781 0.44578907464 0)
(0.0338308305784 0.440682296863 0)
(0.0375745723576 0.4350681698 0)
(0.0410047309113 0.428992302749 0)
(0.0441319394613 0.422498574982 0)
(0.0469675945771 0.415629047485 0)
(0.0495237331526 0.408423887667 0)
(0.0518129187858 0.400921305731 0)
(0.053848130246 0.393157502488 0)
(0.0556426550846 0.385166628892 0)
(0.0572099823145 0.376980758197 0)
(0.0585636983064 0.368629871578 0)
(0.059717381071 0.360141858392 0)
(0.0606844980733 0.351542531915 0)
(0.0614783039855 0.342855661514 0)
(0.0621117444246 0.334103021517 0)
(0.0625973630912 0.325304456921 0)
(0.0629472188365 0.316477965149 0)
(0.0631728105708 0.307639792774 0)
(0.063285016343 0.298804545114 0)
(0.0632940442336 0.289985306401 0)
(0.0632094004636 0.281193767355 0)
(0.0630398715404 0.272440357107 0)
(0.0627935244954 0.263734375808 0)
(0.0624777209497 0.255084124753 0)
(0.0620991476432 0.246497030553 0)
(0.0616638582385 0.237979760709 0)
(0.0611773278834 0.22953832791 0)
(0.0606445147637 0.221178181357 0)
(0.0600699294036 0.212904283553 0)
(0.0594577058783 0.204721172063 0)
(0.0588116754631 0.196633005863 0)
(0.0581354372673 0.188643596938 0)
(0.0574324265548 0.180756427792 0)
(0.0567059760853 0.172974656435 0)
(0.05595937165 0.165301110265 0)
(0.0551958981039 0.15773827094 0)
(0.0544188776385 0.150288251997 0)
(0.0536316976102 0.142952771486 0)
(0.0528378301728 0.135733121345 0)
(0.0520408418924 0.128630135624 0)
(0.0512443959068 0.121644158997 0)
(0.0504522454834 0.114775017288 0)
(0.0496682216407 0.108021991068 0)
(0.0488962141406 0.101383793557 0)
(0.0481401484322 0.0948585534532 0)
(0.0474039581691 0.0884438034404 0)
(0.0466915556803 0.0821364745838 0)
(0.0460068002196 0.0759328969072 0)
(0.0453534661262 0.0698288060865 0)
(0.0447352109287 0.0638193562152 0)
(0.0441555453186 0.057899138636 0)
(0.0436178052837 0.0520622069596 0)
(0.043125128093 0.0463021092228 0)
(0.0426804322634 0.0406119274493 0)
(0.0422864020101 0.0349843269821 0)
(0.041945470933 0.0294116327941 0)
(0.0416597653637 0.0238858795218 0)
(0.0414304544847 0.0183988623519 0)
(0.041246955234 0.012936497099 0)
(0.040898928557 0.00757031803169 0)
(0.0366674874286 0.00225111167772 0)
(-0.212924866689 0.0126048207114 0)
(-0.235843228493 0.0446509380098 0)
(-0.234805866523 0.0754831471526 0)
(-0.231216030928 0.10649651146 0)
(-0.226376497603 0.13679114416 0)
(-0.220439515911 0.166229315108 0)
(-0.213503715324 0.194655331365 0)
(-0.205673965566 0.22193291306 0)
(-0.197061610476 0.247946515986 0)
(-0.187781341694 0.272601780854 0)
(-0.17794823102 0.29582500463 0)
(-0.167675161071 0.317562187944 0)
(-0.157070680916 0.337777717826 0)
(-0.146237276392 0.356452789566 0)
(-0.135270036461 0.37358364739 0)
(-0.124255697198 0.389179708007 0)
(-0.11327205098 0.403261625932 0)
(-0.102387709228 0.415859361151 0)
(-0.0916622029498 0.427010316646 0)
(-0.0811463897927 0.436757617479 0)
(-0.0708831158139 0.445148601242 0)
(-0.0609080548797 0.452233574811 0)
(-0.0512506309763 0.458064865806 0)
(-0.0419349220614 0.462696160013 0)
(-0.0329804587264 0.466182078916 0)
(-0.0244028614561 0.468577922868 0)
(-0.0162143035516 0.469939496764 0)
(-0.00842382464589 0.470322946452 0)
(-0.00103754497608 0.469784563405 0)
(0.00594116910764 0.468380512809 0)
(0.0125115676942 0.466166706798 0)
(0.0186752297262 0.463198182543 0)
(0.024435944506 0.459529125237 0)
(0.0297994772281 0.455212604927 0)
(0.0347733346906 0.450300261664 0)
(0.0393665458012 0.444842189423 0)
(0.0435894617298 0.438886802068 0)
(0.0474535768253 0.43248072667 0)
(0.0509713685641 0.425668714846 0)
(0.0541561536861 0.418493566756 0)
(0.0570219555587 0.410996064713 0)
(0.0595833793157 0.403214915511 0)
(0.0618554908457 0.395186701662 0)
(0.0638536978883 0.386945842734 0)
(0.0655936310847 0.378524568123 0)
(0.0670910248332 0.369952903017 0)
(0.0683615972479 0.361258669089 0)
(0.0694209304551 0.352467501673 0)
(0.0702843519184 0.343602884612 0)