/*--------------------------------*- C++ -*----------------------------------*\
| =========                 |                                                 |
| \\      /  F ield         | OpenFOAM: The Open Source CFD Toolbox           |
|  \\    /   O peration     | Version:  v1906                                 |
|   \\  /    A nd           | Web:      www.OpenFOAM.com                      |
|    \\/     M anipulation  |                                                 |
\*---------------------------------------------------------------------------*/
FoamFile
{
    version     2.0;
    format      ascii;
    class       volScalarField;
    location    "200";
    object      alpha;
}
// * * * * * * * * * * * * * * * * * * * * * * * * * * * * * * * * * * * * * //

dimensions      [0 0 -1 0 0 0 0];


internalField   nonuniform List<scalar> 
9216
(
164.037804157
199.99999958
199.999999613
199.999999613
199.999999613
199.999999639
199.999999639
199.999999639
199.999999639
199.999999639
199.999999613
199.99999956
199.999999567
199.999999504
199.999999504
199.999999504
199.99999956
199.999999605
199.999999605
199.999999605
199.999999605
199.999999505
199.999999484
199.999999484
199.999999484
199.999999484
199.999999407
199.999999372
199.999999343
199.999999286
199.99999927
199.999999101
199.999999154
199.999999323
199.999999338
199.999999427
199.999999432
199.999999432
199.999999432
199.999999432
199.999999432
199.99999938
199.999999288
199.99999928
199.999999348
199.999999348
199.999999348
199.999999348
199.999999348
199.999999343
199.999999364
199.999999387
199.999999411
199.999999432
199.999999432
199.999999418
199.99999937
199.999999308
199.999999206
199.999999057
199.999998927
199.99999881
199.99999872
199.99999861
199.999998404
199.999998103
199.999997824
199.99999773
199.999997413
199.999997012
199.999996644
199.999996197
199.999995806
199.999995427
199.999994743
199.999993566
199.999992235
199.999990795
199.999988457
199.999984142
199.99997263
199.999856869
199.993098447
189.638662208
171.425719079
156.960751853
141.902479561
120.93377888
96.2645617463
75.2635222956
56.5283901448
41.9574916816
30.433118443
19.879429749
11.834571096
1.34798876787
199.999999554
199.999999636
199.999999639
199.999999639
199.999999639
199.999999639
199.999999639
199.999999613
199.999999613
199.999999613
199.999999613
199.999999613
199.999999563
199.999999507
199.999999507
199.999999507
199.999999527
199.99999953
199.99999953
199.999999506
199.999999583
199.99999955
199.9999995
199.999999446
199.999999424
199.999999424
199.999999424
199.999999424
199.999999423
199.99999934
199.999999271
199.999999271
199.999999271
199.999999271
199.999999271
199.999999271
199.999999271
199.999999209
199.999999209
199.999999154
199.999999154
199.999999154
199.999999154
199.99999906
199.99999906
199.99999906
199.99999906
199.99999906
199.99999906
199.99999906
199.99999906
199.99999906
199.99999906
199.99999898
199.999998917
199.999998908
199.999998844
199.999998737
199.999998408
199.999998116
199.999997881
199.999997686
199.999997503
199.999997416
199.999997194
199.999996737
199.999996241
199.99999607
199.999996105
199.99999623
199.999996066
199.999995517
199.999994868
199.999994158
199.999993275
199.999992006
199.999990829
199.999990727
199.999991086
199.999988645
199.999984102
199.999963141
199.999793338
199.953445197
186.794215398
170.388296617
155.800305974
133.660439276
112.973476388
88.1403951876
66.6778791496
53.3278941151
42.5846933982
27.3761275594
18.0925529159
14.2908998417
199.999999613
199.999999643
199.999999631
199.999999649
199.999999613
199.999999613
199.999999613
199.999999613
199.999999613
199.999999613
199.999999583
199.999999583
199.999999583
199.999999583
199.999999445
199.9999995
199.9999995
199.9999995
199.9999995
199.9999995
199.9999995
199.9999995
199.9999995
199.999999424
199.999999424
199.999999351
199.999999284
199.999999216
199.999999216
199.999999216
199.999999154
199.999999154
199.99999906
199.99999906
199.99999906
199.99999906
199.99999906
199.99999906
199.99999906
199.99999906
199.99999906
199.99999906
199.999998955
199.999998955
199.999998812
199.999998812
199.999998683
199.999998683
199.999998567
199.999998408
199.999998408
199.999998408
199.999998408
199.999998408
199.999998408
199.999998408
199.999998408
199.999998344
199.999998169
199.999997838
199.999997536
199.999997295
199.999997071
199.999996798
199.999996361
199.999995743
199.999995078
199.999994528
199.999993911
199.999993042
199.999992102
199.999991931
199.999990692
199.999991166
199.999989731
199.999987653
199.99998606
199.999984465
199.999982096
199.999980014
199.999976287
199.999934287
199.999419794
199.596712448
184.600341139
167.399444202
145.92829293
134.613663162
119.384044749
90.9453380619
63.8918793419
57.6740350107
41.7890450445
32.0887793169
28.2857732205
18.9554711373
199.999999639
199.999999649
199.999999649
199.999999649
199.999999613
199.999999613
199.999999613
199.999999613
199.999999583
199.999999583
199.999999583
199.999999583
199.999999583
199.9999995
199.9999995
199.9999995
199.9999995
199.9999995
199.9999995
199.9999995
199.9999995
199.999999445
199.999999445
199.999999369
199.999999284
199.999999216
199.999999154
199.999999154
199.99999906
199.99999906
199.99999906
199.99999906
199.99999906
199.99999906
199.99999906
199.99999906
199.999998955
199.999998955
199.999998955
199.999998955
199.999998696
199.999998567
199.999998408
199.999998408
199.999998408
199.999998408
199.999998408
199.999998408
199.999998408
199.999998408
199.999998231
199.999998231
199.999998231
199.999998231
199.999998231
199.999998231
199.999998231
199.999998231
199.999998215
199.999997969
199.999997641
199.99999734
199.999997016
199.999996721
199.999996297
199.999995677
199.999994954
199.999994324
199.999993733
199.999992916
199.999992023
199.999990903
199.999989578
199.999989191
199.999987103
199.999984947
199.99998316
199.999981371
199.999979007
199.999974802
199.999937034
199.999316378
199.967856884
192.530756666
178.968538117
160.593209412
144.314686078
133.476224222
112.036563669
96.6241154349
78.1118873599
54.8501383387
50.4402646379
41.6060847048
35.3145980665
23.4467451949
199.999999639
199.999999649
199.999999649
199.999999631
199.999999613
199.999999613
199.999999613
199.999999583
199.999999583
199.999999583
199.999999583
199.999999583
199.9999995
199.9999995
199.9999995
199.9999995
199.9999995
199.9999995
199.9999995
199.999999445
199.999999445
199.999999445
199.999999369
199.999999284
199.999999154
199.999999154
199.99999906
199.99999906
199.99999906
199.99999906
199.99999906
199.99999906
199.999998955
199.999998955
199.999998955
199.999998955
199.999998955
199.999998839
199.999998567
199.999998408
199.999998408
199.999998408
199.999998408
199.999998408
199.999998231
199.999998231
199.999998231
199.999998231
199.999998231
199.999998231
199.999998231
199.999998231
199.999998035
199.999998035
199.999998035
199.999998035
199.999998035
199.999998035
199.999998035
199.9999977
199.999997391
199.999996941
199.999996447
199.999996076
199.999995638
199.999994887
199.999994363
199.999993985
199.99999326
199.999992386
199.999991578
199.999990982
199.999989648
199.999987877
199.999985387
199.999983334
199.999983009
199.999981392
199.999979061
199.999974774
199.999933323
199.999287441
199.95367646
187.662763298
170.418749925
151.663114283
135.573535334
126.291072495
120.502877335
98.8179591415
85.4972738878
64.8861667074
50.5827691991
50.1397234086
46.3606127813
34.3179084663
199.999999639
199.999999649
199.999999649
199.999999613
199.999999613
199.999999613
199.999999583
199.999999583
199.999999583
199.999999583
199.999999583
199.99999955
199.9999995
199.9999995
199.9999995
199.9999995
199.9999995
199.999999445
199.999999445
199.999999445
199.999999445
199.999999369
199.999999284
199.999999154
199.99999906
199.99999906
199.99999906
199.99999906
199.99999906
199.99999906
199.999998955
199.999998955
199.999998955
199.999998955
199.999998955
199.999998839
199.999998567
199.999998567
199.999998408
199.999998408
199.999998408
199.999998408
199.999998231
199.999998231
199.999998231
199.999998231
199.999998231
199.999998035
199.999998035
199.999998035
199.999998035
199.999998035
199.999997816
199.999997816
199.999997816
199.999997573
199.999997573
199.999997304
199.999997304
199.999996986
199.999995759
199.99999485
199.999994191
199.999993744
199.999993411
199.99999311
199.999992268
199.999992145
199.999991651
199.999990941
199.999990171
199.999988957
199.999987371
199.999985154
199.999983491
199.999983301
199.999981809
199.999978736
199.99997686
199.999974413
199.999935351
199.998492848
197.339462532
184.70885383
168.246503224
150.89685696
142.414389666
126.50295249
108.882947155
91.9348754178
91.792151778
79.8558892567
60.6018145625
57.2302468859
56.4820505395
43.8604206018
199.999999639
199.999999649
199.999999649
199.999999613
199.999999613
199.999999583
199.999999583
199.999999583
199.999999583
199.999999583
199.999999583
199.9999995
199.9999995
199.9999995
199.999999445
199.999999445
199.999999445
199.999999445
199.999999445
199.999999445
199.999999445
199.999999284
199.999999154
199.99999906
199.99999906
199.99999906
199.99999906
199.99999906
199.999998955
199.999998955
199.999998955
199.999998955
199.999998955
199.999998839
199.999998839
199.999998567
199.999998408
199.999998408
199.999998408
199.999998408
199.999998231
199.999998231
199.999998231
199.999998231
199.999998035
199.999998035
199.999998035
199.999998035
199.999998035
199.999997816
199.999997816
199.999997816
199.999997573
199.999997573
199.999997304
199.999997304
199.999997004
199.999997004
199.999995836
199.999993822
199.999993411
199.999992268
199.999992268
199.999992268
199.999991408
199.999991408
199.999991408
199.999991408
199.999990454
199.999990451
199.999990046
199.999988877
199.999987376
199.999985546
199.99998363
199.999983203
199.999980689
199.999978192
199.999977152
199.999968758
199.999805382
199.995829532
192.278206576
178.309431066
164.638584288
150.080368021
138.008925681
126.514246617
108.545566259
101.498922898
88.1547398038
88.1552216399
78.3001308147
66.2797155046
66.213534791
53.0677856374
199.999999639
199.999999649
199.999999649
199.999999613
199.999999613
199.99999962
199.99999962
199.999999583
199.999999583
199.999999583
199.999999533
199.9999995
199.9999995
199.999999445
199.999999445
199.999999445
199.999999445
199.999999445
199.999999445
199.999999445
199.999999369
199.999999216
199.99999906
199.99999906
199.99999906
199.99999906
199.99999906
199.999998955
199.999998955
199.999998955
199.999998955
199.999998955
199.999998839
199.999998839
199.999998567
199.999998408
199.999998408
199.999998408
199.999998231
199.999998231
199.999998231
199.999998231
199.999998231
199.999998035
199.999998035
199.999998035
199.999998035
199.999997816
199.999997816
199.999997816
199.999997573
199.999997573
199.999997304
199.999997304
199.999997004
199.999997004
199.999996671
199.999993969
199.999993041
199.999992268
199.999992268
199.999991408
199.999991408
199.999990454
199.999990454
199.999989393
199.999989393
199.999988215
199.999988215
199.999988215
199.999986905
199.999986888
199.999985887
199.999984306
199.999982409
199.999980737
199.999979489
199.999977422
199.999976621
199.999963522
199.999824215
199.981759518
190.986470049
178.170595644
161.894594832
149.758567091
133.627320625
121.646259172
111.373577814
106.323406946
98.3169551877
88.6017730979
89.5832992613
74.6397553612
75.4490663633
62.384140941
199.999999655
199.999999649
199.999999649
199.999999649
199.99999962
199.99999962
199.99999962
199.999999583
199.999999583
199.999999583
199.999999533
199.9999995
199.999999445
199.999999445
199.999999445
199.999999445
199.999999445
199.999999445
199.999999445
199.999999445
199.999999284
199.999999154
199.99999906
199.99999906
199.99999906
199.99999906
199.999998955
199.999998955
199.999998955
199.999998955
199.999998955
199.999998839
199.999998839
199.999998567
199.999998408
199.999998408
199.999998408
199.999998231
199.999998231
199.999998231
199.999998231
199.999998035
199.999998035
199.999998035
199.999998035
199.999997816
199.999997816
199.999997816
199.999997573
199.999997573
199.999997304
199.999997304
199.999997004
199.999997004
199.999996671
199.9999956
199.999993041
199.999992268
199.999992268
199.999991408
199.999991408
199.999990454
199.999990454
199.999989393
199.999988215
199.999988215
199.999986905
199.999986905
199.99998545
199.99998545
199.99998545
199.999983833
199.999983833
199.999983034
199.999981288
199.999979597
199.999977471
199.999977535
199.999974786
199.999947542
199.999687485
199.831027377
188.597623331
175.175646389
163.047564818
151.272597426
137.962122405
122.961386907
112.870168125
100.992338421
104.650787935
98.8742448002
92.2977305754
87.2248894298
82.9578468539
70.6757620208
199.999999676
199.999999649
199.999999649
199.999999649
199.99999962
199.99999962
199.99999962
199.999999583
199.999999583
199.999999583
199.999999533
199.9999995
199.999999445
199.999999445
199.999999445
199.999999445
199.999999445
199.999999445
199.999999445
199.999999369
199.999999154
199.99999906
199.99999906
199.99999906
199.99999906
199.999998955
199.999998955
199.999998955
199.999998955
199.999998955
199.999998839
199.99999871
199.999998567
199.999998408
199.999998408
199.999998408
199.999998231
199.999998231
199.999998231
199.999998231
199.999998035
199.999998035
199.999998035
199.999998035
199.999997816
199.999997816
199.999997573
199.999997573
199.999997304
199.999997304
199.999997304
199.999997004
199.999997004
199.999996671
199.999994604
199.999993041
199.999992268
199.999991408
199.999991408
199.999990454
199.999990454
199.999989393
199.999988215
199.999986905
199.999986905
199.99998545
199.99998545
199.999983833
199.999983833
199.999982037
199.999982037
199.999982037
199.999982037
199.999980041
199.999979357
199.999978431
199.999977183
199.999977197
199.999973598
199.999928724
199.99893282
199.501911159
185.616466889
173.072675215
162.991149012
151.277104204
137.42783102
125.662903418
116.138390258
109.109391821
102.834443515
104.863299164
100.159399726
97.8209782453
90.2529239633
79.7499602408
199.999999676
199.999999649
199.999999649
199.999999649
199.99999962
199.99999962
199.99999962
199.999999583
199.999999583
199.999999533
199.9999995
199.999999445
199.999999445
199.999999445
199.999999445
199.999999445
199.999999445
199.999999445
199.999999445
199.999999222
199.999999154
199.99999906
199.99999906
199.99999906
199.999998955
199.999998955
199.999998955
199.999998955
199.999998839
199.999998839
199.999998839
199.999998567
199.999998567
199.999998408
199.999998408
199.999998231
199.999998231
199.999998231
199.999998035
199.999998035
199.999998035
199.999998035
199.999997816
199.999997816
199.999997816
199.999997573
199.999997573
199.999997304
199.999997304
199.999997004
199.999997004
199.999996671
199.999996671
199.999994604
199.999992268
199.999992268
199.999991408
199.999991408
199.999990454
199.999989393
199.999988215
199.999986905
199.999986905
199.99998545
199.999983833
199.999983833
199.999982037
199.999982037
199.999980041
199.999980041
199.999980041
199.999977824
199.999977824
199.999977824
199.999977824
199.999977824
199.999977396
199.999975295
199.999970047
199.999888928
199.998228431
199.031686881
185.156685035
173.877525197
162.897376402
147.929400234
136.550408811
127.881883186
123.159396954
116.594534041
111.646511936
104.127423626
106.729873081
109.578817799
97.9871876094
86.6692148583
199.999999676
199.999999649
199.999999649
199.999999649
199.99999962
199.99999962
199.99999962
199.999999583
199.999999583
199.999999533
199.9999995
199.999999445
199.999999445
199.999999445
199.999999445
199.999999445
199.999999445
199.999999445
199.999999383
199.999999154
199.99999906
199.99999906
199.99999906
199.999998955
199.999998955
199.999998955
199.999998955
199.999998839
199.999998839
199.999998839
199.999998567
199.999998567
199.999998408
199.999998408
199.999998231
199.999998231
199.999998231
199.999998035
199.999998035
199.999998035
199.999998035
199.999997816
199.999997816
199.999997816
199.999997573
199.999997573
199.999997304
199.999997304
199.999997004
199.999997004
199.999996671
199.999996671
199.999994604
199.999992268
199.999991408
199.999991408
199.999990454
199.999990454
199.999989393
199.999988215
199.999986905
199.99998545
199.999983833
199.999983833
199.999982037
199.999982037
199.999980041
199.999977824
199.999977824
199.999977824
199.99997536
199.99997536
199.99997536
199.999972622
199.999972622
199.999972622
199.999972622
199.999972452
199.999962977
199.999846543
199.998086458
198.920572571
184.724687504
174.452101987
161.987680833
149.087682774
140.362326545
133.053601842
125.825081399
121.209185014
116.61097149
113.122349114
108.089852638
114.557405932
105.190375633
92.0669530864
199.999999721
199.999999694
199.999999649
199.999999649
199.99999962
199.99999962
199.99999962
199.999999583
199.999999583
199.999999533
199.9999995
199.999999445
199.999999445
199.999999445
199.999999445
199.999999445
199.999999445
199.999999383
199.999999222
199.999999154
199.99999906
199.99999906
199.99999906
199.999998955
199.999998955
199.999998955
199.999998839
199.999998839
199.999998839
199.99999871
199.999998567
199.999998408
199.999998408
199.999998231
199.999998231
199.999998231
199.999998035
199.999998035
199.999998035
199.999997816
199.999997816
199.999997816
199.999997573
199.999997573
199.999997573
199.999997304
199.999997304
199.999997004
199.999997004
199.999996671
199.999996671
199.999995738
199.999992268
199.999991408
199.999991408
199.999990454
199.999989393
199.999988215
199.999988215
199.999986669
199.99998545
199.999983833
199.999982037
199.999980041
199.999980041
199.999977824
199.999977824
199.99997536
199.99997536
199.999972622
199.999972622
199.99996958
199.99996958
199.99996958
199.99996958
199.99996958
199.99996958
199.999964485
199.999955289
199.999899296
199.998689588
195.416064187
183.791845881
175.447553454
162.405587837
153.682969611
145.094129608
136.828544654
129.526832798
124.84853336
120.099921834
116.61139082
114.57453646
117.585217722
111.374931912
97.0480363244
199.999999721
199.999999694
199.999999694
199.999999649
199.99999962
199.99999962
199.99999962
199.999999583
199.999999583
199.999999533
199.9999995
199.999999445
199.999999445
199.999999445
199.999999445
199.999999445
199.999999383
199.999999383
199.999999154
199.999999154
199.99999906
199.99999906
199.999998955
199.999998955
199.999998955
199.999998839
199.999998839
199.999998839
199.99999871
199.999998567
199.999998408
199.999998408
199.999998231
199.999998231
199.999998231
199.999998035
199.999998035
199.999998035
199.999997816
199.999997816
199.999997816
199.999997573
199.999997573
199.999997304
199.999997304
199.999997304
199.999997004
199.999997004
199.999996671
199.999996671
199.999996302
199.999992268
199.999991408
199.999991408
199.999990454
199.999989393
199.999988215
199.999986905
199.99998545
199.999983833
199.999982037
199.999982037
199.999980041
199.999977824
199.999977824
199.99997536
199.999972622
199.999972622
199.99996958
199.99996958
199.99996958
199.9999662
199.9999662
199.9999662
199.9999662
199.999962444
199.999961214
199.999954901
199.99992789
199.999779277
199.99568289
197.105348726
186.502291305
176.742375083
168.097778949
156.120161219
148.444171058
139.761330325
132.985611707
130.313456475
124.217015476
121.16335876
118.351629954
116.454120252
119.404594025
101.405531847
199.999999721
199.999999694
199.999999694
199.999999694
199.99999962
199.99999962
199.99999962
199.999999583
199.999999583
199.9999995
199.9999995
199.999999445
199.999999445
199.999999445
199.999999445
199.999999383
199.999999383
199.999999307
199.999999154
199.99999906
199.99999906
199.99999906
199.999998955
199.999998955
199.999998839
199.999998839
199.999998839
199.99999871
199.999998567
199.999998567
199.999998408
199.999998408
199.999998231
199.999998231
199.999998035
199.999998035
199.999998035
199.999997816
199.999997816
199.999997816
199.999997573
199.999997573
199.999997304
199.999997304
199.999997004
199.999997004
199.999997004
199.999996671
199.999996671
199.999996302
199.999992268
199.999991408
199.999991408
199.999990454
199.999989393
199.999988215
199.999986905
199.99998545
199.999983833
199.999982037
199.999980041
199.999977824
199.99997536
199.99997536
199.999972622
199.99996958
199.99996958
199.9999662
199.9999662
199.9999662
199.999962444
199.999962444
199.999962444
199.999962444
199.999962444
199.999956825
199.999952314
199.999934218
199.999876891
199.99964872
199.993410371
194.879137589
189.941929936
181.255954198
169.138074391
160.654154637
148.667260123
142.61860814
138.740647758
134.866898899
128.668112205
125.078637794
121.426133316
119.526360286
124.658136784
105.255069174
199.999999721
199.999999734
199.999999694
199.999999694
199.999999665
199.99999962
199.99999962
199.99999962
199.999999533
199.9999995
199.9999995
199.999999445
199.999999445
199.999999445
199.999999445
199.999999383
199.999999383
199.999999239
199.999999154
199.99999906
199.99999906
199.999998955
199.999998955
199.999998955
199.999998839
199.999998839
199.99999871
199.999998567
199.999998567
199.999998408
199.999998408
199.999998231
199.999998231
199.999998035
199.999998035
199.999998035
199.999997816
199.999997816
199.999997816
199.999997573
199.999997573
199.999997304
199.999997304
199.999997004
199.999997004
199.999997004
199.999996671
199.999996671
199.999996302
199.999993041
199.999991408
199.999991408
199.999990454
199.999989393
199.999988215
199.99998545
199.999983833
199.999982037
199.999980041
199.999977824
199.99997536
199.99997536
199.999972622
199.99996958
199.9999662
199.9999662
199.999962444
199.999962444
199.999962444
199.999958271
199.999958271
199.999958271
199.999958271
199.999958195
199.999957585
199.999956018
199.99993165
199.999892061
199.99977612
199.999326486
199.974754383
194.648733681
191.818890063
182.680538279
171.780224236
161.235843625
152.186193811
149.66896633
144.561336422
137.31777709
131.197701221
127.898322289
125.397786912
122.00730878
125.456334014
108.229084227
199.999999721
199.999999734
199.999999734
199.999999694
199.999999665
199.99999962
199.99999962
199.99999962
199.999999533
199.9999995
199.999999445
199.999999445
199.999999445
199.999999445
199.999999383
199.999999383
199.999999315
199.999999154
199.999999154
199.99999906
199.99999906
199.999998955
199.999998955
199.999998839
199.999998839
199.99999871
199.99999871
199.999998567
199.999998408
199.999998408
199.999998231
199.999998231
199.999998035
199.999998035
199.999998035
199.999997816
199.999997816
199.999997573
199.999997573
199.999997573
199.999997304
199.999997304
199.999997004
199.999997004
199.999996671
199.999996671
199.999996671
199.999996302
199.999995891
199.999991408
199.999991408
199.999990454
199.999989393
199.999986905
199.99998545
199.999983833
199.999982037
199.999977824
199.99997536
198.67175245
161.353117494
107.936763811
94.6647449767
111.659831999
154.836769158
187.118397864
199.688808094
199.999957375
199.999949856
199.999951408
199.999951747
199.999951774
199.999951292
199.999950272
199.999948096
199.999941333
199.999906918
199.999809903
199.999603633
199.99830006
199.881897615
198.070766566
190.791196349
181.851614355
171.653567037
160.615084531
156.063790044
152.850230891
141.903103218
136.847071406
134.100840944
129.736047421
127.674099978
124.25360893
125.682119442
110.171406638
199.999999761
199.999999734
199.999999734
199.999999734
199.999999705
199.999999665
199.99999962
199.99999962
199.999999533
199.9999995
199.999999445
199.999999445
199.999999445
199.999999445
199.999999383
199.999999383
199.999999239
199.999999154
199.99999906
199.99999906
199.999998955
199.999998955
199.999998839
199.999998839
199.99999871
199.99999871
199.999998567
199.999998408
199.999998408
199.999998231
199.999998231
199.999998035
199.999998035
199.999998035
199.999997816
199.999997816
199.999997573
199.999997573
199.999997304
199.999997304
199.999997304
199.999997004
199.999997004
199.999996671
199.999996671
199.999996302
199.999996302
199.999995891
199.999992268
199.999991408
199.999990454
199.999989393
199.999986905
199.99998545
199.999982037
35.2153576933
7.31643245906
2.12576240634
0.815767965579
0.380866169974
0.232333271387
0.191100022588
0.213693343989
0.304391908507
0.54633525518
1.05852493221
2.27480413389
5.33536135347
14.0073468542
41.0365740786
132.744627922
198.495345727
199.999936884
199.99993242
199.999924666
199.999911697
199.999883523
199.999807639
199.999625448
199.99895429
199.973664735
194.990351296
187.736429526
180.043307608
170.407035942
160.644477324
158.579936288
150.68272792
144.122536653
140.171955614
136.587014458
133.383324242
127.999712443
126.526468733
124.709115873
111.603560086
199.999999761
199.999999734
199.999999734
199.999999734
199.999999705
199.999999705
199.99999962
199.999999583
199.9999995
199.9999995
199.999999445
199.999999445
199.999999445
199.999999383
199.999999383
199.999999315
199.999999239
199.999999154
199.99999906
199.99999906
199.999998955
199.999998955
199.999998839
199.99999871
199.99999871
199.999998567
199.999998567
199.999998408
199.999998231
199.999998231
199.999998035
199.999998035
199.999998035
199.999997816
199.999997816
199.999997573
199.999997573
199.999997304
199.999997304
199.999997004
199.999997004
199.999997004
199.999996671
199.999996671
199.999996302
199.999996302
199.999995891
199.999993041
199.999991408
199.999990454
199.999988215
199.999986905
65.4985597136
1.52946034771
0.0364394660734
0
0
0
0
0
0
0
0
0
0.000776365210329
0.00255511982307
0.0129569427506
0.0386305678454
0.130823808976
0.44277545355
1.55155818747
5.65450231313
22.2415941208
94.3770524387
195.351505609
199.999860083
199.999798142
199.999419262
199.999292497
199.995457096
197.643806879
190.879274995
184.563745247
177.97305737
169.508671414
162.092325912
162.390923459
153.749094848
148.484636181
144.075231579
139.725216494
134.890253446
130.185494079
127.833939747
124.229288684
113.168942688
199.999999761
199.999999734
199.999999734
199.999999734
199.999999705
199.999999705
199.999999665
199.999999583
199.9999995
199.9999995
199.999999445
199.999999445
199.999999445
199.999999383
199.999999315
199.999999239
199.999999154
199.999999154
199.99999906
199.999998955
199.999998955
199.999998839
199.999998839
199.99999871
199.999998567
199.999998567
199.999998408
199.999998231
199.999998231
199.999998035
199.999998035
199.999998035
199.999997816
199.999997816
199.999997573
199.999997573
199.999997304
199.999997304
199.999997004
199.999997004
199.999996671
199.999996671
199.999996671
199.999996302
199.999996302
199.999995891
199.999995434
199.999991408
199.999990454
199.999988215
199.999986905
0.768507493069
0
0
0
0
0
0
0
0
0
0
0
0
0
0
0
0.000586422498541
0.0016110340798
0.00715629688794
0.0301594297899
0.122653929889
0.50623964054
2.09963861941
8.92657810138
42.3737380953
170.994472294
199.928932446
199.994060565
199.440435559
193.030945908
186.956113009
181.298307
175.63286156
169.339635368
168.154646049
163.400933422
154.795390773
151.565757934
147.129435478
142.252647715
137.677326821
133.981219592
128.532274338
125.933014748
114.639384669
199.999999761
199.999999734
199.999999734
199.999999734
199.999999705
199.999999705
199.999999665
199.999999583
199.9999995
199.9999995
199.999999445
199.999999445
199.999999383
199.999999383
199.999999315
199.999999239
199.999999154
199.99999906
199.99999906
199.999998955
199.999998839
199.999998839
199.99999871
199.999998567
199.999998567
199.999998408
199.999998231
199.999998231
199.999998035
199.999998035
199.999997816
199.999997816
199.999997573
199.999997573
199.999997304
199.999997304
199.999997304
199.999997004
199.999997004
199.999996671
199.999996671
199.999996302
199.999996302
199.999995891
199.999995891
199.999995434
199.999991408
199.999990454
199.999988215
199.99998545
8.24390907219e-06
0
0
0
0
0
0
0
0
0
0
0
0
0
0
0
0
0
0
5.6520275979e-05
0.000911299899024
0.00257984581809
0.0115523734924
0.0636335135301
0.254546284787
1.29317352881
5.8707825966
30.7464466103
148.597070127
193.988230842
187.554647283
182.346078741
177.573312779
172.631081355
167.747540353
167.717329853
162.392628655
156.389110924
153.256877172
148.615813353
143.967524253
139.173937241
136.647759953
130.237853642
127.546972262
115.514322362
199.999999761
199.999999734
199.999999734
199.999999734
199.999999705
199.999999705
199.999999665
199.99999955
199.9999995
199.9999995
199.999999445
199.999999445
199.999999383
199.999999315
199.999999239
199.999999154
199.999999154
199.99999906
199.999998955
199.999998955
199.999998839
199.99999871
199.99999871
199.999998567
199.999998408
199.999998231
199.999998231
199.999998035
199.999998035
199.999997816
199.999997816
199.999997573
199.999997573
199.999997304
199.999997304
199.999997004
199.999997004
199.999996671
199.999996671
199.999996671
199.999996302
199.999996302
199.999995891
199.999995891
199.999995434
199.999992268
199.999990454
199.999988215
199.999983833
0
0
0
0
0
0
0
0
0
0
0
0
0
0
0
0
0
0
0
0
0
0
0
0.000566349504456
0.00166730635336
0.00892396007931
0.0444562844944
0.183768595625
0.980558348017
4.69061880765
25.110023046
130.493846513
177.74834821
173.367348992
168.661451147
164.469767461
165.586523526
160.389517934
159.275122094
150.278186645
146.938130417
144.088683781
139.312381127
136.832127774
131.969445374
127.406338994
114.901784204
199.999999761
199.999999734
199.999999734
199.999999734
199.999999705
199.999999705
199.999999665
199.99999955
199.9999995
199.9999995
199.999999445
199.999999445
199.999999383
199.999999315
199.999999239
199.999999154
199.99999906
199.999998955
199.999998955
199.999998839
199.99999871
199.99999871
199.999998567
199.999998408
199.999998231
199.999998231
199.999998035
199.999998035
199.999997816
199.999997816
199.999997573
199.999997304
199.999997304
199.999997304
199.999997004
199.999997004
199.999996671
199.999996671
199.999996302
199.999996302
199.999995891
199.999995891
199.999995434
199.999994927
199.999993737
199.999990454
199.999988215