/*--------------------------------*- C++ -*----------------------------------*\
| =========                 |                                                 |
| \\      /  F ield         | OpenFOAM: The Open Source CFD Toolbox           |
|  \\    /   O peration     | Version:  v1906                                 |
|   \\  /    A nd           | Web:      www.OpenFOAM.com                      |
|    \\/     M anipulation  |                                                 |
\*---------------------------------------------------------------------------*/
FoamFile
{
    version     2.0;
    format      ascii;
    class       volScalarField;
    location    "200";
    object      p;
}
// * * * * * * * * * * * * * * * * * * * * * * * * * * * * * * * * * * * * * //

dimensions      [0 2 -2 0 0 0 0];


internalField   nonuniform List<scalar> 
9216
(
272.254284981
272.33756184
272.514745794
272.77970414
273.132093912
273.570156397
274.091699682
274.694053359
275.374281784
276.12908859
276.955026957
277.848384204
278.805393003
279.82210508
280.894593682
282.018822708
283.190831539
284.406606547
285.662241536
286.953819171
288.277542234
289.629632192
291.006427849
292.404307517
293.81975267
295.249298987
296.689563488
298.13722844
299.589031322
301.041784188
302.492326831
303.937583322
305.374479727
306.800037696
308.211259788
309.605259117
310.979116371
312.330042983
313.65521544
314.951967729
316.217609644
317.449642512
318.645569192
319.803125036
320.920087725
321.994513687
323.024555867
324.008694136
324.945567776
325.834187337
326.67378579
327.463998875
328.204734712
328.896311467
329.539341576
330.134820969
330.68402332
331.188543703
331.650200328
332.071043718
332.453266314
332.799192931
333.111200693
333.391706626
333.643099781
333.867737686
334.067889799
334.245748547
334.403380788
334.542753919
334.665691139
334.773910142
334.868978846
334.952363674
335.025384206
335.08926837
335.145105712
335.193907115
335.23655708
335.273876237
335.306574544
335.335317926
335.360749004
335.38299035
335.401611408
335.41684588
335.429300163
335.439218686
335.446736451
335.452210669
335.456015446
335.458584803
335.460294753
335.461331377
335.461852523
335.4620332
272.17111603
272.254858232
272.430540014
272.6962775
273.050236666
273.490405499
274.014446078
274.619636868
275.302961985
276.061099999
276.890532275
277.787529552
278.748259159
279.768764153
280.845061597
281.973114493
283.148916734
284.368460186
285.627804084
286.923040779
288.250348777
289.605960964
290.986201203
292.387458633
293.806208117
295.238993602
296.682432842
298.133212175
299.588076147
301.04383548
302.497342504
303.945513319
305.385290469
306.813680218
308.227704194
309.624451989
311.001024268
312.354600441
313.682376131
314.981644911
316.249733316
317.484094707
318.682245051
319.841865851
320.960743654
322.036877878
323.068426426
324.053812999
324.991679886
325.880987919
326.720975168
327.511241068
328.251706558
328.94267331
329.584779065
330.179025765
330.726725835
331.229499901
331.689214605
332.107957748
332.487972708
332.831623349
333.141332566
333.419549676
333.668699383
333.891160226
334.089226115
334.265098822
334.420860379
334.558478197
334.679784478
334.786490509
334.880169625
334.962277654
335.034137566
335.096964037
335.151848889
335.199788099
335.241667359
335.278289703
335.310359665
335.338506142
335.363261877
335.385013634
335.403453018
335.418426095
335.430528311
335.440085199
335.447438288
335.452823647
335.45648491
335.458947387
335.460618068
335.461587923
335.462048362
335.462234878
271.993201538
272.080301412
272.257861939
272.526318206
272.883864706
273.328453014
273.85764624
274.468634545
275.158293422
275.923215307
276.759778182
277.664177015
278.63248875
279.660696504
280.744744862
281.880554794
283.064066961
284.291248008
285.558121788
286.86076921
288.195348427
289.558090881
290.945311907
292.353405535
293.778846911
295.218187985
296.668052982
298.125136666
299.58619392
301.048041906
302.507544846
303.961621155
305.407224601
306.841357387
308.261049161
309.663376935
311.045443664
312.404405773
313.737453177
315.041844829
316.31489193
317.554001402
318.75666371
319.920503328
321.043272042
322.122904694
323.157518164
324.145469632
325.085360249
325.976091595
326.816870816
327.607258281
328.347167446
329.036894235
329.677102838
330.268829185
330.813447306
331.31264672
331.768381167
332.182827473
332.558324681
332.897326236
333.202341451
333.475893298
333.72047192
333.93850568
334.132329898
334.3041728
334.4561376
334.590200344
334.708200778
334.811847339
334.902712604
334.982242459
335.051754096
335.11244796
335.165407268
335.21161158
335.251936818
335.287168842
335.318002
335.34504765
335.368832072
335.389760031
335.407406838
335.42166429
335.432918971
335.441804617
335.44885146
335.453975423
335.457355322
335.459688777
335.461216478
335.462082573
335.462540621
335.462771374
271.724710048
271.813853828
271.99440282
272.267184404
272.630360284
273.081803557
273.618952573
274.238860545
274.938253188
275.713579161
276.561071326
277.476794634
278.456701152
279.496668823
280.592545239
281.740174951
282.935430739
284.17423012
285.452555176
286.766460453
288.112083407
289.485646305
290.883459465
292.301919539
293.737507441
295.186784904
296.64638855
298.113026168
299.58346809
301.054544273
302.523134038
303.986165054
305.440602459
306.883450696
308.31174337
309.722549162
311.112963925
312.480121898
313.821191631
315.133393577
316.414001247
317.660365804
318.869923343
320.040226398
321.168957599
322.253967363
323.293293561
324.285203898
325.228220353
326.121163315
326.963177187
327.753769687
328.492830104
329.180652035
329.817932236
330.405765743
330.945618156
331.439291932
331.888875357
332.296688511
332.665219456
332.997064074
333.294864973
333.561260787
333.798840245
334.010108939
334.19746186
334.363167862
334.509357705
334.638021451
334.751005439
334.85001587
334.936619503
335.012250106
335.078211445
335.135685855
335.185738878
335.229329197
335.267314088
335.300459617
335.329445849
335.35487558
335.377315036
335.396892796
335.413183758
335.42624922
335.436487493
335.444641936
335.450948831
335.455557954
335.458742914
335.460865091
335.462210909
335.463004789
335.463445699
335.463664303
271.363064406
271.45441638
271.639025683
271.917763668
272.288688509
272.749537728
273.297576563
273.929666618
274.642330465
275.43181577
276.294159149
277.225244346
278.220856459
279.276727916
280.388578866
281.552149041
282.763224153
284.017654963
285.311371868
286.640394039
288.00083515
289.388905615
290.800912192
292.233255889
293.682427547
295.145003287
296.617637585
298.097057564
299.58005462
301.063478484
302.54422834
304.019247694
305.485515835
306.940044401
308.379870523
309.802056473
311.203686011
312.581868617
313.933740723
315.256476009
316.547292977
317.803472354
319.022371827
320.201450881
321.338292779
322.430636566
323.476405956
324.473747944
325.421067993
326.317073759
327.160813824
327.951720125
328.689640177
329.374862559
330.008124926
330.590606075
331.123898948
331.609967716
332.051090184
332.449791823
332.808770308
333.130823514
333.418778857
333.675435263
333.903514441
334.105625687
334.284240612
334.441679683
334.580105619
334.701524041
334.807786201
334.900593552
334.981502375
335.051929542
335.113158597
335.166347376
335.212535599
335.252653935
335.287532524
335.317910768
335.344445983
335.367724712
335.388311925
335.40604163
335.42056599
335.432103367
335.441117176
335.448289531
335.453909802
335.457967971
335.460699162
335.462521334
335.463715509
335.464418052
335.464810693
335.465009349
270.906041658
271.000046432
271.189848281
271.476267088
271.85719569
272.3301713
272.892224229
273.539959146
274.26963215
275.077226179
275.958524114
276.909174132
277.924748908
279.000794585
280.132872409
281.316590378
282.547628404
283.821755312
285.134841055
286.482863051
287.86190942
289.268178404
290.69797592
292.147710903
293.613889483
295.093108114
296.582045829
298.077456292
299.576159044
301.075031161
302.570998236
304.061026573
305.542114561
307.011286162
308.465584041
309.902065872
311.317800832
312.709870522
314.075370767
315.411419012
316.715163202
317.983797009
319.214576767
320.404845043
321.552055664
322.653805505
323.707867483
324.712230819
325.665142762
326.565158143
327.411189256
328.202559782
328.939051128
329.620939098
330.249009968
330.824553427
331.349331976
331.825528168
332.255676248
332.642579562
332.989219058
333.298662524
333.573981264
333.818182177
334.034155866
334.224640149
334.392197844
334.539207491
334.667863896
334.780185863
334.878024774
334.963072966
335.03687014
335.100810318
335.156149058
335.204012173
335.245404505
335.281220165
335.312252522
335.339205513
335.362704618
335.383326132
335.4014981
335.416852229
335.429281424
335.439091223
335.446888107
335.453082967
335.457772347
335.460983173
335.463279985
335.464782616
335.465730052
335.466385495
335.466737046
335.466917373
270.350901167
270.448148814
270.644397141
270.940381344
271.333767161
271.821822422
272.401267717
273.068374663
273.819057062
274.648961645
275.553551411
276.528181126
277.568161046
278.668810441
279.825498901
281.033678318
282.288904784
283.586853572
284.923327003
286.294257967
287.695708968
289.123868854
290.575046934
292.045666095
293.532254404
295.031436451
296.53992373
298.054505125
299.572036697
301.089431705
302.603650276
304.111689678
305.610574277
307.097346637
308.569059176
310.022767711
311.455526595
312.864386846
314.246397123
315.598608786
316.918084946
318.201914243
319.447229197
320.65122925
321.811208291
322.924586666
323.988947546
325.002079111
325.962022406
326.867128487
327.716121804
328.508171237
329.242957253
329.920727316
330.542322862
331.109175146
331.623267726
332.087069932
332.503454045
332.875592144
333.206837865
333.500611315
333.76029517
333.98915611
334.190290072
334.366586064
334.520707904
334.65509225
334.771959707
334.873333261
334.961056808
335.036806269
335.102098026
335.158295538
335.206618108
335.248150188
335.28385206
335.314570775
335.341051969
335.363952221
335.383852093
335.401304988
335.416535198
335.429147499
335.439311172
335.447335169
335.453729351
335.45865001
335.462233078
335.464749797
335.466571577
335.467754896
335.468422537
335.468941326
335.469223853
335.469364811
269.694278418
269.795464808
269.999574252
270.307225175
270.715789544
271.222183685
271.822729975
272.513274853
273.289301118
274.146035366
275.078546784
276.081832007
277.15088652
278.280760205
279.466599851
280.703678169
281.98741306
283.313377374
284.677302759
286.075077733
287.502742869
288.956482896
290.432617775
291.927592268
293.437965387
294.960399098
296.491647182
298.028543646
299.567991234
301.106949518
302.642423168
304.171450146
305.691089777
307.198411378
308.690483555
310.164364998
311.617096999
313.045698985
314.447167189
315.818477965
317.156595538
318.458485469
319.721133075
320.941567598
322.116890619
323.244309667
324.321175668
325.34502736
326.313642967
327.225105982
328.077883992
328.870925184
329.603756299
330.276569453
330.890265563
331.446454686
331.947404793
332.395955993
332.795421772
333.149457972
333.461906487
333.73664057
333.97743256
334.187864049
334.371272164
334.53071582
334.668963093
334.788498799
334.891551885
334.980132887
335.056065133
335.121000196
335.176423299
335.223659054
335.263880638
335.298121034
335.327284545
335.352159699
335.373431638
335.391695346
335.407467598
335.421231498
335.433096263
335.442779331
335.450475547
335.456546349
335.461309379
335.464912911
335.467474051
335.469334185
335.470516093
335.471340907
335.471803007
335.472050625
335.47224903
335.472332726
268.932081255
269.038014826
269.251599512
269.573301153
270.000112502
270.528499279
271.154275632
271.872752137
272.678873152
273.567348184
274.532767003
275.56969795
276.672765031
277.836707006
279.056417576
280.326971531
281.643637649
283.001882958
284.397369397
285.825946345
287.283639616
288.766639143
290.271285432
291.794056043
293.331551835
294.880483614
296.43765876
297.999968134
299.564372792
301.127890573
302.687582498
304.240539047
305.783865809
307.314669415
308.830043861
310.327057907
311.80274433
313.254091908
314.678041338
316.071485792
317.431277479
318.754240046
320.037188073
321.276951621
322.470407096
323.614510653
324.706336989
325.743121879
326.722315599
327.641653904
328.499255157
329.293749797
330.024429061
330.691387205
331.29558291
331.838855837
332.323838704
332.753843822
333.132757851
333.464872969
333.754672525
334.006611562
334.224940733
334.413612575
334.576237368
334.716058256
334.835940621
334.938392665
335.025617381
335.099581954
335.162072712
335.214709479
335.258939937
335.296040627
335.3271281
335.353171608
335.375007494
335.393352757
335.408819467
335.421928129
335.433121445
335.442803786
335.45102973
335.457547399
335.462612404
335.466604978
335.469629686
335.471840048
335.473384408
335.474450091
335.475115903
335.475460522
335.475657732
335.47564779
335.475742924
335.475760427
268.059377537
268.170999365
268.395930959
268.734429639
269.183002641
269.737537595
270.393204103
271.144638969
271.986119534
272.911722496
273.915461653
274.991398636
276.133727857
277.336835213
278.595335659
279.904091766
281.258219222
282.653081485
284.084278522
285.547630815
287.039162013
288.555080294
290.091760509
291.645726447
293.213634428
294.79225726
296.378469255
297.969231265
299.561576135
301.152593562
302.739414901
304.319197224
305.889106437
307.44630006
308.987909917
310.511025501
312.01267878
313.489831993
314.939369311
316.358094411
317.742734536
319.089952703
320.396367483
321.658580289
322.873207647
324.036916528
325.14646064
326.198718569
327.190740027
328.119815515
328.983587532
329.780223499
330.508651205
331.16879317
331.761664578
332.289409937
332.755128011
333.162724799
333.516823715
333.822566072
334.085292016
334.310204495
334.502131189
334.665438736
334.804037438
334.92136351
335.020362369
335.103517304
335.172939933
335.230503691
335.277937137
335.316830005
335.348591831
335.374440906
335.395423992
335.412433573
335.426223405
335.437425545
335.446564945
335.454074039
335.460306487
335.46556785
335.469869155
335.473103614
335.475557869
335.477408294
335.478629969
335.479359563
335.479771372
335.479979045
335.480124403
335.480096478
335.479912208
335.479685689
335.479623192
335.479581116
267.070257983
267.188680528
267.427158121
267.785667132
268.260086486
268.845562626
269.53644542
270.326527074
271.209259588
272.177951172
273.225928028
274.346661034
275.533854728
276.781504829
278.08392732
279.435767147
280.831990863
282.26786979
283.738956897
285.241061423
286.770222788
288.322685661
289.894876492
291.483382108
293.084930002
294.69637036
296.314659149
297.936842091
299.560038669
301.181425966
302.7982217
304.407666268
306.007003032
307.593457594
309.164216142
310.716403769
312.247063793
313.753139754
315.231461774
316.678739457
318.091563218
319.466415409
320.799692215
322.087733959
323.32686284
324.513419279
325.643796905
326.714467367
327.722007566
328.663150148
329.534885624
330.334706562
331.060940922
331.713250786
332.292680496
332.801826191
333.244391653
333.62497958
333.949165384
334.223244552
334.453734071
334.646819422
334.807984019
334.942024236
335.053158714
335.145032523
335.220647181
335.282371771
335.332110466
335.37155086
335.402346829
335.426090685
335.444164622
335.457714197
335.467699513
335.474919577
335.480029984
335.483562456
335.485940612
335.487494616
335.488473177
335.489068014
335.489298265
335.489201977
335.488965345
335.488555598
335.487959296
335.487297088
335.486641635
335.486009152
335.485457809
335.484994097
335.484535892
335.484077755
335.483810007
335.483711038
265.957660889
266.08421586
266.338866735
266.721201649
267.226284115
267.848303157
268.580564462
269.415798569
270.346439253
271.364863861
272.463585748
273.635394231
274.8734466
276.171317249
277.52301418
278.922970383
280.366019864
281.847363823
283.362533567
284.907352567
286.477901078
288.070483411
289.68159926
291.307918025
292.946256636
294.593559458
296.246880444
297.903366063
299.560238821
301.214780179
302.864312493
304.506178942
306.137721085
307.756254096
309.359040045
310.943260034
312.505986401
314.044157296
315.554555443
317.03379494
318.478317872
319.884404881
321.248199134
322.565744571
323.833031232
325.046040271
326.200776102
327.293272491
328.319582398
329.275751927
330.157914195
330.962508953
331.686887203
332.330293175
332.893743086
333.38064108
333.7954381
334.143473926
334.431516609
334.667492539
334.859632415
335.015422797
335.141034537
335.241590693
335.321614377
335.385020518
335.43484528
335.473199414
335.501549349
335.52122806
335.533822296
335.541037021
335.544272437
335.544560861
335.542746949
335.539520771
335.535418199
335.530855621
335.526141015
335.521490051
335.517035879
335.512890674
335.509000066
335.505532987
335.502524102
335.499828904
335.497496165
335.495494178
335.493799646
335.492323846
335.491098988
335.49007822
335.489303129
335.488665034
335.488177801
335.487993939
264.713145088
264.849454972
265.123464055
265.53422516
266.075730404
266.740925123
267.521776326
268.409678348
269.395807589
270.471419926
271.628074516
272.857786864
274.153115447
275.507195915
276.913734623
278.366975886
279.861653365
281.392935027
282.956367507
284.54782408
286.163458059
287.799662454
289.453035586
291.120352057
292.798538121
294.484650637
296.17585848
297.869425696
299.562694864
301.25307027
302.937999021
304.614949547
306.281386259
307.934740516
309.572377942
311.191563001
312.78942224
314.362908825
315.908771136
317.423530197
318.903469663
320.344644037
321.742907241
323.093961749
324.3934232
325.636881548
326.81994382
327.938218927
328.987220932
329.962257897
330.858280442
331.670180312
332.39345436
333.026855369
333.571098538
334.031363958
334.412993163
334.721725461
334.965807972
335.155604772
335.302005153
335.414337385
335.499237224
335.561786424
335.60680521
335.638681113
335.660551835
335.673992069
335.679580656
335.677960753
335.670707187
335.659998229
335.647338742
335.633517855
335.619215738
335.605004228
335.591270483
335.578303178
335.566278151
335.55528094
335.545298427
335.536358612
335.528439279
335.521693335
335.515951603
335.511150298
335.507126873
335.503772598
335.500976473
335.498649254
335.496769705
335.495260336
335.494091131
335.493246664
335.49256081
335.49229264
263.326591768
263.474663678
263.771956808
264.216774019
264.801687081
265.518009749
266.355983959
267.305315072
268.355628796
269.496834665
270.719384593
272.014430531
273.373896224
274.790481949
276.257623452
277.769422909
279.32056771
280.9062472
282.522075133
284.164020854
285.828351226
287.511582328
289.210440421
290.921829981
292.642807986
294.370562388
296.102394268
297.835701769
299.567964949
301.296729839
303.019590196
304.734164915
306.438070329
308.128886501
309.804117823
311.461148394
313.097193956
314.709253211
316.294062134
317.848057709
319.36735659
320.847758987
322.284780662
323.673722739
325.009764479
326.288072262
327.503869995
328.652416061
329.728837394
330.727697306
331.642579633
332.465902449
333.189490141
333.811848097
334.332189325
334.760600386
335.102989933
335.364173656
335.554144916
335.687175336
335.778718595
335.840895912
335.879874921
335.899623335
335.905299452
335.902514019
335.894742838
335.882529829
335.864635546
335.840238758
335.811145542
335.780987264
335.751565057
335.722959412
335.695606245
335.670014193
335.646363716
335.624811968
335.605390318
335.588049082
335.572629699
335.559032832
335.547200037
335.537322112
335.529041468
335.522199161
335.516573707
335.511867654
335.507993911
335.504832416
335.502296786
335.500301734
335.498778206
335.497683698
335.496853523
335.496492772
261.785808951
261.948170428
262.273664515
262.75953514
263.396445296
264.173549048
265.078848335
266.099908023
267.22444141
268.440753188
269.738027275
271.106477191
272.537382921
274.023047275
275.556701163
277.13238402
278.744818511
280.389292414
282.061554831
283.757729526
285.474245148
287.207780414
288.955221502
290.713629026
292.48021217
294.252308381
296.027366997
297.802935876
299.576648696
301.346212116
303.109389176
304.863977173
306.607777965
308.338559702
310.054009845
311.75167967
313.428922207
315.08282614
316.710150457
318.307267339
319.870122734
321.3942279
322.874695475
324.306330141
325.683780274
327.001719945
328.255023157
329.438800784
330.548108471
331.57723944
332.518327253
333.360291767
334.086452482
334.697170623
335.185289389
335.576205188
335.87371806
336.07736067
336.19936055
336.260736181
336.285699746
336.291262147
336.279971491
336.251736505
336.212618558
336.171656594
336.133467469
336.096496463
336.055699106
336.007015185
335.952943537
335.901440536
335.854907091
335.811129429
335.770260565
335.733082129
335.699367599
335.669193712
335.642428055
335.618882247
335.598229817
335.580352365
335.564960649
335.552060389
335.541433645
335.532663114
335.525474923
335.519527978
335.514655291
335.510720098
335.507556782
335.505087006
335.5032042
335.501858826
335.500940553
335.500481907
260.075999643
260.255890204
260.615850659
261.151608415
261.851227388
262.700971158
263.685914088
264.790898844
266.001286671
267.303486072
268.685258613
270.135836111
271.645893006
273.207424239
274.813571793
276.458435058
278.136888675
279.844421971
281.577006096
283.330989268
285.103017301
286.889974558
288.688940719
290.497158614
292.312010406
294.130999477
295.951737427
297.77193442
299.589391642
301.401993201
303.207694071
305.004499743
306.790435934
308.563505877
310.321635211
312.062604061
313.783967945
315.48296949
317.156446048
318.800742166
320.411638839
321.984321735
323.513406657
324.993059844
326.417216601
327.77991826
329.07568197
330.299751991
331.447903967
332.515285021
333.493630611
334.367892291
335.099808722
335.701054736
336.137059417
336.486331486
336.735254303
336.868488609
336.902240392
336.869443973
336.813703893
336.762330529
336.700920227
336.6173782
336.523130839
336.438664432
336.371033516
336.313790984
336.253596608
336.178666726
336.092986524
336.017313067
335.955090822
335.896308269
335.841332201
335.792649583
335.748851875
335.710167575
335.676253863
335.646798374
335.621290568
335.599440117
335.580977278
335.565462202
335.552673902
335.542232394
335.533629072
335.526549895
335.520776603
335.516112832
335.512378958
335.509473082
335.507258648
335.505688039
335.504669041
335.504133622
258.179035902
258.380687967
258.783242547
259.380221901
260.156097449
261.093222581
262.17281873
263.376261159
264.686031166
266.08632897
267.563368699
269.105418441
270.70266114
272.346950446
274.03152449
275.750721913
277.499728612
279.274368172
281.070938978
282.886094106
284.716756351
286.560059946
288.413310664
290.273958018
292.139575285
294.007845363
295.876551807
297.74357533
299.606893267
301.464580404
303.314804069
305.155808813
306.985886886
308.803331834
310.606375129
312.393104465
314.161365183
315.908644453
317.631943475
319.32764542
320.991395664
322.618020453
324.201521595
325.735199943
327.211965674
328.624880298
329.967919187
331.236768033
332.429112085
333.543647459
334.575404951
335.510416715
336.249504711
336.8553879
337.189232068
337.556640469
337.797971626
337.851600704
337.756390399
337.56999754
337.349952153
337.170450552
337.046555483
336.935557991
336.81392746
336.699132225
336.612595151
336.547329367
336.475264284
336.365054124
336.226956148
336.121424078
336.050568387
335.977473347
335.906456981
335.847113669
335.793291252
335.746352339
335.705640657
335.670745589
335.640990991
335.615719447
335.594565861
335.576936728
335.562390255
335.550530882
335.540745509
335.532660411
335.526089159
335.520821144
335.516591222
335.51329615
335.51081888
335.509042752
335.507914771
335.507331114
256.072451147
256.301511143
256.757404171
257.430394149
258.299905757
259.342945027
260.53563353
261.854930602
263.279821335
264.791991149
266.376052388
268.019434681
269.712061416
271.445922759
273.214631221
275.013015381
276.836781232
278.682250127
280.546169215
282.425582903
284.317750909
286.220098339
288.130185756
290.04568968
291.964388969
293.884154876
295.802947181
297.718817588
299.629920664
301.534527459
303.431033779
305.317953172
307.193890841
309.057494464
310.907382595
312.742049291
314.559744286
316.358325778
318.135087376
319.886565872
321.608345225
323.2948885
324.939448778
326.534145663
328.070324709
329.539357629
330.933987217
332.250203942
333.488929374
334.656771038
335.762846843
336.833012016
337.617510806
338.389492433
338.314521057
337.883992431
337.758033904
337.741250668
337.675847285
337.547020478
337.3906409
337.241272125
337.115778061
337.012191708
336.924717597
336.855577704
336.805751186
336.760485412
336.685132427
336.538073437
336.323367616
336.187618655
336.143007095
336.05645104
335.961798346
335.895275885
335.83108429
335.776198618
335.729257067
335.689538482
335.656287805
335.628442848
335.605311482
335.586093769
335.570216731
335.557249092
335.546496169
335.537618801
335.530424464
335.524648088
335.52004288
335.516445092
335.51375059
335.51183036
335.510606657
335.509989627
253.728007325
253.992179339
254.515911753
255.284547877
256.270309496
257.442813688
258.771405603
260.227439548
261.785718498
263.425165181
265.128877132
266.883747814
268.679851787
270.509749161
272.367827384
274.249741664
276.15198078
278.071555493
280.005792922
281.95221362
283.908466302
285.87229879
287.841546726
289.814127881
291.788036159
293.761335157
295.73215727
297.698715438
299.659329134
301.612459818
303.556739006
305.490976211
307.414138734
309.325300227
311.223561837
313.107944203
314.977248371
316.829874889
318.66359921
320.475301485
322.260662115
324.013854044
325.727282856
327.391499226
328.995476837
330.527572951
331.977601747
333.340466173
334.620410574
335.838027536
337.05077574
338.509563238
338.269710002
338.218176556
338.246690206
338.080437134
337.901394062
337.782203259
337.660319884
337.512717216
337.355318483
337.20707243
337.080559154
336.976060685
336.886861138
336.810771933
336.744436052
336.678941369
336.604396264
336.525291698
336.463618909
336.421568096
336.340828765
336.154784004
335.985612486
335.933842381
335.860281142
335.797817325
335.745749627
335.701802623
335.666431201
335.637024325
335.612800004
335.592646586
335.575933079
335.562205271
335.5507574
335.541290563
335.53366697
335.527528169
335.522647164
335.518851926
335.516001274
335.513979971
335.512687597
335.512057195
251.109618261
251.419694505
252.031268067
252.922099694
254.053950268
255.386143208
256.8790083
258.496846957
260.209578812
261.993275905
263.8298612
265.7062783
267.613425106
269.54507849
271.496954725
273.465970258
275.449711183
277.446087687
279.453134693
281.468918082
283.491508254
285.518989271
287.549478775
289.581141845
291.612192913
293.640887662
295.665519521
297.684436972
299.696092929
301.699113165
303.692358483
305.674955106
307.646283099
309.605921654
311.553562431
313.488893992
315.411449139
317.320396118
319.214259544
321.090560403
322.945374936
324.772817634
326.564499573
328.309064891
329.992072344
331.596729688
333.106314957
334.509541485
335.805978327
337.017182124
338.226515384
338.403986197
338.455724219
338.313579908
338.209904101
338.0400036
337.857372824
337.706613338
337.56344833
337.41322117
337.263202973
337.126119911
337.009019755
336.910080509
336.825214952
336.751366516
336.684370554
336.617995626
336.546946054
336.473365564
336.407050915
336.350670801
336.294579495
336.240640272
336.184124005
336.06956903
335.882667569
335.80225463
335.753299398
335.705635943
335.671077562
335.641152093
335.616849174
335.59644437
335.579392791
335.565219842
335.55332356
335.543585709
335.535724626
335.529381817
335.52436035
335.520466013
335.517532461
335.51545772
335.514138577
335.51350255
248.170257783
248.541795696
249.26949293
250.31909417
251.636942167
253.167937722
254.860464532
256.670090252
258.561263361
260.507448775
262.490169438
264.497442634
266.522037415
268.559874324
270.608735661
272.667333892
274.734705378
276.809866945
278.891662315
280.978735377
283.069573714
285.162581075
287.256144089
289.348673147
291.438608632
293.524399323
295.604480498
297.677289441
299.741348309
301.795390666
303.838477145
305.870062524
307.88999266
309.898438476
311.895799052
313.88258655
315.859277073
317.826086772
319.782649617
321.727568345
323.657815925
325.567976083
327.449268837
329.288457424
331.066807351
332.759794997
334.338956345
335.782370089
337.089719596
338.322005709
338.410127592
338.439312267
338.400347312
338.260019769
338.107406741
337.923062637
337.733001334
337.561518824
337.403196959
337.25174482
337.110355521
336.986037043
336.880632383
336.790973651
336.714595072
336.648520191
336.588762281
336.530722076
336.470876784
336.409269191
336.349573559
336.293236499
336.235640948
336.17709951
336.123054348
336.073385494
336.024726867
335.934498025
335.768784752
335.691246801
335.670095169
335.640239299
335.6175754
335.597425901
335.580338077
335.566198123
335.554194581
335.544381082
335.536459946
335.530122985
335.525118469
335.52124643
335.518327862
335.516251824
335.514940873
335.514313229
244.847178818
245.303460762
246.188341851
247.448068396
249.005944334
250.786672239
252.722983791
254.759935957
256.856279083
258.983736175
261.124913545
263.27058504
265.416959228
267.563380382
269.710634212
271.859847177
274.011863458
276.166972074
278.324863579
280.484724089
282.645392857
284.805530011
286.963752145
289.118707402
291.26907823
293.41352261
295.550597328
297.678749457
299.796455001
301.902445327
303.995917898
306.076657628
308.145036543
310.201912659
312.248509375
314.286319428
316.316988841
318.342111105
320.362882237
322.379583149
324.390863847
326.392713674
328.377026699
330.329572951
332.227320915
334.034973676
335.704211484
337.20586982
338.586651689
338.612732368
338.522620782
338.437346049
338.312091142
338.133803707
337.937681595
337.729798864
337.525860961
337.340251122
337.174125317
337.025289832
336.894953616
336.785140407
336.693558285
336.616472534
336.552007826
336.497458237
336.449286768
336.40393176
336.358835615
336.313353912
336.268312932
336.223336249
336.175227562
336.123090641
336.070281105
336.016977207
335.966463917
335.91922161
335.879636239
335.814395115
335.69159623