/*--------------------------------*- C++ -*----------------------------------*\
| =========                 |                                                 |
| \\      /  F ield         | OpenFOAM: The Open Source CFD Toolbox           |
|  \\    /   O peration     | Version:  v1906                                 |
|   \\  /    A nd           | Web:      www.OpenFOAM.com                      |
|    \\/     M anipulation  |                                                 |
\*---------------------------------------------------------------------------*/
FoamFile
{
    version     2.0;
    format      ascii;
    class       volScalarField;
    location    "200";
    object      p;
}
// * * * * * * * * * * * * * * * * * * * * * * * * * * * * * * * * * * * * * //

dimensions      [0 2 -2 0 0 0 0];


internalField   nonuniform List<scalar> 
24444
(
19.1671784442
-3.34726729642
-5.78346776425
-2.16107440212
-2.25453608598
-5.67015276209
-8.89216244459
23.3072099068
-15.1445907845
-30.3339787078
-6.4344443796
9.60255016758
9.5909797534
-4.09973272798
0.225460105118
16.9556023348
-12.4264715883
-6.8941606166
-0.389484761256
-0.929407792582
-15.1088473415
24.20583768
25.5906869969
-3.57017621757
-3.59907095446
-14.692426263
-14.561381172
2.77217226035
2.55928373944
-5.05173046958
-21.5668122773
-12.858909227
-5.64444524315
-24.7651703935
-12.2526297222
-5.05384272123
-2.94146609698
-3.18277045674
-17.7379552242
8.24257865041
-17.6033144885
8.508049159
-6.51327579353
-6.49790091685
-21.3935259293
-3.0276992367
-2.09915114961
-8.08573264438
-9.99665353039
-6.66001346067
6.99739866767
-0.954673051006
-6.62784061471
0.139950351127
-5.86163888535
-3.6923510795
-1.92672179076
-11.4467160424
-25.0765069542
-5.13764867338
-5.09558989653
-5.1105581452
-6.22508374284
-6.3291099195
-4.80082576456
-6.33111940939
-4.51456779424
-6.77652532113
-2.99215731155
-7.07818612511
-7.08313654388
6.76483878098
-20.3028944408
-2.84431686497
-6.66659430918
-4.14877407746
-9.31825524455
-6.34332886171
2.2696880212
-6.04418451591
-7.13350799943
-33.1576633695
-8.13092683172
-5.5876752692
-0.0773985454381
3.59940779141
22.8025923735
-3.44435370665
-15.4706112769
-3.48074994865
-4.06540878902
0.280038044581
18.4780024053
-12.5496792405
-1.09454252835
-5.09488070773
-11.5683942452
-0.11395771818
-3.87811639862
-4.97664450685
-3.52698897176
-2.25819061893
-2.26382779118
-9.27595297319
-7.98008074775
-18.6116052086
-18.6869711428
-6.50701166588
-6.5018360197
-3.45556895909
-5.77133372457
-3.1774470935
4.63569867869
-3.71285992199
-5.11212081038
-12.1881740479
-0.103242222269
-28.4554303587
-28.1731756356
-2.41394003274
-2.42200991146
-6.92995567773
-6.92688453235
-6.305275675
-6.30316359687
-6.53835642688
-19.0178192159
-2.12885041308
-6.89071769849
-11.4551667275
-3.01469296883
-6.9455105693
-7.34794162275
6.40376039476
6.29409906215
-14.648709027
-14.4405391339
-10.0085026188
-6.71766312682
-2.7735951033
16.5011716113
-3.47893246682
-15.0739323384
4.33406777297
-7.0526510232
-3.9012303727
-7.30451407983
-8.31478804776
-0.275720072292
-4.54904874497
-5.12011903437
-3.48487221322
-2.50039129499
-7.46291735998
-0.842176793113
-8.85821410113
-8.82853042169
-2.86844199192
-2.94718805912
0.452176805686
0.671778994147
-5.93921924908
-7.08974763975
-0.486035226282
-4.6169458797
-8.35784530034
-10.3103739136
-7.7139302556
-7.50763137575
-6.39543733171
-10.2498247199
-7.46691057859
-7.34917825482
-20.1926456949
-20.0723252886
5.9220995922
6.13783773611
-6.71732045921
-6.69867004292
-2.80888920961
-2.78489980677
-20.0973198255
-6.64253567938
0.558611287931
-4.19881632487
-2.73751983691
-6.63312004443
-6.63978243048
0.247478972674
-8.91937389237
-8.88981814326
-6.70729362568
-2.78590959164
-0.770163255393
-6.13562229035
-6.05355804417
-3.36812328936
-3.91829304004
-4.70622689273
-2.21636122027
-6.21835369455
-1.43404490935
-4.50205900452
27.5660275943
-14.5408476666
2.51829228694
2.71935062764
-12.1794402655
-12.2471948541
-2.64682755756
-1.01572749019
-7.23325788374
-7.69120862927
-8.86661895297
-4.68976703525
-5.79881631889
2.12361939128
-8.42800828414
23.3096648906
-15.2363412165
-27.2356402146
-7.09742689363
5.6015329821
-4.80379210439
-6.6492985245
-6.65346002258
2.99471138372
-4.81811540933
4.63997596426
4.41200621403
-13.5048302427
-13.290493581
1.34951007492
1.48990924444
-2.87610147905
-21.8073712802
8.25378527989
-5.74316291247
-4.13489295607
-5.08127452503
-22.6636704324
-6.33428349119
-3.14805804525
-17.5826159324
-6.67046299106
-9.35471905317
-3.47892961332
-6.7945063961
-3.41451455603
4.21363045972
-3.52071674794
-8.93470865826
-6.21930230001
-5.23711655833
-3.8873778947
-6.68449227389
-6.68657667122
-9.17622923977
-6.62973710737
-6.26118970955
-11.0076695575
3.14510025039
12.611549914
-3.5552144733
-14.5029396407
-9.02975699052
-1.05328564965
-5.80961609736
-6.63954699573
-6.41827483615
-6.78192694926
-2.64928097122
6.66213070208
-20.5362192668
-2.8284845838
-6.6777252233
-2.46560414001
-20.1355258818
-6.80786570385
-6.66490443929
-23.5976469193
-23.6752273512
-14.320324
-6.59592472724
-20.7458789953
-2.92312610504
9.16082412669
2.88316966918
-6.55980474311
-7.00796962016
-7.10224595665
-19.4059574487
-18.9027811226
9.06016853024
-6.39783931156
-2.30446181535
-5.90000471552
-1.72228547154
-1.79650314858
-3.63438250438
-3.5588836692
-14.568350853
-24.36710918
-23.1207954129
-9.33118989409
-7.48254173176
-7.50342066959
-10.3979590441
-7.30082049261
-8.47188899804
-20.0586013623
-2.84730831409
-1.51463439749
-11.277666409
-9.07982780365
-5.97889488523
3.48207739415
2.04927238513
-8.67149971535
-2.09413590823
-0.679405344031
17.0130242104
-3.46779644139
-15.1648063669
-4.01278023292
-6.05620626182
-4.54987803004
-3.22702270647
-3.23657953029
-0.669883990878
-0.813889213553
-2.60065136319
-5.96674760958
-8.44219719389
-19.2709185903
-19.1648670323
6.84788103142
7.02077628797
-6.62508327231
-6.62912859173
-5.836172003
-9.24221623295
-17.0125796564
-4.50518980547
-6.127972121
-3.94477289715
-3.92309612918
-5.31182357682
-6.78459107739
-6.78310115332
-3.0075549863
-4.71940454607
-16.9532298224
-6.97195608721
-2.64298373077
-8.21327692795
-0.35206699459
-26.0902262208
-6.84375574821
-6.20783737415
-12.7587109884
-12.5458793352
-1.83316076416
0.97251272104
-3.95885443283
0.856730894597
-3.92694130492
-6.03123520068
-6.35480656479
-2.52384994873
-2.48179897493
-6.10728755807
-6.79656869667
-3.22250606124
-4.20713845641
-5.47249051561
-6.39076790617
-1.03453335829
-1.09471563435
-4.40592438563
-4.39860214952
-2.90164335438
6.19874135166
14.2121960694
-7.92814536568
10.4652770099
-13.8319289642
-6.46674005622
-6.47692602037
-4.17194512339
-7.62150952896
-3.58834562523
-5.33020115867
-2.07191062433
-2.20679791541
-20.0938179902
-1.24449255294
-25.5531172927
-6.98247147535
-3.55567104533
-14.5998623421
-3.22369566293
-3.26281219945
6.56019371603
-4.36655587185
-14.0645221723
-5.13514131432
-5.25532819883
-5.22151830721
-2.89064020662
-2.86967424983
-1.56473132558
-27.2385328064
-8.37612237752
-8.35423459604
-6.56411169933
-5.66372444573
-4.67597111361
3.68816470075
-15.343812505
-4.87698465132
-3.13813494981
-13.4695482067
-19.8487005428
-8.54329847013
-8.54637460153
-19.4600652153
-9.11174692784
-6.67969670885
-10.2218249941
-4.89637248768
-10.7656233376
-20.0175036627
-2.54430115588
-2.07955557179
-4.12403162291
-14.0290502154
-13.8289593081
6.08671908679
14.4351183984
10.818773595
-3.03568749031
-8.86337639203
-4.41370041483
-4.37142028009
-2.3579339967
7.18009469635
-17.6498057914
-6.54417828904
3.26199252887
-8.73381782087
-3.78536643639
-0.595548787505
-3.62208327161
-3.65218710677
33.8734616209
32.030343082
2.23087842922
2.00567373421
-14.3373598958
-14.4833180912
-2.95498542926
-0.402101330856
-7.69779684203
3.53167190044
3.95653876697
-12.8815177935
-7.0440228807
-4.93444794837
-8.63636502109
3.15102905538
-17.9602117865
-18.5830329149
-6.30509881568
-0.762821003724
-6.61998120912
-2.88959964208
-21.583447943
8.48230002792
-3.38595589136
-4.57112227374
-5.61092536022
-7.77294064018
-7.84518831795
-2.94236901042
-25.269343027
-6.92235064897
-6.99848854984
-7.35928045373
-7.29465419699
-6.41083080054
0.593293738381
-6.43707592387
-1.27866319047
-1.32355995784
-5.26956358475
-5.31161854059
-11.5051369529
-4.67251102866
-9.19563196853
-3.17420894069
4.8632078772
-8.33944507014
-6.43776504774
-7.57163085491
-3.3247820768
-14.4658682674
-5.14451387064
-3.44377667896
-13.3870571578
-6.51206800714
-8.2443151265
-23.5854896202
6.95427955717
-23.4220512459
7.08648394629
-2.76537690555
-2.77827515502
5.76259470173
5.99645286103
-18.4854287145
-18.4336356639
-6.66350367437
-6.64359850737
-1.29129552558
-5.16273781997
-7.13408347429
-5.84364445898
-1.93043093376
-4.96257739655
1.31279205307
-11.5821360745
4.72854485931
-3.76518304289
-9.63285062011
-2.88289331305
-21.6738699945
8.35939735287
-5.11421342244
-6.4310938099
-4.40033430608
-8.7287173205
-3.3256954617
-5.89268077599
-3.6144635477
-9.19149489474
-29.5537972265
-6.97609842088
-2.32702251691
-6.26589121785
6.51319973064
-24.4598296285
-6.74386312119
-2.70957180265
-1.44638923009
-1.39770408107
-25.5011644141
-1.80530261925
-5.25472426165
-6.50931515644
-9.74492342401
-6.57989406201
-8.56663737918
-5.37457616719
-8.60063604771
-5.36370883514
6.72921947343
-15.7444949576
-30.208252537
-6.9989109325
-2.27843538733
-6.24717182382
-5.99279468692
-4.36355244492
0.484788124919
0.416422069303
-1.21853604437
-6.61979014917
-6.99245321185
-6.96156717314
-25.0005540015
-8.41468116839
-5.45932342546
-0.0539988635636
-17.7751489187
-5.36007730284
-3.01724038589
-7.00313638703
-6.98170835755
13.0802659695
-14.4213708587
1.04953486875
-1.54664081397
-6.44496524494
-2.6324469512
-7.64656688424
-1.40448362206
-4.21551731379
12.3424310883
-12.7629346614
-4.82206644536
-4.64213860849
-3.70896017051
-13.1632289332
-12.8306367163
-1.59347343993
-5.74127655687
-17.572783353
-7.8102372761
-7.75918309209
11.8042167327
-16.2504665071
-3.2664529638
-7.71598271998
-7.59734070387
-9.91645120373
-4.04937905493
-3.58723347081
-3.46723314397
15.9944706501
-15.1218254745
-5.54330256249
-8.33840436384
-6.29456680258
4.03101673982
3.80927102169
-9.22409375884
-8.73725899774
-8.54254301283
-0.026516841003
-2.93999472599
-4.23527456666
-8.86054744151
21.2330586528
20.2843643229
-10.5615326278
-9.77053540255
-3.20988693949
0.11758469737
-3.44629417603
-2.51898712435
-2.48454700406
-3.40692903096
11.1500909107
10.5303065878
-13.6750950631
-13.6812971911
-8.08971228479
-3.26150286941
6.92629565369
-15.9278600325
-3.02590498011
-6.97334204137
-26.1245058209
-6.91669152907
-3.11299072648
-4.84982808636
-20.3477183896
-9.17661004526
-2.85084296008
-7.09546185277
3.11527422043
-3.38475451634
-0.157440035575
-0.154576386805
-9.86169415042
-9.93559689474
-4.8498554011
-4.87444730687
20.4974553331
-3.48601308408
-9.56293348592
-4.2477724747
-7.65885100916
5.6120441679
-8.35088228116
3.95694060229
5.94693027049
-15.2801698139
-0.666199589634
-1.95578136689
-3.22049997203
-4.86771115098
-2.4784053867
-17.9127471033
-4.61480420943
-9.61967611274
-10.1692780443
-6.70435759299
-7.01748085824
-2.11091367661
16.8464967352
-6.60368262561
-21.0719484916
8.93184820734
-11.8247521384
-4.88956096253
-0.634629280397
-6.70521845694
-2.71448461787
-17.9702288565
-2.6996982743
11.5925232783
-15.3665124159
-3.38570203491
-6.53040516392
-18.8950638038
0.431403761236
-4.1953853374
0.486090971816
-4.14722148255
-1.08056623897
-24.9082209693
-7.02931697337
-5.01483966404
-5.06345612139
-6.60061367163
-20.9630113156
9.02968322304
3.73649648102
-10.8673385136
-5.47560241181
-26.1231337848
-6.83748357535
-10.7659760254
-5.82318986974
13.3464624987
14.0074675967
-15.216846078
-15.1798176852
-9.24271469538
-4.66183072048
-27.9840735486
-27.9814499036
-7.13331726093
-7.17299176167
17.075960076
-5.77780107864
-9.56924352237
-0.997069162053
-1.07354655697
-4.65544664582
-4.6780168812
-5.3333228814
-1.47649294687
-6.00387558504
5.3922139752
-9.7186225921
11.2203116756
-15.3247738782
-3.38623166537
2.3383336086
-2.87840512896
-4.6023758095
-5.36748369723
-3.82743794793
-27.343652319
-5.81845844576
-14.7817656301
-12.9402242918
-21.3142533053
-3.23046834056
-1.80964115758
-23.4302177672
6.98072385195
-2.7702442408
1.91894069963
4.86860784815
-3.86332005879
-4.81340279875
-6.85775337899
-0.034755854847
3.09987778886
0.301060813029
2.98820345385
0.00242774045811
1.25133895428
-3.28093042268
-2.01757085871
-6.44750652159
-9.19947018298
-4.50300007723
2.17267179587
-18.5037191712
11.7723578877
-16.6999366312
-3.21584561696
-4.86673399164
-20.6216790324
-18.0670227209
6.92864875403
-6.57693275283
-8.48284302431
-5.05359862077
-5.03499596301
-6.01426121373
-5.5165441088
-6.03866533606
-4.23048710802
-4.0666859528
-5.7701757498
-5.81132412818
-3.44458088887
-16.3182283318
-2.65748299472
-3.49719009909
-10.9879935275
-2.00582769295
-6.67591928894
-6.72211878847
-24.8921329332
-24.6847237658
-0.289270717111
-2.93287189768
-5.80252955568
-5.83172766488
11.8468069243
-4.24091148938
14.2122932723
-3.27238861659
-16.4143728996
-10.2060990384
-10.0663457796
0.090230780931
0.0606590529054
-6.61355164186
-6.61910190759
-4.64361033431
-4.12517789861
-26.144614271
-4.36702788726
-5.581828985
0.99256450582
-6.74173036254
-8.79407126107
2.68967455155
-6.16089114328
-2.31312344879
-11.6340517984
-20.1627823536
-3.30339204776
-7.21492815168
-4.7675963895
-3.4580661955
-3.59269777966
-1.36398246023
-4.98532004657
-6.59600428512
-6.60203201046
-3.2132321187
-6.53796082322
-6.50895336749
-7.59520602332
6.74621133028
7.11284215877
-14.8703523761
-14.8373033714
-4.17027239581
5.74235635359
5.82237460509
-6.61989894427
-2.88983616796
-21.5574430358
8.48310677359
-6.19201679572
0.475228545297
0.360234972572
-4.28484506641
-4.24183466976
-12.7224314952
-4.68482488021
-2.68840909446
-12.5507519436
-5.78726209593
-8.47120580777
-7.29622663229
-2.49034101183
-5.50336977464
-7.26635672726
-5.35245206024
-3.97548368923
-5.44280691382
-1.30189757122
-18.4830779733
-18.3629434383
-6.50569499573
-6.49660270461
-13.142289447
-12.3865401565
-14.211606447
1.53996977836
1.66661383093
19.7774690761
-15.5012049409
5.51528268902
-26.3424809229
-19.2243603161
-18.543395383
8.4975226415
-12.9263428723
2.27041155199
-28.5124394486
-29.1971313451
14.4669845541
-15.2720292554
-3.42676657457
-6.77928986074
4.17253840259
-8.47973651224
-5.88479528066
-22.5441046756
7.5740944895
-16.871648194
-3.17371730132
-6.99123452101
-3.70014377227
-6.5327438403
-7.40115672401
-9.66865977899
-0.186535075396
-4.69760455963
-6.63449443287
2.81400607706
-5.48895969029
-7.77500128279
14.506048771
-3.29374772396
-16.2661607343
-4.3959415474
-2.58569539344
-2.66856659283
-18.9173509631
-0.864488748875
-15.8438991387
-9.16767692803
-8.10228685052
5.53431521587
-19.1334391886
2.72432647709
11.2753664468
-3.00597543569
-11.0482695465
-3.49317037397
-4.85022845332
-6.44223297996
-11.1227039717
-4.20548585202
1.91790302838
1.71182869638
2.51450633948
-0.029928885372
-10.7569829469
-9.37807067176
-5.0777382066
-2.58249066664
-5.31564208129
-11.7119845457
-5.36324115335
-11.9397830178
8.84212511259
-6.38841198773
-3.09031342224
27.7068231691
-14.653477196
-19.3948177836
2.14944020391
5.04102936978
5.03928176836
-12.8099435795
-12.7175286239
-0.499897703998
-4.63950438064
-5.23485384498
-3.60035788147
-0.764447828286
-5.01930345632
-0.0547252057793
-11.6760601958
-10.3811108632
28.4890303453
-3.54636671981
2.79932430936
-14.8904562372
2.85347778429
-5.03838011422
-0.0687370124855
3.63101403623
3.59170024137
-2.28082904471
-11.2042567609
-11.0467980441
-18.2810403212
-5.06732622979
-0.344217040468
-4.56734596883
-5.47094813909
-13.0912647222
-8.54517425387
-5.31511412542
-5.77565561059
-5.81924690841
-5.92111333175
-3.53368175116
-3.57149825161
30.0234363425
2.60074613628
-14.7551782869
-6.75744838458
-5.05229047358
-5.54647508124
-2.74498170926
-6.35637751114
-1.80001597527
-6.57502671491
-3.23188104826
-3.33618468777
-6.26887561518
-3.42119724397
-0.205736366575
-3.55536647622
-8.9690905161
-0.31034870562
-7.32329377196
-7.23973965062
-15.4966797355
-4.00489627873
-3.3567156118
-27.6607626082
4.95703392516
-20.3165938624
7.81364825686
-2.89124853544
-6.3863413098
-4.43936254585
-6.16682953135
-12.883276169
-2.76524827949
-5.78805725624
-2.91789941396
-4.29839380422
-7.93435134182
-5.67541588867
-2.26748008415
-8.19849399269
-21.0252598868
8.41152362101
-2.89520226867
-1.29527712919
-1.34094320989
-1.37288788077
-5.25782158723
-5.24259768202
-5.27975806628
10.4820958036
-3.00530105657
-16.0893793603
-6.40061966057
-3.1189086909
-19.1831628526
11.231379787
-3.00278882173
-9.1407599599
5.45725014006
-6.09793739669
-8.69567732284
-0.342665521
-2.57086105168
-7.09303368715
3.77772442044
-3.84952552057
-6.45944996927
-3.17700702224
-9.76655126973
-3.55082509793
-6.07603967152
-0.470317194637
-7.74869456486
-5.77920927365
0.705305144296
-2.96123582651
-0.870999986869
-1.23206856506
-4.19282291164
-4.24526372729
0.378119715074
-9.23880672579
2.21133154693
-11.5504449454
-11.3845757788
1.51785347263
-3.90604488137
-5.76979694038
5.55255041531
5.80898971007
-16.0168302466
-16.0209694568
-14.3904766058
-7.19659359852
-6.01488247203
-23.8150553653
-7.47410101079
7.64974003689
-15.4287063344
-2.69305831461
0.970429984552
-4.03397108963
-7.54956881218
9.63843557052
-15.9066602865
-6.33721664386
-3.66354323824
11.6905792264
-6.33223605624
-18.8107712258
-9.03742704887
-9.11638404151
-5.16945835905
-5.14340201588
1.12348507307
-6.51154070262
-6.49597169224
-6.75107305533
-11.3464362361
-9.35075570764
-0.0776742663511
-5.08512885841
4.00400062443
-5.44238438564
-9.33536620088
-23.35445346
-11.8864340743
-6.81961822504
-4.74283266908
-0.233803656821
-6.40323856944
-9.00076739189
-9.29457478811
-9.23347820136
-23.6570536677
1.12450312269
-15.8542872165
-0.241307053196
-7.25825180973
-6.34176776785
-12.0575230274
-7.09127431837
-7.37268706058
9.45294713023
-8.97294255794
-8.87120815675
-3.72339397251
-9.47334610175
3.00806764322
-6.79874218825
-9.49070533582
-2.4871506123
0.544972259025
7.96971270076
-12.8472665929
-2.45063099057
-2.61145820259
-7.69313033182
-6.15607819061
18.5146138564
-3.55718181024
-14.6936395531
-2.98330795431
10.6780061301
-3.01489361282
-17.6403104894
8.82129616912
-6.49211352423
-4.25648936093
-4.5688068388
-5.88399021231
-6.51783072492
-9.3601075537
-24.5674388063
6.40738249563
-6.75330424263
-2.6958498073
-8.86805179115
16.6763910777
-3.53040835328
-14.7810805465
-8.93428828951
-5.21122196787
-2.93308103211
-1.2972953931
12.4230895024
-2.09080246704
14.3799931322
-15.4711858681
-3.3970417041
-16.2827708353
-16.0679541756
-9.04944942841
-7.11562048024
-19.3570024328
-6.63004249885
-7.22380826182
-5.9385350189
-2.78641050286
-17.2946605126
7.20248366517
-13.4924491992
-3.78840521612
-3.78034667224
12.72291437
-3.2453086803
-16.5278134768
-1.60252861694
-2.10462501702
17.1568119708
18.3190635274
-22.9862975016
-3.7974849929
-5.25422975486
-5.20964228166
-3.81298395537
0.17011318011
-8.05980699943
-5.62439784374
0.221039548709
-8.15960615658
-8.03965052897
-7.97064437841
-2.64649029014
-2.59214301215
-4.21656168929
-9.53891359932
-7.40867151513
-9.92016449226
-4.53641431651
-22.3206801882
-4.6619764662
-1.95974023145
-17.4979173473
-23.4560640176
-7.51659943196
-8.04057455471
-0.649670956137
2.40978701032
2.42761752224
-1.18328127436
-6.9999045708
-0.95133935799
-1.97685556539
-10.651471711
-3.35069833787
-2.70361098355
-2.67536694179
-6.21823417063
-10.0949035589
10.1416908593
9.22494722323
-11.9956740851
-11.8660497231
-3.93049386142
-6.16601880541
2.85891248575
-2.56589912539
-0.218475410684
-10.6702386748
-18.1005766774
6.71368776111
-6.58917251556
-1.88823029294
-1.88487433875
9.88545877089
5.16372827197
-3.53073117386
-5.25250210414
-3.62569589808
-5.69439761822
-0.851559193467
-0.746822404812
-4.365611616
-4.33317024371
-2.75889266234
-2.75472056418
-8.15394729286
-6.38229908196
-0.776752023564
-25.9003786586
-6.77942310559
-9.36515440928
-8.09722707646
11.2450123983
-3.3289512727
8.93030947528
-6.41748700469
-0.674691936076
17.396871905
-6.15232721708
-4.82400630299
4.24432714274
-3.23103350394
-1.8119054025
-3.14229440771
-3.4013696137
-3.3799050507
-6.81509360202
-1.412678854
-1.50691301979
-7.7156216013
-9.3190961691
-5.47613339945
-3.19645072939
-5.17746137972
-5.13793501024
-6.806471989
0.880456886132
0.806969990287
3.77466454295
-5.05455317059
-11.7156393128
-3.7314465342
-5.34206367062
-5.63339953177
-5.67754121256
-3.64882820805
-3.65868152779
-19.6831701274
-4.50206555371
7.67704406447
-22.4420078732
-9.54736803908
-6.37140835936
7.20010088362
-1.94456453487
-4.42610648712
-0.642322544092
-7.17581226899
-6.92101373899
-6.93136137415
-4.69331682727
-2.95008097711
9.92608171225
-6.14518637779
-4.59890515653
-10.9267725818
-24.1040252234
6.7111137603
-6.72695712939
-2.73568030552
-14.8490454017
-5.91085445471
-5.11696284627
-9.46561857127
-5.80293020471
-15.3656670562
-3.32595806478
-3.57804658166
-4.47787548697
-4.44467075731
-1.31041134906
-7.69997338647
-3.02451529242
-7.19334984654
-10.1311059862
-9.28018283091
-3.83382387513
-6.49608990715
-1.4016643373
-7.22209622999
-3.51356325537
-21.8189515659
8.16087007379
-2.87147028159
19.3849366096
-15.643740298
-5.88373385929
-6.8717683521
-7.19460422509
-7.19900269147
-3.18422123939
-6.58797723964
-20.5359195519
9.53278607066
-3.05698364884
-3.04556671142
4.833174955
22.8408233462
-15.41544791
-29.9987016537
-5.17620470156
-2.98936723095
-3.50963716193
2.29898086739
-5.98600225993
-3.39991332089
-6.5584523326
-8.80399025291
0.887401950278
-7.17712134083
2.9989493549
-31.3491651934
-0.256526352248
-3.50287528273
-12.8664175595
-9.84083360477
-7.95297917523
-5.67128529594
-7.86424090748
-7.81466233679
-4.94877802818
-3.5276868999
-6.59769020092
-5.57116400776
-1.54856909608
-1.57984652489
-11.9088837025
-5.78202929375
-4.38661393098
-4.45930588307
-6.82516192313
-5.98498765196
-2.35479763747
1.86027962044
-2.43125923403
-2.63816709163
-6.40653514108
-6.74263548353
-13.6702461827
-6.76928119058
-2.66924919483
-3.13569961688
-6.42940711519
-17.7047706614
-6.60709942472
-7.3556861512
3.9401582266
9.5091200601
-16.0828328602
-25.9410156278
-6.80264946884
-2.61657815174
-6.40114942198
2.65454232333
-6.35373505979
-4.38927336034
-2.59115796327
0.102049631776
-28.1212291119
-0.93415065325
21.7455123045
-1.04383213768
-1.91109072021
16.9175311178
-3.51060898424
-14.9005084817
-6.70617559601
-18.3954665915
-4.49353726205
-9.26563672296
-13.0697960284
-6.00660954349
-6.14329994395
10.9990657557
-13.4955602714
-4.88194101304
-0.503659771588
-3.37523492797
12.5781825921
-16.3572505167
-3.26356204854
-7.34134341575
-6.71347174382
-6.38281302692
-4.01015619771
-4.9549355655
-4.94930510291
9.58323157253
-13.0765829992
4.36901611219
-4.46218542589
-4.12059678785
-4.11914844818
0.290946487122
0.312225877789
-4.30413751983
-4.2850772107
-0.705045443828
-17.7631032747
-6.45353226856
-6.00981635109
3.24002641894
-5.67229599776
-6.89139159952
-6.8585344341
3.70621674078
8.67140370766
-2.90608970362
-1.58549462461
11.6968657407
3.72770105178
-12.7072312324
-6.37849650187
-6.3693409552
-3.53147726267
-3.00796945796
-5.09159647418
-3.68292126328
-1.31765273017
-6.46942512246
-6.49663743837
-7.08504833512
-7.11997650333
-4.13130765199
-4.16418344628
-6.75869391124
-3.3795267003
-21.1316015543
-21.358989875
8.23350715527
8.08419768438
-2.88614180744
-2.87507852846
-4.47475627125
-2.93549028846
-9.54813940406
-4.838436019
-14.1403114556
-6.98583683459
0.0870191355139
-1.81252627885
-0.698484555226
5.79710387098
-13.1027363286
-6.17642600096
-2.03598621178
-11.6648539942
-0.575371964654
-3.209030925
-16.197650044
-6.26794304571
-6.28225279892
-7.83872706414
-2.68649009344
-2.65746834636
-4.97086220852
12.836061199
-16.2058324637
-3.28592913497
1.81662377656
1.9634489133
6.58614805339
-8.11816546022
3.04286868025
-8.09501095564
-8.1956245838
-0.030397626509
-19.4280695589
-3.96847452921
-4.62350597255
-4.99121971867
-4.17967885094
-7.2202511765
-20.2117350119
9.26943386414
-2.93732877463
-7.17534075221
-8.3675884675
-5.75685953202
-6.54017509945
9.2758087404
-12.9278463249
-0.113744544425
-5.36687379815
-20.7070288961
-8.62745880313
-6.84707256822
-11.3808830491
-2.92845132144
-8.42063714553
-5.95456323485
-9.15257633606
-19.6562380975
-0.579044003738
1.31143488918
12.0411845175
-16.7646709328
-3.21339521708
-24.4119477281
-7.02106358717
3.70636739052
3.71986122192
-31.0746583026
-1.18829354539
-1.46096267848
2.33383482716
-4.72019682928
-3.73081200309
-3.86727385985
-7.72137880901
-7.41568420276
-7.46064886323
-9.35746025895
-17.3095702622
-17.1970334332
-17.47810739
-3.34502782737
6.96628397355
-12.6073028947
-14.1595470921
-5.6724082853
-23.55035235
-8.49849699286
-0.0776739553223
-5.42352314999
-2.76183698227
16.4932081012
-5.78549535229
-13.9791921376
-2.69338129189
-6.62513324051
-6.07313747847
2.99580950763
-5.97705811043
-6.49806471192
-6.51444530544
3.526800865
-3.45453455215
0.575203864563
-4.37939426387
-11.14158135
-6.35868436207
-17.6746132264
-4.65669171194
-6.56755805495
-4.24096507595
-6.04984157896
-6.33012444865
8.18242235636
-17.9599863629
-6.52720486952
-18.8030523288
-2.94427243567
-5.75047342159
-5.75152610297
-1.64445046517
-0.162275613672
-0.136535089177
3.35166889891
3.21017133192
0.102017334687
-20.4264913428
7.86814952531
-2.89060768672
-3.43219198843
-3.54010146565
-6.16377084312
-6.20296249583
10.4586758649
10.5251623002
-5.98963922711
-5.869528187
5.26019881053
4.7651368807
-3.29974910133
17.8918506585
-2.24660421766
-2.56491673623
-6.37137807417
-9.53329691954
-5.99836890852
11.485033658
-5.57905972944
-5.60206028957
-7.48207688076
5.62032660741
-3.51284944265
-7.25124921392
-6.60558469633
-3.55402655029
-5.96861839959
-4.93338139256
-4.98789042943
-4.1394122871
-10.5782253607
-10.6215906275
-20.89683061
-13.8639576143
-7.64518528689
1.15138221279
-6.60756082457
-23.3801401188
-0.173137359012
-5.43728058184
-8.46407069674
-3.3647995244
-4.12779708846
-3.07690054371
-3.08394813955
-9.1276817584
1.36634651563
-4.10220745613
-4.13878836769
-5.97111980153
-11.7402710488
-9.29889609228
-0.0653363190083
-5.10468625768
-2.04286490767
-8.06891488857
-8.00984365909
-8.01580352668
-6.58374064656
-20.3935706584
9.71962782872
1.58342992076
-3.89207088429
-7.3671302382
-3.74165974678
-3.79673982186
15.0659184086
-14.4438858124
2.96252492899
-0.550848509463
-1.89955740662
-11.5539818423
9.29958984592
-2.43891482228
-12.9996287192
-5.43246916385
-8.39543721735
-4.60576750556
-16.1461603105
-9.15723677371
-4.56666301831
-0.454702921985
2.02485072395
-11.8771531748
-6.38852851427
-2.59490072601
-3.72416960974
-2.95613503095
10.024932009
-4.25826490804
-5.83339237127
-1.07497896649
-2.5113559668
-14.0156703641
23.8214056218
24.5696401097
-14.871376094
-14.9382560975
-6.42642496774
-3.61637229078
-14.3742358539
-5.99797934124
4.09191080361
-6.58621610155
-6.59502167789
-20.4795495075
-20.8037932606
-2.92331226943
-2.93500701435
9.26246009256
9.61365096688
6.11176016446
-15.4859177923
-8.38793764375
-21.5934632938
-6.61547744217
2.32505077068
4.93124618011
17.2601233354
-3.27900139775
-16.5348825488
-7.72510626595
3.04109125317
-7.21187983713
-7.2032502218
-3.16345281867
-26.1038604296
-2.60177318723
-6.8113508776
-6.39331286016
-4.3979436053
8.48425703124
-11.795323894
-6.10347624432
-3.65599849982
-2.95507854882
10.0424935337
-2.84845703236
-22.2188172277
7.83488826966
-6.71591181485
21.4619807089
2.08541674021
-0.779599249513
-3.28644437307
-3.27105321375
-3.21921966321
-7.03553627574
9.25787847769
-20.8075824031
-6.59521971357
-2.9351854948
-2.92312581113
-8.49766822466
1.85551628792
-1.67303141856
-1.4284404981
-5.98249276135
-6.16622767283
-2.98574245121
-0.268473293968
-0.398597968422
-3.64326795576
-3.58785369596
-38.9598738655
-7.79641430072
-0.374526091991
-5.75464381081
-30.8651754942
-7.07852833735
-3.58370613768
-3.3990614805
-11.8821347006
-3.47766193724
-3.04890942382
4.1545499522
-2.85431325579
-22.0954130147
7.89222163355
7.42970742118
-23.088173607
-2.80983988184
12.0004148474
-6.67603430639
-3.03410643889
-18.7669642107
-6.51033652862
-6.70567502738
-2.54872135336
-4.4557837066
2.41725000468
-2.99241504158
-3.00514999739
-6.62614183296
-1.820939967
-1.82664352826
-11.7547508528
-2.50495747631
-0.0911407350665
4.72122026887
10.9243528429
-14.0373589689
-6.6397194745
8.04520018909
-22.1823896898
-2.98487847068
-4.50464928671
-2.91970453345
-8.46709682208
-8.40694696373
4.01462617148
-8.4350714449
-29.3980181517
-14.2657027102
-3.0998586499
-12.6375176418
-7.37266299453
-0.0453178574223
-9.6877905986
-9.38568100893
-5.07358887238
-9.6699751463
6.66520653309
-12.4922604765
-0.367895042115
-0.028134784846
-6.07587906616
-6.10739558264
1.15788884804
0.320031962143
7.87906151367
-15.3647379961
-33.2147872567
-6.11294973413
-5.80457039853
11.9742337047
-17.1926845837
-3.1662431463
0.699152037839
-2.52147633198
-11.210861212
2.66720293488
-6.03440969336
-6.67132332516
-9.59751593556
13.0463967569
-15.3705053153
-8.45515426468
-8.68316182169
-5.77111216917
-5.75617308662
-8.51844361876
-3.76918125608
2.38801991513
2.35862200383
-16.6986665015
-3.22294768271
12.4321285298
-5.30399058743
-5.51159360705
-6.32141100062
-7.33916988553
-7.38357229111
-3.18178785057
-0.101926590525
-4.27440595873
-1.64461105598
-5.30339056845
-0.541381794734
-11.8242094449
-10.3469850558
-9.42022056067
15.7302899865
-11.2337431661
-8.34421605208
13.1126841353
-6.43901174862
-20.595631779
13.8906292843
-15.5711263399
-3.3775788999
-7.21838364037
-3.15057961468
-8.34605092463
-3.37008922655
-3.39260854776
-7.80950293695
-2.5580887448
-6.36587398945
-5.95850132402
-12.1155103915
-2.22244899862
-12.8159661121
-10.4132487183
-6.20372151145
-18.7163190944
-20.0690002436
12.8595944197
-21.1318376313
-21.0161551593
8.0269781208
8.21336628509
-2.88795682772
-2.87768704797
-5.44041192758
0.40038482711
-7.63190171303
-3.36169074012
-3.64797959347
-41.4915911249
-7.74848331953
-5.77874018812
-17.3919932791
-9.82633992947
-6.4082131004
-2.81304390482
-37.2413171722
-14.3805615534
2.25444500374
-21.4962440355
-3.88900158462
-3.72101378152