/*--------------------------------*- C++ -*----------------------------------*\
| =========                 |                                                 |
| \\      /  F ield         | OpenFOAM: The Open Source CFD Toolbox           |
|  \\    /   O peration     | Version:  v1906                                 |
|   \\  /    A nd           | Web:      www.OpenFOAM.com                      |
|    \\/     M anipulation  |                                                 |
\*---------------------------------------------------------------------------*/
FoamFile
{
    version     2.0;
    format      ascii;
    class       volScalarField;
    location    "117";
    object      p;
}
// * * * * * * * * * * * * * * * * * * * * * * * * * * * * * * * * * * * * * //

dimensions      [0 2 -2 0 0 0 0];


internalField   nonuniform List<scalar> 
9216
(
295.342188837
295.420946201
295.596081522
295.855887611
296.201085806
296.630099506
297.140882687
297.730861468
298.397217557
299.136725644
299.946050271
300.821518838
301.759464963
302.755938951
303.807097713
304.908855561
306.057318982
307.248371526
308.478157808
309.742605544
311.037963968
312.360254509
313.70586395
315.070940718
316.452032728
317.84542394
319.247827101
320.655664934
322.065818665
323.474848621
324.879795739
326.277354855
327.664724586
329.038745454
330.396771067
331.735775965
333.053282138
334.346422975
335.612905291
336.850053187
338.055791041
339.227674812
340.363892217
341.462290359
342.521387614
343.53939175
344.51521338
345.447495294
346.335614653
347.178716451
347.97669914
348.729257375
349.436837584
350.099692589
350.718802098
351.294942247
351.829566059
352.323891627
352.779743435
353.198666537
353.582732592
353.933686228
354.253715818
354.544639597
354.8086461
355.047522982
355.263369562
355.457871178
355.632977041
355.790217109
355.931351193
356.057729948
356.170907576
356.272048117
356.362499705
356.443243038
356.515429807
356.579874437
356.637548869
356.68911431
356.735392224
356.776946643
356.81384864
356.845440967
356.871845157
356.893811981
356.912165569
356.927001677
356.938379567
356.94669455
356.952483117
356.956381731
356.958990324
356.960566239
356.961341513
356.961586408
295.263602032
295.342812383
295.51450348
295.774573234
296.1211032
296.552085066
297.065257235
297.657982854
298.3273477
299.070114847
299.882862269
300.76192382
301.703544664
302.703796116
303.75874666
304.864348587
306.016618274
307.21149275
308.445025347
309.713213293
311.012211079
312.338125533
313.68724263
315.05580568
316.440257296
317.836989219
319.242602804
320.653638247
322.066856406
323.478942882
324.886809455
326.287286391
327.677437466
329.054234518
330.414890125
331.756520174
333.076495036
334.372090208
335.64085402
336.88025226
338.08804378
339.261926041
340.399918167
341.500004964
342.560530679
343.579842066
344.556678679
345.48982126
346.378480132
347.221941368
348.019945933
348.772335492
349.479412694
350.141583832
350.759699695
351.334697469
351.867915876
352.360736631
352.814880103
353.232053202
353.614230968
353.963313236
354.281393208
354.570433822
354.832528335
355.069596044
355.283639633
355.476464316
355.649923696
355.805656694
355.945327395
356.070383775
356.182287375
356.282290446
356.371652874
356.451434933
356.522704364
356.586348204
356.643257808
356.694148277
356.739727751
356.78050063
356.816747652
356.848009578
356.874160981
356.895808836
356.913699552
356.928065834
356.939274254
356.947532608
356.953123092
356.956877716
356.959450757
356.960926629
356.961597857
356.961855187
295.087922296
295.172357551
295.345854887
295.608468305
295.958388831
296.393598828
296.91173603
297.510079742
298.185606331
298.935003137
299.75474324
300.641097786
301.590216231
302.598125468
303.660807448
304.774188613
305.934214503
307.136814047
308.377979519
309.653718958
310.960132117
312.29335006
313.649612505
315.025196345
316.416498141
317.819953153
319.232116216
320.649577202
322.069049273
323.487272888
324.901108666
326.307441276
327.703277315
329.085641999
330.451687429
331.79858125
333.123623396
334.424138011
335.697595158
336.941502389
338.153532028
339.331416681
340.473080578
341.576540403
342.640041109
343.66195605
344.640927061
345.575764958
346.465589202
347.309723719
348.107834334
348.859819325
349.565926909
350.226640529
350.842782501
351.415386865
351.945785534
352.435472799
352.886177449
353.299724115
353.678098733
354.023313721
354.337469166
354.622626853
354.880875796
355.11421856
355.324642897
355.514021416
355.684182398
355.836818006
355.973559257
356.095898632
356.205258822
356.302926381
356.390121192
356.467928817
356.537379089
356.599383519
356.654795327
356.704355556
356.748751416
356.78849101
356.823617378
356.853738534
356.878980988
356.899867567
356.916646832
356.930134101
356.9410457
356.949041435
356.954261967
356.957873715
356.960255114
356.961582979
356.962270971
356.962615391
294.824944343
294.911831857
295.088275059
295.355049411
295.710370276
296.152176347
296.677996149
297.284986039
297.969982061
298.729540528
299.559996946
300.457503976
301.418088717
302.437681119
303.512165092
304.637396851
305.809244142
307.023591844
308.276377324
309.563585184
310.881277147
312.225576973
313.59269844
314.978925074
316.380633422
317.794272857
319.216385229
320.643579969
322.072555812
323.500072531
324.922978905
326.338178266
327.742658567
329.133460773
330.507710878
331.862586912
333.195352887
334.503334022
335.783956149
337.034716923
338.253229217
339.437203322
340.584497576
341.693098172
342.761175129
343.787065248
344.769334161
345.70676126
346.59839859
347.443556499
348.241853983
348.993200074
349.697833344
350.356283068
350.969398265
351.538294223
352.064361576
352.549202629
352.994626572
353.402577006
353.775121633
354.114385124
354.422538055
354.70173593
354.954118568
355.181759378
355.386675732
355.570789973
355.735942531
355.883857315
356.016163445
356.134369967
356.239886229
356.33400632
356.417927848
356.492738514
356.55944706
356.618965113
356.672130821
356.719702539
356.762425517
356.800569777
356.833811066
356.862158219
356.886015167
356.905552067
356.921111732
356.933750105
356.943689281
356.951019616
356.956114745
356.959486755
356.961619132
356.962870222
356.963549953
356.963881964
294.471147996
294.560335655
294.740743995
295.013263514
295.376040455
295.826908583
296.363246786
296.982040371
297.67994045
298.453319562
299.298330766
300.210958573
301.187070402
302.222458954
303.312883624
304.45409676
305.641874737
306.872033129
308.140448771
309.443064301
310.775904038
312.135073217
313.516764548
314.917255904
316.332915963
317.760199641
319.195647493
320.635876609
322.077588414
323.517553409
324.952618932
326.379697861
327.795772149
329.197885372
330.583151764
331.948741628
333.291895504
334.609919376
335.900195677
337.160185747
338.387452816
339.579657764
340.734585596
341.850157537
342.924458235
343.955753247
344.94252578
345.883486197
346.77761329
347.624170391
348.42273486
349.173208089
349.875829259
350.531170599
351.140139832
351.703944385
352.224077424
352.702272958
353.140471894
353.54076544
353.905356467
354.236506642
354.536500895
354.807605746
355.052045253
355.271970621
355.46945441
355.646469608
355.804885502
355.946452677
356.072809905
356.185475212
356.28585139
356.375225392
356.454777446
356.525585168
356.58863788
356.644831088
356.694981484
356.739834841
356.780112492
356.815976987
356.847042064
356.873281092
356.895161903
356.912901694
356.926992991
356.938411496
356.947548781
356.954220819
356.958748894
356.96177701
356.963734507
356.964875918
356.965501794
356.965814465
294.024272919
294.116070847
294.301495751
294.581402909
294.953796278
295.416338166
295.966200032
296.600137552
297.314560266
298.105599147
298.969172733
299.901046092
300.896886328
301.952308742
303.062916912
304.224332529
305.432222145
306.682313254
307.970411739
309.292409765
310.644291581
312.022134438
313.422112929
314.840497782
316.273654451
317.718041298
319.170203612
320.626767572
322.084440466
323.540004376
324.990311544
326.432281768
327.862900936
329.279211704
330.678318059
332.057377476
333.413602124
334.744272233
336.04673104
337.318389617
338.556746516
339.75938993
340.924018725
342.048463193
343.130710168
344.168922596
345.161476424
346.106981431
347.004324139
347.852696159
348.651619637
349.40097408
350.101006112
350.752335991
351.355952126
351.913175787
352.425644324
352.895259661
353.324145604
353.714585944
354.068963567
354.389718354
354.679290102
354.940082
355.17442683
355.38456774
355.572647531
355.740696142
355.890622332
356.024203867
356.143093817
356.248813336
356.342757667
356.426200797
356.500303917
356.566124869
356.624625096
356.676672021
356.723059356
356.764517203
356.801770473
356.834789619
356.862897801
356.88642885
356.906008645
356.921752103
356.934511981
356.944847176
356.95278059
356.958275318
356.962271917
356.964939958
356.966590735
356.967718349
356.968309703
356.968610812
293.481633735
293.576557904
293.768168432
294.057244236
294.441586523
294.918619146
295.485237865
296.137899133
296.872703185
297.685474057
298.571835922
299.527280304
300.547227554
301.627076627
302.762242985
303.948191639
305.180461092
306.454677304
307.766566572
309.111961617
310.486804617
311.887143659
313.309135613
314.749046381
316.20324327
317.668189256
319.140437348
320.616626685
322.093475595
323.567779474
325.036405152
326.496281656
327.944399092
329.377799531
330.793580204
332.188882465
333.560895474
334.906866593
336.224089894
337.509916529
338.7617644
339.977132999
341.153622122
342.2889476
343.380965361
344.427707755
345.427415648
346.378567916
347.279928353
348.130582135
348.929977573
349.677958483
350.374777957
351.021112624
351.618050778
352.167062075
352.669968956
353.128891504
353.546185856
353.924379645
354.266107794
354.574036006
354.850792697
355.098946456
355.320955079
355.519170644
355.695819597
355.852996786
355.992651789
356.116595487
356.226495085
356.323869755
356.410104559
356.486454151
356.554052488
356.61392557
356.6669971
356.714101114
356.75599889
356.793396438
356.826920461
356.856413253
356.881098672
356.901646772
356.918694481
356.932447699
356.943603665
356.952372018
356.958867203
356.963512107
356.966920431
356.96918808
356.970493641
356.971473401
356.971991125
356.972243308
292.839988949
292.93867729
293.137793248
293.438013413
293.836874597
294.3314883
294.918394092
295.593666466
296.353015701
297.191883844
298.105531838
299.089119218
300.137769895
301.246624391
302.410880138
303.625822462
304.886843904
306.189457473
307.529303728
308.902153412
310.303904191
311.730578082
313.178318893
314.643390736
316.122166071
317.611116464
319.10680967
320.605900402
322.105127098
323.601305477
325.09131767
326.572107814
328.040673554
329.494063931
330.929368093
332.343713493
333.734271878
335.098248242
336.432877326
337.735440365
339.003270661
340.233760716
341.424384894
342.572716641
343.676459915
344.733483708
345.741853266
346.699874996
347.606150189
348.459626226
349.259644208
350.005988426
350.698915967
351.339168294
351.927960195
352.466946473
352.958181711
353.404043721
353.807207122
354.170538455
354.49697775
354.789459941
355.050849726
355.283901614
355.491226001
355.675292163
355.838419056
355.982767874
356.110342175
356.22298381
356.322367447
356.410010812
356.48727941
356.555398968
356.615466031
356.668462669
356.715266732
356.756665675
356.793372779
356.82603723
356.855241647
356.880553243
356.901422722
356.918842841
356.933108307
356.94463806
356.953860429
356.960976059
356.966176633
356.970039486
356.972607333
356.974428096
356.975510831
356.976101795
356.976537608
356.976715051
292.095425306
292.198625571
292.406750417
292.720344136
293.136605201
293.652243252
294.263344666
294.965502679
295.753941483
296.623632503
297.569396815
298.585995718
299.668203014
300.810860897
302.008918815
303.257460316
304.551719734
305.887089596
307.259122235
308.663526746
310.096159594
311.553021371
313.030251303
314.524115442
316.030996353
317.547382647
319.069861412
320.59511314
322.119903484
323.641071546
325.155524226
326.660223785
328.152187129
329.628469836
331.086159867
332.522382286
333.934281676
335.3190151
336.673761632
337.995725927
339.282137801
340.530263307
341.73743143
342.901052944
344.01864582
345.087868624
346.106571911
347.072846157
347.985076315
348.842016501
349.642859409
350.387303349
351.075594487
351.708552742
352.287550262
352.814460788
353.291610496
353.721746117
354.107960846
354.453518819
354.761747839
355.035926561
355.279200373
355.494536434
355.684706744
355.85230571
355.999745134
356.129263463
356.242917077
356.342577373
356.429927
356.506470894
356.573544978
356.632335855
356.683887282
356.729126575
356.76887288
356.803855444
356.834727885
356.862090481
356.886437245
356.906983965
356.923906151
356.937844689
356.949098237
356.958222487
356.965351024
356.970723429
356.974641819
356.977449865
356.979366345
356.980556093
356.981311884
356.981541387
356.981871525
356.981954928
291.24325006
291.351832667
291.570700869
291.900221326
292.33716122
292.877716714
293.517399607
294.251200018
295.073740626
295.979418135
296.962525441
298.01735332
299.138270551
300.319779343
301.556553694
302.843459333
304.175564229
305.54813875
306.956649946
308.396749335
309.864260907
311.355173408
312.865629622
314.391906312
315.930403841
317.477634841
319.030217611
320.584866906
322.138379572
323.687629441
325.229554209
326.761145132
328.279442836
329.781520716
331.264478928
332.725435656
334.161506859
335.569812417
336.947471917
338.291599574
339.599309561
340.86773049
342.094025466
343.275406403
344.409166555
345.492721011
346.523652785
347.499771131
348.419180079
349.280373657
350.082332246
350.824618497
351.507455076
352.131752252
352.699061867
353.211541191
353.671878114
354.083261327
354.449290294
354.773765081
355.060521278
355.313258158
355.535445678
355.730285522
355.900713624
356.049431834
356.178947633
356.291577846
356.389439599
356.474432338
356.548240805
356.612346168
356.668040732
356.716451236
356.758558067
356.795217889
356.827175817
356.855087099
356.879527612
356.901046982
356.919858554
356.935368004
356.948113204
356.958364595
356.966634733
356.973223577
356.978088201
356.981530854
356.983952858
356.98563225
356.986891775
356.987607823
356.987825511
356.987772358
356.987886962
356.987895299
290.277866607
290.392854396
290.624492506
290.972907958
291.434313136
292.004247888
292.677495985
293.448292686
294.310518908
295.257873391
296.284019491
297.382698984
298.547818455
299.773502858
301.054127182
302.384329641
303.759011209
305.173325496
306.622663837
308.102630391
309.609032181
311.137860844
312.685269632
314.247558841
315.821156928
317.402613877
318.98858926
320.575837758
322.161197748
323.741586163
325.313986603
326.875426406
328.422982495
329.953758589
331.464870485
332.953434295
334.416553244
335.851313227
337.25476289
338.623924811
339.955794306
341.247344041
342.495537657
343.697363202
344.849859191
345.950142847
346.995472716
347.983304501
348.911376171
349.777821179
350.581311265
351.321204514
351.997683922
352.611731132
353.165175253
353.660569662
354.100946935
354.490025095
354.832094021
355.131678485
355.393273041
355.621097676
355.818999385
355.990406038
356.13838336
356.265713932
356.374990265
356.468618438
356.548786292
356.61742416
356.676211168
356.726579542
356.7697613
356.806808646
356.838615688
356.865948996
356.88946241
356.909717255
356.92719445
356.942327727
356.955167158
356.965553836
356.973836454
356.980282467
356.985391217
356.989142958
356.991629124
356.993241164
356.99425945
356.994814928
356.995106012
356.995216024
356.995065564
356.994702108
356.994502141
356.994437747
289.192617827
289.315227879
289.562039829
289.932851397
290.423157236
291.027653296
291.740198124
292.554081346
293.462269766
294.457619513
295.533048728
296.681666258
297.89685936
299.172343337
300.502180596
301.880781628
303.302889586
304.763556669
306.258114655
307.782143718
309.331449834
310.902044453
312.490110339
314.091980917
315.704129971
317.323157191
318.945770395
320.568774512
322.189063713
323.803612376
325.409449692
327.003661881
328.583375472
330.145732823
331.687878872
333.206943555
334.70002866
336.164180358
337.59639068
338.993589915
340.352637447
341.670330033
342.943420133
344.16864307
345.342732239
346.462466856
347.524714685
348.526493697
349.465060716
350.338052219
351.143684362
351.881001989
352.550094657
353.15203546
353.689129713
354.164417263
354.581134945
354.943684614
355.257303239
355.527544821
355.759769508
355.958847818
356.129025005
356.273922886
356.396649703
356.500009426
356.586637505
356.659078892
356.719621264
356.770232572
356.812548396
356.847943695
356.877559562
356.902342776
356.923081381
356.940431749
356.954937721
356.967052353
356.977144439
356.985507999
356.992208327
356.997355638
357.000931529
357.003367253
357.0050238
357.00577272
357.005963107
357.005787808
357.00537848
357.004731483
357.004043123
357.003312415
357.00270493
357.002095843
357.001533807
357.001343311
287.979584074
288.111288465
288.376169604
288.773568981
289.298044141
289.943198104
290.701707723
291.565674767
292.526940163
293.57734543
294.708935091
295.914097051
297.185647983
298.516870655
299.901514522
301.333776318
302.808264696
304.319957586
305.86415387
307.436440961
309.032652059
310.648835074
312.281222661
313.9262028
315.580307668
317.24019763
318.902639789
320.564504407
322.222753401
323.874422172
325.516610888
327.146473642
328.76120178
330.357994232
331.9340431
333.486513149
335.012506094
336.509052721
337.973095523
339.401460935
340.790870845
342.137941152
343.439184235
344.691047286
345.889933667
347.032230655
348.114353712
349.132788112
350.084170719
350.965441867
351.774130432
352.508756342
353.169292537
353.756925965
354.274751778
354.726558551
355.115259936
355.446124595
355.725835864
355.961427901
356.159438914
356.325520672
356.46432544
356.579569277
356.674229648
356.750969199
356.812435216
356.861404151
356.900364058
356.931289782
356.955753755
356.975029239
356.990124877
357.001851861
357.010864687
357.017686342
357.022731968
357.026334898
357.028748335
357.030161439
357.030626662
357.030132068
357.02885503
357.027236495
357.025310166
357.023239866
357.021107994
357.018997785
357.016945909
357.015007795
357.01331151
357.011811219
357.010560109
357.009642508
357.008728922
357.00840012
286.629324223
286.771930798
287.058423237
287.487505911
288.052496948
288.745572633
289.557890852
290.480056311
291.502522876
292.615915708
293.811264765
295.080150745
296.414779759
297.807997215
299.253258918
300.744581961
302.276480864
303.843903181
305.442159508
307.06687747
308.71395254
310.379498702
312.059818831
313.751377578
315.450783399
317.154765251
318.860166386
320.563934268
322.263102438
323.954786637
325.636171935
327.304500628
328.957043787
330.591079645
332.203875007
333.792638608
335.354505986
336.886510321
338.385541413
339.848341683
341.271494807
342.651407625
343.984342273
345.266430962
346.493706901
347.662134535
348.76762239
349.806038423
350.773236222
351.665180171
352.478327668
353.210204124
353.860937573
354.431431842
354.926383602
355.3513446
355.706879065
355.999551609
356.238477209
356.432942225
356.591115182
356.719540599
356.823220637
356.905743901
356.969646881
357.017100077
357.050690254
357.073738347
357.089109381
357.09876269
357.104102331
357.106228694
357.105988852
357.104007625
357.100768445
357.096637339
357.091888263
357.08672092
357.081270542
357.075617066
357.069723186
357.063568032
357.057372424
357.051641082
357.046247466
357.041273608
357.036761926
357.032543406
357.028761271
357.025470934
357.022676386
357.020344312
357.018484721
357.017107893
357.015928679
357.01543575
285.130531075
285.286299486
285.598806184
286.065859757
286.679120949
287.428881027
288.304333152
289.294188062
290.387190993
291.572517856
292.840034106
294.180438854
295.585309398
297.0470771
298.558953168
300.114835163
301.709210551
303.337056745
304.99375494
306.675020921
308.376850637
310.095461094
311.827253106
313.568787992
315.316762458
317.067993378
318.819411577
320.568043372
322.311009497
324.045523938
325.768871258
327.478396167
329.171476908
330.845499751
332.497824495
334.125746153
335.726463182
337.297020532
338.834290849
340.334943917
341.795409007
343.211889629
344.580368047
345.896635858
347.156329846
348.354964212
349.487935702
350.550444507
351.537415213
352.443462566
353.263211063
353.992398234
354.632191428
355.181290911
355.648463102
356.044532543
356.360712907
356.606531387
356.795600151
356.940901442
357.052666165
357.1384222
357.20328934
357.250469248
357.281309755
357.296890911
357.299484773
357.293787557
357.283561717
357.270511722
357.255599598
357.239731724
357.223520443
357.207343441
357.191482882
357.176114817
357.161368302
357.147287451
357.13387529
357.121105932
357.108860011
357.097284378
357.08632398
357.076383556
357.067506295
357.059521203
357.052443215
357.04609246
357.04059957
357.03594926
357.031990182
357.028754469
357.026188777
357.024307559
357.022959696
357.022257102
283.469566038
283.641369844
283.985462705
284.498369216
285.169507348
285.986654467
286.936439372
288.005169885
289.179490465
290.446862745
291.795842013
293.216195997
294.698894199
296.23602057
297.820631686
299.446606074
301.108496535
302.801396268
304.520829498
306.262663756
308.023040742
309.7983161
311.585021339
313.379837512
315.179565201
316.981120066
318.781523497
320.577891874
322.367448017
324.147508581
325.915475615
327.66882002
329.405055893
331.121707361
332.816268462
334.486161861
336.128671686
337.740906989
339.3197521
340.861807072
342.363369902
343.820420735
345.22863752
346.583435054
347.880025708
349.113487886
350.278739715
351.370409407
352.382456718
353.307640827
354.137675222
354.864011027
355.492555097
356.012766151
356.444063091
356.81515963
357.084129838
357.270393481
357.396986
357.482922651
357.540653433
357.578555444
357.601301254
357.611519183
357.607902403
357.589329689
357.556710281
357.518587417
357.480866709
357.444040705
357.407987565
357.373506807
357.340930335
357.310276601
357.281612173
357.254888318
357.230069466
357.207056361
357.185684719
357.165863011
357.147423951
357.130420009
357.11504105
357.101024614
357.088545097
357.077629797
357.067914818
357.059474091
357.052283532
357.046147204
357.040970905
357.036794751
357.033500347
357.031102737
357.029513414
357.028625619
281.629834142
281.82139809
282.204250321
282.773057011
283.514146471
284.411909514
285.449605004
286.610481483
287.878612989
289.239458832
290.680139403
292.189491777
293.757964283
295.377423747
297.040920252
298.742459921
300.476792571
302.239237177
304.02555179
305.831826513
307.654402197
309.489817067
311.334762509
313.186056437
315.040622002
316.895479112
318.747744254
320.594631542
322.433459756
324.261665592
326.076783771
327.876437312
329.65830796
331.420098004
333.159487855
334.874060838
336.561256731
338.218293001
339.842098606
341.429251383
342.975919234
344.477848251
345.930371181
347.328470749
348.666891292
349.940277624
351.143244059
352.270177806
353.314420289
354.266595392
355.11382204
355.835000876
356.45702548
356.93220588
357.307537638
357.677553822
357.8864722
357.991787069
358.038160512
358.051909146
358.047732268
358.032675334
358.011323902
357.985050041
357.948350213
357.894499195
357.819875793
357.743602091
357.677204884
357.616622458
357.558770984
357.505311256
357.456314017
357.411124417
357.369689753
357.331660468
357.296838182
357.264980291
357.235739514
357.208995719
357.184691203
357.162656669
357.142783329
357.124820784
357.108906787
357.09505206
357.082845085
357.072308325
357.063283665
357.055670978
357.049293316
357.044148961
357.040165881
357.037223286
357.035328569
357.034287005
279.590913758
279.8071676
280.238191001
280.875917997
281.702358677
282.697283773
283.839496422
285.108346524
286.484783212
287.951977519
289.495548189
291.103490905
292.76591777
294.474704084
296.223123077
298.005512043
299.816991185
301.653245648
303.510369689
305.384754083
307.272998866
309.171866355
311.078237367
312.989087518
314.901470088
316.812512151
318.719422022
320.619499222
322.510168959
324.388985948
326.253635785
328.101920886
329.931729008
331.740994876
333.527624916
335.289445516
337.024113048
338.729024079
340.401218749
342.037289609
343.633307601
345.184763499
346.686585469
348.133217103
349.518815589
350.8375513
352.083994461
353.253083174
354.338839099
355.33082927
356.20976018
356.911721488
357.553648412
357.947660113
358.223404652
358.779661703
358.889283395
358.855057753
358.779618704
358.696509121
358.6145238
358.53681144
358.465672743
358.405775768
358.336115987
358.239932034
358.093017432
357.961438698
357.867457727
357.785839403
357.705173534
357.632604166
357.56773008
357.508135655
357.454218554
357.405106938
357.360597188
357.320298507
357.283511994
357.250133789
357.220087026
357.193209411
357.168956512
357.147203126
357.128003758
357.111300302
357.096658379
357.084030235
357.073226823
357.064175231
357.056668312
357.050587448
357.04589227
357.042444049
357.040212095
357.039030471
277.327338605
277.574950116
278.066748438
278.790569105
279.722288291
280.835305382
282.102503566
283.498270885
284.999805089
286.587747383
288.246266669
289.962759426
291.727337979
293.532243064
295.371301735
297.239461449
299.132431125
301.046425152
302.977988969
304.923892073
306.881053057
308.846495972
310.817321134
312.790673495
314.763744232
316.733758967
318.698001583
320.653846797
322.598800753
324.53054438
326.446926936
328.345960865
330.225790593
332.084622639
333.920677749
335.732098348
337.516851292
339.272604435
340.996601808
342.685528569
344.335390695
345.941425922
347.498061963
348.999013067
350.437542981
351.807087716
353.102277931
354.319902483
355.458048102
356.510950869
357.46360705
358.105055909
358.99841738
359.170243693
358.943849738
358.903385252
358.923398975
358.886933292
358.821021579
358.746481268
358.671538577
358.60067971
358.539366861
358.497001645
358.455929942
358.391550557
358.289109331
358.146030517
358.054309584
357.958280622
357.845553429
357.752227032
357.673378943
357.599398256
357.533735729
357.473851289
357.420070758
357.371748457
357.327963173
357.288370963
357.252929299
357.221269079
357.192943098
357.167690468
357.145449141
357.126037041
357.109108081
357.094421544
357.081989614
357.071544349
357.06289514
357.055915538
357.050490823
357.046555304
357.043975879
357.042668109
274.806838149
275.095052485
275.664873431
276.497859952
277.561023105
278.81889013
280.236454615
281.781835357
283.427818392
285.15240144
286.93857396
288.773620497
290.648214799
292.555504932
294.490327139
296.448598749
298.426878264
300.422087351
302.431340434
304.451853694
306.480912105
308.515835973
310.55396499
312.592635164
314.629163149
316.660860317
318.685051958
320.699142625
322.700704954
324.687525963
326.657633179
328.609290349
330.540932582
332.451123117
334.338472905
336.201543259
338.038728925
339.848098976
341.627229435
343.373018227
345.081494542
346.7476499
348.365327625
349.927192996
351.425038846
352.850633978
354.197970713
355.467393674
356.668507761
357.834285767
359.106555443
359.199249912
359.173429584
359.181247923
359.093394191
358.97749436
358.925894507
358.869481101
358.801337014
358.728599053
358.655916465
358.586300465
358.522398274
358.466379004
358.410061267
358.348086472
358.287587442
358.223301541
358.158496966
358.081010751
357.9650582
357.862067511
357.774894633
357.682851835
357.60684954
357.536196669
357.473825954
357.41799063
357.36795936
357.322553884
357.282184127
357.246235407
357.214235908
357.185856175
357.160934139
357.138970182
357.119792446
357.103291102
357.089323685
357.077532072
357.067784284
357.059930657
357.053810838
357.04937143
357.046473779
357.045036064
271.987749826
272.329747641
273.001761919
273.975499469
275.204952772
276.642205021
278.241741222
279.963858419
281.77634401
283.654716166
285.581433477
287.544539349
289.536154009
291.551108983
293.585865852
295.637747876
297.704454688
299.783783566
301.873513411
303.971364012
306.075003292
308.182072604
310.290172221
312.396834131
314.499508391
316.595550078
318.682262226
320.757021813
322.817399713
324.861271327
326.88685629
328.892699661
330.877602149
332.840555071
334.780653729
336.697003391
338.588580635
340.454021995
342.291420094
344.098069991
345.87018407
347.602613829
349.288561938
350.919329388
352.484261259
353.971077144
355.369267185
356.679188725
357.921970151
359.200150085
359.314553024
359.31579699
359.220095253
359.163089099
359.085876531
358.995157162
358.928485289
358.861900969
358.790293912
358.716728082
358.643998783
358.574000448
358.507602592
358.444663282
358.381887567
358.317010448
358.252386132
358.185858412
358.125331306
358.073564937
358.0135215
357.942388037
357.861960344
357.753759543
357.673098485
357.590586404
357.520697886
357.457895259
357.402410952
357.352105262
357.30735254
357.267587963
357.232314863
357.201132379
357.173790078
357.1496324
357.128424901
357.110216313
357.094823133
357.081830262
357.071076785
357.062419411
357.055666426
357.05073408
357.047541558
357.045961445
268.815081944
269.230284929
270.039257371
271.197826301
272.640594047
274.302139546
276.123053017
278.054086495
280.057714497
282.107679391
284.187188313
286.286497572
288.40051461
290.526825263
292.664288846
294.812138242
296.969499804
299.135185634
301.307673288
303.485185001
305.665772343
307.847391031
310.027925898
312.205136864
314.376592045
316.539645308
318.691484093
320.829320495
322.950630758
325.053335167
327.135863086
329.197101868
331.236288408
333.252921398
335.246689011
337.21738437
339.164745811
341.088207897
342.986635973
344.857988085
346.69893589
348.504444508
350.267319926
351.977450007
353.620929255
355.177777303
356.625832674
357.972306343
359.309118512
359.405530919
359.354751395
359.307778417
359.233521461
359.166379029
359.087696519
359.003764665
358.928018907
358.853344494
358.777508329
358.70191143
358.628173923
358.557025911
358.488463878
358.422220592
358.35671399
358.290586444
358.22446702
358.158372059
358.095423883
358.03573397
357.973895905
357.92145219
357.86828664
357.807035305
357.736996318
357.633568235
357.559741235
357.49095485
357.430541954
357.37564903
357.327730323