/*--------------------------------*- C++ -*----------------------------------*\
| =========                 |                                                 |
| \\      /  F ield         | OpenFOAM: The Open Source CFD Toolbox           |
|  \\    /   O peration     | Version:  v1906                                 |
|   \\  /    A nd           | Web:      www.OpenFOAM.com                      |
|    \\/     M anipulation  |                                                 |
\*---------------------------------------------------------------------------*/
FoamFile
{
    version     2.0;
    format      ascii;
    class       volVectorField;
    location    "117";
    object      Ua;
}
// * * * * * * * * * * * * * * * * * * * * * * * * * * * * * * * * * * * * * //

dimensions      [0 1 -1 0 0 0 0];


internalField   nonuniform List<vector> 
9216
(
(-0.095594399523 0.0959805826807 0)
(-0.0969370265394 0.298597074677 4.5314175485e-26)
(-0.09224162148 0.503628825 -6.02644481107e-30)
(-0.0849251067086 0.707440861449 0)
(-0.0752698144436 0.908106657877 0)
(-0.0634592975102 1.10482585759 0)
(-0.0496976472496 1.29679354333 0)
(-0.0342057903404 1.48328616988 0)
(-0.0172199766353 1.66365704603 0)
(0.00101293446638 1.83733929938 0)
(0.020241001002 2.0038474303 0)
(0.0402125634821 2.16277743039 0)
(0.0606812457063 2.31380530759 0)
(0.0814102236874 2.45668413443 0)
(0.102175862577 2.59123990742 0)
(0.122770489764 2.7173664583 0)
(0.143004526931 2.83501973084 0)
(0.162707808236 2.94421164644 0)
(0.181730376897 3.0450038161 0)
(0.19994260855 3.13750126015 0)
(0.217234987385 3.22184631577 0)
(0.233517378501 3.29821282468 0)
(0.248718130235 3.36680070794 0)
(0.262782830387 3.42783096263 0)
(0.275673043227 3.48154113007 0)
(0.28736482531 3.52818123082 0)
(0.297847333563 3.56801017828 0)
(0.307121296742 3.60129264724 0)
(0.315197644595 3.62829639598 0)
(0.322096029893 3.64929003008 0)
(0.327843489002 3.6645412574 0)
(0.332472812449 3.67431585567 0)
(0.33601994099 3.67887755948 0)
(0.338515213924 3.6784862413 0)
(0.339949049258 3.67339987741 0)
(0.340442334888 3.66382594078 0)
(0.340054274893 3.6500063191 0)
(0.338837635571 3.63216743457 0)
(0.336845352874 3.61052786809 0)
(0.33413032885 3.58529784753 0)
(0.330745113123 3.5566793837 0)
(0.326741511995 3.52486630759 0)
(0.322170377968 3.49004435664 0)
(0.317081314996 3.45239129704 0)
(0.311522555841 3.41207707478 0)
(0.305540748932 3.36926399592 0)
(0.299180906158 3.32410692242 0)
(0.292486253925 3.27675348669 0)
(0.285498234461 3.22734431086 0)
(0.278256405808 3.1760132371 0)
(0.270798482484 3.12288755485 0)
(0.263160272091 3.06808823397 0)
(0.255375744104 3.01173014973 0)
(0.24747699338 2.95392231071 0)
(0.239494328243 2.89476807503 0)
(0.231456253456 2.83436536808 0)
(0.223389570846 2.77280688661 0)
(0.215319376051 2.71018030379 0)
(0.207269166511 2.64656845949 0)
(0.199260847759 2.58204955176 0)
(0.191314844914 2.51669731317 0)
(0.18345011536 2.45058118888 0)
(0.175684260806 2.38376649962 0)
(0.168033544069 2.3163146072 0)
(0.160512999564 2.2482830653 0)
(0.153136452499 2.17972577371 0)
(0.145916626184 2.11069311825 0)
(0.13886516245 2.04123211526 0)
(0.13199272462 1.97138654213 0)
(0.125309018281 1.90119707355 0)
(0.11882288903 1.83070140423 0)
(0.112542343027 1.75993437822 0)
(0.106474638876 1.68892810533 0)
(0.100626307539 1.61771208495 0)
(0.0950032378628 1.5463133174 0)
(0.0896106955835 1.47475642344 0)
(0.0844534021521 1.40306375177 0)
(0.0795355526292 1.33125549533 0)
(0.0748608875291 1.25934979593 0)
(0.0704327094733 1.18736285833 0)
(0.0662539478352 1.11530905297 0)
(0.0623271740033 1.04320102871 0)
(0.0586546585616 0.971049814818 0)
(0.0552383848817 0.898864933636 0)
(0.0520800982166 0.826654503764 0)
(0.049181316468 0.754425356117 0)
(0.0465433684347 0.682183144837 0)
(0.0441673952691 0.609932481105 0)
(0.0420543609769 0.537677085166 0)
(0.0402049994185 0.465420019178 0)
(0.0386196693047 0.393164113423 0)
(0.0372978708089 0.320912917142 0)
(0.0362364620453 0.248673033216 0)
(0.0354304451311 0.176423604073 0)
(0.0348015067503 0.104680161618 0)
(0.0336030766378 0.0335634196377 0)
(-0.298110479083 0.100607382906 0)
(-0.317293779145 0.314539465663 0)
(-0.316643915908 0.532020657628 -4.58747985384e-26)
(-0.314841135968 0.747579314288 0)
(-0.312355885206 0.959724954977 0)
(-0.309274382082 1.16769035336 0)
(-0.305645836303 1.37066489336 0)
(-0.301518139612 1.56790157155 0)
(-0.296938332371 1.7587274521 0)
(-0.291953000027 1.94255005241 0)
(-0.286607504025 2.11886020691 0)
(-0.280945213848 2.28723260408 0)
(-0.275006708526 2.44732443518 0)
(-0.268829297367 2.59887246877 0)
(-0.262446619544 2.74168887956 0)
(-0.255888588977 2.87565611599 0)
(-0.24918136799 3.00072110796 0)
(-0.242347634433 3.11688905883 0)
(-0.235406794125 3.22421706339 0)
(-0.228375422188 3.32280772869 0)
(-0.221267574184 3.41280296453 0)
(-0.214095275714 3.49437804949 0)
(-0.206868827339 3.56773606969 0)
(-0.199597258788 3.63310277656 0)
(-0.192288568001 3.69072190629 0)
(-0.184950099858 3.74085096466 0)
(-0.177588700021 3.78375748181 0)
(-0.170211016871 3.81971571223 0)
(-0.162823592654 3.84900375575 0)
(-0.155433142981 3.8719010442 0)
(-0.14804668141 3.88868611459 0)
(-0.140671853051 3.8996344049 0)
(-0.133316501992 3.90501542288 0)
(-0.125980902014 3.90509018324 0)
(-0.118587489297 3.90010829419 0)
(-0.111228847535 3.8903526629 0)
(-0.103921722829 3.87606528933 0)
(-0.0966730396384 3.85748563613 0)
(-0.0894898579248 3.83484481933 0)
(-0.0823792868964 3.80836570232 0)
(-0.0753482689524 3.77826273302 0)
(-0.0684036011284 3.74474192885 0)
(-0.0615517954119 3.70800091587 0)
(-0.05479913948 3.66822902211 0)
(-0.048151576497 3.62560740957 0)
(-0.0416147755434 3.58030923945 0)
(-0.0351940215631 3.53249985922 0)
(-0.0288942913598 3.48233700963 0)
(-0.0227201523133 3.42997104165 0)
(-0.0166758428199 3.37554514411 0)
(-0.010765179338 3.3191955733 0)
(-0.00499164032392 3.26105188696 0)
(0.000641718885205 3.20123717483 0)
(0.00613217958954 3.13986828975 0)
(0.0114774375578 3.07705607187 0)
(0.0166755150084 3.01290557112 0)
(0.0217248317547 2.94751626076 0)
(0.0266241165894 2.88098224816 0)
(0.0313724722968 2.81339247561 0)
(0.0359692873516 2.74483091801 0)
(0.0404142953298 2.67537677032 0)
(0.0447074877143 2.60510463213 0)
(0.0488491681594 2.53408468201 0)
(0.0528398671445 2.46238284961 0)
(0.056680391508 2.390060978 0)
(0.0603717415804 2.31717698431 0)
(0.0639151563288 2.24378501132 0)
(0.0673120335555 2.16993557818 0)
(0.0705639709617 2.09567572262 0)
(0.0736726899073 2.02104914315 0)
(0.076640072638 1.94609633348 0)
(0.079468090069 1.87085471763 0)
(0.0821588353934 1.79535877793 0)
(0.0847144562772 1.71964018445 0)
(0.087137185016 1.64372791789 0)
(0.0894292754962 1.56764839454 0)
(0.0915930300411 1.49142558528 0)
(0.0936307414202 1.41508113714 0)
(0.0955447164713 1.3386344894 0)
(0.097337223375 1.26210299281 0)
(0.0990105120662 1.18550202363 0)
(0.100566766819 1.10884510141 0)
(0.102008123215 1.03214400193 0)
(0.103336625626 0.955408874344 0)
(0.104554239601 0.878648354189 0)
(0.105662811955 0.801869681069 0)
(0.106664073336 0.725078812654 0)
(0.107559589535 0.648280542606 0)
(0.108350727776 0.571478608301 0)
(0.109038536873 0.494675774041 0)
(0.10962352433 0.417873835724 0)
(0.1101050985 0.341073198558 0)
(0.110479848326 0.264270969189 0)
(0.110732367723 0.187400289072 0)
(0.110616387225 0.111230661847 0)
(0.104820453377 0.034445558794 0)
(-0.503247104041 0.105815839957 0)
(-0.534661498196 0.316801585948 0)
(-0.530572250934 0.53803819491 -4.55839526138e-26)
(-0.523526678446 0.755853432703 0)
(-0.514159732322 0.970267133103 0)
(-0.502648058888 1.18036693315 0)
(-0.489149104676 1.38532404341 0)
(-0.473846237707 1.58437198345 0)
(-0.456937744739 1.77682502211 0)
(-0.438631674815 1.96208232564 0)
(-0.419140374518 2.13963084556 0)
(-0.398675606575 2.30904554154 0)
(-0.377444191409 2.469987584 0)
(-0.355644392807 2.62220087982 0)
(-0.333462983681 2.76550729638 0)
(-0.311073106925 2.8998009246 0)
(-0.288632769581 3.02504170458 0)
(-0.266284027647 3.1412486917 0)
(-0.244152647826 3.24849320896 0)
(-0.222348288153 3.34689207899 0)
(-0.200964968786 3.43660109448 0)
(-0.180081886437 3.51780883895 0)
(-0.15976435141 3.59073094072 0)
(-0.140064924221 3.65560480677 0)
(-0.12102454735 3.71268486344 0)
(-0.102673774987 3.76223830581 0)
(-0.0850339136068 3.80454134583 0)
(-0.0681181980044 3.83987593289 0)
(-0.0519328278717 3.86852691195 0)
(-0.036477999225 3.89077957157 0)
(-0.021748749435 3.90691751102 0)
(-0.00773575811722 3.91722063001 0)
(0.00557387363328 3.92196316925 0)
(0.0181934397066 3.92141449013 0)
(0.0301087439403 3.91584481168 0)
(0.0413720281253 3.90551198811 0)
(0.0520085156931 3.8906621793 0)
(0.0620403669506 3.87153471691 0)
(0.071490395612 3.84836123489 0)
(0.0803816806343 3.82136502594 0)
(0.0887373943461 3.79076083205 0)
(0.0965805806253 3.75675480843 0)
(0.103934046403 3.71954458 0)
(0.110820205648 3.67931935537 0)
(0.11726102314 3.63626008049 0)
(0.123277904969 3.59053962235 0)
(0.128891681 3.54232297354 0)
(0.134122529637 3.49176747289 0)
(0.13898998774 3.43902303558 0)
(0.143512899816 3.38423239026 0)
(0.14770944652 3.32753131814 0)
(0.151597110683 3.26904889328 0)
(0.155192717658 3.20890771989 0)
(0.158512412548 3.1472241672 0)
(0.161571707412 3.08410859838 0)
(0.164385465601 3.0196655949 0)
(0.166967952233 2.95399417338 0)
(0.169332822736 2.88718799683 0)
(0.171493174045 2.81933557774 0)
(0.17346153537 2.75052047524 0)
(0.175249918357 2.68082148415 0)
(0.176869808762 2.61031281826 0)
(0.178332214414 2.53906428585 0)
(0.17964765697 2.46714146007 0)
(0.180826216941 2.39460584206 0)
(0.181877525071 2.32151501968 0)
(0.182810803984 2.24792281967 0)
(0.183634858989 2.17387945624 0)
(0.184358116144 2.09943167385 0)
(0.184988612444 2.02462288719 0)
(0.185534030251 1.94949331612 0)
(0.186001686955 1.87408011855 0)
(0.186398565822 1.79841751903 0)
(0.186731305285 1.72253693598 0)
(0.187006226321 1.64646710518 0)
(0.18722932158 1.57023420261 0)
(0.187406279429 1.49386196413 0)
(0.187542473142 1.41737180499 0)
(0.187642981733 1.34078293663 0)
(0.187712579392 1.26411248391 0)
(0.187755753185 1.18737559986 0)
(0.187776692777 1.11058558134 0)
(0.18777930485 1.0337539825 0)
(0.187767202753 0.956890729235 0)
(0.187743716771 0.880004231635 0)
(0.187711882063 0.803101496747 0)
(0.187674441625 0.726188237682 0)
(0.1876338271 0.649268978577 0)
(0.187592145794 0.572347144097 0)
(0.18755114426 0.495425114852 0)
(0.187512180972 0.418504242966 0)
(0.187476260592 0.341584570073 0)
(0.187443859114 0.264664616099 0)
(0.187407013496 0.187671809826 0)
(0.18701879881 0.111673734963 0)
(0.176976094727 0.0340147636229 0)
(-0.712208111772 0.113320488668 0)
(-0.757075822134 0.318788204441 0)
(-0.751297736467 0.545256696406 4.52404187627e-26)
(-0.74138731009 0.765682236029 0)
(-0.728232185884 0.982730242938 0)
(-0.712099305551 1.1952727553 0)
(-0.693215836168 1.40246601798 0)
(-0.671845410392 1.60351909123 0)
(-0.648271652919 1.79773239503 0)
(-0.622790476713 1.98449790427 0)
(-0.595701982761 2.16330171909 0)
(-0.567303388091 2.33372347827 0)
(-0.53788293427 2.49543370866 0)
(-0.507714926662 2.64818943418 0)
(-0.477055888076 2.79182847725 0)
(-0.446141827965 2.92626284386 0)
(-0.415186498694 3.05147154912 0)
(-0.384380560577 3.167493188 0)
(-0.353891474257 3.27441850531 0)
(-0.323864021742 3.37238316359 0)
(-0.294421272094 3.46156085976 0)
(-0.265665910682 3.54215689478 0)
(-0.237681772695 3.61440226427 0)
(-0.210535533526 3.6785483046 0)
(-0.184278429868 3.73486190559 0)
(-0.158947999032 3.78362128003 0)
(-0.13456974057 3.82511226761 0)
(-0.111158715621 3.85962513981 0)
(-0.0887210090018 3.88745186803 0)
(-0.067255083342 3.90888381788 0)
(-0.0467529485686 3.92420983767 0)
(-0.0272011445031 3.93371470697 0)
(-0.00858134347938 3.93767807782 0)
(0.00912978029616 3.93637441273 0)
(0.0259634225868 3.93007076675 0)
(0.0419348029336 3.91901874202 0)
(0.0570698902599 3.90347094621 0)
(0.0713964840458 3.88366865098 0)
(0.0849433836828 3.85984437747 0)
(0.09773981494 3.83222172802 0)
(0.109815118981 3.80101547572 0)
(0.121198498057 3.76643161582 0)
(0.131918843173 3.72866747172 0)
(0.142004577824 3.68791184115 0)
(0.151483558807 3.64434517555 0)
(0.160382979721 3.59813978439 0)
(0.168729320847 3.54946005738 0)
(0.176548293858 3.4984626992 0)
(0.183864825401 3.44529697167 0)
(0.190703029976 3.39010494027 0)
(0.197086215969 3.33302172123 0)
(0.203036877114 3.27417572763 0)
(0.20857671274 3.21368891185 0)
(0.213726630851 3.1516770036 0)
(0.21850677661 3.088249742 0)
(0.222936542102 3.0235111013 0)
(0.22703459888 2.95755950939 0)
(0.230818910927 2.89048805925 0)
(0.234306768394 2.82238471266 0)
(0.237514801451 2.75333249681 0)
(0.240459013285 2.68340969334 0)
(0.243154793356 2.61269002055 0)
(0.245616948426 2.54124280858 0)
(0.24785971432 2.46913316836 0)
(0.249896784294 2.39642215424 0)
(0.251741318815 2.32316692116 0)
(0.253405970905 2.24942087621 0)
(0.254902893772 2.17523382565 0)
(0.256243763035 2.10065211709 0)
(0.257439782216 2.02571877795 0)
(0.258501701909 1.95047364985 0)
(0.259439823298 1.87495352007 0)
(0.260264014439 1.79919224964 0)
(0.260983712031 1.72322089927 0)
(0.261607935046 1.64706785251 0)
(0.262145285031 1.57075893732 0)
(0.262603957336 1.49431754557 0)
(0.262991740226 1.41776475134 0)
(0.26331602395 1.34111942773 0)
(0.263583798905 1.26439836282 0)
(0.263801662725 1.18761637452 0)
(0.263975817642 1.11078642492 0)
(0.264112075605 1.03391973365 0)
(0.264215854753 0.957025890848 0)
(0.264292182261 0.880112968758 0)
(0.26434568941 0.803187632231 0)
(0.264380611536 0.726255245888 0)
(0.264400781624 0.649319976202 0)
(0.264409629925 0.572384882363 0)
(0.264410187543 0.495451986191 0)
(0.264405121723 0.418522364262 0)
(0.264396863049 0.341595988709 0)
(0.264387187538 0.264672513844 0)
(0.264364031621 0.187665663621 0)
(0.263831904814 0.111996181364 0)
(0.249561058387 0.0332355178205 0)
(-0.924310902931 0.123485983143 0)
(-0.982698493988 0.321354360272 0)
(-0.975068627793 0.555006875262 0)
(-0.962050642948 0.778951020963 0)
(-0.944766879675 0.999554579785 0)
(-0.923582570095 1.21538642209 0)
(-0.89880145135 1.42558827087 0)
(-0.870775062845 1.62933619881 0)
(-0.839880543777 1.82591197116 0)
(-0.806510522809 2.01469793845 0)
(-0.771062231505 2.19517931621 0)
(-0.733928043505 2.36694243759 0)
(-0.695487419638 2.52967088235 0)
(-0.656100417216 2.68313979049 0)
(-0.616102756091 2.82720888184 0)
(-0.575802378248 2.96181463496 0)
(-0.535477349272 3.08696202718 0)
(-0.495374937342 3.20271616908 0)
(-0.455711660137 3.30919409901 0)
(-0.416674115686 3.40655693686 0)
(-0.378420395273 3.49500253791 0)
(-0.34108192323 3.57475873658 0)
(-0.304765561911 3.64607722891 0)
(-0.269555873738 3.70922810936 0)
(-0.235517426303 3.76449505317 0)
(-0.202697078633 3.81217111747 0)
(-0.171126176052 3.85255512228 0)
(-0.140822628152 3.88594856525 0)
(-0.111792827595 3.91265302036 0)
(-0.0840334090964 3.93296797474 0)
(-0.0575328222483 3.94718905818 0)
(-0.0322727365276 3.95560654153 0)
(-0.00822942729266 3.95850401176 0)
(0.0146246165457 3.95615931495 0)
(0.0363203459535 3.94884325596 0)
(0.0568928332811 3.93681125153 0)
(0.0763783387704 3.92031594107 0)
(0.0948142180678 3.89959933673 0)
(0.112238603555 3.87489452592 0)
(0.128690021338 3.84642536754 0)
(0.144207048365 3.81440660009 0)
(0.158828021887 3.77904394489 0)
(0.172590813492 3.74053426141 0)
(0.185532644587 3.69906573488 0)
(0.197689950317 3.65481809026 0)
(0.209098270569 3.60796282535 0)
(0.219792176852 3.55866345703 0)
(0.229805215806 3.50707577572 0)
(0.23916987937 3.45334810406 0)
(0.247917583936 3.39762155648 0)
(0.256078669352 3.34003029724 0)
(0.263682401374 3.28070179479 0)
(0.270756988951 3.21975707102 0)
(0.277329601029 3.1573109442 0)
(0.283426394535 3.09347226483 0)
(0.289072539168 3.0283441439 0)
(0.294292250745 2.96202417313 0)
(0.299108819563 2.89460463725 0)
(0.303544645434 2.82617271812 0)
(0.307621266638 2.75681069102 0)
(0.311359394225 2.68659611319 0)
(0.314778939619 2.61560200507 0)
(0.317899046662 2.54389702439 0)
(0.320738116709 2.47154563375 0)
(0.323313837528 2.3986082619 0)
(0.32564320526 2.32514145931 0)
(0.327742549761 2.25119804825 0)
(0.32962755319 2.1768272682 0)
(0.331313271677 2.10207491654 0)
(0.33281415057 2.02698348539 0)
(0.334144042541 1.95159229466 0)
(0.33531621968 1.87593762196 0)
(0.336343388287 1.80005282952 0)
(0.337237698114 1.72396848866 0)
(0.338010754166 1.64771250193 0)
(0.338673623448 1.57131022346 0)
(0.33923684413 1.4947845775 0)
(0.339710430172 1.41815617572 0)
(0.3401038782 1.34144343317 0)
(0.340426170363 1.26466268336 0)
(0.340685779244 1.18782829243 0)
(0.340890669227 1.11095277263 0)
(0.341048299704 1.03404689505 0)
(0.3411656252 0.957119801741 0)
(0.341249097142 0.880179116776 0)
(0.341304663213 0.803231056111 0)
(0.341337768749 0.726280535254 0)
(0.341353357995 0.649331273863 0)
(0.341355881545 0.572385895337 0)
(0.34134931404 0.495446019043 0)
(0.341337196608 0.418512422428 0)
(0.341322739249 0.341584882144 0)
(0.341308012244 0.264663668581 0)
(0.341276100405 0.187641148474 0)
(0.340582768078 0.112394364947 0)
(0.322134988895 0.032174437177 0)
(-1.14060440366 0.136493517631 0)
(-1.21279143752 0.324595653205 0)
(-1.20315526142 0.567494190713 0)
(-1.18682870834 0.795928383052 0)
(-1.16515302926 1.0210747658 0)
(-1.13860559878 1.24109494894 0)
(-1.10757863634 1.45511670552 0)
(-1.07252455348 1.66227449758 0)
(-1.0339264614 1.8618274111 0)
(-0.992285222065 2.05314689133 0)
(-0.948105371797 2.23571870888 0)
(-0.901883017302 2.40913960024 0)
(-0.854095673205 2.5731117041 0)
(-0.805194218992 2.72743509766 0)
(-0.755596941571 2.87199908475 0)
(-0.705685531406 3.0067727711 0)
(-0.655802814551 3.13179538467 0)
(-0.606251967816 3.24716670596 0)
(-0.557296940606 3.35303788335 0)
(-0.509163820696 3.44960282716 0)
(-0.462042892764 3.53709030578 0)
(-0.416091175768 3.6157568104 0)
(-0.371435249502 3.68588020977 0)
(-0.328174223124 3.74775418362 0)
(-0.286382721638 3.80168339943 0)
(-0.246113804163 3.84797938252 0)
(-0.207401743963 3.88695702006 0)
(-0.170264630063 3.91893163579 0)
(-0.134706758441 3.94421657231 0)
(-0.100720802439 3.96312122774 0)
(-0.0682897452499 3.97594949335 0)
(-0.037388578621 3.982998373 0)
(-0.00798591810157 3.98455663749 0)
(0.019954730792 3.98090751612 0)
(0.0464745492239 3.97232307072 0)
(0.0716154117158 3.95906179895 0)
(0.095422492729 3.94137830473 0)
(0.117942478342 3.91951574097 0)
(0.139222867223 3.89370781652 0)
(0.159311490953 3.86417859131 0)
(0.178256108609 3.83114265857 0)
(0.196104077061 3.79480531385 0)
(0.212902088913 3.75536276775 0)
(0.228695965105 3.71300238256 0)
(0.243530497632 3.66790292775 0)
(0.257449330499 3.62023484767 0)
(0.270494876359 3.57016053664 0)
(0.28270825891 3.51783461723 0)
(0.294129280148 3.46340421835 0)
(0.304796404156 3.40700925072 0)
(0.314746757798 3.34878267747 0)
(0.324016141244 3.2888507785 0)
(0.332639049612 3.22733340741 0)
(0.340648699677 3.16434424029 0)
(0.348077063563 3.09999101573 0)
(0.354954904146 3.03437576593 0)
(0.361311814568 2.9675950388 0)
(0.367176257174 2.89974011102 0)
(0.372575604597 2.83089719236 0)
(0.37753617877 2.76114762154 0)
(0.382083290785 2.69056805382 0)
(0.38624127777 2.61923064101 0)
(0.390033539776 2.54720320404 0)
(0.393482573209 2.47454939877 0)
(0.39661000377 2.40132887547 0)
(0.39943661575 2.32759743235 0)
(0.401982380593 2.2534071638 0)
(0.404266481814 2.17880660366 0)
(0.406307339115 2.10384086407 0)
(0.408122628995 2.02855177032 0)
(0.409729304596 1.95297799211 0)
(0.411143612276 1.87715517166 0)
(0.412381107513 1.80111604895 0)
(0.413456667833 1.72489058466 0)
(0.414384505196 1.64850608078 0)
(0.41517817573 1.57198729961 0)
(0.415850589062 1.49535658108 0)
(0.416414015328 1.4186339588 0)
(0.416880091918 1.34183727506 0)
(0.417259828228 1.26498229484 0)
(0.417563610269 1.18808281918 0)
(0.4178012036 1.11115079785 0)
(0.417981756261 1.03419644139 0)
(0.418113800402 0.957228332722 0)
(0.418205254172 0.880253537955 0)
(0.418263423016 0.803277716502 0)
(0.418295002189 0.726305230164 0)
(0.418306080744 0.64933925125 0)
(0.418302150209 0.572381869982 0)
(0.41828812068 0.495434200848 0)
(0.41826834727 0.418496588839 0)
(0.418246684369 0.341568341925 0)
(0.41822532011 0.264649944069 0)
(0.418182746612 0.187605206254 0)
(0.417326499506 0.112882831458 0)
(0.394716201165 0.0308371214979 0)
(-1.36214278584 0.152563336739 0)
(-1.44852254852 0.328565183717 0)
(-1.43668398388 0.582921277913 4.44493869704e-26)
(-1.41679236235 0.816873150949 0)
(-1.39039047162 1.04761145491 0)
(-1.35808471396 1.2727680898 0)
(-1.32036916092 1.49145808213 0)
(-1.27781199975 1.70276512256 0)
(-1.23101676891 1.90592220336 0)
(-1.18060596281 2.10028966982 0)
(-1.12720323311 2.28535672271 0)
(-1.07141834057 2.46073583468 0)
(-1.01383475348 2.62615489308 0)
(-0.955000069081 2.78144737083 0)
(-0.895419156963 2.92654135394 0)
(-0.835549794469 3.06144806275 0)
(-0.775800472137 3.18625039016 0)
(-0.716530007591 3.3010918517 0)
(-0.658048597327 3.40616622533 0)
(-0.600619957333 3.50170805783 0)
(-0.544464236269 3.58798413239 0)
(-0.489761431282 3.66528592776 0)
(-0.436655080793 3.7339230527 0)
(-0.385256056638 3.79421760696 0)
(-0.3356463172 3.84649939966 0)
(-0.287882522327 3.89110194459 0)
(-0.241999439181 3.92835914795 0)
(-0.198013095896 3.958602604 0)
(-0.155923657651 3.98215941891 0)
(-0.115718016761 3.99935050061 0)
(-0.0773720876212 4.01048924742 0)
(-0.040852814671 4.01588030339 0)
(-0.00612003867989 4.01581829473 0)
(0.026872473872 4.01059304444 0)
(0.0581746078357 4.00047727183 0)
(0.0878389071945 3.98573380522 0)
(0.115920472696 3.96661882405 0)
(0.142476006798 3.94337666078 0)
(0.167562911975 3.9162415698 0)
(0.191238777464 3.88543768668 0)
(0.21356092343 3.85117928651 0)
(0.234586038942 3.81367103142 0)
(0.254369894149 3.773108249 0)
(0.272967116175 3.72967722544 0)
(0.290431019729 3.68355550854 0)
(0.306813482523 3.63491221523 0)
(0.322164859002 3.58390833972 0)
(0.336533924592 3.53069705891 0)
(0.349967845929 3.47542403273 0)
(0.362512171063 3.41822769742 0)
(0.374210836607 3.3592395504 0)
(0.385106187215 3.29858442572 0)
(0.395239005514 3.23638075953 0)
(0.404648548916 3.17274084519 0)
(0.413372592275 3.10777107776 0)
(0.421447473652 3.0415721881 0)
(0.428908142726 2.97423946666 0)
(0.435788209719 2.9058629773 0)
(0.442119994852 2.83652776143 0)
(0.447934576609 2.76631403305 0)
(0.453261839156 2.69529736515 0)
(0.458130517521 2.62354886791 0)
(0.462568241099 2.55113535931 0)
(0.466601574331 2.47811952876 0)
(0.470256055274 2.40456009417 0)
(0.473556231085 2.33051195313 0)
(0.476525691227 2.25602632861 0)
(0.479187097565 2.18115090984 0)
(0.481562212192 2.10592998875 0)
(0.483671922286 2.03040459243 0)
(0.485536262817 1.95461261222 0)
(0.487174436515 1.87858892958 0)
(0.488604831912 1.80236553942 0)
(0.48984503891 1.72597167099 0)
(0.490911862675 1.64943390686 0)
(0.491821335383 1.57277630017 0)
(0.492588726547 1.49602049049 0)
(0.493228551508 1.4191858185 0)
(0.493754578785 1.34228943966 0)
(0.4941798359 1.26534643725 0)
(0.494516614328 1.1883699346 0)
(0.494776473237 1.111371207 0)
(0.49497024264 1.03435979307 0)
(0.495108025737 0.957343605821 0)
(0.495199201085 0.880329043464 0)
(0.495252424625 0.803321099829 0)
(0.495275632433 0.726323474759 0)
(0.49527604475 0.649338684882 0)
(0.495260172648 0.572368175375 0)
(0.495233828014 0.495412431748 0)
(0.495202133492 0.418471216039 0)
(0.49516954568 0.34154312583 0)
(0.495138401461 0.264628731541 0)
(0.495083011868 0.18755636301 0)
(0.494062854913 0.113465007345 0)
(0.467295349719 0.0292277053472 0)
(-1.59006572256 0.171967177588 0)
(-1.69112892197 0.333321888522 0)
(-1.67684043993 0.60154567721 -4.40855337755e-26)
(-1.65305685739 0.842115244591 0)
(-1.62150408791 1.0795711932 0)
(-1.5829403912 1.31087181366 0)
(-1.53797936568 1.53512189429 0)
(-1.48732435974 1.75134459255 0)
(-1.43171797287 1.95874423799 0)
(-1.37192143788 2.15667137823 0)
(-1.30869241244 2.34462349899 0)
(-1.24276661821 2.52223636971 0)
(-1.17484307047 2.68927310722 0)
(-1.10557303118 2.84561124587 0)
(-1.03555246034 2.99122887004 0)
(-0.965317588696 3.12619056501 0)
(-0.895343139598 3.25063377801 0)
(-0.826042696365 3.36475600607 0)
(-0.757770723206 3.46880307717 0)
(-0.690825789686 3.56305866754 0)
(-0.625454605961 3.64783510274 0)
(-0.561856541421 3.72346542109 0)
(-0.500188363314 3.79029663052 0)
(-0.440568992662 3.84868406155 0)
(-0.383084127143 3.89898670356 0)
(-0.327790626284 3.94156340722 0)
(-0.2747205903 3.97676983759 0)
(-0.223885093863 4.00495606918 0)
(-0.175277557813 4.02646472446 0)
(-0.128876757698 4.04162958391 0)
(-0.0846494696286 4.05077458419 0)
(-0.042552767335 4.05421275644 0)
(-0.00253604277746 4.0522451814 0)
(0.0354586032275 4.04516925431 0)
(0.0714900892283 4.03325695915 0)
(0.105622734694 4.016776762 0)
(0.137922340213 3.99598604797 0)
(0.168456293626 3.97113027113 0)
(0.197292451114 3.94244405335 0)
(0.224498608904 3.91015139215 0)
(0.250142010094 3.87446599466 0)
(0.274288961726 3.83559161568 0)
(0.297004532763 3.7937224093 0)
(0.318352322752 3.74904328494 0)
(0.338394289778 3.70173026302 0)
(0.357190627614 3.65195082649 0)
(0.374799683818 3.59986426519 0)
(0.39127791112 3.5456220111 0)
(0.406679846108 3.48936796269 0)
(0.421058109545 3.43123879753 0)
(0.434463424075 3.37136427239 0)
(0.44694464516 3.3098675105 0)
(0.458548802324 3.24686527591 0)
(0.469321147694 3.182468235 0)
(0.479305209869 3.11678120555 0)
(0.488542850977 3.04990339357 0)
(0.497074325658 2.98192861851 0)
(0.50493834044 2.91294552742 0)
(0.512172112791 2.84303779851 0)
(0.518811428766 2.77228433495 0)
(0.524890698884 2.70075944938 0)
(0.530443011509 2.6285330399 0)
(0.535500183628 2.55567075815 0)
(0.540092808534 2.48223417012 0)
(0.544250300495 2.4082809104 0)
(0.54800093608 2.33386483032 0)
(0.55137189236 2.25903614078 0)
(0.554389281768 2.18384155009 0)
(0.55707818391 2.10832439756 0)
(0.5594626742 2.03252478325 0)
(0.561565849661 1.95647969427 0)
(0.563409851813 1.88022312821 0)
(0.56501588702 1.80378621403 0)
(0.566404244242 1.72719733076 0)
(0.567594310585 1.65048222435 0)
(0.568604584606 1.57366412306 0)
(0.569452687752 1.4967638515 0)
(0.570155373936 1.41979994376 0)
(0.570728537564 1.34278875569 0)
(0.571187220073 1.26574457654 0)
(0.571545615253 1.18867974023 0)
(0.571817073439 1.11160473623 0)
(0.572014104857 1.0345283202 0)
(0.572148382233 0.95745762464 0)
(0.572230743013 0.880398269342 0)
(0.572271191409 0.803354472148 0)
(0.572278900706 0.72632916 0)
(0.572262216177 0.649324081007 0)
(0.572228658974 0.572339917879 0)
(0.572184930458 0.495376399649 0)
(0.572136911134 0.418432563619 0)
(0.572089670538 0.341506101614 0)
(0.572045761297 0.264597718698 0)
(0.571975601182 0.187493204555 0)
(0.570790268219 0.114141706124 0)
(0.539867755382 0.0273476764066 0)
(-1.82562293163 0.195041860803 0)
(-1.94196197074 0.338937774172 0)
(-1.92491476377 0.623690262202 0)
(-1.89682990437 0.872069197567 0)
(-1.85959586389 1.11746312318 0)
(-1.8141529391 1.35598703653 0)
(-1.76125747025 1.58674011373 0)
(-1.70177294408 1.80867480134 0)
(-1.63660463609 2.02096558017 0)
(-1.56667382522 2.22295668007 0)
(-1.49289035544 2.41416147469 0)
(-1.41613057339 2.59424959283 0)
(-1.33722011839 2.76303187138 0)
(-1.25692158583 2.92044340238 0)
(-1.17592663306 3.06652601095 0)
(-1.09485193299 3.20141104899 0)
(-1.01423829321 3.32530315831 0)
(-0.934552252065 3.43846542227 0)
(-0.856189507938 3.54120613554 0)
(-0.779479613943 3.63386727448 0)
(-0.704691460389 3.71681464403 0)
(-0.632039159818 3.79042960548 0)
(-0.561688036361 3.85510224655 0)
(-0.493760498661 3.91122583324 0)
(-0.428341640896 3.95919237745 0)
(-0.365484470195 3.99938915842 0)
(-0.305214700798 4.03219604755 0)
(-0.247535087902 4.05798350015 0)
(-0.192429297715 4.07711109574 0)
(-0.139865324869 4.08992654301 0)
(-0.0897984764756 4.09676504314 0)
(-0.0421739635714 4.09794847285 0)
(0.00307099241006 4.09378480109 0)
(0.0460080008595 4.08457978344 0)
(0.086705212183 4.07060289469 0)
(0.125240408779 4.05212961809 0)
(0.161690954538 4.02941787661 0)
(0.19613564956 4.00271406678 0)
(0.228653404391 3.97225288311 0)
(0.259322711015 3.93825787236 0)
(0.288221126817 3.90094183784 0)
(0.315424884252 3.86050727931 0)
(0.341008587421 3.81714682422 0)
(0.365044984644 3.77104365184 0)
(0.38760480384 3.72237190556 0)
(0.408756639863 3.67129709138 0)
(0.428566884555 3.61797646078 0)
(0.447099691472 3.5625593773 0)
(0.464416968604 3.50518766611 0)
(0.48057839327 3.44599594658 0)
(0.495641444405 3.38511194806 0)
(0.509661448097 3.32265680895 0)
(0.522691633025 3.25874535992 0)
(0.534783192875 3.19348639167 0)
(0.545985353451 3.12698290799 0)
(0.556345442447 3.05933236498 0)
(0.565908960393 2.99062689716 0)
(0.574719651387 2.92095353128 0)
(0.582819572675 2.85039438875 0)
(0.590249162192 2.77902687746 0)
(0.597047303512 2.70692387385 0)
(0.603251387665 2.63415389598 0)
(0.608897371565 2.56078126838 0)
(0.614019832739 2.48686627958 0)
(0.618652020302 2.41246533273 0)
(0.622825902048 2.33763109026 0)
(0.626572207734 2.26241261318 0)
(0.629920468533 2.18685549544 0)
(0.632899052837 2.11100199412 0)
(0.635535198468 2.03489115597 0)
(0.637855041508 1.95855894057 0)
(0.63988364188 1.88203834087 0)
(0.641645005906 1.80535950129 0)
(0.643162106014 1.72854983383 0)
(0.644456897817 1.65163413259 0)
(0.645550334755 1.5746346869 0)
(0.646462380534 1.49757139346 0)
(0.647212019527 1.42046186756 0)
(0.647817265395 1.34332155382 0)
(0.648295168074 1.26616383635 0)
(0.648661819379 1.18900014882 0)
(0.648932357378 1.11184008427 0)
(0.649120969777 1.03469150495 0)
(0.649240896502 0.95756065227 0)
(0.649304431713 0.880452256996 0)
(0.649322925466 0.803369649823 0)
(0.64930678525 0.726314872612 0)
(0.649265477537 0.649288790752 0)
(0.649207529274 0.572291206465 0)
(0.649140528442 0.495320968006 0)
(0.649071117047 0.418376260502 0)
(0.649004998174 0.341453705264 0)
(0.648944989128 0.2645542884 0)
(0.648857801777 0.187413909703 0)
(0.647505553222 0.11491259277 0)
(0.612429202227 0.0251977796987 0)
(-2.07019785151 0.222202784851 0)
(-2.20251703079 0.345503192727 0)
(-2.18232680832 0.649756551617 0)
(-2.14943158364 0.907250383723 0)
(-2.10585871208 1.1619180158 0)