/*--------------------------------*- C++ -*----------------------------------*\
| =========                 |                                                 |
| \\      /  F ield         | OpenFOAM: The Open Source CFD Toolbox           |
|  \\    /   O peration     | Version:  v1906                                 |
|   \\  /    A nd           | Web:      www.OpenFOAM.com                      |
|    \\/     M anipulation  |                                                 |
\*---------------------------------------------------------------------------*/
FoamFile
{
    version     2.0;
    format      ascii;
    class       volVectorField;
    location    "461";
    object      U;
}
// * * * * * * * * * * * * * * * * * * * * * * * * * * * * * * * * * * * * * //

dimensions      [0 1 -1 0 0 0 0];


internalField   nonuniform List<vector> 
9216
(
(0.00155799831358 -0.00155956918374 0)
(0.00159770716675 -0.00486015498234 6.54462885995e-28)
(0.00158629723913 -0.00816860859451 1.08220949466e-31)
(0.0015630460047 -0.0114567700465 0)
(0.00153180781988 -0.014686018581 0)
(0.00149334814251 -0.0178423127502 0)
(0.00144856404974 -0.0209115274372 0)
(0.00139819850441 -0.0238812893101 0)
(0.00134310246371 -0.0267408269595 0)
(0.00128400265371 -0.0294810631672 0)
(0.00122173519266 -0.032094510224 0)
(0.00115695240464 -0.0345752841914 0)
(0.00109040804512 -0.0369189251157 0)
(0.00102262081897 -0.0391223493898 0)
(0.000954218433903 -0.0411836228783 0)
(0.000885558412827 -0.0431018866889 0)
(0.000817130943952 -0.0448771168613 0)
(0.000749133619355 -0.0465100530132 0)
(0.000681930803992 -0.0480019697961 0)
(0.000615579013862 -0.0493546273162 0)
(0.000550341186841 -0.05057006696 0)
(0.000486159626477 -0.0516505904819 0)
(0.000423223550959 -0.0525985848943 0)
(0.000361388345811 -0.0534165308675 0)
(0.0003007960818 -0.0541068550324 0)
(0.000241240376342 -0.0546719634952 0)
(0.000182839122703 -0.0551141197051 0)
(0.000125346032654 -0.0554354995779 0)
(6.88755312804e-05 -0.0556380926209 0)
(1.31625869175e-05 -0.0557237727819 0)
(-4.16650699016e-05 -0.0556942330606 0)
(-9.58759805248e-05 -0.0555510511442 0)
(-0.000149307462344 -0.0552956563091 0)
(-0.000202205574772 -0.0549294293253 0)
(-0.000254357551449 -0.0544536758919 0)
(-0.000305971643924 -0.053869740655 0)
(-0.000356769789657 -0.053179007432 0)
(-0.000406906561589 -0.0523830168051 0)
(-0.000456030320856 -0.0514834890344 0)
(-0.000504234459487 -0.0504824354815 0)
(-0.000551095034475 -0.0493821957947 0)
(-0.000596646105267 -0.0481855285828 0)
(-0.000640403255037 -0.0468956566041 0)
(-0.000682350346036 -0.045516326254 0)
(-0.000721957729984 -0.0440518592081 0)
(-0.000759164949076 -0.0425071791573 0)
(-0.000793404416176 -0.0408878833248 0)
(-0.000824562606642 -0.0392002503245 0)
(-0.00085202416203 -0.0374513514412 0)
(-0.000875599513713 -0.0356490540405 0)
(-0.000894614039825 -0.0338021767322 0)
(-0.000908799068144 -0.0319204727457 0)
(-0.000917456279893 -0.0300147732995 0)
(-0.000920313974928 -0.0280968743684 0)
(-0.000916783554485 -0.0261795510001 0)
(-0.000906767178416 -0.024276253292 0)
(-0.000889984903344 -0.0224008995103 0)
(-0.000866706246385 -0.0205673835686 0)
(-0.000837112335632 -0.0187891768572 0)
(-0.000801948886715 -0.0170787536011 0)
(-0.000761882782043 -0.0154471188164 0)
(-0.000718058021232 -0.0139033441103 0)
(-0.000671387170403 -0.0124543208139 0)
(-0.000623060015596 -0.0111047095396 0)
(-0.000573880343123 -0.0098570782962 0)
(-0.000524847816202 -0.00871210471143 0)
(-0.000476558694773 -0.00766881710213 0)
(-0.000429798728317 -0.00672479637652 0)
(-0.000384954126121 -0.00587642187469 0)
(-0.000342591913026 -0.00511906719339 0)
(-0.000302897504288 -0.0044473426483 0)
(-0.000266246535492 -0.00385525337385 0)
(-0.000232660176963 -0.00333641095491 0)
(-0.000202335896649 -0.00288416933785 0)
(-0.000175117754518 -0.00249186796476 0)
(-0.000151008432749 -0.00215298298087 0)
(-0.000129698689538 -0.00186135283379 0)
(-0.000111069372485 -0.00161123939066 0)
(-9.47590300578e-05 -0.00139744679129 0)
(-8.06130427797e-05 -0.00121528339995 0)
(-6.82635212104e-05 -0.00106063045821 0)
(-5.74991914663e-05 -0.000929900020304 0)
(-4.77324925051e-05 -0.000820565301457 0)
(-3.78919315434e-05 -0.000727108814339 0)
(-3.07834369443e-05 -0.000652337273437 0)
(-2.87956525969e-05 -0.000598002395749 0)
(-2.62130287073e-05 -0.000538245476075 0)
(-2.24607348954e-05 -0.000489557129104 0)
(-2.23558789436e-05 -0.000448615970159 0)
(-2.40961038181e-05 -0.000401601837714 0)
(-2.40555685132e-05 -0.000354534418839 0)
(-2.44107235354e-05 -0.000304343896428 0)
(-2.77643295402e-05 -0.000249755284745 0)
(-3.15062157597e-05 -0.000189757826903 0)
(-3.54719514193e-05 -0.000116953168739 0)
(-3.80897535534e-05 -3.71628328425e-05 0)
(0.00487175246944 -0.00161582562518 0)
(0.00513262309979 -0.00517287680306 0)
(0.00509311582594 -0.00869853920621 -6.7296308828e-28)
(0.005016815382 -0.0122049402509 0)
(0.0049153610227 -0.0156451787423 0)
(0.00479123951587 -0.0190060501156 0)
(0.00464689916311 -0.0222728541102 0)
(0.00448473743016 -0.0254325044803 0)
(0.00430737623281 -0.0284735991425 0)
(0.00411726768508 -0.0313865307103 0)
(0.00391698754014 -0.0341634401869 0)
(0.00370877271836 -0.03679817819 0)
(0.00349490680487 -0.0392861593189 0)
(0.00327721245652 -0.0416242500463 0)
(0.00305753882191 -0.043810572468 0)
(0.00283720752301 -0.0458443640918 0)
(0.00261759804459 -0.0477257708838 0)
(0.00239953775148 -0.0494557125748 0)
(0.00218397684206 -0.0510356916782 0)
(0.00197131217508 -0.0524676837026 0)
(0.00176214446135 -0.0537539752158 0)
(0.0015565277254 -0.0548970862341 0)
(0.00135480354527 -0.0558996404157 0)
(0.00115677191288 -0.0567643189473 0)
(0.000962600437902 -0.0574937604691 0)
(0.000771915187954 -0.0580905424264 0)
(0.000584783923831 -0.0585571069306 0)
(0.000400728504003 -0.0588957651682 0)
(0.000219782246474 -0.0591086460143 0)
(4.14268809267e-05 -0.0591977215948 0)
(-0.000134279547483 -0.059164771 0)
(-0.000307837019127 -0.0590114431604 0)
(-0.000479100624824 -0.0587392359874 0)
(-0.000648485377108 -0.0583495603714 0)
(-0.000815702821529 -0.0578437598339 0)
(-0.000981026464721 -0.0572231903673 0)
(-0.00114397338768 -0.056489261361 0)
(-0.00130462822738 -0.0556435276127 0)
(-0.00146228288744 -0.0546877472071 0)
(-0.00161681153728 -0.0536239753827 0)
(-0.00176728168727 -0.0524546289502 0)
(-0.00191336840674 -0.0511825679274 0)
(-0.00205394917415 -0.0498111552059 0)
(-0.0021885364577 -0.0483443142307 0)
(-0.00231586466893 -0.046786579295 0)
(-0.00243531215787 -0.0451431295913 0)
(-0.00254548887962 -0.0434198424151 0)
(-0.00264561727611 -0.0416233227494 0)
(-0.00273414080128 -0.0397609862634 0)
(-0.00281005121757 -0.0378411099831 0)
(-0.00287156800377 -0.035872959169 0)
(-0.00291743300032 -0.0338668485379 0)
(-0.00294573648027 -0.0318342590831 0)
(-0.00295521338597 -0.0297878144206 0)
(-0.00294425677967 -0.0277412461772 0)
(-0.00291218464928 -0.0257091451186 0)
(-0.00285836277479 -0.0237066625153 0)
(-0.00278333474319 -0.0217490236898 0)
(-0.00268795665211 -0.0198510227889 0)
(-0.00257436211978 -0.0180264063866 0)
(-0.00244502247 -0.0162872689004 0)
(-0.0023034329514 -0.0146434913545 0)
(-0.00215288064303 -0.01310242824 0)
(-0.00199697492665 -0.0116689030603 0)
(-0.00183858128823 -0.0103454320334 0)
(-0.00168064332092 -0.00913250849087 0)
(-0.00152533217322 -0.00802887079191 0)
(-0.00137490643588 -0.00703172832034 0)
(-0.00123085468104 -0.00613700843252 0)
(-0.00109473375899 -0.00533959193268 0)
(-0.000967375710966 -0.00463356029944 0)
(-0.00084973709649 -0.00401238156987 0)
(-0.000742127200361 -0.00346909135103 0)
(-0.000644953364036 -0.0029964528715 0)
(-0.000557933690864 -0.00258719590503 0)
(-0.000480839865687 -0.00223423951665 0)
(-0.00041286243221 -0.00193092132024 0)
(-0.000353395526283 -0.00167110180022 0)
(-0.000301462184479 -0.00144923490298 0)
(-0.000256390257945 -0.00126033939291 0)
(-0.000217225678321 -0.00109998434039 0)
(-0.000183277654719 -0.00096418138336 0)
(-0.00015347324001 -0.000849270848636 0)
(-0.000126233475754 -0.000751378130338 0)
(-0.00010412363048 -0.000658812504591 0)
(-9.25118404858e-05 -0.000587917683558 0)
(-7.90859165362e-05 -0.000525099595621 0)
(-6.76588660175e-05 -0.000478408191623 0)
(-6.57211870402e-05 -0.000430804556939 0)
(-6.98304613724e-05 -0.000392750161607 0)
(-7.18992467139e-05 -0.000352521936181 0)
(-7.57175117487e-05 -0.000300097039798 0)
(-8.33236493929e-05 -0.000244312927141 0)
(-0.000102852331611 -0.000193573610489 0)
(-0.000125709425647 -0.000123483233329 0)
(-0.000113275280376 -3.34490811076e-05 0)
(0.00824477249314 -0.00163713235287 0)
(0.00869069717074 -0.00523817087278 0)
(0.00861631035427 -0.00880067252858 -6.72017459538e-28)
(0.00848396593614 -0.0123463929888 0)
(0.00831007957143 -0.0158237771046 0)
(0.00809818989246 -0.0192189575147 0)
(0.00785212843141 -0.0225167897315 0)
(0.00757602236032 -0.0257039520525 0)
(0.00727424303007 -0.0287689506068 0)
(0.00695111230545 -0.0317021913494 0)
(0.00661091161297 -0.0344959389175 0)
(0.00625760583611 -0.0371442378502 0)
(0.00589493232751 -0.0396427684902 0)
(0.00552615006862 -0.0419886924586 0)
(0.0051542108805 -0.0441804598633 0)
(0.00478152727935 -0.0462176304717 0)
(0.00441021426621 -0.0481006762571 0)
(0.00404185959756 -0.0498308140772 0)
(0.0036778194625 -0.051409830981 0)
(0.00331897410023 -0.0528399473831 0)
(0.00296606287159 -0.0541236764692 0)
(0.00261941250839 -0.0552637230588 0)
(0.00227930234447 -0.0562628780978 0)
(0.00194565841425 -0.0571239507867 0)
(0.00161844487701 -0.0578496935695 0)
(0.00129732209184 -0.05844276194 0)
(0.000982063887537 -0.0589056649121 0)
(0.000672181109496 -0.0592407477569 0)
(0.000367366138773 -0.0594501640572 0)
(6.7084582505e-05 -0.0595358783303 0)
(-0.000228950057842 -0.0594996606959 0)
(-0.000521213685234 -0.0593431058916 0)
(-0.000809870840894 -0.0590676507928 0)
(-0.00109523686537 -0.0586746175761 0)
(-0.00137725126899 -0.0581652511287 0)
(-0.00165596765284 -0.0575407840107 0)
(-0.00193100954232 -0.0568024964223 0)
(-0.00220208931531 -0.0559517982231 0)
(-0.00246845619041 -0.0549903051601 0)
(-0.0027294460771 -0.0539199279142 0)
(-0.00298393101036 -0.0527429513516 0)
(-0.00323089660102 -0.0514621143086 0)
(-0.00346889608024 -0.0500806760572 0)
(-0.00369664048022 -0.0486024716765 0)
(-0.00391244932793 -0.0470319559411 0)
(-0.00411482568337 -0.0453742329547 0)
(-0.00430188862861 -0.043635090089 0)
(-0.00447190444764 -0.0418210282225 0)
(-0.00462270142363 -0.0399393249987 0)
(-0.00475216111619 -0.0379981110069 0)
(-0.00485766973464 -0.0360065002917 0)
(-0.00493664047011 -0.0339747217179 0)
(-0.00498611859419 -0.0319142710375 0)
(-0.0050034388218 -0.0298379807768 0)
(-0.00498605644217 -0.0277600039148 0)
(-0.00493230569634 -0.0256956029088 0)
(-0.00484129779725 -0.0236607906884 0)
(-0.00471353778729 -0.0216718212448 0)
(-0.00455073547243 -0.0197445992192 0)
(-0.00435624920997 -0.0178939959784 0)
(-0.00413475441406 -0.0161330667309 0)
(-0.00389221509387 -0.0144722650499 0)
(-0.00363480814905 -0.0129190231718 0)
(-0.00336854748686 -0.0114778658522 0)
(-0.00309861048341 -0.0101508491595 0)
(-0.00282968350346 -0.00893799323016 0)
(-0.0025657016877 -0.00783757609861 0)
(-0.00231020684446 -0.00684634240435 0)
(-0.00206597243851 -0.00595974185518 0)
(-0.00183532737818 -0.00517220233547 0)
(-0.00161989270814 -0.00447739717578 0)
(-0.00142100730163 -0.00386843495418 0)
(-0.00123946070087 -0.00333797895093 0)
(-0.00107572580704 -0.00287837703798 0)
(-0.00092954886436 -0.00248191676424 0)
(-0.000800243257194 -0.0021411401357 0)
(-0.000686561505599 -0.00184912435883 0)
(-0.000587183500611 -0.00159960780209 0)
(-0.00050061467418 -0.0013870059449 0)
(-0.000425518955067 -0.00120635957276 0)
(-0.00036052717769 -0.00105327506582 0)
(-0.000304494129767 -0.000923821022043 0)
(-0.000256309493395 -0.000814384308909 0)
(-0.00021521053215 -0.00072209434078 0)
(-0.000181667098481 -0.00063374485831 0)
(-0.000159028828448 -0.00056857164814 0)
(-0.000138708778668 -0.000518481561826 0)
(-0.000117949092027 -0.000453906069175 0)
(-0.000105545376175 -0.000398846096449 0)
(-0.000108146417049 -0.000365575555105 0)
(-0.000122934369319 -0.000338896864954 0)
(-0.000125828806989 -0.000270748805579 0)
(-0.000143149022103 -0.000223339867222 0)
(-0.000167404930311 -0.000162829775561 0)
(-0.000188684970004 -9.78487301335e-05 0)
(-0.000183114656626 -2.99313824363e-05 0)
(0.0116831689373 -0.0016635152345 0)
(0.0123199519516 -0.00532078425342 0)
(0.0122126217943 -0.00893596595113 6.71928632518e-28)
(0.0120221625409 -0.0125331444882 0)
(0.0117722175741 -0.016058540723 0)
(0.0114680833165 -0.0194974946868 0)
(0.0111153228777 -0.0228342697475 0)
(0.0107199864035 -0.0260552037941 0)
(0.0102883994279 -0.0291486794778 0)
(0.00982687834186 -0.0321051622815 0)
(0.00934157089548 -0.0349171363226 0)
(0.00883823614176 -0.0375789853769 0)
(0.00832217641914 -0.0400868218819 0)
(0.00779809262163 -0.0424382922613 0)
(0.00727010612479 -0.0446323618121 0)
(0.00674167630865 -0.0466691034809 0)
(0.00621569154846 -0.0485494883229 0)
(0.00569442316308 -0.05027519648 0)
(0.00517965879542 -0.0518484407229 0)
(0.00467266735039 -0.0532718168641 0)
(0.00417435281808 -0.054548169114 0)
(0.00368521209923 -0.0556804819585 0)
(0.00320549592313 -0.0566717844899 0)
(0.00273515051969 -0.0575250778014 0)
(0.00227398049257 -0.0582432709758 0)
(0.00182157221493 -0.0588291363429 0)
(0.00137745897455 -0.0592852699515 0)
(0.000941028499058 -0.0596140685299 0)
(0.000511693584949 -0.0598177100685 0)
(8.87876555143e-05 -0.0598981490249 0)
(-0.00032825506624 -0.0598571198307 0)
(-0.000740012648479 -0.0596961445961 0)
(-0.00114688545168 -0.059416560559 0)
(-0.00154921581401 -0.0590195560836 0)
(-0.00194708975234 -0.058506215381 0)
(-0.00234046724601 -0.057877580957 0)
(-0.00272898325111 -0.0571347235377 0)
(-0.00311209590289 -0.0562788264851 0)
(-0.00348889795088 -0.0553112745896 0)
(-0.00385829149562 -0.0542337496663 0)
(-0.00421881985995 -0.0530483225448 0)
(-0.00456887180409 -0.0517575396077 0)
(-0.00490653370166 -0.0503644951227 0)
(-0.0052298095689 -0.0488728858553 0)
(-0.0055364734372 -0.0472870461193 0)
(-0.00582426972833 -0.0456119638929 0)
(-0.00609072838755 -0.0438532900524 0)
(-0.00633330329134 -0.0420173505437 0)
(-0.00654912823406 -0.0401111894022 0)
(-0.00673509810728 -0.0381426563107 0)
(-0.00688762828996 -0.0361205645095 0)
(-0.00700280119833 -0.0340549060509 0)
(-0.00707632061467 -0.031957103592 0)
(-0.00710393482684 -0.0298402129159 0)
(-0.0070817464049 -0.0277189890322 0)
(-0.00700688765342 -0.0256097039696 0)
(-0.00687790526908 -0.0235297059063 0)
(-0.006695165732 -0.0214968450115 0)
(-0.00646108915177 -0.0195287940911 0)
(-0.00618036548676 -0.0176422889333 0)
(-0.00586018718271 -0.0158520502966 0)
(-0.00550974971721 -0.0141694777762 0)
(-0.00513872151517 -0.0126019885103 0)
(-0.00475594107784 -0.0111534150373 0)
(-0.00436888032802 -0.00982495052171 0)
(-0.00398400341202 -0.00861584712421 0)
(-0.00360694191323 -0.0075236965941 0)
(-0.00324263253907 -0.00654454203234 0)
(-0.00289507759927 -0.00567309102282 0)
(-0.00256739668348 -0.00490306330795 0)
(-0.00226184734714 -0.00422754020775 0)
(-0.00198017663713 -0.00363914705054 0)
(-0.00172364894363 -0.00313004144798 0)
(-0.00149295505612 -0.00269193086294 0)
(-0.00128780561983 -0.00231637301687 0)
(-0.00110697495429 -0.00199528104455 0)
(-0.000948519737691 -0.00172134752895 0)
(-0.00081029807029 -0.00148817518616 0)
(-0.000690151762379 -0.00129019230828 0)
(-0.000586073708627 -0.00112253434584 0)
(-0.000496193337267 -0.000980953514156 0)
(-0.000418903587466 -0.000861713251336 0)
(-0.000352863786628 -0.000761520677129 0)
(-0.000297710799531 -0.000677755898974 0)
(-0.000249637516144 -0.000592881959106 0)
(-0.000220855568482 -0.000542266186688 0)
(-0.000193876362155 -0.000484693645428 0)
(-0.000169105202124 -0.000422539014931 0)
(-0.000157659821154 -0.000380621911015 0)
(-0.000149830490093 -0.000325605106953 0)
(-0.000159057208405 -0.000279833838782 0)
(-0.000186645543351 -0.000248300853059 0)
(-0.000195596448899 -0.000180430225041 0)
(-0.000221135180738 -0.000125977551548 0)
(-0.00024719430577 -7.66308085523e-05 0)
(-0.000245605024537 -2.494545164e-05 0)
(0.015183730164 -0.00169883546977 0)
(0.0160111974312 -0.00543239797929 0)
(0.0158686880407 -0.00912070022611 0)
(0.0156165441967 -0.01278810661 0)
(0.0152859214672 -0.0163787142722 0)
(0.0148841177806 -0.0198768706076 0)
(0.0144187233366 -0.0232660788763 0)
(0.0138979633037 -0.0265322362435 0)
(0.0133303709899 -0.0296635814482 0)
(0.0127244458705 -0.0326506976896 0)
(0.01208838601 -0.0354864065386 0)
(0.0114298488972 -0.0381655976129 0)
(0.0107558058093 -0.0406850091915 0)
(0.0100724209946 -0.04304298369 0)
(0.00938502186024 -0.0452392126555 0)
(0.00869807372151 -0.0472744888156 0)
(0.00801523233342 -0.0491504722393 0)
(0.00733937548195 -0.0508694805671 0)
(0.00667269889216 -0.0524343033684 0)
(0.00601676878133 -0.0538480448169 0)
(0.00537263080659 -0.0551139902493 0)
(0.00474085972995 -0.0562354978807 0)
(0.00412166431073 -0.0572159094897 0)
(0.00351492305686 -0.0580584805454 0)
(0.00292027930572 -0.0587663235083 0)
(0.00233716155155 -0.0593423653255 0)
(0.00176487040851 -0.0597893138027 0)
(0.00120258748203 -0.0601096348257 0)
(0.00064945947148 -0.0603055363975 0)
(0.00010460157558 -0.0603789613881 0)
(-0.000432815182713 -0.0603315939132 0)
(-0.00096356111125 -0.0601648611545 0)
(-0.00148825475848 -0.059879964495 0)
(-0.00200735858955 -0.0594779118562 0)
(-0.00252108165264 -0.0589595658367 0)
(-0.00302937933592 -0.0583257080149 0)
(-0.00353186098157 -0.0575771168181 0)
(-0.00402780547911 -0.0567146599918 0)
(-0.0045160890827 -0.0557393973344 0)
(-0.0049952324163 -0.0546526902214 0)
(-0.00546336368318 -0.0534563102958 0)
(-0.0059183064808 -0.0521525396098 0)
(-0.00635757980218 -0.0507442528543 0)
(-0.0067785131552 -0.0492349729887 0)
(-0.00717825367469 -0.0476288954148 0)
(-0.00755385832603 -0.0459308804408 0)
(-0.00790224324672 -0.0441464251846 0)
(-0.00822018043796 -0.0422816347438 0)
(-0.00850413168629 -0.0403432281501 0)
(-0.00875013206292 -0.038338618038 0)
(-0.00895357182042 -0.0362761064464 0)
(-0.00910914343737 -0.0341652112068 0)
(-0.00921087907339 -0.0320170945196 0)
(-0.00925255950018 -0.0298449883702 0)
(-0.00922836043536 -0.0276644304431 0)
(-0.00913378263662 -0.0254931280977 0)
(-0.00896643700829 -0.0233503292266 0)
(-0.00872628971386 -0.0212561620506 0)
(-0.00841627535094 -0.0192308554757 0)
(-0.00804227457499 -0.0172940539612 0)
(-0.00761455799607 -0.0154633189145 0)
(-0.0071468648039 -0.0137515804644 0)
(-0.00665357944121 -0.0121659142265 0)
(-0.0061468450172 -0.0107086486624 0)
(-0.00563623365803 -0.00937946555097 0)
(-0.0051298053546 -0.00817654469711 0)
(-0.00463482195918 -0.00709663660913 0)
(-0.00415774724026 -0.00613485652189 0)
(-0.00370382142608 -0.00528483681809 0)
(-0.00327687129874 -0.00453926039041 0)
(-0.00287954025503 -0.00389042773262 0)
(-0.00251390945826 -0.00333045393542 0)
(-0.00218182458095 -0.00285094565184 0)
(-0.00188448641134 -0.00244269662716 0)
(-0.00162158500121 -0.00209607755408 0)
(-0.00139112150116 -0.00180197611009 0)
(-0.00119003638704 -0.0015525529386 0)
(-0.00101512873042 -0.00134133122434 0)
(-0.000863438558893 -0.00116286094856 0)
(-0.000732248198205 -0.00101247025284 0)
(-0.000619096674389 -0.000886165294763 0)
(-0.000521829751298 -0.000780543488705 0)
(-0.000438570654687 -0.000693214646775 0)
(-0.000368658432174 -0.000618443072496 0)
(-0.000315162411579 -0.000553801191187 0)
(-0.000281943351729 -0.00050704022918 0)
(-0.000255770637318 -0.000454313226468 0)
(-0.000227837815976 -0.000396025591536 0)
(-0.000201682737423 -0.000329270271703 0)
(-0.000198421482269 -0.000286172357684 0)
(-0.000199682515395 -0.000231693199962 0)
(-0.000228722670188 -0.000199100368393 0)
(-0.000262082914637 -0.000157016562016 0)
(-0.000270477571646 -9.98491442339e-05 0)
(-0.000285531361703 -5.81650043299e-05 0)
(-0.000283864739263 -1.91970246495e-05 0)
(0.0187678189523 -0.00174405536272 0)
(0.0197884713492 -0.00557598787411 0)
(0.0196073845508 -0.00935892933979 0)
(0.0192884349447 -0.0131167839191 0)
(0.0188706660521 -0.0167910199245 0)
(0.0183636955871 -0.0203647262848 0)
(0.0177775067627 -0.0238204622902 0)
(0.0171228515944 -0.0271435993294 0)
(0.0164108031158 -0.0303222450329 0)
(0.0156523177809 -0.03334720009 0)
(0.0148578735432 -0.036211790597 0)
(0.0140371819371 -0.0389116271046 0)
(0.0131989947155 -0.0414443152878 0)
(0.0123509821486 -0.0438091454313 0)
(0.0114996928168 -0.0460067817655 0)
(0.0106505600937 -0.0480389688838 0)
(0.00980796369407 -0.0499082653751 0)
(0.00897530783845 -0.0516178114088 0)
(0.00815512971286 -0.0531711313314 0)
(0.0073492007353 -0.0545719710234 0)
(0.00655864225343 -0.0558241661586 0)
(0.00578401998379 -0.0569315381225 0)
(0.00502544650035 -0.0578978122703 0)
(0.00428265676065 -0.0587265551192 0)
(0.00355509214923 -0.059421125774 0)
(0.00284195709641 -0.0599846392903 0)
(0.00214228854013 -0.0604199386129 0)
(0.00145500019184 -0.0607295743871 0)
(0.000778945540922 -0.0609157910013 0)
(0.000112958522318 -0.060980518183 0)
(-0.000544081172956 -0.0609253777257 0)
(-0.00119320340952 -0.06075167928 0)
(-0.00183527524752 -0.0604604528508 0)
(-0.00247094922294 -0.0600524773181 0)
(-0.00310058468375 -0.0595283298174 0)
(-0.00372419597503 -0.058888453151 0)
(-0.00434137906403 -0.0581332415466 0)
(-0.00495127596253 -0.0572631452818 0)
(-0.00555252831869 -0.0562787908804 0)
(-0.00614328230492 -0.0551811121111 0)
(-0.0067211935755 -0.053971482775 0)
(-0.00728349195485 -0.0526518400497 0)
(-0.00782704615429 -0.0512247841107 0)
(-0.00834847731386 -0.0496936398721 0)
(-0.00884424642669 -0.0480624691027 0)
(-0.00931074715694 -0.0463360287929 0)
(-0.00974431498999 -0.0445196848554 0)
(-0.0101411756656 -0.0426193088993 0)
(-0.0104972543805 -0.040641208035 0)
(-0.0108079039745 -0.038592160431 0)
(-0.0110675483744 -0.0364796367422 0)
(-0.0112694099618 -0.0343122709445 0)
(-0.0114054606521 -0.0321005739842 0)
(-0.011466860805 -0.0298577452031 0)
(-0.0114450094932 -0.0276002595845 0)
(-0.0113330269367 -0.0253478243533 0)
(-0.0111272466423 -0.0231222531527 0)
(-0.0108267176827 -0.0209467198589 0)
(-0.0104346870898 -0.0188448118595 0)
(-0.00995730840965 -0.0168406009898 0)
(-0.00940879950304 -0.0149566667315 0)
(-0.00880997324836 -0.0132085226374 0)
(-0.00818242620217 -0.0116019897314 0)
(-0.00754202166888 -0.0101360881247 0)
(-0.00689964603675 -0.00880792777516 0)
(-0.00626435456725 -0.00761445052956 0)
(-0.00564500885797 -0.00655165189141 0)
(-0.00504993918222 -0.00561355332845 0)
(-0.00448577523923 -0.00479222543732 0)
(-0.00395683302461 -0.00407879114885 0)
(-0.00346563034966 -0.00346458618801 0)
(-0.00301429100805 -0.00294143817564 0)
(-0.0026055718957 -0.00250062432757 0)
(-0.00224189121643 -0.00213169644505 0)
(-0.00192310919256 -0.00182301258418 0)
(-0.00164591858801 -0.00156373630116 0)
(-0.00140534061691 -0.00134535810196 0)
(-0.00119670096921 -0.00116158025023 0)
(-0.00101618095063 -0.00100731428122 0)
(-0.000860330800977 -0.00087819462754 0)
(-0.00072606258233 -0.000770536641896 0)
(-0.000610661103742 -0.000681178272906 0)
(-0.00051159957927 -0.000607999168866 0)
(-0.000427250664174 -0.000542738701526 0)
(-0.000369313680351 -0.000489969851931 0)
(-0.000333156706424 -0.00044593991686 0)
(-0.000297750435938 -0.000389559251744 0)
(-0.00027794042531 -0.000347769846394 0)
(-0.000264431653732 -0.000302273866772 0)
(-0.000260425193755 -0.000257161886618 0)
(-0.00024402400539 -0.000193055683147 0)
(-0.000258549065805 -0.000149822108156 0)
(-0.000301073851915 -0.000123587735186 0)
(-0.000316491404032 -8.42757561079e-05 0)
(-0.00032100930006 -4.73931229348e-05 0)
(-0.000320035405586 -1.56589870909e-05 0)
(0.0224572326905 -0.00180034439334 0)
(0.0236747093193 -0.00575485857355 0)
(0.0234504354214 -0.00965571018135 6.67191068861e-28)
(0.0230578199147 -0.0135258798385 0)
(0.0225443238657 -0.0173034879958 0)
(0.0219223251941 -0.0209700337629 0)
(0.0212046807467 -0.0245069259901 0)
(0.0204051404014 -0.0278989431427 0)
(0.0195377486096 -0.0311341186601 0)
(0.0186162802068 -0.0342036307988 0)
(0.0176537779516 -0.0371015460511 0)
(0.0166622039748 -0.0398244802345 0)
(0.0156522114002 -0.0423712128916 0)
(0.0146330220034 -0.044742289607 0)
(0.0136123987556 -0.0469396388235 0)
(0.0125966873861 -0.0489662221307 0)
(0.0115909123063 -0.0508257287504 0)
(0.0105989012028 -0.0525223188494 0)
(0.0096234290769 -0.0540604148003 0)
(0.00866636184635 -0.0554445366139 0)
(0.00772879845015 -0.0566791753297 0)
(0.0068111977264 -0.0577686979358 0)
(0.00591349591437 -0.0587172769716 0)
(0.00503520503865 -0.0595288390954 0)
(0.00417550254424 -0.0602070272966 0)
(0.00333330417989 -0.0607551729687 0)
(0.00250733308855 -0.0611762746378 0)
(0.00169617733511 -0.0614729816375 0)
(0.000898350260996 -0.061647581731 0)
(0.000112345157744 -0.0617019911151 0)
(-0.000663300700994 -0.0616377598253 0)
(-0.00142994290107 -0.0614560593445 0)
(-0.00218875467246 -0.0611577145508 0)
(-0.0029406501484 -0.0607432256657 0)
(-0.0036861968648 -0.0602128170964 0)
(-0.00442553339484 -0.0595665070408 0)
(-0.00515828391884 -0.058804201592 0)
(-0.00588349148308 -0.0579258141761 0)
(-0.00659956464518 -0.0569314087507 0)
(-0.00730426219709 -0.0558213606965 0)
(-0.00799471053791 -0.0545965253053 0)
(-0.00866747512939 -0.0532583976844 0)
(-0.00931867159874 -0.0518092438346 0)
(-0.00994412255981 -0.0502521789938 0)
(-0.0105395232345 -0.0485911710808 0)
(-0.0111005938526 -0.0468309548927 0)
(-0.0116231522633 -0.0449768596174 0)
(-0.0121030603866 -0.0430345800643 0)
(-0.0125359760356 -0.0410099623653 0)
(-0.0129168971587 -0.038908917891 0)
(-0.0132395258008 -0.0367376182253 0)
(-0.0134956200403 -0.0345031291885 0)
(-0.0136746287045 -0.0322145509402 0)
(-0.0137640874069 -0.0298845425746 0)
(-0.0137512109763 -0.0275306015836 0)
(-0.0136255040957 -0.0251753696901 0)
(-0.0133820274965 -0.0228440237726 0)
(-0.0130179314456 -0.020563605456 0)
(-0.0125370303347 -0.0183614482717 0)
(-0.0119422871542 -0.0162681673883 0)
(-0.0112531523491 -0.0143159839912 0)
(-0.0105026934258 -0.0125252071373 0)
(-0.00972510051968 -0.0108979627111 0)
(-0.00893967773252 -0.00942586876206 0)
(-0.00815613258234 -0.00810179891564 0)
(-0.00738306743865 -0.0069219081492 0)
(-0.00663115791439 -0.00588222195291 0)
(-0.00591153588797 -0.00497562363566 0)
(-0.00523272905518 -0.0041917312983 0)
(-0.00459909373468 -0.00351911598547 0)
(-0.00401182026521 -0.00294788606697 0)
(-0.00347224858396 -0.00247039578956 0)
(-0.0029847963017 -0.00207854620056 0)
(-0.00255492739189 -0.00176023428391 0)
(-0.00218328969736 -0.00150010525463 0)
(-0.00186403757042 -0.00128420780776 0)
(-0.00158856307058 -0.00110333554556 0)
(-0.00135007538524 -0.000952171750085 0)
(-0.0011441813637 -0.000826490941161 0)
(-0.000966765522215 -0.000722352001569 0)
(-0.000814131283003 -0.000636495131397 0)
(-0.000683170527155 -0.000566061613667 0)
(-0.000570938215574 -0.000509181336022 0)
(-0.000475575426507 -0.000455767235689 0)
(-0.000419375154698 -0.000418734985669 0)
(-0.00037947017069 -0.000378171170698 0)
(-0.000345766477315 -0.000335979470137 0)
(-0.000317856853679 -0.000290637332714 0)
(-0.00030906857134 -0.000253310609747 0)
(-0.000298174739182 -0.000205850613928 0)
(-0.000304540018807 -0.000169362937119 0)
(-0.000296799609092 -0.000119434457087 0)
(-0.000317353608326 -9.02375239288e-05 0)
(-0.000348188920196 -6.82074147911e-05 0)
(-0.000349818784371 -3.85652804884e-05 0)
(-0.000349280029649 -1.2765281019e-05 0)
(0.0262763575978 -0.001869056416 0)
(0.0276951646544 -0.00597316643006 0)
(0.0274217006749 -0.0100176639266 -6.67088654249e-28)
(0.0269464884895 -0.014024156675 0)
(0.0263261442159 -0.0179265547578 0)
(0.0255764191754 -0.0217043727798 0)
(0.0247136891974 -0.0253376493319 0)
(0.0237553259908 -0.0288105336504 0)
(0.0227189039573 -0.0321111073793 0)
(0.0216214762713 -0.0352311728755 0)
(0.0204789980263 -0.0381658689411 0)
(0.0193059125479 -0.0409131957605 0)
(0.0181148990176 -0.0434734993611 0)
(0.0169167626206 -0.045848960176 0)
(0.0157204422674 -0.0480431184784 0)
(0.014533104533 -0.0500604574178 0)
(0.0133602961295 -0.0519060536235 0)
(0.0122061274869 -0.053585296673 0)
(0.0110734685366 -0.055103672681 0)
(0.00996413969095 -0.0564666035898 0)
(0.00887909007207 -0.0576793321534 0)
(0.00781855544151 -0.058746842457 0)
(0.00678219596173 -0.0596738066704 0)
(0.00576921198758 -0.0604645501055 0)
(0.00477844234853 -0.061123028144 0)
(0.00380844583613 -0.0616528101438 0)
(0.00285757224316 -0.0620570667348 0)
(0.00192402451113 -0.0623385583631 0)
(0.00100591906588 -0.0624996241704 0)
(0.000101345815369 -0.0625421694104 0)
(-0.000791565207957 -0.0624676672396 0)
(-0.00167456963528 -0.0622771348501 0)
(-0.00254922421591 -0.0619711618334 0)
(-0.0034167900439 -0.0615499213926 0)
(-0.00427812587942 -0.0610132151028 0)
(-0.00513357675158 -0.0603605424108 0)
(-0.00598286181646 -0.0595912020174 0)
(-0.00682497481225 -0.0587044285771 0)
(-0.00765810651955 -0.0576995643585 0)
(-0.00847960799562 -0.0565762609711 0)
(-0.00928600666023 -0.0553346988833 0)
(-0.0100730924683 -0.0539758044978 0)
(-0.010836077056 -0.0525014351371 0)
(-0.0115698240225 -0.0509144953036 0)
(-0.0122691222292 -0.0492189443746 0)
(-0.012928955836 -0.0474196619603 0)
(-0.0135446897792 -0.0455221556578 0)
(-0.0141120731196 -0.0435321370385 0)
(-0.0146269440027 -0.0414550492445 0)
(-0.0150845491821 -0.0392957146879 0)
(-0.0154784604034 -0.0370583641704 0)
(-0.0157992502826 -0.0347473784654 0)
(-0.0160333894962 -0.0323690460398 0)
(-0.0161632238177 -0.0299343321547 0)
(-0.0161693355992 -0.0274616807631 0)
(-0.016035219396 -0.0249786447341 0)
(-0.0157563413841 -0.02251468381 0)
(-0.0153255885825 -0.0201017249774 0)
(-0.0147504844919 -0.0177691688286 0)
(-0.0140192750226 -0.0155567225261 0)
(-0.0131585255928 -0.0135170713697 0)
(-0.0122247857434 -0.0116804691245 0)
(-0.0112775512196 -0.0100389727 0)
(-0.0103360863871 -0.00856711921958 0)
(-0.00940202580346 -0.00725131688521 0)
(-0.00848057124241 -0.00608947564083 0)
(-0.00758537488904 -0.00508012043611 0)
(-0.00673288146596 -0.00421512472334 0)
(-0.00593490345869 -0.00347978348557 0)
(-0.00519487780937 -0.0028578823582 0)