/*--------------------------------*- C++ -*----------------------------------*\
| =========                 |                                                 |
| \\      /  F ield         | OpenFOAM: The Open Source CFD Toolbox           |
|  \\    /   O peration     | Version:  v1906                                 |
|   \\  /    A nd           | Web:      www.OpenFOAM.com                      |
|    \\/     M anipulation  |                                                 |
\*---------------------------------------------------------------------------*/
FoamFile
{
    version     2.0;
    format      ascii;
    class       volVectorField;
    location    "194";
    object      Ua;
}
// * * * * * * * * * * * * * * * * * * * * * * * * * * * * * * * * * * * * * //

dimensions      [0 1 -1 0 0 0 0];


internalField   nonuniform List<vector> 
9216
(
(-0.0106833923648 0.010708276913 0)
(-0.0112751245759 0.0345639605259 4.05608634788e-27)
(-0.0112766943903 0.0587959791979 -7.31378574265e-31)
(-0.011177546653 0.0830494598742 0)
(-0.0110375391869 0.10691806608 0)
(-0.0108568754233 0.130311165199 0)
(-0.0106445324777 0.153126307904 0)
(-0.010398492457 0.175273943086 0)
(-0.0101272053259 0.196669545023 0)
(-0.0098271224929 0.217241538669 0)
(-0.00950793524897 0.236923620478 0)
(-0.00916491108442 0.255662770411 0)
(-0.00880898751101 0.273411335311 0)
(-0.00843414213827 0.290134714018 0)
(-0.00805239204947 0.305803234023 0)
(-0.00765628952164 0.320399503461 0)
(-0.00725880114337 0.333910210937 0)
(-0.00685100542257 0.346333094895 0)
(-0.00644670059446 0.357668912411 0)
(-0.00603548548419 0.367928065533 0)
(-0.0056319348792 0.377122879546 0)
(-0.005224252185 0.385273809012 0)
(-0.0048277266182 0.392402242844 0)
(-0.00442926300147 0.398536293976 0)
(-0.00404483622646 0.403704197645 0)
(-0.00366020162695 0.407939559198 0)
(-0.00329194587649 0.411275493741 0)
(-0.00292479713786 0.413749311966 0)
(-0.00257589379987 0.41539739456 0)
(-0.0022290947771 0.416259196417 0)
(-0.001901995619 0.416372925666 0)
(-0.0015776703367 0.415779026209 0)
(-0.00127396927293 0.414516433544 0)
(-0.000973377912341 0.412624983256 0)
(-0.000694076487721 0.410143228878 0)
(-0.000418068547738 0.407110069447 0)
(-0.000163642255932 0.403562907351 0)
(8.75494375044e-05 0.399538780609 0)
(0.000317196939425 0.395073287347 0)
(0.00054387461918 0.390201084012 0)
(0.00074932020364 0.384955506893 0)
(0.000952195219637 0.379368413993 0)
(0.00113438049274 0.373470515191 0)
(0.00131452367629 0.367290666473 0)
(0.00147470245373 0.360856781452 0)
(0.00163342715855 0.354194569684 0)
(0.001773049941 0.347329043609 0)
(0.0019118570893 0.340282803284 0)
(0.00203251391992 0.333078021567 0)
(0.00215297401911 0.325734260977 0)
(0.0022562802968 0.318270960549 0)
(0.0023599795934 0.31070486816 0)
(0.00244752456022 0.303052929193 0)
(0.00253596236144 0.295329306878 0)
(0.00260921633239 0.287548704394 0)
(0.00268377446543 0.279723037911 0)
(0.00274406677278 0.27186510447 0)
(0.00280594769889 0.263984874314 0)
(0.00285441939532 0.256093536682 0)
(0.00290466043824 0.248199466519 0)
(0.00294228955857 0.240312565998 0)
(0.00298175509765 0.232439880049 0)
(0.00300936188769 0.224590258166 0)
(0.00303880186157 0.216769676063 0)
(0.00305711380838 0.208986138233 0)
(0.00307719624373 0.201244696947 0)
(0.00308688625368 0.193552609084 0)
(0.00309827422287 0.185914119185 0)
(0.00310003561257 0.17833579187 0)
(0.00310342743317 0.170821069756 0)
(0.00309801106327 0.163375784055 0)
(0.00309420123928 0.156002561066 0)
(0.00308246676921 0.14870643493 0)
(0.00307236211258 0.141489128003 0)
(0.00305528667426 0.134354760283 0)
(0.0030399280489 0.127304072934 0)
(0.00301861582269 0.120340169065 0)
(0.00299915684273 0.113462706689 0)
(0.00297480958426 0.106673666473 0)
(0.00295249274363 0.0999715665923 0)
(0.00292637347408 0.093357212971 0)
(0.00290246569791 0.0868279538773 0)
(0.00287581866569 0.0803834227786 0)
(0.00285151395503 0.0740198739609 0)
(0.0028254180926 0.067735912193 0)
(0.00280159355997 0.0615269911591 0)
(0.00277652832398 0.0553912287673 0)
(0.00275290231878 0.0493244001591 0)
(0.00272695498162 0.0433262735426 0)
(0.00269805969937 0.0373976474399 0)
(0.00265735199368 0.0315504598671 0)
(0.00258892227398 0.0258188819286 0)
(0.00242389823608 0.0203414481911 0)
(0.00211470356407 0.0143153697392 0)
(0.00290352981711 0.0105433827904 0)
(0.00468674105594 0.00469179295715 0)
(-0.0345870359724 0.0113877999512 0)
(-0.0382419872731 0.038587219296 0)
(-0.0381696548958 0.0657226846595 -4.25792169765e-27)
(-0.0376749867516 0.0929067088204 0)
(-0.0369887932645 0.119624610575 0)
(-0.0361320954429 0.145795082496 0)
(-0.0351259631405 0.171310781095 0)
(-0.0339765811058 0.196071937836 0)
(-0.0327066086948 0.219985796171 0)
(-0.0313214773 0.242971150687 0)
(-0.0298465570639 0.264955374962 0)
(-0.0282859110481 0.285878118501 0)
(-0.026666668283 0.305687823722 0)
(-0.0249905110467 0.32434499341 0)
(-0.0232853498292 0.341818374914 0)
(-0.0215496726766 0.358087886027 0)
(-0.0198114692458 0.373140628615 0)
(-0.0180655764513 0.386973551788 0)
(-0.0163396442966 0.399589461523 0)
(-0.0146247178147 0.410999483721 0)
(-0.0129479690313 0.421219211859 0)
(-0.0112968027316 0.430271014479 0)
(-0.00969793598294 0.438180442984 0)
(-0.00813543961288 0.444978391699 0)
(-0.00663570191168 0.450697834414 0)
(-0.00517986507563 0.455375814442 0)
(-0.00379409266001 0.459050557556 0)
(-0.00245698698291 0.461763252679 0)
(-0.00119457068544 0.46355554406 0)
(1.67012964651e-05 0.464471055951 0)
(0.00115092038237 0.464553292463 0)
(0.00223343784678 0.463846763963 0)
(0.0032385403799 0.462395489211 0)
(0.00419308032221 0.460244118287 0)
(0.00507142839809 0.457436187907 0)
(0.0059015372083 0.454014961588 0)
(0.00665797045411 0.450022503607 0)
(0.00736949408482 0.445500059121 0)
(0.0080108842003 0.440487519507 0)
(0.00861142442617 0.435023527552 0)
(0.00914611768026 0.429145282521 0)
(0.00964447612303 0.422888390919 0)
(0.0100817713188 0.41628700038 0)
(0.0104875053428 0.409373420087 0)
(0.0108372378826 0.402178539795 0)
(0.0111602241698 0.394731237115 0)
(0.0114323537983 0.387059068539 0)
(0.0116824432711 0.379187487545 0)
(0.0118867315225 0.371140770291 0)
(0.012073403452 0.362941052885 0)
(0.012219091884 0.354609486143 0)
(0.01235119908 0.34616510928 0)
(0.0124467823371 0.337626199978 0)
(0.0125323126049 0.329008985721 0)
(0.0125853348496 0.320329186285 0)
(0.0126312840719 0.311600571407 0)
(0.012648253289 0.302836664771 0)
(0.0126605441225 0.294049142755 0)
(0.0126468946465 0.285249697641 0)
(0.012630420073 0.2764482831 0)
(0.0125905997305 0.267655107232 0)
(0.0125493161421 0.258878720898 0)
(0.0124869151896 0.250128136373 0)
(0.0124240364342 0.241410771032 0)
(0.0123420071504 0.232734662413 0)
(0.0122602128627 0.224106272347 0)
(0.0121610885176 0.215532793893 0)
(0.01206277623 0.207019836327 0)
(0.0119489197668 0.198573800302 0)
(0.0118364179822 0.190199454975 0)
(0.011710217584 0.181902378546 0)
(0.0115859831016 0.17368645803 0)
(0.0114500223174 0.165556368511 0)
(0.011316758814 0.157515017004 0)
(0.0111739033757 0.149566056337 0)
(0.0110346329441 0.141711303512 0)
(0.0108880668473 0.133953267256 0)
(0.0107461146926 0.126292558523 0)
(0.0105992918862 0.118730429931 0)
(0.0104582161371 0.111266204052 0)
(0.0103147546519 0.103899809779 0)
(0.0101781850772 0.0966292380095 0)
(0.0100416524847 0.0894530837316 0)
(0.00991300751861 0.0823680486919 0)
(0.00978650863941 0.0753714848898 0)
(0.00966834092354 0.0684589803322 0)
(0.00955339741931 0.0616269294401 0)
(0.00944533566142 0.0548702801575 0)
(0.00933779219246 0.0481850320967 0)
(0.00922801474085 0.0415660069152 0)
(0.00909936030105 0.03500860725 0)
(0.00892187014913 0.0285035693197 0)
(0.00861666148514 0.0220453173757 0)
(0.0080169212018 0.0150975486536 0)
(0.0087979871284 0.00879002828347 0)
(0.0105108153293 0.0028977589244 0)
(-0.0592066231323 0.0115351319495 0)
(-0.0655627282973 0.0392070666167 0)
(-0.0653667884967 0.0666739445366 -4.26177215667e-27)
(-0.064510721544 0.0942427910568 0)
(-0.0633488245208 0.12133528488 0)
(-0.061912351047 0.147864272877 0)
(-0.060223948344 0.173719177135 0)
(-0.0583016897905 0.198797432086 0)
(-0.0561723775778 0.223005175146 0)
(-0.0538563940326 0.246259424034 0)
(-0.0513832882151 0.268487359835 0)
(-0.0487735745336 0.28962772716 0)
(-0.04605749981 0.309629606674 0)
(-0.0432538386065 0.328453350701 0)
(-0.0403918759907 0.346068992908 0)
(-0.0374872595591 0.362456865926 0)
(-0.0345671775181 0.377605785059 0)
(-0.0316433300677 0.391513455031 0)
(-0.0287402136661 0.404184588547 0)
(-0.0258652970756 0.415631219676 0)
(-0.0230402661683 0.42587086379 0)
(-0.0202685051142 0.434926801068 0)
(-0.0175690963819 0.442826388955 0)
(-0.0149417465712 0.449601369362 0)
(-0.0124033024828 0.455286357089 0)
(-0.00995029494312 0.459919154396 0)
(-0.00759770555181 0.463539447913 0)
(-0.00533936143331 0.466189118475 0)
(-0.00318868551762 0.467911110215 0)
(-0.0011372079521 0.468749692535 0)
(0.000802989333532 0.468749509414 0)
(0.00264231846572 0.467955803939 0)
(0.00436978626384 0.466413617539 0)
(0.00599738439245 0.464167966728 0)
(0.007515134637 0.461263208203 0)
(0.00893634189099 0.457743106989 0)
(0.0102518047776 0.453650394066 0)
(0.0114757957922 0.449026777231 0)
(0.0125997494393 0.443912661663 0)
(0.0136386203901 0.438347110374 0)
(0.0145843331022 0.432367696406 0)
(0.0154522560708 0.426010398374 0)
(0.0162346789264 0.419309601464 0)
(0.0169471464045 0.412297947064 0)
(0.0175821975513 0.405006442622 0)
(0.0181553350431 0.397464252585 0)
(0.0186592487046 0.389698935734 0)
(0.0191092063039 0.381736197616 0)
(0.0194979561437 0.373600215099 0)
(0.0198403544182 0.365313339146 0)
(0.0201291359506 0.356896528434 0)
(0.0203785971198 0.348369014218 0)
(0.0205814016307 0.33974880574 0)
(0.0207511624902 0.331052306091 0)
(0.0208804481969 0.322294904087 0)
(0.0209821049212 0.313490547764 0)
(0.0210486103001 0.304652388609 0)
(0.0210919950093 0.295792295051 0)
(0.0211046923994 0.286921561126 0)
(0.021097913775 0.278050366515 0)
(0.0210641244848 0.269188514344 0)
(0.0210137445354 0.260344822705 0)
(0.0209393809788 0.251527903489 0)
(0.0208507224584 0.242745493987 0)
(0.0207406395064 0.234005246766 0)
(0.0206181618565 0.225313993777 0)
(0.020476554196 0.216678560063 0)
(0.020324267374 0.208104974994 0)
(0.020155076611 0.199599287496 0)
(0.0199769223802 0.191166724658 0)
(0.0197841896397 0.182812522615 0)
(0.0195843630294 0.174541053659 0)
(0.0193725035085 0.166356654296 0)
(0.0191556679528 0.158262724795 0)
(0.0189296292659 0.15026257432 0)
(0.0187010221471 0.14235850882 0)
(0.0184663301465 0.134552676393 0)
(0.0182317430019 0.126846156679 0)
(0.0179944240795 0.119239816481 0)
(0.0177600720088 0.111733411246 0)
(0.0175264645474 0.104326446182 0)
(0.0172987303691 0.0970172895793 0)
(0.0170751548765 0.0898040445246 0)
(0.0168601642076 0.0826836869683 0)
(0.0166523525224 0.0756529262568 0)
(0.0164551633184 0.0687073552957 0)
(0.016267035012 0.0618422675658 0)
(0.0160896841024 0.0550516927025 0)
(0.0159200705114 0.0483288170951 0)
(0.0157560118245 0.0416640709234 0)
(0.0155893161796 0.0350429787391 0)
(0.0154084871127 0.0284371103136 0)
(0.0151942811423 0.0217903474785 0)
(0.0149181039162 0.0148620917163 0)
(0.015078014363 0.00796643485415 0)
(0.0142568882307 0.00210363851394 0)
(-0.0843885334152 0.0116612945051 0)
(-0.093521891009 0.0397793368479 0)
(-0.0932333354745 0.0675858078711 4.25979263236e-27)
(-0.0919979149596 0.0955165453777 0)
(-0.0903224901123 0.122955938142 0)
(-0.0882558139224 0.149811738693 0)
(-0.0858272222319 0.175969365609 0)
(-0.0830662525957 0.201323126535 0)
(-0.0800075956618 0.225777322785 0)
(-0.0766851725807 0.249247492866 0)
(-0.0731368605256 0.271660432264 0)
(-0.0693975926037 0.292954710593 0)
(-0.0655053054585 0.313080190321 0)
(-0.061493147236 0.331998079118 0)
(-0.0573966839679 0.349680054399 0)
(-0.0532452558809 0.366107993091 0)
(-0.0490704503108 0.381272860619 0)
(-0.0448966198965 0.395174265701 0)
(-0.0407505775909 0.407819258445 0)
(-0.0366512891244 0.419221832106 0)
(-0.0326207114247 0.42940175718 0)
(-0.0286726450782 0.438384133017 0)
(-0.0248245920062 0.446198342851 0)
(-0.0210857697053 0.452877698079 0)
(-0.0174698575781 0.458458548181 0)
(-0.0139821804602 0.462980022645 0)
(-0.0106332135695 0.466483282356 0)
(-0.0074250027642 0.469011323169 0)
(-0.00436533170766 0.470608338916 0)
(-0.00145346509838 0.471319559554 0)
(0.00130511739521 0.471190687786 0)
(0.00391350974643 0.470267804833 0)
(0.00636814073328 0.468596833138 0)
(0.00867407822615 0.466223454021 0)
(0.0108294185058 0.463192748857 0)
(0.012840847146 0.459549026341 0)
(0.0147077515605 0.455335567811 0)
(0.0164380491425 0.450594514482 0)
(0.0180321254233 0.445366675957 0)
(0.019498793977 0.439691430995 0)
(0.0208391567997 0.433606613749 0)
(0.0220626131093 0.427148424821 0)
(0.0231707388295 0.420351391099 0)
(0.0241732459078 0.413248279624 0)
(0.0250719577539 0.405870120742 0)
(0.0258766490212 0.39824613286 0)
(0.0265891960191 0.390403799428 0)
(0.0272192148838 0.382368801469 0)
(0.0277684513208 0.374165145881 0)
(0.0282461608861 0.365815103745 0)
(0.02865380753 0.357339389234 0)
(0.0290001186597 0.348757099859 0)
(0.0292861481205 0.340085935622 0)
(0.0295199609151 0.331342140833 0)
(0.0297021234544 0.322540757697 0)
(0.0298399577187 0.313695561497 0)
(0.0299335085482 0.304819337328 0)
(0.0299893252318 0.295923799657 0)
(0.0300069602468 0.287019887176 0)
(0.0299922216054 0.278117657054 0)
(0.0299442447116 0.269226582942 0)
(0.0298681743811 0.260355419015 0)
(0.0297628552417 0.251512496243 0)
(0.0296328889515 0.242705549304 0)
(0.0294769761502 0.233942001775 0)
(0.0292993125381 0.225228756143 0)
(0.0290986182537 0.21657246664 0)
(0.0288788248068 0.207979293539 0)
(0.028638817231 0.199455162672 0)
(0.0283823855878 0.191005487946 0)
(0.0281087050965 0.182635422206 0)
(0.0278215188487 0.174349557259 0)
(0.0275203737175 0.166152166166 0)
(0.0272090199068 0.158046890293 0)
(0.026887417527 0.150036979954 0)
(0.0265593376438 0.142124977261 0)
(0.0262251468285 0.134312959525 0)
(0.0258886082184 0.126602223691 0)
(0.0255504504461 0.118993538019 0)
(0.0252143640698 0.111486836391 0)
(0.0248813528121 0.104081476573 0)
(0.024554931702 0.0967759465109 0)
(0.02423625242 0.0895681282384 0)
(0.0239285011324 0.0824550147125 0)
(0.0236327819634 0.0754329570714 0)
(0.0233517093879 0.0684973647561 0)
(0.023086018827 0.0616428849944 0)
(0.0228373542673 0.0548629580419 0)
(0.0226056251761 0.0481496743329 0)
(0.0223912636501 0.041492661735 0)
(0.0221941284398 0.0348780315586 0)
(0.0220175558503 0.0282850664336 0)
(0.0218761082652 0.0216852275948 0)
(0.0218110686044 0.015018525922 0)
(0.0219561931435 0.00849296927342 0)
(0.0202059749903 0.00239629797007 0)
(-0.109963544205 0.0118227241242 0)
(-0.121880035236 0.0405278268082 0)
(-0.121493401123 0.068804038853 0)
(-0.11986414826 0.0972194388196 0)
(-0.117655028608 0.125120592556 0)
(-0.114932401481 0.15240996949 0)
(-0.111734743164 0.178967954747 0)
(-0.108102759609 0.204684943455 0)
(-0.104081487759 0.229462557702 0)
(-0.0997175461996 0.253214585684 0)
(-0.0950597577397 0.275867165008 0)
(-0.0901561425823 0.297358948967 0)
(-0.0850550910143 0.31764077932 0)
(-0.0798022725804 0.336675355483 0)
(-0.0744424194088 0.354436504235 0)
(-0.0690161864689 0.370908523325 0)
(-0.0635625548434 0.386085210705 0)
(-0.0581156450535 0.399969040759 0)
(-0.0527077138461 0.412570116193 0)
(-0.0473658918489 0.423905329861 0)
(-0.0421157010069 0.43399737107 0)
(-0.0369776547771 0.442873982831 0)
(-0.0319711896875 0.450567118157 0)
(-0.0271110494186 0.457112353446 0)
(-0.0224115105388 0.462548210277 0)
(-0.0178824894737 0.46691570896 0)
(-0.0135339773763 0.470257829415 0)
(-0.009371862513 0.472619160523 0)
(-0.00540253231832 0.474045442621 0)
(-0.00162845074036 0.474583264134 0)
(0.00194708203659 0.474279632988 0)
(0.0053245262763 0.473181801744 0)
(0.00850316766995 0.471336774063 0)
(0.0114859350406 0.468791205319 0)
(0.014274334347 0.465591074186 0)
(0.0168732991636 0.461781453375 0)
(0.0192860668035 0.45740631757 0)
(0.0215191176656 0.45250838859 0)
(0.023576999175 0.447128979574 0)
(0.0254673182506 0.441307884615 0)
(0.0271955483442 0.435083274082 0)
(0.0287700471506 0.428491613532 0)
(0.0301968735503 0.421567611611 0)
(0.0314848007989 0.414344170281 0)
(0.0326401676147 0.406852368012 0)
(0.0336718623088 0.399121435868 0)
(0.0345862302307 0.391178780996 0)
(0.0353920008924 0.383049990377 0)
(0.0360952760473 0.374758885807 0)
(0.0367043813969 0.366327548307 0)
(0.0372249566281 0.357776412686 0)
(0.0376647133217 0.349124310293 0)
(0.0380286500212 0.340388592527 0)
(0.0383237030755 0.331585183699 0)
(0.0385541083584 0.322728733309 0)
(0.0387259285345 0.313832674772 0)
(0.0388425830452 0.304909389971 0)
(0.0389092377672 0.295970262205 0)
(0.0389285182275 0.287025846285 0)
(0.0389047450665 0.278085911238 0)
(0.0388398447757 0.269159598637 0)
(0.0387374127327 0.260255441531 0)
(0.0385988316576 0.251381509957 0)
(0.0384271417078 0.242545402572 0)
(0.0382233738291 0.233754367368 0)
(0.0379902116421 0.225015260255 0)
(0.0377285419176 0.216334641667 0)
(0.0374408864096 0.207718710815 0)
(0.0371281787715 0.199173375587 0)
(0.0367929540154 0.190704156732 0)
(0.0364363510588 0.182316244731 0)
(0.0360610466231 0.174014385633 0)
(0.035668491014 0.1658029237 0)
(0.0352615799384 0.157685675431 0)
(0.0348421239874 0.14966596985 0)
(0.0344132550839 0.141746521426 0)
(0.0339771350641 0.133929470823 0)
(0.0335370969457 0.126216260753 0)
(0.0330955937482 0.118607684967 0)
(0.032656075369 0.111103775664 0)
(0.0322211803734 0.103703859257 0)
(0.03179435185 0.0964064535016 0)
(0.0313782700571 0.0892093315812 0)
(0.0309762095865 0.0821094207768 0)
(0.0305907127666 0.0751028570669 0)
(0.0302246967627 0.0681848636564 0)
(0.0298803820812 0.0613497632942 0)
(0.0295602006802 0.0545907551381 0)
(0.0292661107103 0.0478998099963 0)
(0.0290006414089 0.0412672957538 0)
(0.0287672549741 0.0346815795409 0)
(0.0285729424592 0.0281292279656 0)
(0.0284319146739 0.0215975697349 0)
(0.0283637686788 0.01507134126 0)
(0.0282882175431 0.00869997843029 0)
(0.0255564896355 0.00253814078562 0)
(-0.136069473495 0.0120236119523 0)
(-0.150810540595 0.0414801846853 0)
(-0.15031428791 0.0703631518307 0)
(-0.148268960546 0.0994003801341 0)
(-0.145496819842 0.127892095589 0)
(-0.142082488401 0.155734493143 0)
(-0.138075286761 0.182801856395 0)
(-0.133527849737 0.208979779994 0)
(-0.128497371857 0.234166518341 0)
(-0.123043689208 0.258273804669 0)
(-0.117228324586 0.281227020323 0)
(-0.111112561204 0.302965153819 0)
(-0.10475687384 0.323440407052 0)
(-0.0982192358654 0.342617634282 0)
(-0.0915550155238 0.360473520326 0)
(-0.0848155535334 0.376995687124 0)
(-0.078048537881 0.392181631872 0)
(-0.0712968447157 0.406037686095 0)
(-0.0645993616413 0.418577891387 0)
(-0.0579900467193 0.429822977285 0)
(-0.0514991224445 0.439799335263 0)
(-0.0451522536606 0.448538153518 0)
(-0.0389719798284 0.456074589343 0)
(-0.0329768825428 0.462447118712 0)
(-0.0271831144151 0.467696921212 0)
(-0.0216034444463 0.471867414972 0)
(-0.0162487905689 0.475003793128 0)
(-0.01112710972 0.477152657393 0)
(-0.00624492185651 0.478361628612 0)
(-0.00160607781 0.478679024771 0)
(0.00278669743312 0.478153455742 0)
(0.00693309814389 0.476833673578 0)
(0.0108335957415 0.47476800127 0)
(0.0144908937728 0.472004349049 0)
(0.0179082127461 0.468589799163 0)
(0.0210906758167 0.464570392369 0)
(0.0240436367491 0.45999095672 0)
(0.0267740894505 0.454894943395 0)
(0.0292889883677 0.449324289976 0)
(0.0315966845547 0.443319300096 0)
(0.0337052516085 0.436918559567 0)
(0.0356239410098 0.430158854516 0)
(0.0373615237923 0.423075126556 0)
(0.0389277505832 0.415700425105 0)
(0.04033171269 0.408065895514 0)
(0.04158329766 0.400200762236 0)
(0.0426915770391 0.392132350855 0)
(0.0436662462199 0.383886099745 0)
(0.04451604288 0.375485611614 0)
(0.0452501690281 0.366952697308 0)
(0.0458767502864 0.358307455415 0)
(0.04640423658 0.349568344261 0)
(0.0468399100071 0.340752288254 0)
(0.0471912673278 0.331874770018 0)
(0.0474645879343 0.322949959308 0)
(0.0476662948733 0.313990814823 0)
(0.0478015910053 0.305009225021 0)
(0.047875799082 0.296016111847 0)
(0.0478930721562 0.287021569084 0)
(0.0478577041629 0.278034955049 0)
(0.0477729172279 0.269065018958 0)
(0.0476421343187 0.260119971581 0)
(0.0474678436773 0.25120758866 0)
(0.0472528246351 0.242335257762 0)
(0.046999077035 0.233510040027 0)
(0.0467089910524 0.224738695334 0)
(0.0463843439326 0.216027716392 0)
(0.0460273922854 0.207383313238 0)
(0.0456399340476 0.198811422509 0)
(0.0452243179538 0.190317664372 0)
(0.0447825624663 0.181907334208 0)
(0.0443172735738 0.173585335432 0)
(0.043830822925 0.165356158474 0)
(0.0433261709658 0.157223805475 0)
(0.0428061028647 0.149191764527 0)
(0.042273954544 0.14126292837 0)
(0.0417329093347 0.133439574572 0)
(0.041186632855 0.125723291137 0)
(0.0406386330281 0.118114964461 0)
(0.0400928014518 0.110614713737 0)
(0.039552840928 0.103221888506 0)
(0.0390227238452 0.095935019834 0)
(0.0385061876599 0.0887518209424 0)
(0.0380071133167 0.0816691454721 0)
(0.0375291009366 0.0746829891889 0)
(0.0370757835515 0.0677884370627 0)
(0.0366505104114 0.0609796515251 0)
(0.0362566600501 0.0542498143223 0)
(0.0358975453415 0.0475910917615 0)
(0.0355769617232 0.0409946431792 0)
(0.0352996039154 0.0344509977973 0)
(0.0350721834594 0.027950662115 0)
(0.0349042301957 0.0214860194631 0)
(0.0347986883747 0.0150491604201 0)
(0.03459093345 0.00875588065977 0)
(0.0310913379465 0.0025792362793 0)
(-0.16283720906 0.012269088938 0)
(-0.180463117053 0.0426536289864 0)
(-0.17984091919 0.0722864192906 4.28398856659e-27)
(-0.177349712376 0.102090922368 0)
(-0.17397594339 0.131309608868 0)
(-0.169823709171 0.159831014667 0)
(-0.164954806992 0.187521970459 0)
(-0.159435185354 0.214262333919 0)
(-0.153335956112 0.239946360309 0)
(-0.146731423173 0.264483486568 0)
(-0.139697400326 0.287798387585 0)
(-0.132309359724 0.309830748784 0)
(-0.124641159147 0.330534706515 0)
(-0.11676360349 0.349878054015 0)
(-0.108743664995 0.367841241318 0)
(-0.100643487909 0.384416239315 0)
(-0.0925201080392 0.399605306985 0)
(-0.0844248906846 0.41341971813 0)
(-0.0764037185483 0.425878494526 0)
(-0.0684968061217 0.437007197029 0)
(-0.0607392619164 0.446836812065 0)
(-0.0531611481449 0.455402770389 0)
(-0.0457882487297 0.462744113081 0)
(-0.0386421839466 0.468902807527 0)
(-0.0317411893502 0.473923191233 0)
(-0.0251001256766 0.477851522791 0)
(-0.018731152723 0.480735598149 0)
(-0.0126435850776 0.482624405918 0)
(-0.00684447000427 0.483567795 0)
(-0.00133834683291 0.483616148255 0)
(0.00387220196453 0.482819992238 0)
(0.0087868192749 0.481229892398 0)
(0.0134067152261 0.47889575113 0)
(0.0177351003691 0.475866996581 0)
(0.0217764590141 0.472192026287 0)
(0.0255368399587 0.467918045871 0)
(0.0290232482244 0.463090899526 0)
(0.0322439236966 0.457754909271 0)
(0.0352077423897 0.451952744188 0)
(0.0379245199585 0.445725317356 0)
(0.0404044281555 0.439111698075 0)
(0.0426583219853 0.43214905093 0)
(0.0446971702143 0.424872582136 0)
(0.0465323973214 0.417315513762 0)
(0.0481753269679 0.409509060791 0)
(0.0496375319096 0.40148243453 0)
(0.0509302876573 0.393262850004 0)
(0.0520649247327 0.384875558915 0)
(0.0530522956297 0.376343890843 0)
(0.0539031289226 0.367689314786 0)
(0.0546275141172 0.358931513207 0)
(0.0552352606291 0.35008847482 0)
(0.0557354101148 0.341176596616 0)
(0.0561366058636 0.332210801216 0)
(0.0564466413247 0.323204664721 0)
(0.0566728433247 0.31417054443 0)
(0.0568216647632 0.305119722462 0)
(0.0568990849404 0.296062531732 0)
(0.0569102475958 0.287008499807 0)
(0.0568598745644 0.277966464108 0)
(0.0567519503152 0.268944696116 0)
(0.056590144499 0.259951000668 0)
(0.056377528935 0.250992795059 0)
(0.0561170022332 0.242077194452 0)
(0.0558110361062 0.233211055533 0)
(0.0554620815067 0.224401010778 0)
(0.0550723399933 0.21565349198 0)
(0.0546441390178 0.206974717717 0)
(0.0541797131125 0.198370686095 0)
(0.0536815473533 0.189847140031 0)
(0.0531521568879 0.181409527875 0)
(0.0525943880958 0.173062948876 0)
(0.0520111998408 0.16481210008 0)
(0.0514059168818 0.15666121174 0)
(0.0507820104246 0.148613987279 0)
(0.050143308752 0.140673543042 0)
(0.04949377587 0.132842347134 0)
(0.0488376817224 0.125122166077 0)
(0.0481793882096 0.117514018685 0)
(0.0475234818078 0.110018134833 0)
(0.0468745694874 0.102633919425 0)
(0.0462373810595 0.0953599258739 0)
(0.0456165836957 0.0881938356078 0)
(0.0450168595927 0.0811324375187 0)
(0.044442752016 0.0741716199424 0)
(0.0438987388113 0.0673063557747 0)
(0.0433891338283 0.060530713658 0)
(0.0429182003586 0.053837854633 0)
(0.0424901836539 0.0472201485868 0)
(0.0421095601706 0.040669354536 0)
(0.0417812538558 0.0341768379437 0)
(0.0415109153316 0.0277344985456 0)
(0.0413042651722 0.0213360927217 0)
(0.0411549472039 0.0149713324511 0)
(0.0408527201457 0.00873708980972 0)
(0.0366579575975 0.00258630679411 0)
(-0.190409383244 0.0125630141534 0)
(-0.210995773425 0.0440670269148 0)
(-0.210226963947 0.074602503389 -4.28170781261e-27)
(-0.207252052176 0.105329767568 0)
(-0.203227757871 0.135420803533 0)
(-0.19827954036 0.164754644857 0)
(-0.19248361845 0.193189189298 0)
(-0.185921197637 0.220597525197 0)
(-0.178679315379 0.246869351075 0)
(-0.170848528782 0.271911669291 0)
(-0.162520672394 0.295648672162 0)
(-0.153786796373 0.318021282771 0)
(-0.144735453029 0.338986350532 0)
(-0.135451194692 0.358515599199 0)
(-0.126013453522 0.376594361214 0)
(-0.116495608954 0.393220186244 0)
(-0.106964457089 0.408401346042 0)
(-0.0974798330154 0.422155323705 0)
(-0.0880946402652 0.434507313404 0)
(-0.0788549717481 0.445488823034 0)
(-0.0698005922166 0.45513640121 0)
(-0.0609653935361 0.463490566444 0)
(-0.0523781026995 0.470594924517 0)
(-0.0440628059201 0.476495502528 0)
(-0.0360396102418 0.481240246445 0)
(-0.0283250042762 0.484878654335 0)
(-0.02093231432 0.487461468638 0)
(-0.0138718502754 0.48904040716 0)
(-0.00715119851902 0.489667868159 0)
(-0.000775257862918 0.489396632933 0)
(0.00525349212426 0.488279454971 0)
(0.0109349924584 0.486369041881 0)
(0.0162711719603 0.483717126832 0)
(0.0212661068371 0.480374927109 0)
(0.0259255225583 0.476392366178 0)
(0.0302567625406 0.471818005932 0)
(0.0342684453291 0.466698863954 0)
(0.0379704122334 0.461080262398 0)
(0.0413734037314 0.455005711994 0)
(0.044489036183 0.44851681387 0)
(0.0473295044797 0.441653191495 0)
(0.0499075827282 0.434452427429 0)
(0.0522363512068 0.426950032241 0)
(0.0543292090122 0.419179409971 0)
(0.0561996194478 0.41117185364 0)
(0.0578611273589 0.402956539211 0)
(0.0593271175647 0.394560549908 0)
(0.0606108317696 0.386008901043 0)
(0.0617251375975 0.377324593032 0)
(0.0626825499948 0.368528673959 0)
(0.0634950138841 0.359640323076 0)
(0.0641739371702 0.350676951853 0)
(0.0647299959893 0.341654317493 0)
(0.0651731892826 0.332586655616 0)
(0.0655126773989 0.323486818297 0)
(0.0657568667212 0.314366426365 0)
(0.0659132871759 0.305236019231 0)
(0.0659887133625 0.296105210749 0)
(0.0659890821915 0.286982838411 0)
(0.0659196508223 0.277877104232 0)
(0.065784952938 0.268795701504 0)
(0.0655889792036 0.259745928385 0)
(0.0653351654057 0.250734790919 0)
(0.0650265883785 0.241769073082 0)
(0.0646659711222 0.23285539481 0)
(0.0642558800709 0.224000243863 0)
(0.0637987335862 0.215209988007 0)
(0.0632969867133 0.206490874038 0)
(0.0627531286701 0.197848992865 0)
(0.0621698443149 0.189290246628 0)
(0.0615499954462 0.180820293864 0)
(0.0608967446678 0.172444477963 0)
(0.0602135201556 0.164167771024 0)
(0.0595041016107 0.155994686751 0)
(0.0587725611149 0.147929214335 0)
(0.058023318396 0.139974740334 0)
(0.0572610617516 0.132133985179 0)
(0.0564907723481 0.124408933451 0)
(0.0557176355354 0.116800788411 0)
(0.0549470401244 0.109309913443 0)
(0.0541844822412 0.101935801547 0)
(0.0534355533684 0.0946770436554 0)
(0.0527058436988 0.0875313060534 0)
(0.0520009240694 0.0804953191749 0)
(0.0513262655708 0.0735648727184 0)
(0.0506872294808 0.0667348215148 0)
(0.0500890240533 0.0599991159068 0)
(0.0495367241844 0.0533508634972 0)
(0.0490352958698 0.0467824388477 0)
(0.0485896749052 0.040285658939 0)
(0.0482048085517 0.0338523338234 0)
(0.0478855185994 0.027474459255 0)
(0.0476354378294 0.0211443304903 0)
(0.047443536299 0.0148492962889 0)
(0.0470650820656 0.00867593186859 0)
(0.0422057680308 0.00257716108287 0)
(-0.218941831052 0.0129097082146 0)
(-0.242579145114 0.0457431344537 0)
(-0.241637933844 0.0773469585397 0)
(-0.238132220663 0.109165274586 0)
(-0.233396658744 0.140284999863 0)
(-0.227580632602 0.170573678671 0)
(-0.220777306415 0.199878579752 0)
(-0.213085644733 0.228065002677 0)
(-0.204611089506 0.255017613718 0)
(-0.195462684155 0.280641015881 0)
(-0.185750340875 0.304859363081 0)
(-0.175582401622 0.327615594674 0)
(-0.165063609652 0.348870319606 0)
(-0.154293398802 0.368600429662 0)
(-0.143364579605 0.386797530908 0)
(-0.132362324954 0.403466219496 0)
(-0.121363545072 0.418622292986 0)
(-0.110436556664 0.432290916505 0)
(-0.0996411354639 0.444504856945 0)
(-0.0890288262105 0.455302818782 0)
(-0.0786435643469 0.464727996034 0)
(-0.0685224265293 0.472826865167 0)
(-0.0586965203698 0.479648278102 0)
(-0.0491918003923 0.485242829166 0)
(-0.0400298310887 0.48966246016 0)
(-0.0312283263866 0.492960215742 0)
(-0.0228015692914 0.495190074557 0)
(-0.0147606240956 0.496406768902 0)
(-0.00711351120418 0.496665560523 0)
(0.000134713719614 0.496021939363 0)
(0.00698176890347 0.494531250632 0)
(0.0134281133548 0.492248581431 0)
(0.0194765747314 0.489227865656 0)
(0.0251323209932 0.485522331073 0)
(0.030402481655 0.481183653924 0)
(0.0352959453698 0.476261932048 0)
(0.039823091816 0.470805507049 0)
(0.0439955918452 0.464860821602 0)
(0.0478261705109 0.458472319424 0)
(0.0513284483276 0.451682368439 0)
(0.0545167365691 0.444531193293 0)
(0.0574059133827 0.437056843897 0)
(0.0600112423202 0.429295150149 0)
(0.0623482711676 0.421279718376 0)
(0.0644326621419 0.41304190721 0)
(0.0662801011035 0.404610849747 0)
(0.0679061326632 0.396013456831 0)
(0.0693260731783 0.387274464675 0)
(0.0705548480046 0.378416474075 0)
(0.0716069108297 0.369460032031 0)
(0.0724960909073 0.360423714643 0)