/*--------------------------------*- C++ -*----------------------------------*\
| =========                 |                                                 |
| \\      /  F ield         | OpenFOAM: The Open Source CFD Toolbox           |
|  \\    /   O peration     | Version:  v1906                                 |
|   \\  /    A nd           | Web:      www.OpenFOAM.com                      |
|    \\/     M anipulation  |                                                 |
\*---------------------------------------------------------------------------*/
FoamFile
{
    version     2.0;
    format      ascii;
    class       volVectorField;
    location    "365";
    object      Ua;
}
// * * * * * * * * * * * * * * * * * * * * * * * * * * * * * * * * * * * * * //

dimensions      [0 1 -1 0 0 0 0];


internalField   nonuniform List<vector> 
9216
(
(-0.010371917501 0.0103796457082 0)
(-0.010945848982 0.0334989527305 3.92620142299e-27)
(-0.0109427574168 0.0569761924535 -7.08395634381e-31)
(-0.0108413874284 0.0804628490075 0)
(-0.0106968390722 0.103562451067 0)
(-0.0105131917087 0.126181450575 0)
(-0.0102950414512 0.148219084436 0)
(-0.0100455508912 0.169583876563 0)
(-0.00976767052846 0.190193521155 0)
(-0.00946426960037 0.209975110937 0)
(-0.00913833884961 0.228865180265 0)
(-0.00879276882664 0.246809956843 0)
(-0.00843056343241 0.263765137039 0)
(-0.00805448906194 0.279695871249 0)
(-0.00766741041632 0.294576200766 0)
(-0.00727181578898 0.308388826927 0)
(-0.00687031434021 0.321124298274 0)
(-0.00646501649552 0.332780661378 0)
(-0.00605821727013 0.343362507102 0)
(-0.00565160820752 0.352880600019 0)
(-0.00524716648104 0.361350879127 0)
(-0.00484617373601 0.368794137691 0)
(-0.00445032315406 0.375235050201 0)
(-0.00406052454334 0.380701946075 0)
(-0.00367823906292 0.385225900625 0)
(-0.00330405301859 0.388840611295 0)
(-0.0029392448799 0.391581566954 0)
(-0.00258411928423 0.393486017501 0)
(-0.00223981223976 0.394592217871 0)
(-0.00190638509035 0.394939475025 0)
(-0.00158487580876 0.394567426583 0)
(-0.0012750723082 0.393516330433 0)
(-0.000977818142089 0.391826063293 0)
(-0.000692737137317 0.389536305498 0)
(-0.000420675897001 0.386686293099 0)
(-0.000161061040787 0.383314785944 0)
(8.53690491366e-05 0.37945960083 0)
(0.000319372835146 0.375157769219 0)
(0.000540287167199 0.370445109756 0)
(0.00074902857035 0.365356398938 0)
(0.000944996051944 0.359925013108 0)
(0.00112924088836 0.354183093759 0)
(0.00130121440285 0.348161262228 0)
(0.00146207946009 0.34188877475 0)
(0.00161132735548 0.335393307591 0)
(0.00175020549481 0.328701092648 0)
(0.00187823353865 0.321836778129 0)
(0.00199671614051 0.314823542604 0)
(0.00210518740195 0.307683028006 0)
(0.0022049795105 0.300435424424 0)
(0.00229562938263 0.293099478242 0)
(0.00237846938682 0.285692545949 0)
(0.00245302794097 0.278230670564 0)
(0.00252061142368 0.270728596808 0)
(0.00258073365939 0.263199914102 0)
(0.00263465477088 0.255657031119 0)
(0.00268187105034 0.248111374158 0)
(0.00272358052593 0.240573314318 0)
(0.00275926585089 0.2330524155 0)
(0.00279005474683 0.225557313832 0)
(0.00281542375127 0.218096001867 0)
(0.00283642698592 0.210675657151 0)
(0.00285254775626 0.203302955624 0)
(0.0028647694424 0.195983853152 0)
(0.0028725961683 0.188723915828 0)
(0.00287694596386 0.1815280569 0)
(0.00287735941163 0.174400878657 0)
(0.00287469717409 0.167346373342 0)
(0.00286854948518 0.160368267772 0)
(0.00285972681264 0.153469695388 0)
(0.00284788012924 0.146653541218 0)
(0.00283377611428 0.139922096298 0)
(0.0028171326929 0.133277397911 0)
(0.00279867616231 0.126720875156 0)
(0.00277819379489 0.120253684534 0)
(0.00275637257811 0.113876357087 0)
(0.00273306651826 0.107589126988 0)
(0.00270892112761 0.101391587412 0)
(0.00268385117596 0.0952830134629 0)
(0.00265845632752 0.0892620338627 0)
(0.0026327025104 0.0833269477064 0)
(0.00260713646003 0.0774754160389 0)
(0.00258176285978 0.0717047754747 0)
(0.00255706480605 0.0660117544203 0)
(0.00253306683346 0.0603927890514 0)
(0.00251016537537 0.0548437748046 0)
(0.00248836015246 0.0493604095424 0)
(0.00246787782824 0.0439380330092 0)
(0.00244850230466 0.0385721197554 0)
(0.00242983373351 0.0332585111581 0)
(0.00241026472787 0.0279947926704 0)
(0.00238574097484 0.0227831928759 0)
(0.00234336569811 0.0176448993285 0)
(0.00223884289664 0.0126043771783 0)
(0.00214978539238 0.00729148977638 0)
(0.00367334703764 0.00367362264841 0)
(-0.033575529739 0.011039116704 0)
(-0.0371162755901 0.0374035135135 0)
(-0.0370315735906 0.0636967351234 -4.12157069979e-27)
(-0.0365327878918 0.0900247021692 0)
(-0.0358395363448 0.115884287543 0)
(-0.0349784005708 0.141191475243 0)
(-0.0339641714084 0.165839249327 0)
(-0.0328109714435 0.189726916529 0)
(-0.0315335430386 0.2127628705 0)
(-0.0301470711784 0.234865725714 0)
(-0.0286672045472 0.255964731688 0)
(-0.0271094832889 0.276000038558 0)
(-0.0254894358847 0.29492257637 0)
(-0.0238218700875 0.312693894656 0)
(-0.0221212117926 0.329285654133 0)
(-0.0204006772304 0.344679181732 0)
(-0.0186729172322 0.358864707489 0)
(-0.0169490396975 0.371840762935 0)
(-0.0152395905863 0.383613289435 0)
(-0.0135533807498 0.394194994639 0)
(-0.0118988180562 0.403604440004 0)
(-0.0102824862794 0.411865443458 0)
(-0.00871082889956 0.419006221687 0)
(-0.00718843046338 0.425058889704 0)
(-0.00572004791476 0.430058695589 0)
(-0.00430855411872 0.434043631081 0)
(-0.00295731214494 0.437053764299 0)
(-0.00166775898967 0.439130949248 0)
(-0.000442124694036 0.440318243453 0)
(0.00071934848657 0.440659689842 0)
(0.00181533300788 0.440199828049 0)
(0.00284660298106 0.438983373433 0)
(0.00381265947361 0.437055101221 0)
(0.00471512168449 0.434459731864 0)
(0.00555399577055 0.431241246861 0)
(0.00633155385578 0.427442976236 0)
(0.00704827472802 0.423107262101 0)
(0.00770697421039 0.418275438929 0)
(0.00830846542956 0.412987565516 0)
(0.00885597373451 0.407282425054 0)
(0.00935053756054 0.401197308629 0)
(0.00979567402602 0.394768034666 0)
(0.0101925543542 0.38802878446 0)
(0.0105448814299 0.381012136322 0)
(0.010853876221 0.373748951572 0)
(0.0111233277464 0.366268419251 0)
(0.011354433545 0.358597992657 0)
(0.0115509771641 0.350763441368 0)
(0.0117140666324 0.342788836436 0)
(0.011847395074 0.334696605982 0)
(0.0119519262594 0.32650756765 0)
(0.0120311899475 0.318240983838 0)
(0.0120859626915 0.309914636543 0)
(0.0121195513113 0.301544876798 0)
(0.0121325197893 0.293146736889 0)
(0.0121279117696 0.284733968343 0)
(0.0121060709852 0.276319183021 0)
(0.0120697569956 0.267913873108 0)
(0.0120191062726 0.259528573387 0)
(0.0119565950148 0.251172857906 0)
(0.0118821822108 0.242855513864 0)
(0.0117980787464 0.234584510364 0)
(0.0117041108553 0.226367176895 0)
(0.0116022570431 0.218210142427 0)
(0.0114922629322 0.210119511348 0)
(0.0113759149828 0.202100772965 0)
(0.0112529331933 0.194158971363 0)
(0.0111249551919 0.186298588585 0)
(0.0109917254147 0.178523705473 0)
(0.0108547716555 0.170837863205 0)
(0.0107139043506 0.16324421553 0)
(0.0105705731573 0.155745375457 0)
(0.0104246828774 0.14834355944 0)
(0.0102776255556 0.141040426011 0)
(0.0101294152255 0.133837214632 0)
(0.0099813957123 0.126734583519 0)
(0.00983369091531 0.119732745134 0)
(0.00968759434564 0.112831309087 0)
(0.00954332862492 0.106029417227 0)
(0.00940212546953 0.0993255968182 0)
(0.0092642845254 0.0927178970436 0)
(0.00913095519437 0.086203755832 0)
(0.00900248297485 0.0797801404037 0)
(0.00887990320278 0.0734434307742 0)
(0.00876355890497 0.0671895669792 0)
(0.0086543095283 0.0610139522151 0)
(0.00855238922235 0.054911610491 0)
(0.00845829750632 0.0488771082483 0)
(0.00837178419721 0.0429046967481 0)
(0.00829219452761 0.0369881375123 0)
(0.00821698776314 0.0311203987075 0)
(0.00814016097944 0.0252919526102 0)
(0.00804637511881 0.019485598647 0)
(0.00789094286284 0.0136436983557 0)
(0.00759244227066 0.0075759321677 0)
(0.00728434914126 0.00214349747341 0)
(-0.0574796929634 0.0111855633912 0)
(-0.0636366672723 0.0380178433317 0)
(-0.0634228199812 0.0646414052447 -4.12531239845e-27)
(-0.0625579982655 0.091351096652 0)
(-0.0613847045858 0.117581335103 0)
(-0.0599368107179 0.143242759163 0)
(-0.0582348402181 0.168224540495 0)
(-0.0563009525836 0.192423700742 0)
(-0.0541591888621 0.215746960732 0)
(-0.0518347937774 0.238111742322 0)
(-0.0493537371002 0.259446594212 0)
(-0.046742036192 0.279691393066 0)
(-0.0440254281194 0.298797237209 0)
(-0.0412287376768 0.316726180567 0)
(-0.0383757616624 0.333450730304 0)
(-0.0354886982427 0.348953272696 0)
(-0.0325882759455 0.363225323801 0)
(-0.0296932302291 0.376266789491 0)
(-0.0268206810883 0.388085105796 0)
(-0.0239856206509 0.398694458787 0)
(-0.0212015213242 0.408114927799 0)
(-0.0184797832217 0.416371759887 0)
(-0.0158305397893 0.423494593223 0)
(-0.0132620092624 0.429516839843 0)
(-0.0107814618228 0.434475021964 0)
(-0.00839442888539 0.438408273594 0)
(-0.00610580676435 0.441357786952 0)
(-0.00391889899568 0.443366416455 0)
(-0.00183664843656 0.444478213524 0)
(0.000139492552853 0.444738107387 0)
(0.00200820549046 0.444191519258 0)
(0.00376959018054 0.442884092898 0)
(0.00542361715025 0.44086135386 0)
(0.00697162768943 0.438168543535 0)
(0.00841471019577 0.434850309102 0)
(0.00975525246361 0.430950549072 0)
(0.0109951845916 0.426512180978 0)
(0.0121377022717 0.421577026652 0)
(0.0131853860323 0.416185630367 0)
(0.014142045028 0.4103771791 0)
(0.0150107304947 0.404189362671 0)
(0.0157956873786 0.39765832393 0)
(0.0165002760541 0.390818559517 0)
(0.0171290148578 0.38370289706 0)
(0.0176854252072 0.376342433184 0)
(0.0181741474628 0.368766534294 0)
(0.0185987271902 0.361002811951 0)
(0.0189637855618 0.353077145777 0)
(0.0192727661591 0.345013693165 0)
(0.0195301416145 0.336834930955 0)
(0.019739142512 0.328561698456 0)
(0.0199039811553 0.320213254961 0)
(0.0200275845856 0.311807350375 0)
(0.020113816914 0.303360292698 0)
(0.0201652389863 0.294887041769 0)
(0.0201853097417 0.286401280905 0)
(0.020176193567 0.27791552478 0)
(0.0201409216324 0.269441187273 0)
(0.0200812666353 0.260988696707 0)
(0.0199998444125 0.252567553387 0)
(0.0198980728128 0.244186442881 0)
(0.0197781951421 0.235853276661 0)
(0.0196413375924 0.227575298059 0)
(0.0194894367234 0.219359102526 0)
(0.0193234065421 0.211210730331 0)
(0.0191449549059 0.203135664376 0)
(0.0189548690415 0.1951389085 0)
(0.0187547079448 0.187224964245 0)
(0.0185452122073 0.179397893772 0)
(0.0183278632691 0.171661278346 0)
(0.0181034216045 0.164018268902 0)
(0.0178733466712 0.156471531396 0)
(0.0176384652525 0.149023287613 0)
(0.0174002497803 0.141675252664 0)
(0.0171596173385 0.134428670995 0)
(0.0169180666705 0.127284251982 0)
(0.0166766066599 0.1202422046 0)
(0.0164367551457 0.113302176002 0)
(0.0161995947385 0.106463289095 0)
(0.015966637921 0.0997240883404 0)
(0.0157390066433 0.0930825824867 0)
(0.015518169092 0.0865362001456 0)
(0.0153052382835 0.0800818397329 0)
(0.0151015844525 0.0737158359311 0)
(0.0149082446861 0.0674340158842 0)
(0.0147264098269 0.0612316731366 0)
(0.0145569284894 0.0551036210512 0)
(0.0144006520229 0.0490441488281 0)
(0.0142579939773 0.0430470102262 0)
(0.0141290967643 0.0371052098719 0)
(0.0140134387104 0.031210567727 0)
(0.013910090702 0.0253525150287 0)
(0.0138184364217 0.01951547193 0)
(0.0137398439961 0.0136679046746 0)
(0.0136455658584 0.00783262851136 0)
(0.0125725623279 0.00222404953471 0)
(-0.0819403427529 0.0113140692856 0)
(-0.0907882573961 0.0385940744041 0)
(-0.0904743028545 0.0655613695021 4.12339476034e-27)
(-0.0892252997022 0.0926357738145 0)
(-0.0875335724543 0.119214788933 0)
(-0.085448942915 0.145204074876 0)
(-0.0830008767588 0.17048851003 0)
(-0.0802212978339 0.194962148398 0)
(-0.077144929163 0.218529670537 0)
(-0.0738083430794 0.241107257101 0)
(-0.0702490883094 0.262622946654 0)
(-0.0665048199929 0.283016748843 0)
(-0.0626126214181 0.302240477826 0)
(-0.0586083086299 0.320257379169 0)
(-0.0545259934258 0.337041557683 0)
(-0.0503975839447 0.352577285281 0)
(-0.0462526056367 0.366858186396 0)
(-0.0421178874446 0.379886384069 0)
(-0.0380176256455 0.391671592064 0)
(-0.0339732166137 0.402230236678 0)
(-0.0300035207169 0.411584578984 0)
(-0.0261247786525 0.41976191615 0)
(-0.0223510120854 0.426793814552 0)
(-0.018693950098 0.432715444559 0)
(-0.0151635016601 0.437564952828 0)
(-0.0117676303205 0.441382933873 0)
(-0.00851285457033 0.4442119257 0)
(-0.0054040402795 0.446095989057 0)
(-0.00244491669944 0.447080293584 0)
(0.000362214517297 0.447210773289 0)
(0.0030159418656 0.446533777224 0)
(0.0055161077857 0.445095812422 0)
(0.00786318269155 0.442943156682 0)
(0.0100587457824 0.440121715114 0)
(0.0121048604853 0.436676758736 0)
(0.014004532151 0.432652721821 0)
(0.0157610571681 0.428093012524 0)
(0.0173785484168 0.423039868852 0)
(0.0188612496401 0.417534208473 0)
(0.0202141072812 0.411615523887 0)
(0.0214420546368 0.405321771343 0)
(0.0225506250417 0.398689299717 0)
(0.0235452093917 0.391752774695 0)
(0.0244317031098 0.384545137742 0)
(0.0252157407068 0.377097563343 0)
(0.0259033700857 0.369439446466 0)
(0.0265002698813 0.361598391777 0)
(0.0270124444097 0.353600227963 0)
(0.0274454307628 0.345469027521 0)
(0.0278050097562 0.3372271463 0)
(0.0280964117699 0.328895271699 0)
(0.0283250386745 0.32049248389 0)
(0.0284956777098 0.312036328103 0)
(0.028613230615 0.303542892543 0)
(0.0286819452216 0.295026898769 0)
(0.0287061464324 0.286501789101 0)
(0.0286894936541 0.277979827068 0)
(0.0286357082702 0.269472186324 0)
(0.0285478637245 0.260989052813 0)
(0.0284291018929 0.252539706857 0)
(0.0282819600875 0.244132618678 0)
(0.0281090686857 0.2357755167 0)
(0.0279125177215 0.227475470043 0)
(0.0276945267503 0.219238937945 0)
(0.0274568516766 0.211071834728 0)
(0.027201418955 0.202979558072 0)
(0.0269297725749 0.194967035112 0)
(0.0266436649137 0.187038729942 0)
(0.0263445429609 0.179198671645 0)
(0.0260340904834 0.171450443927 0)
(0.0257137528136 0.163797198475 0)
(0.0253852263257 0.156241631315 0)
(0.0250500211161 0.14878598588 0)
(0.0247098964756 0.141432021645 0)
(0.0243664613915 0.134181012247 0)
(0.0240215560862 0.127033712022 0)
(0.0236768903881 0.11999035397 0)
(0.0233343733813 0.113050619163 0)
(0.0229957899724 0.106213638867 0)
(0.0226630812129 0.0994779706557 0)
(0.0223380590465 0.0928416074111 0)
(0.0220226404047 0.0863019623268 0)
(0.0217185995576 0.079855885982 0)
(0.0214277579955 0.0734996601374 0)
(0.0211517722989 0.0672290204833 0)
(0.0208922802183 0.0610391535554 0)
(0.0206507206593 0.0549247136821 0)
(0.0204284376266 0.048879799873 0)
(0.0202265409028 0.0428979219982 0)
(0.0200460154916 0.0369718760652 0)
(0.0198877666259 0.0310935476456 0)
(0.0197531357946 0.0252535291868 0)
(0.0196449060932 0.0194408094875 0)
(0.0195657306935 0.0136381714093 0)
(0.0194362603425 0.00792297327792 0)
(0.0175529256332 0.00231366010358 0)
(-0.106798611164 0.0114792115723 0)
(-0.11834478085 0.0393494639242 0)
(-0.117924472879 0.066792313712 0)
(-0.116276154678 0.0943556976633 0)
(-0.114044521461 0.121399671763 0)
(-0.111296530418 0.147824444227 0)
(-0.108071893369 0.17350968409 0)
(-0.104413407165 0.198345522823 0)
(-0.100367474045 0.222233902685 0)
(-0.0959828762186 0.245089379805 0)
(-0.0913095618397 0.266839388037 0)
(-0.0863975172022 0.287424241291 0)
(-0.0812958018928 0.306796853044 0)
(-0.0760516953127 0.324922229403 0)
(-0.0707100417476 0.341776771011 0)
(-0.0653126986434 0.357347440848 0)
(-0.0598982004227 0.37163082913 0)
(-0.0545014948595 0.384632169983 0)
(-0.0491538972358 0.396364334775 0)
(-0.043883065563 0.406846851316 0)
(-0.038713180985 0.416104963025 0)
(-0.0336650788693 0.424168766072 0)
(-0.0287565623191 0.431072422264 0)
(-0.0240025877868 0.436853469536 0)
(-0.019415615294 0.44155220975 0)
(-0.0150057635485 0.445211182134 0)
(-0.010781134319 0.447874691776 0)
(-0.00674789881033 0.449588397802 0)
(-0.00291058343324 0.45039893141 0)
(0.000727906060244 0.450353554181 0)
(0.00416602021612 0.449499828298 0)
(0.00740360180803 0.447885375249 0)
(0.0104415362844 0.445557448555 0)
(0.0132818889229 0.442562865439 0)
(0.0159276008988 0.43894770556 0)
(0.0183825509578 0.434757114356 0)
(0.0206512798866 0.430035131015 0)
(0.0227390788226 0.424824538731 0)
(0.0246517124282 0.419166728855 0)
(0.0263955300867 0.413101591216 0)
(0.0279771874775 0.406667415235 0)
(0.0294037769416 0.399900813804 0)
(0.030682546062 0.392836657416 0)
(0.0318210426812 0.385508028787 0)
(0.0328268298278 0.377946187752 0)
(0.0337076419304 0.370180555265 0)
(0.0344710970204 0.362238708946 0)
(0.0351248622582 0.354146396217 0)
(0.0356763665612 0.345927559524 0)
(0.0361329754833 0.337604377263 0)
(0.036501709067 0.329197317292 0)
(0.0367894272487 0.320725203 0)
(0.0370025588353 0.312205290654 0)
(0.0371472991526 0.303653355116 0)
(0.0372293557573 0.295083784964 0)
(0.0372541591019 0.286509680483 0)
(0.037226629321 0.27794295758 0)
(0.0371513991934 0.269394448776 0)
(0.0370326040883 0.260874006916 0)
(0.0368741141736 0.252390600089 0)
(0.036679347241 0.243952405762 0)
(0.0364515053232 0.23556689144 0)
(0.0361934079462 0.227240892485 0)
(0.035907726753 0.218980672998 0)
(0.0355968353462 0.210791982525 0)
(0.0352630352202 0.202680094359 0)
(0.0349084177947 0.194649840207 0)
(0.0345350752227 0.186705626489 0)
(0.0341449705451 0.178851448302 0)
(0.0337401283412 0.171090886722 0)
(0.0333225099015 0.163427106456 0)
(0.0328941802694 0.155862839291 0)
(0.0324571866862 0.148400370716 0)
(0.0320137006494 0.141041515402 0)
(0.0315658992993 0.133787599126 0)
(0.0311160827628 0.126639432373 0)
(0.0306665593356 0.119597292991 0)
(0.0302197398955 0.112660903066 0)
(0.0297780285326 0.105829417092 0)
(0.0293438965238 0.0991014060148 0)
(0.0289197803279 0.0924748536859 0)
(0.0285081379535 0.0859471500918 0)
(0.0281113561004 0.0795150970488 0)
(0.0277317914491 0.0731749102184 0)
(0.0273716885443 0.0669222314926 0)
(0.0270332091959 0.0607521350732 0)
(0.0267183654144 0.0546591387747 0)
(0.0264290479272 0.0486372007764 0)
(0.026166998436 0.0426797139819 0)
(0.025933893161 0.0367794777262 0)
(0.0257314702115 0.0309286855412 0)
(0.0255618772094 0.0251189703496 0)
(0.0254279479532 0.0193417700065 0)
(0.0253276554481 0.0135838486227 0)
(0.0251385514404 0.0079291964339 0)
(0.0225839213092 0.00233607518287 0)
(-0.132193650821 0.0116853011049 0)
(-0.146480200846 0.0403115989233 0)
(-0.145941189558 0.068368895114 0)
(-0.143870265106 0.0965600175411 0)
(-0.141067892289 0.124198960814 0)
(-0.137619298147 0.151179429396 0)
(-0.133575771102 0.177374776811 0)
(-0.128992335606 0.202670279779 0)
(-0.123928385983 0.226964502774 0)
(-0.118446133263 0.250170062917 0)
(-0.112609039969 0.27221378296 0)
(-0.106480394679 0.293036549919 0)
(-0.100122073026 0.312592874727 0)
(-0.0935934873509 0.330850209886 0)
(-0.086950749898 0.34778807599 0)
(-0.0802460264608 0.363397050967 0)
(-0.073527103625 0.37767766733 0)
(-0.0668371254603 0.390639267621 0)
(-0.060214524987 0.402298857322 0)
(-0.0536930819047 0.412679999947 0)
(-0.047302133849 0.421811783023 0)
(-0.0410668461248 0.429727885895 0)
(-0.035008574673 0.436465758052 0)
(-0.0291452085286 0.442065916953 0)
(-0.0234915489822 0.446571350704 0)
(-0.0180596074298 0.450027015374 0)
(-0.0128589159167 0.452479399338 0)
(-0.00789673461179 0.453976141133 0)
(-0.00317828603617 0.454565677769 0)
(0.00129310712369 0.454296920148 0)
(0.00551582896167 0.453218937574 0)
(0.00948990099852 0.451380744683 0)
(0.0132166669291 0.448830803394 0)
(0.0166988555975 0.445617077639 0)
(0.0199403271188 0.441786648244 0)
(0.0229460025104 0.437385549169 0)
(0.0257216893986 0.4324586012 0)
(0.0282740192871 0.427049266495 0)
(0.0306102848766 0.421199521177 0)
(0.0327383954006 0.414949749026 0)
(0.0346667233223 0.408338649462 0)
(0.0364040736039 0.401403163545 0)
(0.037959535865 0.394178412692 0)
(0.0393424626669 0.386697654126 0)
(0.0405623239773 0.378992249173 0)
(0.0416286916058 0.371091648149 0)
(0.0425510953803 0.363023388743 0)
(0.0433390131265 0.354813110908 0)
(0.0440017305142 0.346484585865 0)
(0.0445483388519 0.338059761013 0)
(0.0449876030678 0.329558818503 0)
(0.0453279711371 0.321000247745 0)
(0.045577455826 0.312400929768 0)
(0.0457436604797 0.303776232035 0)
(0.0458336800786 0.295140111677 0)
(0.0458541467424 0.286505224125 0)
(0.0458111537038 0.277883035697 0)
(0.0457103218532 0.269283935817 0)
(0.0455567475244 0.260717348278 0)
(0.0453550880639 0.252191836341 0)
(0.045109531095 0.243715202526 0)
(0.0448238945707 0.235294577465 0)
(0.0445016127129 0.226936500276 0)
(0.0441458436623 0.218646984686 0)
(0.0437594655875 0.21043157519 0)
(0.0433451844486 0.202295387623 0)
(0.0429055335011 0.194243140024 0)
(0.0424429737601 0.186279168362 0)
(0.0419598907808 0.178407434314 0)
(0.0414586820233 0.170631520002 0)
(0.0409417464651 0.162954617668 0)
(0.0404115548999 0.155379509376 0)
(0.0398706299114 0.147908545034 0)
(0.0393215976552 0.140543614031 0)
(0.038767157847 0.133286118596 0)
(0.0382101175357 0.126136944181 0)
(0.0376533524446 0.119096434449 0)
(0.0370998250456 0.112164366183 0)
(0.0365525398295 0.105339930927 0)
(0.0360145488207 0.0986217185077 0)
(0.0354889038919 0.092007708393 0)
(0.0349786533447 0.085495263878 0)
(0.0344867945595 0.0790811340543 0)
(0.0340162652792 0.0727614583723 0)
(0.0335699002864 0.0665317774828 0)
(0.0331504224155 0.060387045224 0)
(0.0327604103059 0.0543216446709 0)
(0.0324023012564 0.0483294043646 0)
(0.0320783909246 0.0424036195855 0)
(0.0317908843959 0.0365370839653 0)
(0.0315419815309 0.0307221782284 0)
(0.0313340138296 0.0249510100396 0)
(0.031169174768 0.0192157703956 0)
(0.031041488432 0.0135036298862 0)
(0.0307942609382 0.00789598273915 0)
(0.0276264130715 0.00233561530818 0)
(-0.158258553075 0.0119374868875 0)
(-0.175346301471 0.0414982430965 0)
(-0.174671285257 0.0703154948924 4.1469142123e-27)
(-0.172146503152 0.099281683544 0)
(-0.168732895818 0.12765348799 0)
(-0.164535428785 0.155316559414 0)
(-0.159618553203 0.182136579301 0)
(-0.154051198921 0.207992989355 0)
(-0.147907413344 0.232780384505 0)
(-0.141264396698 0.256409231689 0)
(-0.134200543512 0.278805873185 0)
(-0.126793680466 0.299912196225 0)
(-0.119119546871 0.319684978188 0)
(-0.111250527583 0.338094978391 0)
(-0.103254648564 0.355125836571 0)
(-0.0951948237964 0.370772836819 0)
(-0.0871283552668 0.385041589309 0)
(-0.0791066630963 0.397946682367 0)
(-0.0711752404252 0.409510354244 0)
(-0.0633737928966 0.419761231947 0)
(-0.0557365438666 0.428733177848 0)
(-0.0482926435552 0.436464274642 0)
(-0.041066653208 0.442995965139 0)
(-0.0340790328653 0.448372346306 0)
(-0.0273466152421 0.452639601514 0)
(-0.0208830096809 0.455845542524 0)
(-0.0146989525624 0.458039228324 0)
(-0.00880257496076 0.459270629646 0)
(-0.00319963524055 0.459590316558 0)
(0.00210630242071 0.459049155836 0)
(0.00711368435931 0.457698011681 0)
(0.011822872183 0.455587568545 0)
(0.0162357857912 0.452767724298 0)
(0.0203559714499 0.449287817101 0)
(0.0241883168752 0.445196118537 0)
(0.0277389302467 0.440539721019 0)
(0.0310149787585 0.435364373601 0)
(0.0340245658867 0.429714343924 0)
(0.0367765892861 0.423632300425 0)
(0.0392806382355 0.417159212089 0)
(0.0415468670176 0.41033426347 0)
(0.0435859062428 0.403194784081 0)
(0.0454087449771 0.395776191502 0)
(0.0470266495032 0.388111948355 0)
(0.0484510493092 0.380233533312 0)
(0.0496934596842 0.372170426853 0)
(0.050765370005 0.363950112317 0)
(0.0516781701398 0.355598092757 0)
(0.0524430431506 0.347137923928 0)
(0.0530708989072 0.338591263403 0)
(0.0535722763741 0.329977935664 0)
(0.0539572904118 0.321316011987 0)
(0.054235550709 0.312621904092 0)
(0.0544161285966 0.303910469223 0)
(0.0545074993501 0.295195124929 0)
(0.0545175344557 0.286487970007 0)
(0.054453471679 0.277799909414 0)
(0.0543219350618 0.269140779097 0)
(0.0541289333272 0.260519468682 0)
(0.0538799058376 0.2519440379 0)
(0.0535797458976 0.243421825159 0)
(0.0532328672018 0.234959544908 0)
(0.0528432452325 0.226563373008 0)
(0.0524144960261 0.218239017812 0)
(0.0519499269346 0.209991776944 0)
(0.0514526184554 0.201826579029 0)
(0.0509254752376 0.193748011019 0)
(0.0503713021135 0.1857603318 0)
(0.0497928473647 0.17786747303 0)
(0.0491928658552 0.170073029292 0)
(0.0485741487517 0.16238023867 0)
(0.0479395691904 0.154791956569 0)
(0.0472920954363 0.147310623813 0)
(0.0466348174023 0.139938232161 0)
(0.0459709429856 0.132676288207 0)
(0.0453038063381 0.125525778352 0)
(0.0446368494259 0.11848713576 0)
(0.0439736149695 0.111560211169 0)
(0.0433177168191 0.104744248498 0)
(0.0426728216282 0.0980378659507 0)
(0.0420426123916 0.0914390435275 0)
(0.0414307634096 0.0849451165997 0)
(0.0408409015426 0.0785527763033 0)
(0.0402765791433 0.0722580755905 0)
(0.0397412379032 0.0660564413369 0)
(0.0392381853967 0.0599426915047 0)
(0.0387705684712 0.0539110582826 0)
(0.0383413627706 0.0479552167942 0)
(0.0379533685351 0.0420683277514 0)
(0.0376092283578 0.0362430962903 0)
(0.0373114558664 0.0304718715107 0)
(0.0370624417386 0.0247467934948 0)
(0.0368638914412 0.0190600211394 0)
(0.0367070877871 0.0133981192618 0)
(0.0364049074357 0.00783855804788 0)
(0.032645271251 0.00232506070108 0)
(-0.185138534898 0.0122399648894 0)
(-0.205103726676 0.0429290993106 0)
(-0.204270789008 0.0726621150671 -4.14470464209e-27)
(-0.201252404589 0.102561299482 0)
(-0.19717625084 0.131813163005 0)
(-0.192169103266 0.160293430527 0)
(-0.186310639303 0.18785855511 0)
(-0.179685832027 0.214381119224 0)
(-0.172385474706 0.239751222916 0)
(-0.164503710361 0.263877109383 0)
(-0.156135618373 0.286684956332 0)
(-0.147375080865 0.308118287996 0)
(-0.138312966405 0.328137040844 0)
(-0.129035640651 0.346716367351 0)
(-0.119623798153 0.363845249262 0)
(-0.110151607758 0.379524982621 0)
(-0.100686160483 0.393767591592 0)
(-0.0912872073182 0.406594228477 0)
(-0.082007168427 0.418033616546 0)
(-0.0728913832875 0.428120594028 0)
(-0.0639785600346 0.43689480969 0)
(-0.0553013636803 0.444399611078 0)
(-0.0468870786538 0.450681143755 0)
(-0.0387582720064 0.455787659104 0)
(-0.0309334026594 0.459769000642 0)
(-0.0234273311242 0.462676224734 0)
(-0.0162517228401 0.464561301227 0)
(-0.00941534786298 0.465476849141 0)
(-0.00292431208978 0.465475874012 0)
(0.00321775956951 0.464611489485 0)
(0.00900952348799 0.462936634376 0)
(0.0144518624945 0.460503934432 0)
(0.0195474357478 0.457364957702 0)
(0.0243007600253 0.453570629263 0)
(0.0287179019738 0.449170598476 0)
(0.032806311212 0.444213178539 0)
(0.0365746447588 0.438745184804 0)
(0.0400326125901 0.432811809108 0)
(0.043190828271 0.426456512587 0)
(0.0460606798833 0.419720934886 0)
(0.0486542010083 0.412644816022 0)
(0.0509839573039 0.405265931155 0)
(0.0530629275999 0.397620036737 0)
(0.0549043969606 0.389740829836 0)
(0.0565218409339 0.381659920265 0)
(0.0579288205081 0.373406817781 0)
(0.0591388674192 0.365008934267 0)
(0.0601653810973 0.356491603061 0)
(0.0610215175307 0.347878115149 0)
(0.0617200928485 0.339189773691 0)
(0.0622734824249 0.330445965758 0)
(0.0626935391711 0.321664251499 0)
(0.062991512023 0.3128604685 0)
(0.0631779883134 0.304048849977 0)
(0.0632628405392 0.295242153436 0)
(0.0632552003054 0.286451797085 0)
(0.0631634390443 0.277688000121 0)
(0.0629951768693 0.268959923291 0)
(0.0627572979791 0.260275806092 0)
(0.0624559923777 0.251643096767 0)
(0.0620968014068 0.243068572567 0)
(0.0616846855056 0.234558446694 0)
(0.0612240911551 0.226118460978 0)
(0.0607190343738 0.217753961364 0)
(0.0601731779433 0.209469957116 0)
(0.0595899190202 0.20127116164 0)
(0.0589724652429 0.193162017538 0)
(0.058323915368 0.185146704593 0)
(0.0576473243671 0.177229134646 0)
(0.0569457683145 0.169412932796 0)
(0.0562223914646 0.161701409598 0)
(0.0554804498821 0.154097524216 0)
(0.0547233369753 0.146603843297 0)
(0.0539546040899 0.139222495795 0)
(0.0531779644326 0.13195512808 0)
(0.0523972921144 0.124802859552 0)
(0.0516166072025 0.11776624231 0)
(0.0508400572024 0.110845224872 0)
(0.0500718878628 0.104039122562 0)
(0.0493164124186 0.0973465941947 0)
(0.0485779736511 0.0907656267305 0)
(0.0478609066755 0.0842935271808 0)
(0.0471694979002 0.0779269225461 0)
(0.0465079469849 0.0716617669744 0)
(0.045880328226 0.0654933562137 0)
(0.045290557342 0.0594163491464 0)
(0.0447423612139 0.053424796815 0)
(0.0442392556631 0.0475121810705 0)
(0.0437845293137 0.0416714641737 0)
(0.0433812354695 0.0358951550368 0)
(0.0430321817423 0.0301754169286 0)
(0.042739869045 0.0245041562713 0)
(0.0425057930714 0.0188731259092 0)
(0.042319270872 0.0132682037346 0)
(0.0419643093977 0.00776299577114 0)
(0.0376241310393 0.00230852888647 0)
(-0.212992634302 0.0125973092662 0)
(-0.235926457481 0.0446280258812 0)
(-0.234908152628 0.0754462230641 0)
(-0.231346573881 0.106449677603 0)
(-0.22654401335 0.136740231201 0)
(-0.220651852612 0.166181524432 0)
(-0.21376769812 0.194619066073 0)
(-0.205995294784 0.221917550766 0)
(-0.197444804218 0.247962173815 0)
(-0.188229718618 0.272659081924 0)
(-0.178463929344 0.295934853557 0)
(-0.168259187239 0.317735562854 0)
(-0.157722982598 0.338025482139 0)
(-0.146956832905 0.356785527198 0)
(-0.13605496179 0.374011521925 0)
(-0.125103349758 0.389712346425 0)
(-0.114179146592 0.403908026006 0)
(-0.103350432928 0.416627821168 0)
(-0.0926763174311 0.42790838605 0)
(-0.082207337387 0.437792066072 0)
(-0.0719861128616 0.446325405492 0)
(-0.0620481763023 0.453557918365 0)
(-0.0524228846671 0.459541152771 0)
(-0.0431343115749 0.464328037781 0)
(-0.0342020346431 0.467972469003 0)
(-0.025641760642 0.470529056424 0)
(-0.0174657776108 0.472052953294 0)
(-0.00968325751635 0.472599692814 0)
(-0.00230046177666 0.472224992156 0)
(0.00467910210636 0.470984480144 0)
(0.0112545189872 0.468933541426 0)
(0.0174272775524 0.466126773701 0)
(0.0232010435438 0.46261787901 0)
(0.0285814756832 0.458459498295 0)
(0.0335759989825 0.4537028484 0)
(0.0381935778365 0.448397612119 0)
(0.0424445158789 0.442591798061 0)
(0.0463402769324 0.436331629533 0)
(0.0498933225574 0.42966145219 0)
(0.0531169665928 0.422623654166 0)
(0.0560252385106 0.415258596757 0)
(0.058632755541 0.407604553941 0)
(0.0609545962297 0.399697661973 0)
(0.0630061773479 0.391571879524 0)
(0.064803128445 0.383258960589 0)
(0.0663611677537 0.374788441308 0)
(0.0676959751138 0.366187643014 0)
(0.068823067162 0.357481692648 0)
(0.0697576718266 0.348693562395 0)
(0.070514608752 0.339844129033 0)