/*--------------------------------*- C++ -*----------------------------------*\
| =========                 |                                                 |
| \\      /  F ield         | OpenFOAM: The Open Source CFD Toolbox           |
|  \\    /   O peration     | Version:  v1906                                 |
|   \\  /    A nd           | Web:      www.OpenFOAM.com                      |
|    \\/     M anipulation  |                                                 |
\*---------------------------------------------------------------------------*/
FoamFile
{
    version     2.0;
    format      ascii;
    class       volScalarField;
    location    "844";
    object      p;
}
// * * * * * * * * * * * * * * * * * * * * * * * * * * * * * * * * * * * * * //

dimensions      [0 2 -2 0 0 0 0];


internalField   nonuniform List<scalar> 
9216
(
268.306561392
268.392206361
268.566045542
268.828440213
269.177970412
269.612902327
270.13111433
270.730125765
271.407161824
272.159173385
272.98290728
273.874920114
274.831649569
275.849418526
276.924503772
278.053128271
279.231525487
280.455919457
281.722584462
283.027813953
284.367976251
285.739474052
287.138797198
288.562474761
290.007125913
291.469406524
292.946058939
294.43385494
295.929645033
297.430299537
298.932757758
300.43396894
301.930941946
303.420688035
304.900271122
306.366754351
307.817251577
309.248879662
310.658811214
312.044234208
313.402405563
314.730618772
316.026257002
317.286768118
318.509715051
319.692756362
320.833691308
321.93044391
322.98110164
323.983902921
324.937272239
325.839815359
326.690358597
327.487959759
328.231959701
328.922012684
329.558145689
330.140793247
330.67083727
331.149616138
331.578921439
331.960971345
332.298363624
332.594017355
332.851088112
333.072921713
333.262973322
333.424737433
333.561629289
333.676913978
333.773613418
333.854487534
333.921987568
333.97827623
334.025204127
334.064353436
334.097036856
334.124365427
334.147263611
334.166534868
334.182853947
334.196802625
334.208853858
334.219409112
334.228820278
334.237081025
334.244012474
334.249633417
334.254018167
334.257314963
334.259689268
334.261347596
334.262473793
334.263167419
334.263523748
334.263652784
268.220994071
268.307064624
268.481535483
268.745143427
269.0963203
269.533279049
270.053850739
270.655516068
271.335454447
272.09057914
272.917591942
273.813015847
274.773247855
275.794584321
276.873268082
278.005504074
279.187499223
280.415467922
281.685664795
282.994380978
284.33797082
285.712840559
287.115470385
288.542397266
289.990233738
291.455646538
292.935373269
294.426198317
295.924968336
297.428566778
298.933929061
300.438017096
301.937834863
303.430404277
304.912782294
306.38203966
307.835280312
309.269624557
310.682231573
312.070288142
313.431034444
314.761758634
316.059825079
317.322673757
318.547848849
319.733000611
320.875911487
321.974497857
323.02683191
324.031142849
324.985836748
325.889502014
326.74093558
327.53916299
328.283481877
328.973503894
329.609213727
330.191016953
330.719782054
331.196852904
331.624046945
332.003623249
332.338240761
332.630885418
332.884773395
333.103313663
333.290046447
333.448555049
333.582343767
333.694739955
333.788811312
333.86733473
333.932772706
333.987279763
334.032696526
334.070574533
334.102195273
334.128625145
334.150759
334.169375467
334.185143446
334.198630317
334.210299795
334.220530336
334.229618768
334.237689908
334.244524985
334.250005118
334.254332043
334.257604191
334.259926785
334.261547541
334.262663841
334.26332914
334.263656387
334.263791518
268.04640089
268.133563553
268.309779426
268.575984281
268.930564872
269.371675348
269.897071034
270.504152638
271.190013151
271.951482283
272.785176903
273.687543351
274.654903956
275.683492136
276.769491151
277.909059589
279.098361096
280.333580035
281.610942704
282.926724344
284.277263301
285.658961104
287.06829129
288.501794328
289.956082681
291.427832131
292.913784379
294.410736061
295.915539958
297.425092831
298.93633617
300.446243989
301.951824108
303.450107105
304.938149276
306.41302412
307.871828238
309.311676799
310.729713539
312.12311136
313.489087039
314.824907245
316.127907399
317.395501893
318.625204871
319.814641684
320.961567987
322.063878676
323.119622173
324.127005225
325.084403599
325.990367805
326.843640188
327.643176156
328.388185313
329.078184055
329.713066309
330.29317162
330.819340495
331.292926192
331.715801412
332.090308495
332.419238561
332.705727734
332.953100384
333.164889171
333.344808188
333.496640147
333.624076402
333.730581298
333.819306014
333.893062903
333.95432679
334.005242516
334.047623315
334.082964137
334.112469979
334.137115392
334.157720874
334.175024984
334.189686293
334.202254098
334.213172633
334.222799753
334.231420456
334.23912723
334.245557922
334.2507459
334.254958619
334.258148809
334.260374767
334.261959832
334.263025446
334.263653296
334.263993096
334.264161517
267.780623383
267.869189574
268.048103859
268.318322379
268.678154922
269.125659443
269.658475948
270.273879421
270.968830555
271.740027241
272.583957081
273.49694564
274.475203016
275.514863528
276.612022545
277.762765407
278.96319366
280.209443493
281.497702457
282.824219063
284.185311935
285.577372641
286.996869314
288.440344654
289.90441574
291.385768771
292.881156401
294.387390426
295.901337683
297.419911663
298.940067869
300.458795337
301.973112511
303.480059805
304.976697137
306.460098931
307.927354866
309.375568932
310.801864905
312.203390907
313.577330667
314.920914148
316.231434325
317.506262641
318.742868791
319.938837246
321.09188514
322.199874261
323.260821579
324.272902695
325.234454202
326.143973055
327.000122673
327.801749022
328.547919675
329.237989041
329.871693439
330.44925616
330.971472422
331.439705661
331.85592225
332.22258401
332.542710559
332.819717093
333.057042199
333.258378857
333.427722816
333.569205163
333.686835306
333.784298807
333.864861094
333.93137135
333.986311694
334.031815908
334.069656625
334.101241511
334.127642475
334.149669949
334.168006765
334.183342414
334.196346103
334.207547083
334.217355094
334.22610315
334.23406062
334.241173452
334.247082117
334.251946424
334.255870939
334.258883881
334.261088513
334.262620769
334.263636494
334.264265714
334.264626757
334.264803622
267.422350376
267.512779063
267.695388809
267.971108058
268.338133073
268.794383444
269.337337384
269.964093515
270.671428743
271.455857441
272.313689362
273.241083488
274.234097428
275.288730302
276.400959896
277.566772791
278.782189098
280.043280874
281.346186332
282.687118942
284.062373712
285.468329564
286.901450113
288.358281492
289.835449505
291.329654505
292.837666239
294.356316877
295.882494485
297.413135048
298.945215313
300.475744653
302.001758298
303.520310099
305.02846729
306.523305633
308.001907536
309.46136151
310.898765589
312.311233064
313.695902887
315.049952814
316.370617
317.655205482
318.901126215
320.105906197
321.267211273
322.38286058
323.450835082
324.469277155
325.43648302
326.350889371
327.211062336
328.01569905
328.763659317
329.454044366
330.086333436
330.660556505
331.177454004
331.638383046
332.045478491
332.401305275
332.709268695
332.973331204
333.196909707
333.383826186
333.538507934
333.665668698
333.769826973
333.854987695
333.924533968
333.981313606
334.027797218
334.066116402
334.098002651
334.124745374
334.147207934
334.165915457
334.181299759
334.194014178
334.20482907
334.214247732
334.222612531
334.230231868
334.237340691
334.243698391
334.248996923
334.253442593
334.257131335
334.259986883
334.262083562
334.263576298
334.264590977
334.265233484
334.26561713
334.265806624
266.969644478
267.062458613
267.249834201
267.532649058
267.908944544
268.376452903
268.932436086
269.57375823
270.296953719
271.098295942
271.973863057
272.919598361
273.931364006
275.004986898
276.136296892
277.321157144
278.555487616
279.835282087
281.156620012
282.515673632
283.908711651
285.332099704
286.78229876
288.255861413
289.749427029
291.259715477
292.783520278
294.317700731
295.859173815
297.404905347
298.951901169
300.497197989
302.037854755
303.570944137
305.093545188
306.602737068
308.095595104
309.569189091
311.020585284
312.446851991
313.84507006
315.212347823
316.545841139
317.842777163
319.100481174
320.316403563
321.488144606
322.613472738
323.690332957
324.716841623
325.691266443
326.611992865
327.477485152
328.286256967
329.036880577
329.72807185
330.35889007
330.92904152
331.43924455
331.890777544
332.286142847
332.627783171
332.919770902
333.167362162
333.373334033
333.541449674
333.676834732
333.785212685
333.87191623
333.941382036
333.997045557
334.041618134
334.077519773
334.106926522
334.13156385
334.152582121
334.170537838
334.185450235
334.197250136
334.206624564
334.214735134
334.222011955
334.228633199
334.234915316
334.240985469
334.246474734
334.251237985
334.255353667
334.258755021
334.261370507
334.263409233
334.264907453
334.265929723
334.266639438
334.267064291
334.267276877
266.420023976
266.515807815
266.709123179
267.000776894
267.388606646
267.870099527
268.442236388
269.101578706
269.844350176
270.666517864
271.563868185
272.532075214
273.566759723
274.663538213
275.818062073
277.026047446
278.283296891
279.585713962
280.929312016
282.310218333
283.724674648
285.169034907
286.639760979
288.13341681
289.646661462
291.176241247
292.718981197
294.271775932
295.831580044
297.395398039
298.960273865
300.523280306
302.081508362
303.632056856
305.172022695
306.698492403
308.208535652
309.699201561
311.167518771
312.610500229
314.025153617
315.408498096
316.757587592
318.069540135
319.341571786
320.571032369
321.755438946
322.892501431
323.980134267
325.016447462
325.999711958
326.928298333
327.800592574
328.614909876
329.369443752
330.062328057
330.691918335
331.257326667
331.759484787
332.199266192
332.580260625
332.903732407
333.174959916
333.402863786
333.587362214
333.731660597
333.84219423
333.926559015
333.991400639
334.041703058
334.080720485
334.110654105
334.13382117
334.152605472
334.168847071
334.183564785
334.19690972
334.207979365
334.21556901
334.220598999
334.225515994
334.230419824
334.235024628
334.239829923
334.244776273
334.249432142
334.253684776
334.257443078
334.260591496
334.263142261
334.265179133
334.266710916
334.26777825
334.268551517
334.269018705
334.269250527
265.770398227
265.869807608
266.070372894
266.372803537
266.774674486
267.273156947
267.864872166
268.545997284
269.312364955
270.159560384
271.08301022
272.078060377
273.140041189
274.264319461
275.446338055
276.681644205
277.965908262
279.294934525
280.664665949
282.071184144
283.510706021
284.979578003
286.47426866
287.991360185
289.527539194
291.07958693
292.644369091
294.218825185
295.799957513
297.384819612
298.970504192
300.554130679
302.132832498
303.703744179
305.26398885
306.81066668
308.340845251
309.851552715
311.339775203
312.802459703
314.236524027
315.638874941
317.006435456
318.336181062
319.62518369
320.870660171
322.070019803
323.220903598
324.321205168
325.369062653
326.362811105
327.300885259
328.181672903
329.003326121
329.76358202
330.459706061
331.088821454
331.648767918
332.141700372
332.566711273
332.93125606
333.231419482
333.474646825
333.681542329
333.841218322
333.95553151
334.033930896
334.087749552
334.125715063
334.153476129
334.173493361
334.186464311
334.194576334
334.20093877
334.207778416
334.216044808
334.225509422
334.233616796
334.236261133
334.235006726
334.236380645
334.239031328
334.241288845
334.244553464
334.248414603
334.252318221
334.25616052
334.259663772
334.262722383
334.265328284
334.267407882
334.269030385
334.270207052
334.27100024
334.271523147
334.271771846
265.016994437
265.120776004
265.330076727
265.645474353
266.064206243
266.583039597
267.198138934
267.905197679
268.699561326
269.576344865
270.530537616
271.557092255
272.650996485
273.807327604
275.021291295
276.288246842
277.603721202
278.963414464
280.363198915
281.799113696
283.267356504
284.764273557
286.286348537
287.830191103
289.39252516
290.9701771
292.560063892
294.159181016
295.764589994
297.373405434
298.982781239
300.589896255
302.191939096
303.786092406
305.369516861
306.939335788
308.492621208
310.02638271
311.537560705
313.023026116
314.479588547
315.904015195
317.293062159
318.643519101
319.952266415
321.216341718
322.43300929
323.599822137
324.714663027
325.775747926
326.781571775
327.730779393
328.621936033
329.453189331
330.221831297
330.923891386
331.554272401
332.107438168
332.590756073
332.995899741
333.345170715
333.614469137
333.814320313
334.005225859
334.137990852
334.213739339
334.249762146
334.265568598
334.272338193
334.275817387
334.275798764
334.268842384
334.258118926
334.249431988
334.245746499
334.247874915
334.255698143
334.264005175
334.260323995
334.247763592
334.245981735
334.247606091
334.246779308
334.248592782
334.251637817
334.254873644
334.258553572
334.261988009
334.265148915
334.267890443
334.270143677
334.271894016
334.273187542
334.274018245
334.274607702
334.274870572
264.155264438
264.26428063
264.48402895
264.814907254
265.253719851
265.796717519
266.439486236
267.177112935
268.004339709
268.915707075
269.905678278
270.968741
272.099485507
273.292660362
274.543208411
275.846286423
277.197272105
278.591761875
280.025562453
281.494678557
282.995298601
284.523779523
286.076631605
287.650503635
289.242168628
290.848510012
292.466508175
294.093227028
295.725800359
297.361417513
298.997308063
300.630725412
302.258929087
303.879165607
305.488648458
307.084537775
308.663920893
310.223795161
311.761055251
313.272487391
314.754773836
316.204510726
317.618242841
318.992517475
320.323958235
321.609356115
322.845770784
324.030629372
325.161804345
326.237646106
327.256944319
328.218781527
329.12223506
329.965852326
330.746796935
331.459602209
332.095239305
332.637588605
333.114388774
333.485691994
333.833205037
334.060852379
334.184508247
334.419175315
334.530940502
334.547525002
334.5135571
334.460814392
334.408628171
334.37108212
334.351069148
334.334098856
334.310812572
334.289100935
334.275471374
334.272624131
334.285886496
334.305787545
334.291487703
334.253316742
334.252374329
334.25730358
334.250449978
334.251236902
334.25428245
334.256778498
334.260777378
334.264300448
334.267770292
334.27087984
334.273440792
334.27539628
334.276768231
334.2776731
334.27829858
334.27858101
263.179764877
263.295028507
263.527228324
263.876517135
264.33914083
264.910688707
265.586012962
266.359440725
267.224968782
268.17643956
269.207688661
270.312660417
271.485491414
272.720564877
274.012540457
275.356364775
276.747267921
278.180750653
279.652566039
281.158698501
282.695342159
284.258879815
285.84586313
287.45299435
289.077109417
290.715162345
292.364210395
294.021399688
295.683950609
297.349142569
299.014297273
300.676760501
302.333881678
303.982991116
305.621375159
307.246249973
308.854734927
310.443827409
312.010381447
313.551093589
315.062500194
316.540991285
317.982846314
319.38429702
320.741620551
322.051262411
323.309982396
324.515008665
325.664175457
326.756014282
327.789763092
328.76525464
329.682616065
330.541639002
331.340476626
332.072852469
332.724098715
333.240013118
333.730399182
334.031256518
334.494868109
334.653398463
334.422833175
334.390646923
334.46294083
334.498229874
334.489015197
334.460317689
334.426806954
334.39624188
334.372565096
334.354278147
334.339426347
334.330290621
334.329922105
334.342446378
334.372795968
334.400887776
334.354893127
334.222399484
334.24637165
334.272288022
334.249512619
334.251403883
334.256772126
334.257290599
334.262853312
334.266479714
334.270648538
334.274454139
334.277419491
334.279584619
334.281063415
334.282017006
334.282628785
334.282924749
262.08400272
262.206721442
262.453755908
262.824921639
263.315740574
263.920950034
264.634468519
265.449669897
266.359631374
267.357350385
268.435919347
269.588655158
270.809185499
272.091497448
273.429955964
274.819300112
276.254624487
277.731351964
279.245202592
280.792161875
282.368450585
283.97049712
285.594912867
287.238470417
288.898084388
290.570794255
292.253748702
293.944190702
295.639442666
297.336890708
299.033967117
300.728130533
302.416843012
304.097543293
305.767616642
307.424361473
309.064953963
310.686412212
312.285562989
313.859014862
315.403143524
316.914096137
318.387823514
319.820148872
321.206881389
322.543977997
323.827749347
325.055092468
326.223719721
327.332342382
328.380773444
329.369925587
330.30166513
331.1784182
332.001940546
332.769990029
333.471018353
333.913099562
334.571954377
334.46821946
334.457495499
334.538292821
334.523658833
334.480449164
334.487694019
334.492335076
334.476495903
334.449398165
334.419309787
334.391726756
334.36991146
334.353455601
334.34140776
334.334481292
334.333400813
334.338241422
334.347434998
334.348467104
334.327061829
334.31870804
334.357764617
334.357702958
334.22886609
334.240212948
334.260414852
334.254076677
334.265571003
334.268276996
334.27384107
334.278836484
334.282312566
334.284602792
334.286099959
334.287046012
334.287578221
334.287854502
260.860234159
260.991872177
261.256619158
261.653825084
262.178064248
262.822969278
263.581264362
264.445124184
265.40649139
266.457344284
267.589902188
268.796767251
270.071008206
271.406196054
272.796403419
274.236179258
275.720508995
277.244768145
278.80467503
280.396246262
282.015756802
283.659705345
285.324784812
287.007857476
288.70593387
290.416154771
292.135775301
293.862150365
295.592720251
297.324995377
299.05653863
300.784944684
302.507814808
304.2227263
305.927196424
307.618640982
309.294328144
310.951329301
312.58646966
314.196283269
315.776979094
317.324427751
318.834181139
320.301540001
321.721684627
323.089881012
324.401763583
325.653677279
326.843036101
327.968634382
329.030876545
330.031939071
330.975983325
331.869697963
332.724333877
333.569108197
334.517739411
334.465262916
334.49089809
334.549472763
334.525228583
334.53337177
334.518724797
334.490539055
334.482324187
334.474102887
334.455320092
334.429660973
334.402187067
334.377613539
334.358621982
334.344662583
334.335258751
334.330478354
334.330003324
334.332570397
334.335829638
334.334463339
334.324880563
334.320660467
334.329143837
334.31936253
334.318986769
334.338945475
334.300306548
334.233374722
334.270983747
334.267948415
334.277323897
334.28453992
334.288457731
334.290645783
334.291899146
334.292698025
334.293077734
334.293312163
259.499201481
259.641562228
259.92755336
260.355874886
260.91984867
261.611662359
262.422503122
263.34303169
264.363790708
265.47553422
266.669465636
267.937386738
269.271769459
270.665767166
272.113183577
273.60841587
275.146385644
276.722467625
278.332422612
279.972338103
281.638577936
283.327740684
285.036625879
286.762206682
288.501607786
290.252087291
292.011021595
293.775892094
295.54427252
297.313815266
299.082234907
300.847287542
302.606744232
304.358356789
306.099815818
307.828700265
309.542418955
311.238144999
312.912745793
314.562712886
316.184099537
317.772477334
319.322929055
320.830100107
322.288336046
323.691932601
325.03551412
326.314526161
327.52577833
328.667916102
329.741745048
330.750411466
331.699431168
332.597265807
333.460349743
334.356668297
334.491714091
334.553129858
334.53142398
334.541717293
334.52637802
334.517616721
334.497842927
334.473019839
334.455894731
334.439356408
334.418118543
334.393582157
334.368896164
334.34792565
334.332441005
334.321712581
334.315471112
334.313420145
334.314775966
334.318080252
334.321368461
334.322050124
334.31883187
334.316773716
334.319329521
334.316017065
334.315748238
334.317599307
334.316878258
334.33008159
334.322350074
334.257877049
334.2812279
334.292958662
334.29648328
334.297849612
334.298459016
334.298852278
334.299057052
334.299229464
257.989784332
258.145127745
258.456766289
258.922485556
259.533931241
260.281383113
261.154036242
262.140632863
263.229988374
264.411394182
265.674886607
267.011392203
268.412771433
269.871788046
271.382031162
272.937813381
274.53406253
276.16621897
277.830145076
279.522049672
281.238427235
282.976010289
284.731732524
286.502700376
288.286170986
290.079535169
291.880304096
293.68609868
295.494640047
297.303739271
299.111283649
300.915217738
302.713516494
304.504148358
306.285027559
308.053954515
309.808543679
311.546139079
313.26371882
314.957792246
316.624296924
318.258508417
319.854983841
321.40757132
322.9095292
324.353808132
325.73354232
327.042754791
328.277193545
329.43502543
330.517249588
331.527688205
332.472979809
333.366890667
334.257340683
334.401871907
334.489036782
334.525637527
334.52214971
334.517462892
334.500345019
334.481001448
334.455610748
334.427920498
334.403851465
334.381531618
334.358545641
334.335268775
334.314313193
334.298165511
334.28694374
334.280320653
334.278088628
334.279710047
334.284213186
334.290229212
334.29623139
334.300801022
334.303551371
334.306525125
334.310942111
334.3126398
334.31353933
334.315991174
334.317945595
334.323964707
334.330689867
334.327008286
334.296706438
334.307924651
334.307121143
334.306155933
334.305489087
334.305288198
334.305390452
334.305507162
256.318532896
256.489739657
256.832609082
257.343622727
258.012154299
258.825937635
259.7715672
260.835345396
262.003959493
263.264967509
264.607089341
266.020327564
267.495956795
269.026424703
270.605204417
272.226629946
273.885736808
275.578120964
277.299821994
279.047231117
280.81702156
282.606097093
284.411554427
286.230655561
288.06080743
289.899547057
291.744531365
293.593530626
295.44442416
297.29519565
299.143924731
300.988771757
302.827952571
304.659700067
306.482211862
308.293581859
310.091714348
311.874218938
313.638285866
315.380542633
317.096897273
318.78237956
320.431003445
322.035690984
323.588324037
325.080018134
326.50172921
327.845268196
329.10465279
330.277166885
331.363818082
332.369614072
333.308269769
334.230128784
334.355822806
334.421052891
334.473237469
334.49456474
334.488655864
334.471485377
334.444919544
334.414860119
334.382373792
334.350065466
334.321144618
334.295573311
334.272400099
334.251650835
334.2354719
334.224975469
334.219085727
334.21774296
334.220726236
334.227358756
334.236626004
334.24730001
334.25815841
334.268251818
334.277319305
334.286048456
334.294682212
334.3015893
334.307449482
334.313234179
334.317291699
334.321327317
334.325149524
334.324327981
334.338034192
334.339133188
334.320100924
334.314698243
334.312368165
334.311613559
334.311831671
334.312031656
254.46903294
254.659844631
255.041147884
255.607541428
256.345273446
257.238643528
258.270826331
259.425013114
260.685277808
262.037149543
263.467903827
264.96662195
266.524084253
268.132564024
269.785578782
271.47764086
273.204033373
274.960624613
276.743723791
278.54997497
280.376282387
282.219759455
284.077694051
285.947524498
287.826822534
289.713281853
291.604711923
293.499037235
295.394300535
297.288667063
299.180424688
301.067975577
302.949814853
304.824492642
306.690558575
308.546486268
310.390574869
312.220824031
314.03477824
315.829337558
317.600534495
319.343282752
321.051116484
322.715962911
324.328034983
325.875996111
327.347632371
328.731288025
330.018231733
331.204195115
332.290435219
333.289450661
334.254411506
334.360991656
334.397746692
334.428245808
334.44880271
334.446580011
334.424444241
334.391882435
334.353318171
334.313160559
334.273731955
334.237159346
334.205422651
334.17898035
334.157534588
334.141068353
334.130861378
334.126727595
334.12727903
334.132465797
334.141981404
334.155069198
334.170722407
334.18782335
334.205313064
334.222379318
334.23863324
334.254110499
334.268687308
334.281643703
334.293165642
334.303440238
334.311800891
334.31872809
334.324086725
334.326978292
334.33516412
334.342018824
334.335244689
334.320481269
334.317686009
334.317088307
334.318191452
334.318796039
252.421029519
252.636401451
253.065604347
253.700472248
254.522888282
255.512467332
256.64785744
257.908278066
259.274615131
260.730068701
262.260398434
263.853858688
265.500931088
267.193955367
268.926737945
270.694190987
272.492030276
274.316541238
276.164410094
278.03260987
279.91832826
281.818924077
283.731901149
285.654891434
287.585643086
289.522012643
291.461963232
293.40357085
295.3450384
297.284713188
299.221100674
301.152866984
303.078824539
304.997896619
306.909060986
308.811270008
310.703343448
312.583827046
314.450808668
316.301682586
318.132853003
319.939369428
321.714496404
323.449245068
325.131952425
326.748119007
328.280925917
329.713124895
331.031488962
332.229672098
333.315735802
334.345506063
334.426406485
334.423714228
334.418691728
334.413129977
334.396849673
334.365678477
334.322651264
334.273714354
334.223002096
334.173970356
334.128909438
334.089524666
334.057095035
334.032052634
334.014270473
334.003878208
334.000891093
334.003798172
334.011720587
334.024538186
334.041781513
334.062625186
334.086070262
334.111058811
334.136596656
334.16187587
334.186354477
334.20972264
334.231657176
334.25167332
334.269657938
334.285526402
334.298959678
334.310009451
334.318612173
334.324333014
334.329302692
334.33277881
334.330194432
334.323174669
334.320991608
334.321168414
334.324716945
334.326140248
250.149193849
250.395833104
250.8856198
251.606256463
252.533429585
253.640295199
254.899477545
256.285132677
257.774302632
259.347596233
260.989302301
262.687097057
264.431517715
266.215351953
268.033050609
269.880226023
271.753261112
273.64902924
275.564710061
277.497680276
279.445456676
281.405671185
283.376061287
285.354464757
287.338813685
289.327129004
291.31752129
293.308204877
295.297526561
297.284003235
299.266356593
301.243532171
303.214694822
305.17919796
307.13652804
309.086224662
311.027771044
312.960444579
314.883113653
316.793964291
318.690135701
320.56723677
322.418712874
324.235036193
326.002751424
327.703558604
329.314017892
330.807192334
332.163039336
333.379684418
334.514449384
334.567404599
334.510849655
334.457489605
334.41119385
334.362178243
334.30723521
334.246227901
334.18152788
334.116845411
334.055296919
333.999374063
333.950792202
333.91070123
333.879822135
333.85837622
333.846246997
333.843214855
333.847936881
333.858468334
333.874507615
333.895785603
333.921653268
333.951223614
333.983495263
334.017431753
334.052048733
334.086494315
334.120091733
334.152316243
334.182692506
334.210738945
334.236155851
334.258699854
334.278086098
334.294204674
334.306987437
334.316209068
334.322477218
334.32549256
334.323786218
334.317134241
334.311852857
334.322161914
334.332478583
334.334977458
247.621353321
247.908555909
248.476287416
249.305942639
250.36426747
251.615426505
253.024003449
254.55773333
256.189114211
257.896020777
259.661531934
261.473244402
263.322341449
265.202634147
267.109714582
269.040286009
270.991681387
272.961550131
274.947678945
276.947908975
278.960114273
280.982211546
283.012178206
285.048063661
287.087988472
289.130136014
291.172750108
293.214155689
295.252807904
297.287360879
299.316735007
301.340160243
303.357184497
305.367646811
307.371623227
309.369351919
311.361131578
313.347177459
315.327415746
317.301193681
319.266873898
321.221261936
323.158780928
325.070275757
326.941287909
328.749708866
330.462785286
332.03597857
333.447684104
334.75438053
334.788967801
334.667067334
334.553512394
334.455351649
334.360592545
334.267119111
334.1756564
334.086976211
334.002635128
333.924757381
333.855182459
333.795280501
333.745918358
333.707573493
333.680441674
333.664507914
333.659638268
333.664457285
333.67669954
333.69522393
333.719797823
333.749930182
333.784842454
333.823608466
333.865222596
333.908653046
333.952903343
333.997066519
334.040353609
334.082086154
334.121656598
334.158508314
334.192203092
334.222375943
334.248701048
334.270977387
334.289097839
334.302963122
334.312814785
334.318573226
334.31988111
334.316115961
334.307239346
334.310645371
334.34483693
334.346949449
244.795887708
245.136893919
245.806882957
246.777391015
248.002056934
249.432436473
251.022386485
252.731590618
254.527350246
256.384928218
258.286830235
260.221464576
262.181593135
264.162884694
266.16273991
268.179438078
270.211581831
272.257783056
274.316524989
276.386140567
278.46485571
280.550856746
282.642350729
284.737598757
286.834915855
288.932647455
291.029149006
293.122808663
295.212124607
297.295825203
299.372988126
301.443119514
303.506175846
305.562534983
307.612938428
309.658427339
311.700263365
313.739809655
315.778346291
317.816797383
319.8553385
321.892816083
323.925853795
325.947394298
327.944212355
329.892389259
331.748312801
333.442389592
335.020892447
335.070033429
334.884439455
334.707046007
334.551062883
334.401852991
334.258864222
334.125048799
334.00204397
333.890551918
333.791193087
333.704596185
333.631154352
333.570986193
333.52398358
333.489902175
333.468447643
333.45940151
333.462273954
333.474768145
333.494331648
333.520756241
333.553698038
333.592467138
333.636213913
333.684001254
333.734831581
333.787681522
333.841543664
333.895463505
333.948562336
334.000041739
334.04917429
334.095301492
334.137863224
334.176386877
334.21048192
334.239879421
334.264435596
334.284106008
334.299077228
334.309573903
334.315981568
334.318731012
334.317400029
334.320529797
334.387828598
334.367461178
241.617793208
242.032063377
242.839228821
243.994998465
245.433531299
247.08864253
248.899966715
250.81729608
252.802319856
254.828325991
256.878511241
258.943587061
261.019308759
263.104367656
265.198830178
267.30311739
269.417428067
271.541485906
273.674502313
275.815266534
277.962294959
280.113986914
282.268746931
284.425046086
286.58141253
288.736367659
290.888353893
293.035747478
295.176976859
297.310732536
299.436173529
301.553059058
303.661779458
305.763305606
307.859109845
309.9511196
312.041683188
314.133500856
316.229486293
318.332547202
320.445276872
322.569508252
324.705610871
326.851247922
328.998853219
331.131055757
333.214584644
335.204014394
335.337763747
335.120569891
334.896866479
334.690745169
334.48674101
334.288491328
334.103714346
333.936987832
333.790140321
333.663307929
333.555795685
333.466572116
333.394460349
333.338269556
333.296901827
333.26943657
333.255231609
333.254111437
333.264183035
333.28298312
333.309399052
333.343152653
333.383673428
333.430192546
333.481866004
333.537789031
333.597003646
333.658518274
333.721332813
333.784463948
333.846965693
333.907942518
333.966556977
334.022040025
334.073712738