/*--------------------------------*- C++ -*----------------------------------*\
| =========                 |                                                 |
| \\      /  F ield         | OpenFOAM: The Open Source CFD Toolbox           |
|  \\    /   O peration     | Version:  v1906                                 |
|   \\  /    A nd           | Web:      www.OpenFOAM.com                      |
|    \\/     M anipulation  |                                                 |
\*---------------------------------------------------------------------------*/
FoamFile
{
    version     2.0;
    format      ascii;
    class       volScalarField;
    location    "844";
    object      pa;
}
// * * * * * * * * * * * * * * * * * * * * * * * * * * * * * * * * * * * * * //

dimensions      [0 2 -2 0 0 0 0];


internalField   nonuniform List<scalar> 
9216
(
976.065191634
975.700747292
974.960257297
973.840525785
972.345214163
970.478585082
968.246002616
965.653822716
962.709350526
959.420754595
955.797025898
951.84788449
947.583739945
943.015593571
938.155004901
933.01399495
927.605023719
921.94089944
916.034771089
909.900047252
903.550406092
896.999725604
890.262111526
883.351838732
876.283395691
869.071434787
861.730830266
854.276633779
846.72414157
839.088850286
831.386528584
823.633167575
815.845049801
808.038688074
800.23088742
792.438665084
784.67929831
776.97022019
769.329049336
761.773458058
754.321182787
746.989864744
739.797043866
732.759975987
725.895615969
719.220416878
712.750306884
706.500472516
700.485326667
694.718269068
689.211631121
683.97639843
679.022112809
674.35654875
669.985572807
665.91280627
662.139498587
658.664270128
655.483104156
652.589265793
649.973462282
647.623949659
645.526847651
643.66641489
642.025467131
640.585714724
639.328377153
638.234765601
637.286884965
636.467783047
635.761801954
635.154632906
634.633364622
634.186437999
633.803617347
633.4758757
633.195310084
632.955004638
632.748963185
632.571998761
632.419676154
632.288182646
632.174259465
632.075074731
631.987842562
631.912876108
631.851634164
631.80358197
631.767426686
631.741254973
631.723123979
631.710960252
631.702991138
631.698236621
631.695871277
631.695047167
976.429221814
976.063629396
975.321884443
974.199103449
972.699497378
970.827479443
968.588497067
965.988978306
963.036291452
959.738676895
956.105191085
952.14562904
947.870465512
943.290775144
938.418177145
933.264759053
927.843030314
922.165854685
916.246417002
910.098167836
903.734806057
897.170237479
890.418573806
883.494104883
876.411312586
869.184854355
861.829588898
854.360567185
846.793065628
839.142579684
831.424859197
823.655898412
815.851967937
808.029595693
800.205587884
792.396993459
784.621108787
776.895419723
769.237584848
761.66535163
754.196516704
746.84881649
739.639867363
732.587035464
725.707363205
719.017425142
712.53324679
706.270149919
700.242662172
694.46434448
688.947676489
683.703846138
678.742586717
674.071910498
669.697891234
665.624366093
661.85272387
658.38168175
655.207209941
652.322503016
649.718090833
647.38200287
645.300036773
643.456117365
641.832660096
640.410861962
639.171356621
638.094950074
637.163273748
636.359172568
635.666892771
635.072108043
634.561919157
634.124822543
633.750661603
633.430516136
633.156582797
632.922042115
632.720974889
632.548283114
632.399620734
632.271276274
632.160093699
632.063400877
631.978909588
631.905652142
631.845453126
631.798993103
631.763765365
631.738194246
631.72080377
631.709194513
631.701493157
631.697069994
631.694976379
631.694136527
977.171229497
976.802476265
976.056508898
974.927395584
973.419382153
971.536944167
969.285623042
966.671956475
963.703429139
960.38840793
956.736077095
952.756365109
948.459875622
943.857812948
938.961915638
933.784386895
928.337836602
922.635221966
916.689802602
910.515095232
904.124844654
897.532994276
890.753673614
883.801184166
876.690001873
869.434775797
862.050342193
854.551731983
846.954191919
839.273195841
831.524467738
823.72399072
815.888025506
808.033111349
800.17607302
792.334005681
784.524263658
776.764422847
769.072245477
761.465615843
753.962478941
746.580749839
739.338229356
732.252492998
725.340791992
718.619931309
712.106165203
705.81507082
699.761439329
693.959138176
688.420980651
683.158549268
678.182007543
673.499847464
669.118617448
665.042600448
661.2735202
657.810284204
654.648863165
651.782287303
649.200737563
646.891759325
644.840480993
643.030146717
641.442422195
640.057381829
638.854370076
637.813074808
636.914361348
636.14068137
635.476138016
634.906385991
634.418562804
634.001272818
633.644537177
633.339660842
633.079060178
632.856102698
632.665020612
632.500882106
632.359531234
632.237439933
632.131612058
632.039520528
631.958920624
631.889011429
631.832907613
631.789732509
631.756325733
631.732304653
631.71639237
631.705573725
631.698640235
631.694743497
631.692717957
631.691718596
978.29871406
977.926300017
977.173832542
976.034970524
974.51404539
972.615636984
970.345425655
967.710111828
964.717359412
961.375727827
957.694600786
953.684110691
949.355063048
944.71885995
939.787427198
934.573143575
929.088776951
923.34742509
917.362465783
911.147513369
904.716386023
898.083079926
891.261754371
884.266722954
877.112454669
869.813579227
862.384900431
854.84141129
847.198314883
839.471044111
831.67528491
823.826994446
815.942419641
808.038108045
800.130914629
792.23799628
784.376798938
776.565028226
768.82060982
761.161630774
753.606270003
746.172710225
738.879042177
731.743154733
724.782624062
718.014595824
711.455673816
705.121806536
699.028181434
693.189111402
687.617915248
682.326766776
677.326505423
672.626379807
668.233721664
664.153553207
660.388171462
656.936801995
653.795415434
650.95678959
648.410550725
646.143511076
644.139666347
642.38128192
640.849126227
639.521364044
638.375054631
637.387968252
636.539785372
635.812472125
635.190057907
634.658242346
634.204223397
633.816769798
633.486207098
633.204229609
632.963625837
632.758040446
632.58190059
632.430505688
632.300020586
632.187198865
632.089275141
632.003928519
631.9289389
631.864653409
631.814094282
631.774926776
631.745291001
631.723978023
631.70944313
631.699869792
631.693899999
631.690436154
631.68853256
631.687598079
979.814657292
979.437541265
978.676281413
977.524204829
975.985780973
974.065742518
971.769961395
969.105360231
966.079848781
962.702249908
958.98222155
954.930175356
950.55719439
945.874951253
940.895628971
935.631845794
930.096586113
924.303138282
918.265041205
911.996039901
905.510051328
898.821139866
891.943503062
884.891466192
877.679485675
870.322159287
862.834242949
855.230671749
847.526584984
839.737352659
831.878603734
823.96625179
816.016519078
808.045955687
800.07145186
792.11024025
784.179887145
776.298268615
768.483531493
760.754035984
753.128281571
745.624815043
738.262125156
731.058525555
724.032033413
717.200247453
710.580233463
704.188419303
698.040502826
692.151365787
686.534985843
681.204321254
676.171146028
671.445787971
667.036750924
662.950190423
659.18931588
655.753834395
652.639696112
649.839340158
647.341578256
645.132323096
643.1936085
641.506542071
640.051578445
638.803734435
637.736143593
636.823506114
636.043912157
635.378994898
634.813047032
634.331977052
633.923010121
633.575105659
633.279070484
633.02724333
632.813003759
632.630353658
632.473864732
632.339090353
632.222738341
632.121962189
632.034290008
631.957707961
631.890120542
631.833394507
631.789708106
631.755840333
631.730036571
631.711782783
631.699712525
631.691822449
631.686747531
631.683804787
631.682168737
631.681353961
981.723685461
981.340672225
980.568258805
979.399390576
977.838728045
975.891209346
973.562957461
970.861183597
967.79411624
964.370919201
960.601605413
956.496947513
952.068387463
947.327947013
942.28814117
936.961896376
931.362475408
925.503410406
919.39844567
913.061491046
906.506586798
899.747879906
892.79961174
885.676116111
878.391826848
870.961293319
863.399202743
855.720407592
847.939957047
840.073130801
832.135474868
824.142835522
816.111391915
808.05768479
799.998637724
791.951568499
783.934187773
775.964581507
768.061174945
760.242675585
752.527994818
744.936148384
737.486139008
730.196825654
723.086787295
716.174189728
709.476665474
703.011215146
696.794134673
690.840967974
685.166469873
679.784558628
674.708204216
669.949201328
665.517729331
661.421664378
657.665630472
654.25006532
651.170739408
648.419749136
645.984631778
643.850722316
641.995996813
640.400422208
639.047180974
637.905547446
636.941644547
636.125316033
635.432810179
634.846160632
634.350836028
633.933257685
633.580383112
633.281276323
633.027512581
632.812521153
632.630648145
632.47630281
632.343903112
632.22914009
632.129786647
632.043523895
631.968158683
631.902136362
631.843989599
631.796509137
631.759774412
631.731419927
631.710532842
631.696561329
631.686933048
631.680860214
631.677106055
631.674582613
631.673238211
631.672559247
984.031593968
983.641391264
982.85535089
981.665955747
980.078109235
978.097011106
975.729101018
972.981952658
969.864193905
966.385415178
962.556073146
958.387391253
953.891259284
949.080134187
943.966944256
938.564998864
932.887905754
926.949497857
920.76377128
914.344835822
907.706878759
900.864142192
893.830913444
886.621527586
879.250380583
871.731951415
864.080831424
856.31175933
848.43966056
840.479689613
832.447275158
824.358163874
816.228464062
808.07468629
799.91377661
791.763139895
783.64064917
775.564636747
767.553863397
759.627462215
751.804855467
744.105644382
736.549475025
729.155886353
721.944150662
714.933119402
708.141090083
701.585708649
695.283920555
689.251971085
683.505452929
678.059360383
672.928110258
668.125399714
663.663782426
659.553740128
655.802187749
652.410649615
649.374133123
646.684697055
644.327435533
642.289651814
640.53884175
639.053953312
637.831873422
636.829112487
635.998516564
635.302281547
634.715170339
634.22167391
633.810631243
633.469438127
633.183558465
632.941787382
632.737023751
632.564655064
632.420721601
632.300062201
632.195979583
632.103734752
632.023686832
631.954064477
631.892617843
631.838587052
631.791397759
631.753726713
631.724683372
631.70306568
631.687917286
631.677766606
631.67080947
631.666579582
631.664368896
631.662679972
631.661796168
631.661362874
986.745448981
986.346675676
985.544395719
984.330536102
982.710299309
980.689208152
978.274092365
975.472970888
972.294961301
968.750176235
964.849614906
960.605051315
956.028921674
951.134213333
945.93435766
940.44312917
934.674553405
928.642825772
922.362243541
915.84715258
909.111909972
902.170862688
895.038341811
887.72867083
880.256186104
872.635267168
864.880374776
857.006094797
849.027186739
840.95863579
832.815708768
824.614009518
816.369536039
808.098735914
799.818555076
791.546476918
783.300546402
775.099373613
766.962111303
758.90840131
750.958286417
743.132086346
735.450240599
727.933125393
720.600857679
713.47310535
706.568925886
699.906660666
693.503903082
687.377563628
681.544020863
676.019356107
670.81958569
665.960782503
661.458792831
657.3281599
653.579706231
650.216764255
647.231425259
644.61747916
642.353420936
640.440080009
638.813314367
637.44974006
636.397877425
635.5786313
634.918531767
634.368119233
633.902904135
633.514615427
633.200601068
632.949793527
632.741959
632.564784496
632.413893973
632.288376195
632.187524777
632.106741884
632.035486989
631.966359926
631.907212931
631.856199325
631.80963297
631.768773892
631.733739963
631.706283292
631.68579953
631.67111726
631.661446462
631.655078234
631.651583408
631.649471049
631.648616107
631.648344837
631.648061412
631.647972395
989.873666763
989.464843773
988.643541542
987.401030627
985.742875015
983.674990194
981.204678961
978.340499316
975.092160536
971.470405229
967.486886164
963.154039804
958.48495916
953.493268523
948.193002575
942.598492618
936.724262653
930.584938264
924.195170894
917.569579864
910.722713471
903.669029661
896.422895334
888.998602418
881.410397761
873.672523815
865.799267089
857.805012322
849.704301113
841.511894561
833.242841147
824.912545326
816.536840694
808.13206359
799.715121668
791.303553759
782.915574203
774.570094261
766.286712859
758.085668962
749.987749346
742.014148058
734.186278771
726.525547395
719.053101581
711.789581694
704.754908794
697.968145623
691.447474285
685.210315317
679.273622636
673.65434434
668.370039809
663.43949693
658.883022932
654.72158245
650.973312181
647.645338167
644.719346869
642.198175718
640.036538136
638.298474029
636.816519238
635.553173327
634.737478703
634.169997887
633.727777285
633.343693385
633.002336107
632.716539955
632.509622379
632.373128061
632.26163916
632.158232583
632.065186973
631.988943221
631.936016607
631.903826727
631.871151872
631.820128147
631.782759028
631.753142966
631.721113413
631.694030831
631.671730989
631.65458954
631.643092433
631.635676219
631.631591038
631.629673914
631.629317946
631.629982592
631.630830846
631.632019844
631.63248114
631.632800497
993.426105039
993.005637104
992.162325636
990.886673901
989.184679817
987.062731336
984.52869967
981.591789089
978.262416838
974.552077804
970.473203977
966.039020642
961.2634022
956.160730056
950.745755368
945.033469473
939.03898545
932.777434288
926.263879376
919.51325228
912.540312072
905.359628711
897.985589459
890.432425349
882.714253667
874.845131715
866.839117881
858.71033723
850.473050782
842.141728869
833.731131511
825.256391351
816.733105487
808.177431042
799.606178744
791.03689991
782.487958266
773.978576927
765.528849756
757.15970574
748.89281593
740.75043502
732.755175106
724.929718011
717.296484313
709.87729315
702.693058957
695.763586081
689.107516649
682.742494063
676.685583654
670.954024633
665.566359518
660.543962525
655.912702063
651.703682849
647.950156735
644.669886423
641.80832395
639.410077251
637.328049265
635.883485889
634.526199044
633.03914325
632.620024286
632.468512252
632.348008301
632.230146837
632.119775522
632.03169902
631.966784685
631.899928785
631.819571631
631.739118146
631.671780812
631.629611134
631.631738178
631.678941727
631.713720874
631.664537692
631.651857755
631.650412741
631.628658409
631.615103067
631.606277223
631.598796268
631.596784585
631.596927002
631.599075081
631.602187876
631.605229468
631.608416074
631.611534713
631.614150238
631.615596505
631.616332752
997.41417041
996.980323939
996.111769995
994.798123869
993.045901064
990.862055304
988.255136627
985.235119319
981.813261923
978.001951262
973.814541417
969.265189938
964.368693925
959.140328483
953.595690013
947.75054764
941.620706588
935.221888254
928.569631745
921.679221528
914.565644263
907.24357614
899.727399064
892.031241647
884.169038584
876.15460155
868.001695396
859.724116209
851.335770735
842.85075945
834.283468737
825.648668652
816.961625833
808.238225355
799.495095562
790.749730246
782.02059754
773.327223156
764.690233432
756.131341886
747.673262704
739.339536231
731.154257409
723.14170851
715.325915255
707.730167003
700.376568169
693.285703127
686.476505695
679.966404013
673.771821739
667.909157979
662.396481244
657.256308004
652.519933759
648.233385353
644.463167079
641.266941842
638.453360552
636.214267465
633.762961515
633.109704498
632.356776648
632.235557271
632.271715084
632.2911915
632.266918906
632.217707216
632.155324823
632.089041268
632.024203121
631.95832951
631.890133755
631.824784336
631.770606675
631.741077235
631.751142689
631.771095777
631.680983855
631.465176839
631.488334873
631.552520862
631.531386952
631.532114092
631.539939839
631.539553149
631.54835252
631.555413241
631.563956856
631.572499303
631.579942447
631.58606332
631.591170529
631.595351765
631.597989083
631.599166898
1001.85094684
1001.40182107
1000.50449724
999.147566764
997.338162153
995.083912534
992.394176162
989.279841029
985.753160808
981.827574201
977.51752029
972.838251964
967.805649898
962.436038769
956.746008015
950.752240197
944.471351753
937.91975206
931.113527821
924.068359334
916.799473921
909.32163858
901.649190147
893.796096705
885.77604069
877.602512596
869.28890586
860.848607756
852.295086968
843.641983094
834.903208033
826.093057714
817.226348189
808.318568529
799.386044436
790.446105598
781.517244027
772.619248016
763.773292894
755.001965988
746.32920075
737.780094483
729.380588602
721.157002366
713.135433896
705.341076949
697.797543685
690.526316291
683.546457611
676.874656913
670.525668909
664.513300651
658.852320323
653.562255681
648.67567053
644.253549168
640.431266683
637.398764958
634.24466581
632.771283232
632.615424483
632.649134096
632.567910197
632.514843191
632.510880219
632.49803191
632.466376639
632.418340542
632.356180481
632.285188851
632.209705116
632.129945974
632.04692171
631.964616156
631.889179973
631.829278423
631.78998179
631.749495346
631.67595224
631.621380837
631.643992925
631.616811776
631.414499492
631.425814263
631.475353325
631.473939809
631.499286567
631.511324799
631.52707412
631.541869329
631.553966229
631.563632491
631.5709507
631.576543454
631.580431342
631.582156052
1006.75134927
1006.28484308
1005.35486875
1003.94884239
1002.07463117
999.740670465
996.957279292
993.736427497
990.091541952
986.037296803
981.589401741
976.764390372
971.579409999
966.05201342
960.19995373
954.040985084
947.592674748
940.872234573
933.896381638
926.681238392
919.24228053
911.594336969
903.751639852
895.727915741
887.536502851
879.190476634
870.702768146
862.086267382
853.353913944
844.518786046
835.594205149
826.593858753
817.531961226
808.423443094
799.284162365
790.131129183
780.982729001
771.858926184
762.78142476
753.773756496
744.861260258
736.070911629
727.430962086
718.97035777
710.717936001
702.701449987
694.946545266
687.47587516
680.308572674
673.460110502
666.94250344
660.764843629
654.93434254
649.459162095
644.352532926
639.622517817
635.281156196
633.099112794
632.947140644
632.900735431
632.910799927
632.941069023
632.907025165
632.862553141
632.824426094
632.788048885
632.746256127
632.692828082
632.625260257
632.546612367
632.459765162
632.365632446
632.266817153
632.167575065
632.073626293
631.991393994
631.922762588
631.854747458
631.772520633
631.699445249
631.655036108
631.593726838
631.552586781
631.549524864
631.473550665
631.376579044
631.451751081
631.462596272
631.489430024
631.512188055
631.529097843
631.54199873
631.551727007
631.558798272
631.563832766
631.5661167
1012.13230774
1011.64607713
1010.67914956
1009.21759184
1007.27014848
1004.84621812
1001.95726244
998.616530945
994.838830591
990.640281438
986.038074674
981.050234303
975.695382054
969.992503321
963.960713088
957.619023519
950.986119529
944.080152931
936.918569676
929.517985764
921.894125833
914.061832406
906.035144632
897.827433576
889.451570551
880.920099048
872.245384096
863.43972579
854.515442892
845.484947792
836.360843036
827.156049245
817.883991684
808.558832327
799.195739515
789.811184109
780.423245791
771.051909887
761.71932783
752.450004166
743.270861094
734.211118652
725.301919623
716.575630712
708.064781204
699.800673976
691.811836439
684.122613671
676.752350568
669.715092787
663.019518732
656.668772143
650.660365305
644.982568068
639.576181135
634.080124782
633.472114221
633.297329443
633.316557879
633.340030514
633.346075874
633.334916665
633.293306489
633.245347884
633.197256488
633.149369469
633.096296985
633.032135541
632.954144076
632.864418883
632.764489263
632.655525345
632.540848742
632.424710256
632.31212996
632.207784082
632.112462692
632.019121072
631.920834245
631.827705898
631.749581797
631.670761488
631.604013129
631.552212373
631.509042859
631.498625701
631.471242101
631.3972491
631.451405257
631.485967274
631.507134436
631.522671127
631.534360059
631.542893734
631.548899812
631.551778923
1018.01298785
1017.50439551
1016.49570389
1014.97143209
1012.94137514
1010.41608626
1007.40838836
1003.93304514
1000.00648455
995.646513303
990.872041867
985.702819773
980.159177166
974.261765747
968.031293595
961.488253465
954.652651148
947.543748487
940.179841923
932.578101166
924.754490897
916.723791068
908.499716913
900.095121114
891.522240888
882.792940874
873.918905578
864.91175789
855.783115736
846.5446281
837.20804318
827.785331421
818.288899031
808.731871418
799.128434094
789.494216087
779.846699615
770.205637566
760.59345109
751.035564681
741.560616887
732.200459703
722.989832381
713.965575894
705.165269391
696.625260165
688.378296207
680.451237816
672.86398903
665.629288854
658.752732849
652.2331725
646.059714438
640.177335749
634.17567929
633.487538407
633.686212689
633.785485193
633.829520238
633.820986232
633.808436296
633.785024231
633.743970693
633.694207839
633.639801405
633.581134849
633.514626282
633.436239588
633.345060591
633.242016647
633.127256419
633.002557801
632.87105846
632.736583936
632.603309637
632.474728147
632.351601919
632.230916648
632.110589505
631.995802436
631.891241806
631.791928533
631.701420052
631.624818883
631.560970207
631.51868279
631.491930145
631.467598619
631.427402189
631.468647322
631.489924624
631.506498188
631.519577749
631.529450154
631.536344521
631.539858189
1024.41505605
1023.88110599
1022.82522806
1021.23016092
1019.1069651
1016.46758358
1013.32646662
1009.70017245
1005.60703125
1001.06681033
996.100404228
990.72954731
984.976538095
978.863959806
972.414384237
965.650053779
958.592548451
951.262457184
943.679084274
935.860228768
927.822075187
919.579224293
911.144872227
902.531115123
893.749321574
884.810489111
875.725501227
866.505239774
857.160576867
847.702326558
838.141250023
828.488158891
818.75415968
808.951002565
799.09150982
789.190062583
779.263133454
769.329853497
759.412590377
749.537494464
739.734942758
730.039769864
720.491117506
711.131666417
702.005975598
693.157713666
684.625968645
676.441228944
668.624269418
661.186614588
654.132051551
647.455219373
641.108725174
634.693531011
633.909315962
634.066465359
634.277739525
634.337421784
634.365021759
634.357182132
634.338745685
634.308326239
634.264630065
634.21125135
634.150085724
634.080828476
634.00088466
633.907766705
633.802461084
633.684867038
633.554169705
633.412426127
633.262355113
633.107286778
632.950742296
632.79565526
632.643286962
632.493176139
632.345669592
632.204067092
632.071144017
631.946420485
631.832403295
631.732384455
631.646303543
631.578059395
631.526006366
631.484377891
631.477477074
631.471551342
631.477584349
631.493470912
631.507575334
631.518829838
631.526897667
631.531101459
1031.36299929
1030.8002563
1029.69102716
1028.01599821
1025.78776339
1023.01994927
1019.72896164
1015.93349222
1011.65410311
1006.91283125
1001.73284391
996.138138561
990.153263855
983.80303184
977.112194931
970.105074881
962.805149142
955.234620611
947.414015196
939.361865655
931.094544372
922.626298379
913.969510816
905.135164055
896.133416419
886.974149246
877.667328579
868.223089497
858.651590494
848.962798189
839.16637158
829.271727086
819.288327512
809.226122619
799.096087128
788.910824084
778.685234036
768.437256436
758.188673035
747.965937727
737.800967217
727.731773065
717.802716373
708.064010708
698.56992384
689.374995014
680.528211982
672.064957959
664.006631714
656.363759938
649.136194172
642.279753371
635.385696518
634.573082295
634.733834595
634.898822171
634.971406184
634.987651598
634.991256693
634.973871577
634.945818947
634.907163106
634.858049613
634.799283387
634.730676027
634.650953906
634.557915549
634.450331544
634.330364191
634.197074883
634.049150255
633.888650343
633.717984387
633.540086358
633.358048316
633.174606026
632.991588647
632.810073103
632.63162098
632.458977875
632.29461917
632.140043575
631.997864955
631.870742099
631.760094791
631.66804862
631.593677988
631.535301806
631.50235276
631.485676444
631.471808154
631.480679242
631.497723938
631.511198506
631.521209822
631.526329783
1038.88451333
1038.28899714
1037.11934618
1035.35386911
1033.00703349
1030.09452044
1026.63510352
1022.65002458
1018.16246637
1013.19707961
1007.77960816
1001.93659687
995.695137534
989.082596776
982.126278193
974.852992118
967.288535877
959.457118212
951.380791614
943.078980341
934.568205806
925.862104954
916.971801338
907.906612763
898.674967727
889.285285392
879.746522113
870.068184526
860.259903396
850.330899662
840.289651929
830.143907107
819.901053234
809.568706773
799.155391951
788.671263825
778.128911523
767.544286312
756.937767269
746.335345179
735.769887466
725.28239939
714.923059274
704.751522023
694.835549588
685.24624881
676.049198712
667.285663045
658.976739878
651.127847734
643.695602697
636.251262728
635.412079963
635.628709278
635.784152416
635.790413854
635.768789439
635.740223111
635.710252981
635.672955151
635.631332741
635.583274539
635.527052124
635.461038901
635.383395928
635.292002271
635.184954284
635.062663331
634.926801339
634.775667271
634.608684882
634.427708671
634.234893575
634.03281703
633.824224656
633.611718674
633.397490486
633.183457985
632.971837064
632.765378765
632.566805404
632.378627019
632.203772601
632.045074515
631.904796338
631.784838482
631.685346012
631.605872586
631.548508963
631.509659682
631.482568591
631.47046675
631.490051063
631.506932291
631.52017779
631.526555514
1047.01097594
1046.37802716
1045.13976612
1043.27173829
1040.79071653
1037.71491137
1034.06599328
1029.86827843
1025.14803376
1019.93289975
1014.25149661
1008.13318124
1001.60787007
994.705828061
987.457340488
979.892220509
972.039149488
963.924893793
955.573485977
947.005499377
938.237575921
929.282375539
920.149078798
910.844466983
901.374410854
891.745354221
881.965214984
872.043241937
861.989017782
851.811324968
841.517441151
831.113097978
820.603042586
809.991886956
799.284976627
788.489207913
777.613927793
766.672036836
755.681335266
744.666104716
733.658948643
722.702931467
711.853927164
701.182690357
690.775399741
680.728967993
671.140110401
662.055914942
653.489225168
645.395267536
637.320054374
636.435265078
636.717215069
636.895573863
636.847780042
636.740935115
636.64871397
636.572206452
636.508147229
636.449638013
636.393437711
636.334387866
636.268307194
636.191665365
636.101489584
635.995163475
635.871314765
635.732292216
635.578009729
635.406392194
635.218560903
635.016008412
634.800604282
634.574509646
634.340056049
634.099582807
633.855329234
633.609534315
633.364704565
633.123711432
632.889588235
632.665463849
632.454697144
632.260587184
632.086067738
631.933497648
631.804065255
631.698200498
631.616228214
631.55544655
631.511242631
631.482707425
631.476730839
631.50525398
631.525286205
631.533208291
1055.77802815
1055.10213461
1053.78568175
1051.80100496
1049.16772732
1045.90719889
1042.04468648
1037.60826346
1032.62784437
1027.13445735
1021.1598573
1014.73640948
1007.8970829
1000.67537934
993.105060322
985.219594316
977.051314204
968.63033905
959.983377546
951.132593737
942.094777847
932.88110791
923.497774578
913.947609377
904.232542666
894.356216839
884.325623151
874.150631767
863.841811263
853.408164933
842.855814405
832.187971203
821.405936196
810.510461397
799.502876419
788.385897955
777.164518933
765.847241933
754.447702366
742.986628907
731.494247652
720.013440849
708.603974136
697.347791464
686.354703912
675.761601875
665.733780884
656.312034828
647.442503937
638.638003216
637.665938908
637.997664326
638.201751803
638.11494798
637.922201754
637.734617323
637.583618936
637.465853439
637.37298601
637.294584192
637.222559268
637.149191302
637.068431454
636.975586879
636.867142752
636.740556695
636.59532654
636.434897514
636.258516279
636.06448879
635.854680877
635.630506238
635.393503335
635.145300359
634.887648784
634.622399198
634.351503003
634.077100646
633.801665176
633.52806028
633.259475521
632.999388633
632.75154822
632.519773001
632.307687677
632.118423128
631.95423538
631.816525488
631.70581553
631.620620914
631.558098614
631.515539602
631.492189549
631.500155862
631.53967052
631.548343095
1065.22628806
1064.50087807
1063.09487619
1060.97697533
1058.17029535
1054.70010469
1050.59622795
1045.89143033
1040.61998034
1034.8166914
1028.51659905
1021.75511756
1014.56836785
1006.99337898
999.067945633
990.830025698
982.316660509
973.562484756
964.597972149
955.447654189
946.128659525
936.65003805
927.013399678
917.215293294
907.251293977
897.12078459
886.830235271
876.392056431
865.81987975
855.124176606
844.309977359
833.37709156
822.322110216
811.140816034
799.829653387
788.386223144
776.809917589
765.103220136
753.273618309
741.335830529
729.31449879
717.248121979
705.195305
693.244653954
681.531165777
670.248849163
659.730769611
649.923596988
640.264898467
639.131106157
639.469696906
639.686884057
639.561640321
639.289359735
639.000432366
638.751810357
638.557199015
638.408044959
638.290863542
638.192044419
638.100541716
638.007117155
637.904769419
637.788365791
637.654338151
637.500722651
637.328412117
637.141283065
636.938655519
636.720050697
636.487667241
636.24280595
635.98650297
635.719656775
635.443211042
635.158265336
634.866166434
634.568607517
634.267725637
633.96614708
633.666973337
633.373757495
633.090457532
632.821290151
632.570506885
632.342100014
632.139470778
631.965234736
631.820988798
631.706859939
631.621922429
631.564642323
631.532512028
631.528108186
631.580992807
631.576317368
1075.40222097
1074.61946358
1073.11020396
1070.83943444
1067.83437256
1064.12516328
1059.74758915
1054.74047394
1049.14336652
1042.99521416
1036.33423363
1029.19861934
1021.6274883
1013.66156584
1005.34328954
996.716176174
987.823438928
978.705937263
969.399625124
959.93277535
950.32343551
940.577818201
930.690593328
920.64813457
910.435270483
900.044295066
889.482167964
878.767945774
867.922368583
856.9595664
845.883372741
834.688434475
823.364442654
811.90075422
800.288265531
788.518730415
776.584638428
764.480576572
752.205621321
739.765645399
727.175566781
714.463002756
701.675191714
688.892404037
676.26066973
664.018007898
652.929741301
642.255417466
640.847078077
641.115876428
641.326080657
641.16055619
640.813267261
640.426835092
640.073549494
639.78453956
639.560058044
639.385426889
639.243795587
639.120092559
639.002266631
638.880787084
638.748571947
638.600546966
638.433327077
638.245856405
638.041440383
637.8224316
637.588909828
637.343627379
637.088553527
636.824673407
636.552281924
636.271304722
635.981625336
635.683332079
635.376892462
635.063273893
634.744021565
634.421290248
634.097840547
633.777023014