/*--------------------------------*- C++ -*----------------------------------*\
| =========                 |                                                 |
| \\      /  F ield         | OpenFOAM: The Open Source CFD Toolbox           |
|  \\    /   O peration     | Version:  v1906                                 |
|   \\  /    A nd           | Web:      www.OpenFOAM.com                      |
|    \\/     M anipulation  |                                                 |
\*---------------------------------------------------------------------------*/
FoamFile
{
    version     2.0;
    format      ascii;
    class       surfaceScalarField;
    location    "844";
    object      phi;
}
// * * * * * * * * * * * * * * * * * * * * * * * * * * * * * * * * * * * * * //

dimensions      [0 3 -1 0 0 0 0];
oriented        oriented;


internalField   nonuniform List<scalar> 
18240
(
-0.000199929801015
0.000199923623702
-0.000409336163175
0.000209395302196
-0.000617351549817
0.000208010755872
-0.000822356981923
0.000204993491882
-0.00102328639837
0.00020092676927
-0.00121922815967
0.000195929271219
-0.00140934212231
0.000190113438433
-0.00159292951577
0.000183574726773
-0.00176935205104
0.000176424310758
-0.00193812102741
0.000168756527557
-0.0020987974161
0.00016068064522
-0.00225109079656
0.000152281536738
-0.00239474121954
0.000143657267199
-0.00252962764878
0.000134875575063
-0.00265563553345
0.000126017412003
-0.00277277499608
0.000117129974354
-0.0028810381648
0.000108275398105
-0.00298052661691
9.94807020939e-05
-0.00307130219284
9.07905151152e-05
-0.00315352220764
8.22143595842e-05
-0.00322728690285
7.37822717798e-05
-0.00329278009387
6.54899733048e-05
-0.00335011621163
5.73562432126e-05
-0.00339948344554
4.93667700892e-05
-0.0034409931604
4.15322226881e-05
-0.00347482228996
3.38317130694e-05
-0.00350106809723
2.62705134373e-05
-0.00351988644349
1.88242364951e-05
-0.00353135497062
1.1495181677e-05
-0.00353560396328
4.25841694009e-06
-0.00353269116103
-2.88446701788e-06
-0.00352272159645
-9.95642488509e-06
-0.00350573769964
-1.69542016811e-05
-0.00348182565932
-2.38950592645e-05
-0.00345102354782
-3.07714065581e-05
-0.00341341050046
-3.75921821547e-05
-0.00336903597735
-4.43432115161e-05
-0.0033179888068
-5.10224960108e-05
-0.00326034955785
-5.76077954705e-05
-0.00319623624755
-6.40850654891e-05
-0.00312578079169
-7.04243902014e-05
-0.00304914843164
-7.66009983267e-05
-0.00296653809787
-8.25802683546e-05
-0.00287817353187
-8.83307766563e-05
-0.00278432675598
-9.38183432195e-05
-0.00268528106787
-9.90103758682e-05
-0.00258137711868
-0.000103877778848
-0.00247295162695
-0.000108389693204
-0.00236040709349
-0.000112521136146
-0.00224413420995
-0.00011623761949
-0.00212460730141
-0.000119506598815
-0.00200229963656
-0.000122273620879
-0.00187780364182
-0.000124478646833
-0.0017517408222
-0.000126029982593
-0.00162489394769
-0.000126832030076
-0.0014980950604
-0.000126766777045
-0.00137234268925
-0.000125739564651
-0.00124864396712
-0.000123666889397
-0.00112810723301
-0.000120525824355
-0.001011756081
-0.000116319566999
-0.000900625350623
-0.000111121599348
-0.000795571563759
-0.000105022765946
-0.000697381094727
-9.81836321687e-05
-0.000606588512979
-9.07630323132e-05
-0.000523670119545
-8.29144154744e-05
-0.000448856788402
-7.47856720016e-05
-0.000382259831952
-6.65957896373e-05
-0.000323671770545
-5.85627078018e-05
-0.00027275899521
-5.091426078e-05
-0.000228937013939
-4.37992862802e-05
-0.000191608927688
-3.73321826689e-05
-0.000160041388526
-3.15476704695e-05
-0.000133572494741
-2.64753316349e-05
-0.00011146262763
-2.20926266936e-05
-9.30917601184e-05
-1.83792772847e-05
-7.78188331772e-05
-1.52585393959e-05
-6.51739393115e-05
-1.26552968303e-05
-5.4707398152e-05
-1.0455676304e-05
-4.61339635876e-05
-8.58578748935e-06
-3.91439555866e-05
-6.9825374709e-06
-3.35231676803e-05
-5.63436028426e-06
-2.90131117857e-05
-4.5055151715e-06
-2.54518373331e-05
-3.57539780171e-06
-2.26607919961e-05
-2.78846395251e-06
-2.06294732313e-05
-2.0452921977e-06
-1.89857798068e-05
-1.64388698736e-06
-1.75072562035e-05
-1.49258367419e-06
-1.62399657335e-05
-1.27075920021e-06
-1.49732134441e-05
-1.28195756329e-06
-1.35297053961e-05
-1.45163459639e-06
-1.19921102603e-05
-1.55567898431e-06
-1.03173956882e-05
-1.68922004936e-06
-8.31054570537e-06
-2.02615256642e-06
-5.82203015556e-06
-2.51199236133e-06
-2.87572422047e-06
-2.97624903029e-06
-2.89023884616e-06
-0.000211520917221
0.000411436821379
-0.000435649911084
0.000433514657376
-0.000657564314005
0.00042991763132
-0.000876019475321
0.000423439354314
-0.00109000823092
0.000414908931472
-0.00129858962736
0.000404501866908
-0.00150089214871
0.000392410568773
-0.00169616192582
0.000378836488742
-0.00188373808524
0.000363996578238
-0.00206308922656
0.000348100763363
-0.00223377266243
0.000331361947565
-0.00239546920884
0.000313972594715
-0.00254793169937
0.000296119621629
-0.00269102089413
0.000277960987685
-0.00282464693436
0.000259645511241
-0.00294880828911
0.000241289520335
-0.00306352924299
0.000223000784352
-0.00316890292158
0.000204854792429
-0.00326502714021
0.000186921675915
-0.00335205156993
0.000169241640497
-0.00343011354203
0.00015185380424
-0.00349938863637
0.000134770549057
-0.00356002757246
0.000118007421193
-0.00361220900691
0.000101556471226
-0.00365607842905
8.54165955775e-05
-0.0036918017514
6.95662086004e-05
-0.00371950716271
5.39935692202e-05
-0.00373933807462
3.8669310559e-05
-0.00375139899199
2.35763822416e-05
-0.00375580642221
8.68304335118e-06
-0.00375264014877
-6.02791124275e-06
-0.00374199129529
-2.05850480656e-05
-0.00372391998336
-3.50002806096e-05
-0.0036984986759
-4.92931550745e-05
-0.00366577806763
-6.34645672899e-05
-0.00362582518613
-7.75189959068e-05
-0.00357869815469
-9.14408514985e-05
-0.00352447741838
-0.000105214536096
-0.00346324989779
-0.000118804340758
-0.00339513157633
-0.000132172428405
-0.00332026063311
-0.000145263273174
-0.00323880928799
-0.000158019663843
-0.00315098474048
-0.000170372300661
-0.00305702836841
-0.000182253468198
-0.00295722316893
-0.000193591334509
-0.00285187982664
-0.000204319904485
-0.00274135063249
-0.000214375887341
-0.0026260051145
-0.000223702204592
-0.0025062533188
-0.000232243770532
-0.00238251798555
-0.000239941609048
-0.00225527312301
-0.000246724763126
-0.00212502181715
-0.000252495642228
-0.0019923543335
-0.000257121863546
-0.00185793327485
-0.000260423598518
-0.00172256073946
-0.000262182174491
-0.00158714935762
-0.00026215200434
-0.00145276262686
-0.000260105345789
-0.00132053372354
-0.000255870517454
-0.00119165928864
-0.000249380588966
-0.00106729881418
-0.000240655298966
-0.000948564871258
-0.000229837135126
-0.000836435521706
-0.000217128399679
-0.000731736124297
-0.000202866470663
-0.000635045253295
-0.000187432623791
-0.00054685672564
-0.000171089063158
-0.000467483274695
-0.000154140438027
-0.000397034922824
-0.000137032810353
-0.000335305329413
-0.000120276120973
-0.00028186215006
-0.000104348744402
-0.000236056018444
-8.95920260476e-05
-0.000197172570581
-7.62097594156e-05
-0.000164428984696
-6.42807052442e-05
-0.000137067512873
-5.38336030561e-05
-0.000114306689728
-4.48453425464e-05
-9.54318400786e-05
-3.72531764444e-05
-7.97674420456e-05
-3.09174275454e-05
-6.67773329026e-05
-2.56470398434e-05
-5.60249034685e-05
-2.12058954981e-05
-4.72134544711e-05
-1.74016628407e-05
-4.00648846333e-05
-1.41317147203e-05
-3.43300835439e-05
-1.13756940043e-05
-2.97500631294e-05
-9.0885205196e-06
-2.61129940564e-05
-7.22038747849e-06
-2.31885619833e-05
-5.71745044076e-06
-2.06996489611e-05
-4.54261794613e-06
-1.86430123806e-05
-3.70679224589e-06
-1.70817906081e-05
-3.0633364475e-06
-1.58133237889e-05
-2.54730052764e-06
-1.46319115473e-05
-2.47437134775e-06
-1.33800163491e-05
-2.71537079163e-06
-1.19107171791e-05
-3.03984310825e-06
-1.02278600772e-05
-3.38760324358e-06
-8.31699450161e-06
-3.95654041181e-06
-5.96263429193e-06
-4.88960706823e-06
-2.9732461276e-06
-5.99179709416e-06
-5.87705704852e-06
-0.000214380349677
0.000625808927103
-0.00044079090948
0.00065991634035
-0.000665171725703
0.000654289868851
-0.000886014190074
0.000644273166739
-0.00110223541872
0.000631122360254
-0.00131285301521
0.000615111504012
-0.00151698076768
0.000596531538417
-0.00171384936869
0.000575698146932
-0.00190280165767
0.00055294338287
-0.00208330428819
0.000528597781959
-0.00225493166109
0.000502985425171
-0.00241737187351
0.000476408814519
-0.00257040331349
0.000449149010419
-0.00271389833506
0.000421453902935
-0.00284779611763
0.000393543329309
-0.00297210682975
0.000365600252786
-0.00308688348511
0.000337779765682
-0.00319222831587
0.000310201988735
-0.00328826533697
0.000282963501206
-0.00337514957364
0.000256130773556
-0.00345304111763
0.000229752772921
-0.0035221170772
0.000203854092537
-0.00358254738528
0.00017844789279
-0.00363450890003
0.000153528373851
-0.00367816297153
0.000129083638209
-0.00371367100683
0.000105087518852
-0.00374117385429
8.15122356144e-05
-0.00376080819866
5.83198572622e-05
-0.00377268794753
3.54747897559e-05
-0.00377692101242
1.29352424365e-05
-0.00377359310724
-9.33436008485e-06
-0.00376278458194
-3.13715514571e-05
-0.0037445571914
-5.32035126598e-05
-0.003718970866
-7.48546653731e-05
-0.0036860739746
-9.6334748931e-05
-0.00364591973879
-0.000117645792929
-0.00359856036809
-0.000138771196423
-0.00354406256677
-0.000159682545226
-0.00348250532944
-0.000180330587932
-0.00341399337528
-0.000200652647874
-0.00333865757369
-0.000220566618262
-0.00325666442366
-0.000239979716383
-0.00316821724738
-0.00025878622118
-0.00307355945256
-0.000276877552312
-0.0029729744862
-0.00029414305327
-0.0028667814931
-0.000310479464701
-0.00275533359773
-0.000325791467815
-0.00263900769997
-0.000339995914229
-0.00251820478565
-0.000353016196775
-0.00239334110431
-0.000364775144773
-0.00226485987336
-0.000375177841933
-0.0021332361488
-0.00038409151187
-0.0019990108742
-0.00039132116041
-0.00186281664736
-0.000396591795288
-0.00172542851464
-0.000399546002018
-0.0015877845173
-0.000399771392648
-0.00145099995207
-0.000396866810294
-0.00131631248441
-0.000390534501146
-0.00118500597812
-0.000380664578605
-0.00105835944083
-0.000367279002705
-0.00093755505026
-0.000350619611539
-0.000823692183365
-0.000330969519871
-0.000717626859184
-0.000308912200665
-0.000619869275743
-0.000285171217063
-0.000530945489348
-0.000259996663638
-0.000451290385468
-0.000233779081714
-0.000381065907442
-0.00020724369168
-0.000320038618699
-0.000181289341746
-0.000267647735518
-0.00015672861363
-0.000223114827371
-0.000134113611852
-0.000185602119727
-0.000113714328152
-0.000154272031556
-9.56025743284e-05
-0.000128309733243
-7.97903882644e-05
-0.000106892086594
-6.6257122788e-05
-8.92292519533e-05
-5.49127535708e-05
-7.45973393134e-05
-4.55459547405e-05
-6.24202415258e-05
-3.78237954028e-05
-5.23017289769e-05
-3.13244937863e-05
-4.40199097213e-05
-2.56862420127e-05
-3.73709072515e-05
-2.07835610561e-05
-3.20928438043e-05
-1.66587253324e-05
-2.79243245141e-05
-1.32623172766e-05
-2.46478441465e-05
-1.05037457315e-05
-2.20510838226e-05
-8.32058544561e-06
-1.99316254742e-05
-6.66995964625e-06
-1.81818869678e-05
-5.46443517411e-06
-1.66037751339e-05
-4.65090138418e-06
-1.51082116987e-05
-4.05239226606e-06
-1.39104830051e-05
-3.68305943165e-06
-1.29123343639e-05
-3.72614063387e-06
-1.14448610913e-05
-4.52250003463e-06
-9.55703032019e-06
-5.29166966628e-06
-7.45999577048e-06
-6.07125368903e-06
-5.0402816586e-06
-7.33089237177e-06
-2.60091504011e-06
-8.45463789418e-06
-8.48927147685e-06
-0.000217800632525
0.000843601014872
-0.00044756434202
0.000889670544758
-0.000675222227808
0.000881938846728
-0.000899165894801
0.000868207988921
-0.00111824845739
0.000850196645862
-0.00133144067361
0.000828295701259
-0.00153782940201
0.00080291293527
-0.00173662934588
0.000774491159514
-0.00192718364894
0.00074349162043
-0.00210896593824
0.000710374529343
-0.0022815707635
0.000675585745693
-0.0024447083278
0.000639542512393
-0.00259818863622
0.000602626650705
-0.00274191300777
0.000565176347952
-0.00287585589979
0.000527485634786
-0.00300005655698
0.000489801163056
-0.00311460134224
0.000452326272344
-0.00321961751546
0.000415220810134
-0.0033152575246
0.000378607732443
-0.00340169562202
0.000342574098923
-0.00347911450302
0.00030717854267
-0.00354770462295
0.000272452172959
-0.00360765297542
0.000238405927002
-0.00365914458073
0.00020503078727
-0.00370235300963
0.000172304633942
-0.00373744346946
0.000140191712853
-0.00376456475735
0.000108649026524
-0.00378385351188
7.76253101601e-05
-0.00379542748908
4.70672184455e-05
-0.00379939079146
1.69182060649e-05
-0.00379582861142
-1.28751703055e-05
-0.00378481345752
-4.23641301585e-05
-0.00376640176007
-7.15910042591e-05
-0.00374064135133
-0.000100589688571
-0.00370757034711
-0.000129378854496
-0.00366722602791
-0.000157962097221
-0.00361964629687
-0.00018632157456
-0.00356487981684
-0.000214418672193
-0.0035029897546
-0.000242189205876
-0.00343406425327
-0.000269545897293
-0.00335822117065
-0.000296376694895
-0.00327561684831
-0.000322550500721
-0.00318644934871
-0.000347919852423
-0.00309096247463
-0.000372330387463
-0.00298944437199
-0.00039562729705
-0.00288222401764
-0.000417666231235
-0.00276966352129
-0.000438319124326
-0.00265214758571
-0.000457479719413
-0.00253007318775
-0.000475059693813
-0.00240384013309
-0.000490978224135
-0.00227385131547
-0.000505138053365
-0.00214052286995
-0.000517392093018
-0.00200431675405
-0.000527500593072
-0.00186579065439
-0.000535091816152
-0.0017256691337
-0.000539642419446
-0.00158490766135
-0.000540508162846
-0.001444720195
-0.000537030676968
-0.00130651621101
-0.000528714229736
-0.00117172480113
-0.000515433127334
-0.00104181576025
-0.000497163434531
-0.000918061010006
-0.000474351811036
-0.000801803962734
-0.000447203519716
-0.000693986674113
-0.000416709232202
-0.000594805616909
-0.000384333594805
-0.000504884464304
-0.000349900947605
-0.000424938042034
-0.000313709838723
-0.000355278913864
-0.000276888195756
-0.000295600889082
-0.000240953918976
-0.000245105048476
-0.000207212064926
-0.000202750124556
-0.000176458063174
-0.00016750512563
-0.000148950193635
-0.000138461466426
-0.000124638915107
-0.000114760969093
-0.000103484666654
-9.5510295673e-05
-8.55026150698e-05
-7.98034872003e-05
-7.06155767628e-05
-6.68041556609e-05
-5.85425829472e-05
-5.58630449147e-05
-4.87642329712e-05
-4.66439190462e-05
-4.0544537872e-05
-3.91211717214e-05
-3.32118510826e-05
-3.3238683408e-05
-2.66696276026e-05
-2.86825898125e-05
-2.12201981577e-05
-2.51554736683e-05
-1.6795672629e-05
-2.24540507506e-05
-1.3212434895e-05
-2.03704945414e-05
-1.04118368394e-05
-1.874250147e-05
-8.30606009483e-06
-1.71947523787e-05
-7.02145052311e-06
-1.57891173658e-05
-6.06686591392e-06
-1.45432945469e-05
-5.30900770092e-06
-1.3187124411e-05
-5.05121622735e-06
-1.16742232821e-05
-5.25233677732e-06
-1.04526605795e-05
-5.7584900895e-06
-8.59325113241e-06
-7.16723448059e-06
-6.27981127723e-06
-8.40290815933e-06
-4.2015343745e-06
-9.42741012886e-06
-2.18852832797e-06
-1.04873501916e-05
-1.06888200194e-05
-0.000222365887497
0.00106595791353
-0.000456797564432
0.00112409290097
-0.000688948402281
0.0011140801832
-0.000917114418236
0.0010963649236
-0.001140074501
0.00107314797718
-0.00135674170099
0.0010449545937
-0.00156616618594
0.00101232965033
-0.00176754412726
0.000975861896924
-0.00196021895184
0.00093615994599
-0.00214367838386
0.000893828175381
-0.00231754465252
0.000849447085991
-0.0024815631526
0.000803556936588
-0.00263558659468
0.000756647011356
-0.00277956041016
0.000709148066488
-0.00291350562771
0.000661429876316
-0.00303750500668
0.000613800669366
-0.00315168772897
0.000566510354113
-0.00325621837049
0.000519754023791
-0.00335128468952
0.00047367795395
-0.00343708995094
0.000428384567957
-0.00351384381073
0.000383939019742
-0.00358175758044
0.000340373944174
-0.00364103761508
0.000297695434869
-0.0036918827738
0.000255886862535
-0.00373447960486
0.000214913894059
-0.00376900131841
0.000174727342075
-0.00379560424431
0.000135267401745
-0.00381442787267
9.64658965619e-05
-0.00382559234711
5.82501834174e-05
-0.00382919945644
2.05453184434e-05
-0.00382533126465
-1.67218511492e-05
-0.00381405225852
-5.36201356992e-05
-0.00379540953675
-9.02092710215e-05
-0.00376943658929
-0.000126536743514
-0.00373615561625
-0.000162632572865
-0.00369558345083
-0.000198505669612
-0.00364773648786
-0.000234138730316
-0.00359263895509
-0.000269485223942
-0.00353033032916
-0.000304465860693
-0.00346087524295
-0.000338968086403
-0.00338437200175
-0.000372846359488
-0.00330096183213
-0.000405926507414
-0.00321083526955
-0.000438011974259
-0.00311423658619
-0.000468894481471
-0.00301146324801
-0.000498366269192
-0.00290286065418
-0.000526234846444
-0.00278881067081
-0.000552335881794
-0.00266971505365
-0.000576542992407
-0.00254597541105
-0.000598768061641
-0.00241797391059
-0.000618949443671
-0.00228606160205
-0.0006370211056
-0.00215056346414
-0.000652861768007
-0.00201181294389
-0.000666223580305
-0.00187022595874
-0.000676651919354
-0.00172641864801
-0.000683423757708
-0.00158134412726
-0.000685557758357
-0.00143637635175
-0.000681973143823
-0.00129323836954
-0.000671828340437
-0.0011535291426
-0.000655116259435
-0.0010190700342
-0.00063159785651
-0.000891093474083
-0.000602302430077
-0.000771547460635
-0.000566726158812
-0.000661631470546
-0.000526603815776
-0.000560439799304
-0.00048550727581
-0.00046888700898
-0.000441436911587
-0.000388379451524
-0.000394201641526
-0.000319580228044
-0.00034567245481
-0.000262012525025
-0.000298507283664
-0.000214416445084
-0.000254795799459
-0.000175252548585
-0.000215610586418
-0.00014319139176
-0.00018100243919
-0.000117301323507
-0.000150521384841
-9.675329144e-05
-0.000124026273041
-8.05629916181e-05
-0.000101687717202
-6.76303082502e-05
-8.3543782875e-05
-5.68956384797e-05
-6.92749500241e-05
-4.75353817158e-05
-5.81234065535e-05
-3.92954066364e-05
-4.87862181969e-05
-3.26162989657e-05
-3.98936352756e-05
-2.77782122497e-05
-3.15118546966e-05
-2.42293805408e-05
-2.47747407657e-05
-2.15593423801e-05
-1.94731127064e-05
-1.96334155138e-05
-1.51468552488e-05
-1.82190284158e-05
-1.18348478924e-05
-1.71990189825e-05
-9.3354632506e-06
-1.62064630447e-05
-8.0244914044e-06
-1.5101069332e-05
-7.18367285741e-06
-1.36254536976e-05
-6.79684748904e-06
-1.21391078311e-05
-6.55049786831e-06
-1.06269383959e-05
-6.77851826024e-06
-9.21078960517e-06
-7.18957833465e-06
-7.78240372783e-06
-8.6113987761e-06
-5.66715007306e-06
-1.05339391908e-05
-3.58922460407e-06
-1.15230300949e-05
-1.82518853661e-06
-1.22699374162e-05
-1.25226698335e-05
-0.000228219736788
0.00129416831277
-0.000468700684155
0.00136456347765
-0.000706650856534
0.00135202057621
-0.000940244504931
0.00132994893873
-0.00116816554344
0.00130105985414
-0.00138925546875
0.00126603575823
-0.00160251882215
0.00122558479437
-0.00180713154075
0.0011804669843
-0.00200244054489
0.00113146202289
-0.00218795672676
0.00107933816292
-0.00236334161007
0.00102482663358
-0.00252839085173
0.000968601717403
-0.00268301484451
0.000911267548609
-0.00282721951829
0.000853350288957
-0.00296108685049
0.000795295896747
-0.00308475773231
0.000737471362995
-0.00319841581177
0.000680169508335
-0.00330227454031
0.000623615056695
-0.00339656534762
0.000567972436465
-0.00348152897849
0.000513353196162
-0.00355740750201
0.00045982400411
-0.00362443904885
0.00040741334939
-0.00368285259364
0.000356118374923
-0.00373286498577
0.000305910105588
-0.00377467748328
0.000256738833998
-0.00380847417678
0.000208537972511
-0.00383441956204
0.00016122834893
-0.00385265782317
0.000114721233341
-0.00386331113434
6.8922207048e-05
-0.00386647969235
2.37341007661e-05
-0.0038622408714
-2.0938824203e-05
-0.00385065033736
-6.51873390318e-05
-0.00383174261518
-0.000109092083667
-0.00380553397984
-0.000152719048737
-0.00377202528642
-0.000196113445326
-0.00373120753055
-0.00023929429825
-0.00368306779866
-0.000282247996323
-0.0036275981368
-0.000324923298152
-0.00356480489345
-0.00036722641108
-0.00349472050912
-0.000409018926424
-0.00341741496812
-0.000450117577501
-0.00333300798037
-0.000490298681205
-0.00324167857013
-0.000529306224274
-0.00314367203675
-0.000566865837196
-0.00303930064691
-0.000602702689776
-0.00292893740598
-0.00063656362767
-0.00281300024594
-0.000668239354388
-0.00269192694474
-0.000697583429351
-0.00256614199202
-0.00072452111209
-0.00243601965477
-0.000749040718459
-0.00230185211074
-0.000771158198297
-0.0021638369905
-0.000790847299176
-0.00202210505004
-0.0008079263986
-0.00187681813943
-0.000821910876533
-0.00172835994457
-0.000831854989199
-0.00157761367769
-0.000836277166847
-0.00142620811755
-0.000833353377749
-0.00127650334876
-0.000821505329167
-0.00113015431738
-0.000801438637747
-0.000989766659171
-0.00077195607815
-0.000855827533906
-0.000736214820666
-0.000731953525553
-0.000690575710717
-0.000620334348492
-0.000638204233198
-0.000516347775644
-0.000589475686747
-0.000421951756209
-0.000535819044415
-0.000340297516367
-0.000475839595805
-0.000272787514742
-0.000413168608581
-0.000218506378824
-0.00035277316006
-0.000175272999512
-0.000298017503309
-0.000140603506244
-0.000250267034255
-0.000112690226177
-0.00020890838325
-9.08137094852e-05
-0.000172387876975
-7.43987756065e-05
-0.000140436111056
-6.23445568918e-05
-0.000113733877441
-5.32111830817e-05
-9.26739646701e-05
-4.55126908205e-05
-7.69681820845e-05
-3.79900582249e-05
-6.56454486481e-05
-3.04217968262e-05
-5.63539028427e-05
-2.4385558288e-05
-4.59315332627e-05
-2.10139889317e-05
-3.48873374145e-05
-1.88603770555e-05
-2.69342708832e-05
-1.72295994257e-05
-2.11121211262e-05
-1.62816979977e-05
-1.61043737426e-05
-1.56747995244e-05
-1.24518165771e-05
-1.51103582077e-05
-9.9105591968e-06
-1.44948158646e-05
-8.65145315838e-06
-1.38165137727e-05
-7.87451126217e-06
-1.30499305077e-05
-7.57685462628e-06
-1.18245966062e-05
-7.7906167447e-06
-1.01686877298e-05
-8.44987866783e-06
-8.19444596344e-06
-9.1784537834e-06
-6.68796621424e-06
-1.0132940934e-05
-5.22153503196e-06
-1.20172918885e-05
-3.30903142411e-06
-1.34512217117e-05
-1.66333320305e-06
-1.39312905846e-05
-1.41951068123e-05
-0.000235508863811
0.00152966721611
-0.000483533819644
0.00161257818448
-0.000728699763142
0.00159717597716
-0.000969019731301
0.00157025885238
-0.00120305660851
0.00153508696936
-0.00142956290275
0.00149253278501
-0.00164748911641
0.00144350225114
-0.00185599086632
0.00138896059983
-0.00205442553647
0.00132988923842
-0.00224233993566
0.00126724588809
-0.00241945133286
0.00120193218993
-0.00258562445762
0.00113476993568
-0.00274084668457
0.00106648584271
-0.00288520341104
0.000997704161954
-0.00301885497867
0.000928945715017
-0.00314201611332
0.000860631961237
-0.00325493831201
0.000793092393169
-0.00335789529169
0.000726574057169
-0.0034511713417
0.000661251835796
-0.00353505222494
0.000597238869489
-0.00360981826603
0.000534596253707
-0.00367573913335
0.000473341955746
-0.00373306999978
0.000413458471803
-0.00378204862153
0.000354899558614
-0.00382289316929
0.00029759575807
-0.00385580043913
0.00024145927029
-0.00388094444579
0.000186387962431
-0.00389847511682
0.000132269191597
-0.00390851726289
7.89832312069e-05
-0.00391116964196
2.64070439593e-05
-0.00390650446708
-2.55818572513e-05
-0.00389456730239
-7.71007015525e-05
-0.00387537784153
-0.000128256211353
-0.00384893159931
-0.000179138362422
-0.00381520317048
-0.000229813509369
-0.0037741510833
-0.000280316549947
-0.00372572492692
-0.000330643043514
-0.00366987463672
-0.000380741210969
-0.00360656239846
-0.00043050524471
-0.00353577658203
-0.000479770361675
-0.00345754752884
-0.000528311559668
-0.00337196362593
-0.000575846934263
-0.00327918632586
-0.00062204764099
-0.00317946115192
-0.000666555078099
-0.00307312203603
-0.000709006172689
-0.00296058515133
-0.000749065412697
-0.00284232925695
-0.000786460782243
-0.002718860526
-0.00082101846621
-0.0025906614045
-0.000852687189276
-0.0024581273295
-0.000881541989385
-0.00232150088869
-0.000907752747978
-0.00218081850432
-0.000931497661118
-0.00203590876651
-0.000952805659039
-0.00188649036862
-0.000971299345384
-0.00173246028149
-0.00098585607715
-0.00157443422596
-0.000994275305934
-0.00141440915115
-0.000993348855791
-0.00125630965591
-0.000979575896776
-0.00110105943587
-0.000956657423365
-0.000953648139289
-0.000919337717661
-0.000810751206611
-0.000879084707272
-0.000680998415492
-0.000820308540582
-0.00057054541933
-0.000748638661324
-0.000462398843108
-0.000697608753745
-0.000362508182781
-0.000635699008277
-0.000278451071894
-0.000559883403225
-0.00021299830067
-0.000478608027404
-0.000164011243411
-0.000401747906408
-0.00012746062938
-0.000334550770033
-9.90400240117e-05
-0.000278681636814
-7.60897650362e-05
-0.000231842859959
-5.88988616774e-05
-0.000189574677235
-4.77052095954e-05
-0.000151619499419
-4.11983696369e-05
-0.000120234682596
-3.72875947598e-05
-9.65779783062e-05
-3.37550773413e-05
-8.04930552226e-05
-2.82313117951e-05
-7.11659912845e-05
-2.01189406849e-05
-6.4459398683e-05
-1.3835850051e-05
-5.22128374247e-05
-1.29404636099e-05
-3.57826558869e-05
-1.2851793164e-05
-2.70276445957e-05
-1.22817629006e-05
-2.16903193698e-05
-1.25677732184e-05
-1.58280694405e-05
-1.29963642942e-05
-1.20343629044e-05
-1.31032170205e-05
-9.81516311006e-06
-1.31676314383e-05
-8.59974496198e-06
-1.28116601412e-05
-8.24416030692e-06
-1.2170907612e-05
-8.23241078727e-06
-1.1071592237e-05
-8.90591687497e-06
-9.75297648539e-06
-9.78461979565e-06
-7.93467577188e-06
-1.10134144146e-05
-5.98202927977e-06
-1.21011180584e-05
-4.71079291981e-06
-1.3302627794e-05
-3.09447480334e-06
-1.50838942297e-05
-1.54862498195e-06
-1.5493496335e-05
-1.57513520578e-05
-0.000244407272513
0.00177406405607
-0.000501636116306
0.00186979540818
-0.000755579677017
0.0018511085925
-0.00100404478977
0.00181871314364
-0.00124544061726
0.00177647246583
-0.00147841123082
0.00172549347884
-0.0017018451264
0.00166692678643
-0.00191488071238
0.00160198742625
-0.00211689765145
0.00153189813342
-0.00230749723896
0.0014578381969
-0.00248647497739
0.00138090352841
-0.00265378921002
0.0013020786852
-0.0028095285384
0.00122222072289
-0.0029538808508
0.00114205308354
-0.00308710518227
0.00106216783657
-0.00320950783834
0.000983033595481
-0.00332142257187
0.000905007421103
-0.00342319526125
0.000828348347732
-0.00351517202664
0.000753231640116
-0.00359769085852
0.000679762151949
-0.00367107539807
0.00060798678761
-0.00373563100508
0.000537905056886
-0.00379164176768
0.000469478359969
-0.00383936883303
0.000402637319115
-0.00387904882021
0.000337288139864
-0.00391089295267
0.0002733174165
-0.00393508576842
0.000210596537839
-0.00395178427746
0.000148985107377
-0.00396111651487
8.83346439457e-05
-0.00396318058828
2.84919435535e-05
-0.00395804327687
-3.06965799588e-05
-0.00394573955282
-8.93802160675e-05
-0.00392627216865
-0.000147697668873
-0.00389961291516
-0.000205770142181
-0.00386570485125
-0.000263692482795
-0.0038244672343
-0.000321523666995
-0.00377580249462
-0.000379275841584
-0.00371960696289
-0.000436903608484
-0.00365578448005
-0.000494293413333
-0.00358426414599
-0.000551255492315
-0.00350502057495
-0.000607519114836
-0.00341809663403
-0.000662734386403
-0.0033236254425
-0.000716482034785
-0.00322184931121
-0.000768294446954
-0.00311313035602
-0.000817688641275
-0.00299794786083
-0.000864211785849
-0.00287687675955
-0.000907496335702
-0.0027505416329
-0.00094731833987
-0.00261954435139
-0.000983649317234
-0.00248436504867
-0.00101668671004
-0.00234524076977
-0.00104684182803
-0.00220204245437
-0.00107466240812
-0.00205418002885
-0.00110063448806
-0.00190063841301
-0.00112480896819
-0.00174031664537
-0.00114614676042
-0.00157299571762
-0.0011615651439
-0.00140102460109
-0.0011652889248
-0.00123282090202
-0.00114774913423
-0.00106505151885
-0.00112439624825
-0.000911475925176
-0.00107288436145
-0.000753035620945
-0.0010375075732
-0.000613898818295
-0.000959425907124
-0.000515679495034
-0.000846833761385
-0.000399451895397
-0.000813841684343
-0.000287448685323
-0.000747667369533
-0.000198257801817
-0.000649085377673
-0.000136469911603
-0.000540359546917
-9.63325821366e-05
-0.000441889175914
-7.03590311357e-05
-0.000360494763165
-5.06455701272e-05
-0.000298397635092
-3.27845706137e-05
-0.000249677794887
-2.0409840993e-05
-0.000201961025717
-1.58674959436e-05
-0.000156131911268
-1.70448778122e-05
-0.000119075249619
-2.0604951043e-05
-9.29836242775e-05
-2.33472463859e-05
-7.77679443879e-05
-2.01972644505e-05
-7.42875614729e-05
-8.21340259274e-06
-7.64492957668e-05
1.02650293455e-06
-6.14451959963e-05
-3.63121625417e-06
-3.11251654922e-05
-6.94829298207e-06
-2.37177078457e-05
-6.74199263016e-06
-2.1901979995e-05
-8.64572643867e-06
-1.3932824386e-05
-1.03267984441e-05
-1.03632716582e-05
-1.11887779409e-05
-8.96443834156e-06
-1.20676323149e-05
-7.73388606888e-06
-1.22473373508e-05
-8.07867478555e-06
-1.18123705224e-05
-8.68333297242e-06
-1.08370611938e-05
-9.89814346733e-06
-9.30656952264e-06
-1.133257547e-05
-7.82166120028e-06
-1.25150131459e-05
-5.97750791235e-06
-1.39614941239e-05
-4.33614244078e-06
-1.49606987181e-05
-2.99865086838e-06
-1.64364424377e-05
-1.46491784732e-06
-1.70419582307e-05
-1.72251339875e-05
-0.000255136343713
0.00202918911769
-0.000523444050379
0.00213809155468
-0.000787916779515
0.00211556937149
-0.00104609736981
0.00207688231425
-0.00129620352486
0.00202656748224
-0.00153674861517
0.00196602794435
-0.00176655323431
0.0018967212989
-0.00198474648894
0.00182017121757
-0.00219074942677
0.00173789230535
-0.00238424446532
0.00165132528028
-0.0025651362689
0.00156178823707
-0.00273350875582
0.00147044505444
-0.00288958258788
0.00137828944933
-0.00303367589663
0.00128614242273
-0.00316617044291
0.00119465956806
-0.00328748370964
0.00110434533247
-0.00339804737166
0.00101557084053
-0.00349829117564
0.000928593331279
-0.00358863187081
0.000843574922314
-0.0036694656866
0.000760600099148
-0.00374116396121
0.000679690706137
-0.0038040704609
0.000600818850083
-0.00385850030784
0.000523917100329
-0.00390473928355
0.000448886923345
-0.00394304377357
0.000375604925619
-0.0039736403109
0.000303928048743
-0.00399672525095
0.000233697285544
-0.00401246366451
0.000164741167854