/*--------------------------------*- C++ -*----------------------------------*\
| =========                 |                                                 |
| \\      /  F ield         | OpenFOAM: The Open Source CFD Toolbox           |
|  \\    /   O peration     | Version:  v1906                                 |
|   \\  /    A nd           | Web:      www.OpenFOAM.com                      |
|    \\/     M anipulation  |                                                 |
\*---------------------------------------------------------------------------*/
FoamFile
{
    version     2.0;
    format      ascii;
    class       volScalarField;
    location    "268";
    object      p;
}
// * * * * * * * * * * * * * * * * * * * * * * * * * * * * * * * * * * * * * //

dimensions      [0 2 -2 0 0 0 0];


internalField   nonuniform List<scalar> 
9216
(
273.916302621
273.996274009
274.161750935
274.414148145
274.752046001
275.173865774
275.677642085
276.261076498
276.921561126
277.656235688
278.46200634
279.335605393
280.273604782
281.272475899
282.328595242
283.438302108
284.597895176
285.803687118
287.051992167
288.339177715
289.661643746
291.015872102
292.398399096
293.805863274
295.234972546
296.6825512
298.145502774
299.620856798
301.105728369
302.597364883
304.093103119
305.59041573
307.086866002
308.580154998
310.068075099
311.548555772
313.019615966
314.479409772
315.92617798
317.358292891
318.774209509
320.172509343
321.55185168
322.911016172
324.248854609
325.564332157
326.856480078
328.124435465
329.367395298
330.584654584
331.775562141
332.939557
334.076126252
335.184839614
336.265309623
337.317224232
338.340309555
339.334360392
340.299205659
341.234736718
342.140875537
343.017600717
343.864918395
344.682885844
345.471585033
346.231143748
346.961711696
347.663479099
348.336655175
348.981484251
349.598226435
350.187171338
350.748620728
351.282900036
351.790342794
352.271300136
352.726126833
353.155189057
353.558851845
353.937485412
354.29145391
354.62112059
354.92683777
355.208951148
355.467790977
355.703675908
355.916905601
356.107764856
356.276518824
356.423420355
356.548713946
356.652661662
356.735607996
356.798585576
356.838927426
356.853527881
273.836381903
273.916714136
274.082532251
274.335927549
274.675257238
275.098865637
275.604744975
276.190556877
276.853660391
277.59115666
278.399920431
279.276646745
280.217879695
281.220056945
282.279532529
283.392616868
284.555592236
285.764747498
287.016386241
288.306856566
289.632552726
290.989940889
292.375555513
293.786022135
295.21804972
296.668451431
298.13413399
299.612117107
301.099520639
302.593583085
304.091647021
305.591176994
307.089743876
308.585041568
310.074870025
311.557151972
313.02991497
314.491307097
315.939578381
317.373095731
318.79032386
320.189839451
321.570311798
322.930516209
324.269314616
325.585668247
326.878618456
328.147298714
329.390915883
330.608761585
331.800194158
332.964649419
334.101623497
335.21068303
336.291449013
337.34360644
338.366889264
339.361089456
340.326043147
341.261639036
342.167805711
343.044519352
343.891792175
344.70967934
345.498268442
346.257685542
346.988085598
347.689657555
348.362615593
349.007203252
349.623685375
350.212351279
350.773507291
351.307479013
351.814604381
352.295235106
352.749730201
353.178456739
353.58178381
353.960082743
354.313721504
354.643064547
354.948467668
355.230277673
355.488827759
355.724437198
355.937407369
356.128021708
356.29654249
356.443210924
356.568243119
356.671823887
356.75407974
356.815040957
356.853570311
356.868147414
273.670160084
273.751639289
273.918986094
274.174679445
274.517045482
274.944382761
275.454623257
276.045359616
276.713880634
277.457213388
278.272162037
279.155350425
280.103258468
281.112261009
282.178658417
283.298709386
284.468654421
285.684742044
286.943245331
288.240482131
289.572825663
290.936719926
292.32868569
293.745332351
295.183360576
296.639571695
298.110867999
299.594260443
301.08686728
302.585920561
304.088763511
305.592856092
307.09577146
308.595200507
310.08894735
311.574933265
313.051191344
314.515869572
315.967224788
317.403625017
318.82354285
320.225557096
321.608345735
322.970686988
324.311451998
325.62960544
326.924198116
328.194367224
329.439329036
330.658378955
331.850884436
333.016284939
334.154085223
335.263855287
336.34522414
337.397879777
338.42156349
339.41606989
340.38124178
341.316970204
342.223189843
343.099879042
343.947055665
344.764777015
345.553136052
346.312261123
347.042312435
347.743481512
348.415987813
349.060077858
349.676021902
350.264112698
350.824662168
351.357999801
351.864469298
352.344426641
352.798236718
353.226271133
353.628904844
354.006513816
354.359471715
354.688147524
354.992902362
355.274087173
355.532039746
355.767082564
355.979520037
356.16963642
356.337692823
356.483923965
356.60853185
356.711674091
356.793435444
356.85377666
356.892200007
356.908485646
273.414605728
273.497369017
273.667106705
273.926394349
274.273496985
274.706637226
275.223653425
275.822032956
276.49895368
277.251328702
278.075850148
278.969032931
279.927255179
280.946796751
282.023872895
283.154665347
284.335348121
285.562110985
286.831177906
288.138823908
289.481387532
290.855282585
292.257006173
293.683146833
295.130389528
296.595521361
298.075434548
299.567130532
301.067721587
302.574433793
304.084607611
305.595699883
307.105283589
308.611049038
310.110802739
311.602467742
313.084081717
314.553796526
316.00987556
317.45069257
318.874728368
320.280569016
321.666902015
323.03251398
324.376286462
325.697193261
326.994296048
328.26674146
329.51375669
330.734646513
331.928788995
333.095632576
334.234692029
335.345545709
336.427831847
337.481246038
338.505537924
339.500508946
340.466009422
341.401936545
342.308231815
343.18487923
344.031902995
344.849365811
345.637366762
346.396039604
347.12555071
347.82609726
348.497905147
349.141226975
349.756339851
350.343543145
350.903156105
351.435515375
351.940972428
352.41989085
352.872643622
353.299610239
353.70117388
354.077718449
354.429625711
354.757272347
355.061027141
355.341248133
355.598279916
355.832450939
356.04407087
356.233427863
356.400785507
356.546379073
356.670410197
356.773038804
356.854371413
356.914449797
356.953151599
356.971281086
273.06864185
273.153049732
273.326068177
273.590296033
273.943905082
274.38500698
274.911308066
275.520148984
276.208552706
276.973274533
277.810851155
278.717647981
279.689903103
280.723767468
281.815340334
282.960700329
284.155931715
285.397146656
286.680503377
288.002221212
289.358592525
290.745992499
292.16088673
293.599837529
295.059508753
296.536669946
298.028199479
299.531087343
301.04243721
302.55946829
304.079516565
305.600035748
307.118597822
308.632893379
310.140731245
311.640037889
313.128856286
314.605344569
316.067774122
317.514527474
318.944095713
320.355075738
321.746167112
323.11616881
324.463975675
325.78857482
327.089041851
328.364537099
329.614301781
330.837654212
332.033986075
333.202758755
334.343499836
335.455799695
336.539308314
337.593732202
338.618831584
339.614417683
340.580350289
341.516535373
342.422922995
343.299505188
344.146314106
344.963420087
345.750929923
346.508984974
347.237759444
347.937458427
348.608316075
349.250593478
349.864576634
350.45057411
351.008914763
351.539945156
352.044027035
352.521534512
352.972851332
353.398367897
353.798478372
354.173577633
354.524058316
354.850307766
355.152705126
355.431618373
355.687401503
355.920391705
356.130906611
356.319241478
356.485666253
356.630422244
356.753718381
356.855727465
356.936582876
356.996380744
357.035115581
357.053710057
272.630490407
272.716984664
272.89422775
273.164825511
273.526820485
273.978173385
274.51641384
275.138688034
275.841814687
276.622342422
277.476605312
278.400775375
279.390910524
280.442997296
281.552987833
282.716831285
283.930499779
285.190009607
286.491438067
287.830936807
289.204742101
290.609182879
292.040686825
293.495785198
294.971116535
296.463429725
297.969586435
299.486563228
301.011453253
302.541467723
304.073937014
305.606311364
307.136161425
308.661178557
310.179174356
311.688079969
313.18594493
314.670935676
316.141333572
317.595532646
319.032036882
320.449457293
321.846508619
323.222005882
324.574860658
325.904077297
327.208748952
328.488053637
329.741250202
330.967674414
332.166735036
333.337910088
334.480743183
335.594840086
336.679865418
337.735539597
338.761635965
339.757978147
340.724437598
341.66093136
342.567419975
343.443905556
344.29042997
345.107073098
345.893951159
346.651215016
347.379048494
348.077666601
348.747313709
349.388261572
350.000807282
350.585271008
351.141993672
351.671334397
352.173667892
352.649381633
353.098873005
353.522546276
353.920809577
354.29407176
354.642739317
354.967213219
355.267885877
355.545138067
355.799335997
356.030828387
356.239943669
356.426987193
356.592238488
356.73594854
356.858337293
356.959591635
357.039865946
357.099286126
357.137878452
357.156556463
272.0978801
272.186958674
272.36945298
272.647968477
273.020378839
273.484447331
274.037474684
274.676356969
275.397652053
276.197646542
277.072419592
278.017901927
279.02992858
280.104284595
281.236743506
282.423098843
283.659189288
284.940918219
286.264268572
287.625313846
289.020226145
290.445281911
291.896866083
293.371475065
294.865719041
296.376323753
297.900132106
299.434105509
300.975325182
302.520993233
304.068433652
305.615092749
307.158539781
308.696467212
310.226690146
311.747145526
313.255891006
314.751103252
316.231075945
317.694217253
319.139047058
320.56419372
321.968390665
323.350472614
324.709371729
326.044113488
327.35381259
328.637668687
329.894962246
331.125050321
332.327362565
333.501397219
334.646717422
335.762947566
336.849770015
337.906921924
338.934192434
339.931419981
340.898489978
341.835332583
342.741920796
343.618268595
344.464429334
345.280494101
346.066590252
346.822879833
347.549558078
348.246851729
348.915017357
349.554339442
350.165128403
350.747718363
351.302464829
351.829742122
352.329940698
352.803464277
353.250726867
353.672149653
354.068157825
354.439177329
354.785631612
355.107938362
355.406506276
355.681731906
355.933996562
356.163663341
356.371074249
356.556547468
356.720374785
356.862819182
356.984112887
357.084456614
357.16401974
357.222942211
357.261258442
357.27985739
271.467995353
271.560215094
271.749094059
272.037230407
272.422281212
272.901756937
273.472666906
274.131591219
274.874760793
275.698136704
276.597484358
277.568440515
278.606571566
279.707422478
280.866556466
282.079586112
283.342196859
284.650164142
285.999365305
287.385787552
288.805532896
290.254821101
291.729991251
293.227502625
294.743935164
296.275989954
297.820489715
299.374379513
300.934727511
302.498725854
304.063691428
305.627066296
307.186418254
308.739441313
310.283954809
311.817902755
313.339352517
314.846493113
316.337632955
317.811197251
319.2657249
320.699865128
322.112373708
323.502109024
324.86802782
326.209180911
327.524708687
328.813836687
330.075871083
331.310194335
332.516260851
333.693592911
334.84177669
335.960458606
337.049341827
338.10818316
339.136790123
340.135018401
341.102769484
342.039988662
342.946663157
343.822820529
344.668527163
345.483886924
346.269039801
347.024160614
347.749457612
348.445171034
349.111571495
349.748958243
350.357657195
350.938018801
351.490415677
352.01524004
352.512900944
352.98382133
353.428434926
353.847183
354.240511038
354.608865322
354.952689519
355.272421233
355.568488629
355.841307098
356.091276054
356.318775828
356.52416475
356.707776388
356.869917033
357.010863498
357.130861391
357.23012385
357.30883203
357.367135313
357.405069103
357.423501765
270.73741409
270.833401852
271.029936412
271.329595899
271.729762688
272.227626049
272.819827835
273.502552803
274.271626628
275.122611034
276.05089087
277.051750668
278.120439141
279.252221272
280.442418607
281.686438958
282.979797147
284.318128449
285.69719648
287.11289696
288.561258774
290.038443275
291.540742814
293.06457896
294.606501001
296.163184806
297.731432311
299.308171441
300.890456551
302.475469035
304.060518097
305.643041155
307.220604633
308.790904421
310.351764966
311.901138589
313.437104182
314.957865282
316.461747743
317.94719681
319.412773871
320.857152687
322.279115421
323.677548249
325.051436898
326.399861889
327.721993833
329.017088551
330.284482374
331.523587378
332.733886907
333.914931144
335.06633305
336.187764445
337.278952522
338.339676561
339.369765103
340.36909334
341.337580955
342.275190148
343.18192405
344.057825242
344.902974575
345.71748998
346.501525455
347.255269932
347.978946182
348.672809511
349.337146371
349.972272696
350.578532078
351.156293629
351.705949652
352.227913011
352.722614301
353.19049878
353.63202312
354.047652003
354.437854595
354.80310095
355.14385836
355.460587741
355.753740021
356.023752666
356.271046264
356.496021332
356.699055248
356.880499469
357.040676982
357.179880034
357.298368287
357.396367939
357.474070648
357.531632079
357.569091036
357.587300241
269.902031806
270.002503253
270.208138634
270.521477579
270.939553522
271.459148991
272.0764438
272.787130435
273.586535358
274.469734328
275.431655264
276.467165945
277.571145093
278.738537097
279.964391715
281.243890873
282.572364912
283.945300769
285.358344229
286.80729831
288.288119228
289.796911355
291.329921935
292.883536378
294.45427438
296.03878722
297.633856081
299.236391465
300.843433279
302.452151555
304.059846969
305.663952048
307.262031885
308.851784515
310.431040319
311.997761347
313.55003985
315.086096332
316.604276902
318.103050216
319.581003787
321.036840014
322.469371694
323.877517389
325.260296417
326.61682384
327.946305218
329.248031486
330.521373745
331.765778295
332.980761701
334.165906229
335.320855408
336.44531007
337.539024592
338.601803669
339.633499357
340.634008637
341.60327125
342.541268013
343.448019341
344.323584145
345.168058828
345.98157652
346.764306272
347.516452324
348.238253202
348.929980744
349.591938843
350.224462007
350.827913583
351.40268372
351.949186996
352.467859768
352.959157223
353.423550172
353.861521631
354.273563202
354.660171331
355.021843452
355.359074125
355.672351135
355.962151691
356.228938686
356.47315713
356.695230738
356.895558767
357.074513078
357.232435489
357.369635476
357.486388243
357.582932902
357.659471915
357.716169241
357.753067024
357.771005174
268.956966541
269.062749492
269.279154488
269.608652305
270.047832827
270.59296216
271.239639174
271.982944026
272.817590118
273.738064865
274.738751734
275.814030491
276.958354775
278.166308145
279.432641234
280.752293252
282.120401425
283.532301618
284.98352313
286.469779977
287.986960647
289.531117613
291.098457734
292.685334045
294.288239461
295.903802305
297.528783774
299.160076836
300.79470644
302.429830387
304.062740137
305.690862632
307.311761486
308.923137156
310.522826842
312.108803692
313.679175393
315.232181945
316.766192907
318.279703891
319.771332652
321.239814558
322.683997814
324.102838217
325.495393827
326.860819338
328.198360507
329.507348447
330.787194118
332.037382826
333.257469054
334.44707143
335.605868156
336.733592677
337.830029912
338.895012804
339.92841948
340.930170757
341.900228249
342.83859276
343.745303217
344.620435764
345.464103248
346.276454716
347.057675112
347.807984812
348.527639163
349.216927724
349.876173343
350.505730825
351.105985351
351.677350441
352.220265621
352.735193667
353.222617552
353.68303706
354.116965144
354.524924069
354.907441376
355.265045772
355.598262922
355.907611319
356.193598138
356.4567153
356.697435606
356.916209176
357.113460044
357.289583115
357.444941375
357.579863372
357.694641036
357.789528352
357.864739361
357.92044554
357.956696571
357.974320711
267.896437072
268.008504661
268.237633775
268.586182716
269.050173077
269.625212761
270.306167785
271.087355869
271.962738243
272.926092521
273.971157493
275.091746987
276.281832842
277.535599888
278.847477292
280.212151403
281.624565031
283.079907704
284.573600498
286.101278453
287.65877255
289.242092925
290.847414131
292.471063227
294.109510766
295.759364849
297.417367774
299.080395015
300.745455714
302.409694337
304.070391932
305.72496893
307.370987
309.006149231
310.628300368
312.235426201
313.82565196
315.397240038
316.948586808
318.478218887
319.984788647
321.467069344
322.923949671
324.354428129
325.757606992
327.132686282
328.478957512
329.795797601
331.082662723
332.339082479
333.564654152
334.759037432
335.921949371
337.05315993
338.152487874
339.219797367
340.254994972
341.258027378
342.22887954
343.16757348
344.074167412
344.948755384
345.791467077
346.602467904
347.381959064
348.130177652
348.847396515
349.533923958
350.190103027
350.816310496
351.412955344
351.980476849
352.51934219
353.030043632
353.513095299
353.969029573
354.398393198
354.801743101
355.179642051
355.532654163
355.861340393
356.166253998
356.447936126
356.706911503
356.943684359
357.158734547
357.352513992
357.525443403
357.677909318
357.810261509
357.922810714
358.015826321
358.08953536
358.144120114
358.179637201
358.196903213
266.713607155
266.833119722
267.077297789
267.448319987
267.94147502
268.551525811
269.272409693
270.097492401
271.019812148
272.032292447
273.127913392
274.299839144
275.541503747
276.846660773
278.209403991
279.624166588
281.085705945
282.589079749
284.129618069
285.702894606
287.304699525
288.931015179
290.577995801
292.241951425
293.919336383
295.606741934
297.300892774
298.998646429
300.696994897
302.393067377
304.084132769
305.767603437
307.441038392
309.102143181
310.748770873
312.378921378
313.990739892
315.582514242
317.152671489
318.699773594
320.222512551
321.719704787
323.190285259
324.63330103
326.047904759
327.43334788
328.788973887
330.114211488
331.408568037
332.671623004
333.903021884
335.102470312
336.269728778
337.404607698
338.506963244
339.57669364
340.613736307
341.618065532
342.589690963
343.52865659
344.435040431
345.308954528
346.150545444
346.959994814
347.737520114
348.483375216
349.197850877
349.88127478
350.534011285
351.156460575
351.749057397
352.312269139
352.846593463
353.352555327
353.830703589
354.281607127
354.705850616
355.104029993
355.476747696
355.824607789
356.148210983
356.448149752
356.72500346
356.979333768
357.211680145
357.422555796
357.612443773
357.78179355
357.931017875
358.060489928
358.170540812
358.261457954
358.333482662
358.386807232
358.421499304
358.438363214
265.400383029
265.528747496
265.79078097
266.188384905
266.715891928
267.366971837
268.134377682
269.010282291
269.986590266
271.055200122
272.208205132
273.43803267
274.737527697
276.099990188
277.519177728
278.989284329
280.504904809
282.060992296
283.652814064
285.275909448
286.926051829
288.599216126
290.291552238
291.999364885
293.719099576
295.447334535
297.180777561
298.916266958
300.65077495
302.381412464
304.105433333
305.820239827
307.523386836
309.21258202
310.885687315
312.540718447
314.175843092
315.78937805
317.379785245
318.945666989
320.485760325
321.998930903
323.484166184
324.940568451
326.367347388
327.763812708
329.129366548
330.463496119
331.765766304
333.035812678
334.273334656
335.478089245
336.649885119
337.788577479
338.894063425
339.966278263
341.005192446
342.010809519
342.983164714
343.922324471
344.828386487
345.701480486
346.541769243
347.349450017
348.124755897
348.8679572
349.579362449
350.259319086
350.908213529
351.526470746
352.114553074
352.672958451
353.202217926
353.702892579
354.175569838
354.620859291
355.039388062
355.431795819
355.798729564
356.140838207
356.458767158
356.753152875
357.024617621
357.273764357
357.50117198
357.707390825
357.892938598
358.058296645
358.203906629
358.33016762
358.437433556
358.526010614
358.596156072
358.648075863
358.681847312
358.698261428
263.947149527
264.086098372
264.369430166
264.798621251
265.366743715
266.066039276
266.887740512
267.822519198
268.860886682
269.993515544
271.2114715
272.506359411
273.870395231
275.296420284
276.777875143
278.308748598
279.883514327
281.497064241
283.144644567
284.821797974
286.524313579
288.248185331
289.989579132
291.744808441
293.510318361
295.282677371
297.058575905
298.834829815
300.608387183
302.376335446
304.135909357
305.884498222
307.619650452
309.339075039
311.040643396
312.722388751
314.382504228
316.019339432
317.631396029
319.217322161
320.775906192
322.306069594
323.806859481
325.277440578
326.717087133
328.125174531
329.501171077
330.844629682
332.155179906
333.43252007
334.676409922
335.886663562
337.063143148
338.205753102
339.314435307
340.389165029
341.429947982
342.436818221
343.409837216
344.349093677
345.254704406
346.126815656
346.965605179
347.771284395
348.544100799
349.284340056
349.992327906
350.668431379
351.313059507
351.926663121
352.509734
353.062803045
353.586437807
354.081239119
354.547837169
354.986886851
355.399062691
355.785053313
356.145555621
356.481268838
356.792888415
357.081100108
357.346574083
357.589959446
357.811878925
358.012924142
358.193651123
358.354576427
358.496173612
358.618870097
358.723044405
358.809024444
358.877084846
358.927444042
358.960193231
358.976108816
262.342419856
262.494125043
262.803046874
263.270016959
263.886421825
264.642618791
265.527873568
266.530961489
267.640681358
268.846246949
270.137547668
271.505290262
272.941043584
274.437213066
275.986970532
277.584160993
279.223202326
280.898988523
282.606802256
284.342239536
286.10114677
287.879570008
289.673715563
291.47992187
293.294642043
295.114436797
296.935976021
298.756046974
300.571566014
302.379589633
304.177327456
305.962151622
307.731600906
309.48338464
311.215384131
312.925652167
314.612410556
316.274046271
317.909106112
319.516290454
321.094445896
322.642557357
324.159739421
325.645227508
327.09836861
328.518612169
329.905500766
331.25866114
332.577795199
333.862671523
335.113117038
336.329009401
337.510269835
338.656856944
339.768761281
340.846001174
341.888619526
342.896682027
343.870276395
344.809512975
345.714526171
346.585476947
347.422555742
348.225985942
348.996027234
349.732978927
350.437182635
351.109024439
351.748936048
352.357395151
352.93492465
353.482090997
353.999501483
354.487800697
354.947666133
355.379803086
355.784938979
356.163817154
356.517190414
356.845814264
357.150440215
357.431809057
357.690644468
357.927646842
358.143487634
358.338804088
358.51419456
358.670214298
358.807371758
358.926125431
359.026881135
359.109989189
359.175743332
359.224378359
359.255997483
359.271360928
260.572366845
260.739599709
261.079555843
261.592085353
262.266289572
263.090011412
264.049953566
265.132486792
266.324307669
267.612907782
268.986853584
270.435903067
271.950997925
273.524173164
275.148421668
276.817542681
278.5259939
280.268758262
282.041230302
283.839122404
285.658389352
287.495168742
289.345735733
291.206471268
293.073844076
294.944405934
296.814798808
298.681770195
300.542192713
302.393081405
304.231612027
306.055133372
307.861171395
309.647434225
311.411813683
313.152384379
314.867400795
316.555292401
318.214657536
319.844255946
321.443000526
323.009948068
324.544289633
326.045340361
327.512529304
328.945389043
330.343545602
331.706708316
333.034660125
334.327247955
335.584373695
336.805985499
337.992069995
339.142645181
340.257754625
341.337462712
342.381851514
343.391018935
344.365078568
345.304160798
346.20841539
347.078014963
347.913159425
348.714080658
349.481047451
350.214369954
350.914403692
351.581552501
352.216270568
352.819063081
353.39048583
353.931143407
354.441686446
354.922807604
355.375236777
355.799735314
356.197089663
356.568104384
356.913594808
357.234379504
357.53127261
357.805076454
358.056574248
358.286523456
358.4956494
358.684639745
358.854139311
359.004745756
359.137005686
359.251411302
359.348397514
359.428340241
359.491553674
359.538287435
359.568661206
359.583417308
258.620182646
258.806551794
259.184574196
259.752601634
260.49658675
261.40098069
262.449122669
263.624327433
264.910720237
266.293784803
267.760639426
269.300092038
270.902539405
272.559775307
274.264760965
276.011395487
277.79430861
279.608685968
281.450128136
283.314540027
285.198044794
287.09691722
289.007533087
290.926334179
292.849809872
294.774496822
296.696994518
298.613992329
300.522300452
302.418877093
304.300852961
306.165546271
308.01046602
309.833317693
311.632004359
313.404625468
315.149472824
316.865024654
318.549938076
320.203040631
321.823320522
323.409916203
324.962105165
326.479292609
327.960999797
329.406852736
330.816570802
332.189955821
333.526881151
334.827281268
336.091141475
337.318488375
338.509380852
339.663902273
340.782153727
341.864248981
342.910310919
343.92047002
344.894864488
345.833642405
346.736965296
347.605013271
348.437990917
349.236133948
349.999715688
350.729053362
351.424513325
352.086515342
352.715535253
353.312106308
353.8768188
354.410318365
354.913302808
355.386517746
355.830751119
356.246826712
356.635596922
356.997934804
357.334725789
357.646859006
357.935218753
358.20067596
358.444080226
358.66625222
358.867976897
359.049997308
359.213009256
359.357656617
359.484527359
359.594150248
359.686992099
359.763454939
359.823875113
359.868521159
359.897526885
359.911614719
256.465191066
256.675496405
257.100850035
257.7372893
258.566357948
259.567881944
260.720761098
262.004424483
263.399874649
264.890300166
266.46130188
268.100824414
269.798899945
271.547302458
273.339186381
275.168755834
277.030987296
278.921410943
280.835945499
282.770775709
284.72226069
286.686863235
288.661094813
290.641476255
292.624518595
294.606728714
296.584638339
298.554848995
300.514080063
302.459211734
304.387316771
306.29567389
308.181771325
310.043310574
311.878207332
313.684589655
315.460792668
317.205350637
318.916988126
320.594609979
322.237290279
323.844260093
325.414894841
326.948701172
328.445304089
329.904434159
331.325915252
332.709652369
334.055619908
335.363849913
336.63442081
337.867446389
339.06306575
340.221434116
341.342715315
342.427075815
343.474681041
344.485693716
345.460274759
346.398586234
347.300796591
348.16708742
348.997661663
349.792752277
350.552631144
351.27761719
351.968083589
352.624463193
353.247252347
353.837012545
354.394370405
354.920015624
355.414697589
355.879220269
356.314436103
356.721238509
357.100553693
357.453331532
357.780536051
358.083135603
358.36209294
358.618355743
358.852847369
359.06645867
359.260040252
359.434396056
359.59027745
359.728378548
359.849332089
359.953706061
360.042000884
360.114647929
360.172006886
360.214363181
360.241869498
360.2552262
254.081587302
254.322373136
254.80752651
255.529461396
256.463440362
257.582923102
258.860927469
260.271954652
261.793261726
263.405495805
265.092785621
266.842447611
268.644479206
270.49098611
272.375641922
274.293232298
276.239300501
278.20988911
280.201360283
282.210272674
284.233293354
286.267128398
288.308463534
290.353917253
292.400016901
294.443212452
296.479925221
298.50662202
300.51988996
302.51650303
304.493460601
306.447994715
308.377570041
310.279883412
312.152864979
313.99467669
315.803704496
317.578547707
319.318008177
321.021079273
322.68693292
324.314905581
325.904483454
327.455287672
328.967059548
330.439646692
331.872989434
333.267107906
334.622089058
335.938073943
337.215244844
338.453812937
339.654006419
340.816060043
341.940206049
343.026667474
344.0756537
345.087359044
346.061964014
346.999639716
347.900554664
348.764884074
349.592820506
350.384585606
351.140441601
351.860702236
352.545741914
353.196003004
353.812000472
354.394324272
354.943639117
355.460682344
355.946259752
356.401239935
356.826547086
357.22315254
357.592065283
357.934321495
358.250973638
358.543078994
358.811688447
359.057835339
359.282525295
359.486726734
359.671362688
359.837303599
359.985361362
360.116284325
360.230753249
360.329378135
360.412695715
360.481166851
360.535176076
360.575029934
360.60089707
360.613453321
251.436608313
251.717047784
252.279181187
253.109636612
254.174579103
255.438645287
256.867056522
258.428107227
260.094653037
261.844673725
263.661082846
265.531044044
267.445071695
269.396132489
271.378871804
273.389012842
275.422928319
277.477358122
279.549236062
281.635586542
283.733456105
285.839853151
287.951682745
290.065682388
292.178382747
294.286130276
296.385166432
298.471748951
300.542273338
302.593370014
304.621950384
306.625199139
308.600557614
310.545717415
312.458625421
314.337484599
316.180742055
317.987072763
319.755367334
321.484720334
323.174415635
324.823909603
326.432814136
328.000879311
329.527976883
331.014084867
332.459273263
333.863690104
335.227547829
336.55110909
337.834672507
339.078558175
340.283093989
341.448602941
342.575392545
343.663746547
344.71391992
345.726137077
346.700594019
347.63746394
348.536906522
349.399079889
350.224154919
351.012330393
351.763848362
352.479008128
353.158178338
353.801806015
354.410422577
354.984646369
355.525182482
356.0328198
356.508426307
356.952942234
357.367372002
357.752774267
358.110251152
358.440936094
358.745981217
359.026544118
359.283774615
359.51880216
359.732723814
359.92659403
360.101415249
360.258130597
360.397617369
360.520682262
360.628057362
360.720397088
360.798275823
360.862186978
360.91254077
360.949662144
360.973740715
360.985425077
248.487795059
248.821177907
249.484584996
250.455194849
251.685791828
253.128764409
254.739047543
256.477219309
258.311131112
260.216229243
262.174837096
264.174819212
266.208078853
268.26920738
270.354423429
272.460822705
274.585898525
276.727270652
278.88255596
281.049319173
283.225049542
285.407121899
287.592720131
289.778733916
291.961675061
294.137711265
296.302790434
298.452843616
300.58398531
302.692659114
304.775683402
306.830209442
308.853661313
310.843723129
312.798359158
314.715824163
316.594641059
318.433573367
320.231612533
321.987969074
323.702055109
325.373463992
327.001950321
328.587409711
330.129859608
331.62942303
333.086313448
334.500820748
335.8732968
337.204140281
338.49378027
339.742659553
340.951218032
342.119877612
343.249029015
344.339021859
345.390158196
346.402690646
347.376824915
348.312727373
349.210536848
350.070380558
350.892392548
351.67673388
352.42361242
353.133301343
353.806154361
354.442617378
355.043235414
355.608655547
356.139625809
356.636991548
357.101689388
357.534739539
357.937236196
358.310336322
358.655247053
358.973211751
359.265495349
359.533368767
359.778093573