/*--------------------------------*- C++ -*----------------------------------*\
| =========                 |                                                 |
| \\      /  F ield         | OpenFOAM: The Open Source CFD Toolbox           |
|  \\    /   O peration     | Version:  v1906                                 |
|   \\  /    A nd           | Web:      www.OpenFOAM.com                      |
|    \\/     M anipulation  |                                                 |
\*---------------------------------------------------------------------------*/
FoamFile
{
    version     2.0;
    format      ascii;
    class       surfaceScalarField;
    location    "409";
    object      phia;
}
// * * * * * * * * * * * * * * * * * * * * * * * * * * * * * * * * * * * * * //

dimensions      [0 3 -1 0 0 0 0];
oriented        oriented;


internalField   nonuniform List<scalar> 
18240
(
0.00134927125958
-0.0013490628828
0.00282646366113
-0.00147693294171
0.00430257686154
-0.00147590294709
0.00575999027613
-0.00145714300195
0.00719058112214
-0.0014303922894
0.0085877234233
-0.00139686170664
0.00994521729276
-0.00135730741001
0.0112577669025
-0.00131225911426
0.0125203077531
-0.00126236691815
0.0137287600981
-0.00120815248337
0.0148792231166
-0.00115030243442
0.0159688674194
-0.00108933572233
0.0169949605703
-0.00102594642693
0.0179558899645
-0.000960612887932
0.0188500212501
-0.000893999281627
0.0196768555333
-0.000826510769537
0.0204357275603
-0.00075875520682
0.0211271021263
-0.000691045136126
0.0217511213389
-0.000623918423746
0.0223090434813
-0.000557587984572
0.0228016476221
-0.00049251972066
0.0232308154993
-0.000428830305145
0.0235978022317
-0.000366919407204
0.0239049586354
-0.000306816756121
0.0241538746349
-0.000248865882754
0.0243472365558
-0.000193021601438
0.0244868506246
-0.000139581682371
0.0245756276199
-8.84373662128e-05
0.0246154926901
-3.98502600109e-05
0.0246094890241
6.34122444329e-06
0.0245595839722
4.99019902645e-05
0.0244688768972
9.10412561043e-05
0.0243392992894
0.000129557083044
0.0241739330846
0.000165695663392
0.0239746325247
0.000199262480102
0.0237444225542
0.000230533454796
0.0234850371631
0.000259330391049
0.0231993983637
0.000285955053255
0.0228890872565
0.000310239292003
0.0225568906075
0.000332504509113
0.0222042139455
0.000352588861776
0.0218336843188
0.000370827915782
0.0214465172981
0.000387063506876
0.0210451641851
0.000401640740062
0.0206306434915
0.000414402457205
0.0202052207975
0.000425698548873
0.0197697173429
0.000435370922824
0.0193262102573
0.000443770148252
0.0188753294505
0.000450735120787
0.0184189658303
0.000456612860818
0.0179575696136
0.000461237968568
0.0174928536368
0.000464950472642
0.0170251046539
0.000467579465369
0.0165558687991
0.000469454696272
0.0160852891997
0.000470399582733
0.0156147602442
0.000470731363509
0.0151443032153
0.000470267951726
0.0146751761855
0.000469312261934
0.0142073009462
0.000467678042363
0.0137418152007
0.000465653203799
0.01327856241
0.000463049017201
0.0128185734474
0.000460138093055
0.012361632302
0.000456731851601
0.0119086745203
0.000453088163374
0.0114594400167
0.000449021247492
0.0110147764216
0.000444774838279
0.0105743912401
0.000440169039657
0.0101390486466
0.000435434419197
0.0097084314745
0.000430399617709
0.00928322099407
0.000425282642788
0.0088630798135
0.000419923257991
0.00844860475261
0.000414527454439
0.00803943991697
0.000408947954952
0.00763609387231
0.000403378691452
0.00723819234823
0.000397686839757
0.00684615156335
0.000392053980469
0.00645957820977
0.000386362450231
0.00607879189035
0.000380780643266
0.0057033799006
0.000375206407904
0.00533356239401
0.000369793905059
0.00496890784174
0.000364456233984
0.00460953557385
0.000359331901063
0.00425499758329
0.000354348693912
0.00390531369702
0.00034962775006
0.00356002442198
0.000345110217485
0.0032190554603
0.000340897070895
0.00288194714389
0.0003369392016
0.00254854889311
0.000333309611002
0.00221843596174
0.000329952970099
0.00189145637334
0.000326876094487
0.00156738990255
0.00032391916784
0.00124650483993
0.000320772547457
0.00092989468941
0.00031648527729
0.000621956149177
0.000307823709748
0.000338699748472
0.000283109590395
0.000338617782636
0.00149168408376
-0.00284051575251
0.00315684731088
-0.00314183845229
0.00481290340354
-0.00313171463349
0.00644517302598
-0.00308915202969
0.00804618904646
-0.00303116747803
0.00960905819671
-0.00295946840372
0.0111271318843
-0.00287514412489
0.0125944200759
-0.00277928328392
0.0140054057582
-0.00267312008299
0.0153553917197
-0.00255787344162
0.0166401901509
-0.00243487339574
0.0178564885621
-0.00230536884015
0.0190014484686
-0.00217068472593
0.0200731057108
-0.00203200534734
0.0210698880709
-0.00189056659957
0.0219910581437
-0.00174741744967
0.0228361586741
-0.00160364819625
0.0236055053469
-0.00146013079782
0.0242995684653
-0.00131778228576
0.0249195214966
-0.00117728341767
0.0254665667394
-0.00103937497012
0.0259425432132
-0.000904553679878
0.02634920221
-0.000773398424657
0.0266888751778
-0.000646242181958
0.0269637030965
-0.000523524735155
0.0271763624792
-0.000405440053914
0.027329251081
-0.000292312747854
0.0274252682633
-0.000184221204033
0.0274669589031
-8.13956304117e-05
0.0274573433271
1.61816177074e-05
0.0273990194785
0.000108358404307
0.0272950432506
0.000195232935213
0.0271480046673
0.000276714958528
0.0269609386126
0.000352966977836
0.0267363554567
0.000423951388422
0.0264771988811
0.000489884391437
0.0261858531797
0.000550767916046
0.0258651311257
0.000606859898662
0.0255172554924
0.000658192723574
0.0251448747778
0.000705055870933
0.0247500235869
0.000747503592031
0.0243351617306
0.000785847725181
0.023902117873
0.000820156683825
0.0234531471707
0.000850756236921
0.0229898625824
0.000877722045877
0.0225143062754
0.000901386046716
0.0220278733048
0.000921824734468
0.0215323917611
0.000939368920255
0.0210290434522
0.000954090148712
0.0205194477711
0.000966311476349
0.0200045842473
0.000976094378974
0.0194858748001
0.000983748327463
0.0189641128322
0.000989320682213
0.018440538518
0.00099310270414
0.0179157792925
0.000995124860844
0.0173909125571
0.000995657005222
0.0168664221696
0.000994711569863
0.016343243041
0.000992535496672
0.0158217384245
0.000989123667748
0.0153027207844
0.000984700252342
0.0147864544361
0.000979244697681
0.0142736473467
0.000972960049842
0.0137644838972
0.000965813678087
0.0132595823845
0.000957990249469
0.0127590624119
0.000949449296907
0.0122634632976
0.000940360504773
0.011772850784
0.00093068009352
0.0112876918004
0.000920566262166
0.0108080048316
0.000909976280622
0.0103341869793
0.000899060005797
0.00986621240067
0.000887779453877
0.00940440789684
0.000876278544019
0.0089487033491
0.000864526817007
0.00849935253757
0.000852663695097
0.00805623942825
0.000840667900501
0.0076195411915
0.000828674764611
0.00718909359961
0.000816672756571
0.00676499363093
0.000804792530712
0.00634702706264
0.000793031857221
0.0059352082875
0.000781515305686
0.00552927255624
0.000770248678719
0.00512915097645
0.000759348351317
0.00473452970087
0.000748826175327
0.00434525831241
0.000738787553022
0.00396097777542
0.000729247462503
0.00358146082215
0.000720296154402
0.00320631037963
0.000711946309754
0.00283523058082
0.00070426436305
0.00246779331829
0.000697246080607
0.00210362902751
0.000690908795195
0.00174222308887
0.000685187313084
0.00138288863782
0.000679978266372
0.00102417680358
0.000675063034803
0.000661758265442
0.000670113608113
0.000282333536067
0.000662408172898
0.000620886378908
0.00151802323937
-0.00435830432451
0.00320448144518
-0.00482804309271
0.00488430797746
-0.00481128983859
0.0065402207176
-0.00474480984188
0.00816404051586
-0.00465473738659
0.00974851482102
-0.00454368804099
0.011286859685
-0.00441324084985
0.0127729164122
-0.00426508592758
0.0142011285977
-0.0041010862745
0.0155666841712
-0.00392317609913
0.0168654257134
-0.00373337179635
0.018093972654
-0.00353366472841
0.0192495793348
-0.00332605178939
0.0203302495589
-0.00311242718526
0.0213345530378
-0.00289463488079
0.022261741769
-0.00267436133101
0.0231115341618
-0.00245321062661
0.0238842418301
-0.0022325981221
0.0245805302281
-0.00201384699207
0.0252015629912
-0.00179808132955
0.0257487460263
-0.00158634145923
0.0262238943249
-0.00137947364984
0.026628964483
-0.00117826023434
0.0269662459704
-0.000983302837457
0.0272380840464
-0.000795163467529
0.0274470948991
-0.0006142385361
0.0275958794167
-0.000440907879371
0.0276872599446
-0.000275398678683
0.0277239842351
-0.000117941147223
0.0277089814113
3.13773497597e-05
0.027645056543
0.000172450632901
0.0275351634313
0.000305308109531
0.0273820907189
0.000429943123707
0.0271887500818
0.000546478139777
0.0269578531143
0.000654991256555
0.0266922135823
0.000755682372748
0.0263944172441
0.000848694292381
0.026067136634
0.000934286364007
0.0257127948982
0.00101265114879
0.0253338909542
0.00108409267914
0.0249326582129
0.00114883950597
0.0245113984987
0.00120722691902
0.0240721372077
0.00125950726989
0.0236169642205
0.00130603503946
0.0231476865707
0.00134707506308
0.0226661747782
0.0013829897059
0.0221740147517
0.00141404595566
0.0216728577666
0.00144060365554
0.0211640727681
0.00146292223585
0.0206490983334
0.00148134937826
0.0201290970857
0.00149612849538
0.0196053076843
0.00150758687712
0.0190787024115
0.00151594480791
0.0185503373081
0.00152150261798
0.0180210144801
0.00152445257451
0.0174916282021
0.00152506388306
0.0169628328611
0.00152349819564
0.0164353830033
0.00151999190005
0.015909808349
0.00151467623651
0.0153867455858
0.001507755809
0.0148666213723
0.00149933397942
0.0143499739815
0.0014895868036
0.0138371457826
0.00147859448591
0.0133285928076
0.00146650959586
0.0128245877899
0.00145339509035
0.0123255161283
0.00143938597269
0.011831591117
0.00142453452091
0.011343134816
0.00140896430947
0.0108603067246
0.00139272308702
0.0103833684684
0.00137592842917
0.00991242761215
0.0013586288559
0.00944768508682
0.0013409402368
0.00898919541835
0.00132291560485
0.0085370961442
0.00130467178464
0.00809138601516
0.00128626848454
0.00765213560251
0.00126782452258
0.00721928457527
0.0012494066706
0.00679283293941
0.00123113515161
0.00637265862866
0.00121308277366
0.00595868871859
0.00119536928698
0.0055507381258
0.00117807123317
0.00514866030428
0.00116130494887
0.00475220786501
0.00114514753134
0.00436116214505
0.00112970813863
0.00397521612027
0.00111506030063
0.00359408224711
0.00110130115997
0.00321739763871
0.00108849509901
0.00284480800047
0.00107672026265
0.00247589159704
0.00106602370371
0.00211020860094
0.00105645541535
0.00174721803002
0.00104803914047
0.00138624791607
0.00104081705031
0.00102631301866
0.00103487150078
0.00066598435411
0.00103030567211
0.000305390422137
0.00102286620448
0.000926214387599
0.00154137183504
-0.00589944071455
0.00325086336208
-0.00653728154293
0.00495385130184
-0.0065140249716
0.00663224291982
-0.0064229478727
0.00827739911832
-0.00629964161055
0.00988173137042
-0.00614776751228
0.0114382455264
-0.00596950414798
0.0129406105119
-0.00576719916382
0.0143831845665
-0.00554341106467
0.0157610823376
-0.00530082370296
0.0170701561275
-0.00504219851691
0.0183070310784
-0.00477029178831
0.019469047053
-0.00448782368699
0.0205542717298
-0.00419740705097
0.0215614135373
-0.00390153640134
0.0224898230283
-0.00360252997656
0.0233393871341
-0.00330253921302
0.0241105284725
-0.00300350355188
0.024804090086
-0.00270717878481
0.0254213408093
-0.00241510208153
0.0259638579096
-0.00212863549613
0.0264335442191
-0.00184893694524
0.0268325131283
-0.00157701377119
0.0271631198296
-0.00131369445974
0.0274278499436
-0.00105968690417
0.0276293641988
-0.000815546586389
0.0277703894836
-0.000581736002266
0.0278537746187
-0.000358587331588
0.0278823821319
-0.000146361871325
0.0278591530173
5.47924296928e-05
0.0277869983674
0.000244781036797
0.0276688709159
0.000423610324855
0.0275076569559
0.000591321090302
0.0273062548208
0.000748043190555
0.0270674662797
0.000893931566318
0.0267940818654
0.00102921734301
0.026488771397
0.00115414376675
0.026154175213
0.00126902028483
0.0257927947453
0.00137415752885
0.0254070885527
0.00146992341686
0.0249993630364
0.0015566774493
0.0245718725623
0.00163482841166
0.0241267105031
0.00170476805779
0.0236659127608
0.00176693001497
0.0231913495069
0.00182172306802
0.0227048315787
0.00186959085437
0.0222080032786
0.00191094492179
0.0217024510346
0.0019462249563
0.0211895976778
0.00197583200987
0.0206708127974
0.00200018904015
0.0201473087927
0.0020196746804
0.0196202521555
0.00203468399896
0.0190906615369
0.00204556334938
0.0185595191538
0.00205267122342
0.0180276709545
0.00205631460227
0.0174959371431
0.00205680979555
0.016965014475
0.00205442075319
0.016435584925
0.0020494196398
0.0159082200835
0.00204202736313
0.0153834869185
0.00203247356969
0.0148618543013
0.00202093961172
0.0143437949847
0.00200761749747
0.0138296943703
0.00199265532612
0.0133199478908
0.00197621469054
0.0128148722694
0.00195841861026
0.0123147977586
0.00193940681681
0.0118199822924
0.0019192861146
0.0113306981454
0.0018981830321
0.0108471494994
0.0018761966124
0.0103695533322
0.00185344794762
0.00989806103077
0.00183003539135
0.00943283338154
0.00180608061285
0.00897396688299
0.00178168633099
0.00852156285777
0.00175697861058
0.00807565913663
0.00173206724632
0.00763629329029
0.00170708414526
0.00720344026634
0.00168214657303
0.00677706978533
0.00165739154103
0.00635709046412
0.00163294214196
0.00594340133075
0.00160893792895
0.00553584279495
0.0015855045851
0.00513424220832
0.00156278030481
0.0047383719279
0.0015408890178
0.00434798871821
0.00151996277243
0.00396279885629
0.00150011868457
0.00358249096893
0.00148147730416
0.0032067077329
0.0014641435278
0.0028350709311
0.0014482213002
0.0024671568801
0.00143379906599
0.00210250891558
0.00142096423637
0.00174061353002
0.00140980012525
0.00138089125231
0.0014004074976
0.00102269805499
0.00139292756048
0.000665592353242
0.00138727919198
0.000311521721355
0.00137680415271
0.00123766753714
0.00157134385187
-0.00747054906415
0.00331270853292
-0.00827839403022
0.00504697780947
-0.008248040965
0.00675542462432
-0.00813114154155
0.00842896945308
-0.00797293391933
0.0100596491381
-0.00777819481574
0.011640185716
-0.00754978918634
0.0131640333943
-0.00729079548721
0.0146254192492
-0.0070045467189
0.0160193828698
-0.00669453753434
0.0173417751128
-0.00636434254865
0.018589260191
-0.00601752935253
0.0197592777315
-0.00565759573914
0.0208500173914
-0.00528790228846
0.0218603556767
-0.00491163281352
0.0227898145946
-0.00453174848158
0.0236384844908
-0.00415097177423
0.0244069774611
-0.00377176110766
0.025096346419
-0.00339631598959
0.02570804245
-0.00302656872666
0.0262438381561
-0.00266420602759
0.026705795364
-0.00231067182465
0.0270961974242
-0.00196719828581
0.0274175296274
-0.00163481238871
0.0276724208053
-0.00131436909396
0.0278636349192
-0.00100655541595
0.0279940194353
-0.000711921022079
0.0280665047822
-0.000430877238239
0.0280840564551
-0.000163724310804
0.0280496798031
8.93538959412e-05
0.027966374456
0.000328264577549
0.0278371423596
0.000553015919804
0.0276649461507
0.000763683835058
0.0274527206057
0.000960430289642
0.0272033319284
0.00114347452111
0.0269195949167
0.0013131034606
0.0266042335067
0.00146964677745
0.0262599016179
0.00161348839653
0.0258891456326
0.0017450419969
0.0254944282927
0.00186476372879
0.0250780927504
0.00197312806671
0.0246423890682
0.00207064149842
0.0241894398261
0.00215781863942
0.0237212689006
0.00223519651772
0.0232397685862
0.002303310801
0.0227467304721
0.00236271050269
0.0222438142787
0.00241393438679
0.0217325806309
0.00245752593851
0.0212144616218
0.00249401006339
0.0206907952694
0.00252390842179
0.0201627979071
0.00254771675294
0.0196315999419
0.00256592065792
0.0190982198573
0.00257897386246
0.0185636007928
0.00258731468505
0.0180285859635
0.00259134562724
0.0174939553936
0.00259145060008
0.0169604022776
0.00258797605243
0.016428569179
0.00258124902652
0.0158990249798
0.00257155996471
0.0153722998123
0.00255918139475
0.0148488621226
0.00254435231631
0.0143291517564
0.00252729727685
0.0138135569378
0.00250821216561
0.0133024450314
0.00248728322633
0.0127961392543
0.00246467393038
0.0122949468882
0.00244054352323
0.0117991358736
0.00241503468172
0.0113089603827
0.00238829110816
0.0108246374733
0.00236044565561
0.0103463701587
0.00233163664264
0.0098743245586
0.00230199626099
0.00940865065894
0.0022716653027
0.00894946035049
0.00224078172734
0.00849684618485
0.00220949369318
0.00805086081717
0.00217794831102
0.00761153401357
0.00214630291252
0.00717885387207
0.00211471408162
0.00675278234632
0.00208334725441
0.00633323863447
0.00205236621397
0.00592011334768
0.00202194111718
0.00551325425811
0.00199223865288
0.00511247918469
0.00196342867193
0.00471756419892
0.00193567522672
0.00432825513337
0.00190914193697
0.00394425806968
0.00188398412115
0.00356524930228
0.00186035313671
0.0031908678708
0.00183838993398
0.00282072312345
0.00181822883826
0.00245438958191
0.00179999413058
0.00209141099044
0.00178380449124
0.00173129598424
0.00176977539922
0.00137353559491
0.00175803518856
0.0010176318751
0.00174870551724
0.000663303571101
0.00174146690777
0.000312396017667
0.00172757036028
0.00154999995114
0.00160924170467
-0.00907955528271
0.0033918094374
-0.0100607091885
0.00516632883438
-0.0100223072234
0.00691329937152
-0.00987785899903
0.00862311897756
-0.00968250091489
0.0102873787489
-0.00944220227732
0.0118984472914
-0.0091606058866
0.0134495172628
-0.00884161407482
0.0149346508697
-0.0084894296505
0.0163488069734
-0.00810844369591
0.0176878394189
-0.00770312610437
0.0189484810911
-0.0072779232318
0.0201283042581
-0.0068371726
0.0212256744287
-0.00638502765364
0.0222396861111
-0.00592540165057
0.0231700996463
-0.00546192114091
0.0240172650285
-0.00499789877958
0.0247820537326
-0.00453631388763
0.0254657819318
-0.00407981130453
0.026070147805
-0.00363070468301
0.026597163425
-0.00319099533705
0.0270491049446
-0.00276239049029
0.0274284581552
-0.00234633277434
0.0277378837324
-0.00194402318759
0.0279801758995
-0.0015564511329
0.0281582396903
-0.00118441345383
0.0282750581475
-0.00082853882624
0.0283336765152
-0.000489299736178
0.0283371735052
-0.000167030959519
0.028288649073
0.000138063524665
0.0281911979965
0.000425894965299
0.0280478991726
0.000696488580046
0.0278617944574
0.000949956143735
0.0276358800313
0.00118650656451
0.0273730860285
0.00140642387403
0.0270762739318
0.00161006492597
0.026748218083
0.00179784525209
0.0263916061832
0.00197023675839
0.0260090231439
0.00212775457125
0.0256029541025
0.00227095596581
0.0251757702016
0.00240042805233
0.0247297337316
0.00251678758467
0.0242669856102
0.00262066913446
0.0237895524719
0.00271272543418
0.0232993358627
0.00279361581066
0.0227981212576
0.00286400682916
0.0222875690224
0.0029245608814
0.0217692253465
0.00297593711553
0.0212445150508
0.0030187803154
0.0207147543787
0.00305372226034
0.0201811455736
0.00308137115409
0.019644791296
0.00310231372416
0.0191066907599
0.00311710560547
0.018567755372
0.00312627451051
0.0180288059913
0.0031303119201
0.0174905891863
0.00312967761095
0.0169537750723
0.00312479292996
0.0164189735066
0.00311604677251
0.0158867318778
0.0031037904853
0.0153575505346
0.00308834519716
0.0148318799861
0.00306999821697
0.0143101349881
0.00304901139481
0.0137926907369
0.00302561866913
0.0132798951956
0.00300003500378
0.0127720640869
0.00297245466044
0.0122694912873
0.00294306017299
0.0117724426278
0.00291202086488
0.0112811643817
0.00287950135365
0.0107958760925
0.00284565990969
0.0103167773849
0.00281065606018
0.00984404017894
0.00277464847131
0.00937781415689
0.00273780136794
0.00891821880937
0.00270028178193
0.00846534796355
0.00266226464978
0.00801926211813
0.00262392939746
0.00757999241032
0.00258546373223
0.00714753364824
0.00254705967437
0.00672184804638
0.00250891616903
0.00630285928009
0.00247123475818
0.00589045619779
0.00243422121783
0.00548448808887
0.00239808111767
0.00508476846524
0.00236302072147
0.00469107158041
0.00232924269494
0.00430313625088
0.0022969465153
0.00392066350278
0.00226632460527
0.00354332035597
0.002237562521
0.00317073855914
0.00221083593426
0.00280251861402
0.00218631121527
0.00243822944089
0.0021641434772
0.00207741338388
0.00214447975417
0.00171959391553
0.00212746031228
0.00136428068881
0.00211321561843
0.00101099986013
0.00210184648551
0.000659458312662
0.00209287502171
0.000311265718608
0.00207562836496
0.00186119546427
0.00165589531735
-0.0107352153066
0.0034894495944
-0.0118940116743
0.00531372112128
-0.0118463255992
0.00710820748319
-0.0116720924738
0.0088626523047
-0.0114366931137
0.0105681026828
-0.0111474003104
0.0122164981956
-0.0108087494287
0.013800721447
-0.0104255857161
0.0153146434578
-0.0100031006634
0.0167531418149
-0.00954669169326
0.0181120900663
-0.00906182496333
0.0193883268018
-0.0085539115885
0.0205796041738
-0.00802820297379
0.0216845248676
-0.00748970281973
0.0227024661135
-0.0069430992292
0.0236334996598
-0.00639271299724
0.0244783053712
-0.00584246517048
0.0252380875314
-0.0052958592544
0.0259144908745
-0.00475598076562
0.0265095253717
-0.00422550837783
0.0270254956533
-0.00370673825618
0.0274649431505
-0.00320161425615
0.0278305947485
-0.00271176460377
0.0281253242905
-0.00223853710592
0.0283521184594
-0.00178303411596
0.0285140522397
-0.00134614067636
0.0286142645727
-0.000928549484175
0.0286559399277
-0.000530778462584
0.0286422870683
-0.000153186743232
0.0285765222885
0.000204014215466
0.0284618497478
0.000540747785763
0.0283014448857
0.000857067940719
0.0280984394192
0.00115313016125
0.0278559070637
0.00142920139161
0.0275768496869
0.00168563751683
0.027264188714
0.00192287585731
0.0269207537702
0.00214142374351
0.0265492770594
0.00234185050076
0.0261523845021
0.00252477755844
0.0257325923408
0.00269087187306
0.02529230017
0.00284083721792
0.0248337893492
0.0029754085578
0.0243592177325
0.00309534401083
0.023870619798
0.00320141966132
0.0233699030991
0.00329442180571
0.0228588501956
0.00337514194274
0.0223391170001
0.00344436919507
0.0218122366238
0.00350288544006
0.0212796197177
0.00355145802356
0.0207425602666
0.0035908352717
0.0202022379313
0.00362173986621
0.0196597256278
0.00364486513619
0.0191159936003
0.00366086957161
0.0185719183831
0.00367037439718
0.0180282881312
0.00367395971471
0.0174858123299
0.00367216374367
0.0169451276731
0.0036654808934
0.0164068077686
0.00365436286735
0.0158713688274
0.00363921872915
0.0153392786063
0.00362041776143
0.0148109611908
0.00359829127922
0.0142868045584
0.00357313690481
0.0137671639547
0.00354522167025
0.0132523676717
0.00351478715309
0.0127427187198
0.00348205324985
0.0122384986898
0.00344722356338
0.0117399677257
0.00341048921941
0.0112473665824
0.00337203389374
0.010760915099
0.00333203710056
0.0102808127811
0.00329067838588
0.00980723618696
0.0032481396809
0.00934033847783
0.00320460833201
0.00888024618764
0.00316027828723
0.0084270582462
0.00311535184572
0.007980842648
0.00307003964659
0.00754163540904
0.00302456117732
0.00710943756505
0.00297914368915
0.00668421444894
0.00293402166309
0.00626589336802
0.00288943490047
0.00585436344521
0.00284562721681
0.00544947415932
0.00280284401159
0.00505103586314
0.00276133051471
0.00465881922012
0.00272132915984
0.00427255639693
0.00268307769392
0.00389194127387
0.00264680666918
0.00351663139308
0.00261273777511
0.00314624908675
0.00258108176772
0.00278038407982
0.00255203730555
0.00241859737313
0.00252579039379
0.00206042476135
0.00250251292193
0.0017053809543
0.00248236242768
0.00135297682085
0.00246548570882
0.00100272862587
0.00245196924986
0.000654266216856
0.00244119444396
0.000309049468354
0.00242070114544
0.00217018116426
0.00171211974306
-0.0124470999665
0.00360717606366
-0.0137888159422
0.00549139792001
-0.0137302946817
0.00734302398939
-0.013523465771
0.00915098407178
-0.0132444006662
0.0109056643951
-0.0129018283125
0.0125984934634
-0.0125013263653
0.0142219953864
-0.0120488358512
0.0157698315503
-0.0115506854321
0.0172368069383
-0.0110134163198
0.0186188455025
-0.010443613506
0.0199129409858
-0.00984775807781
0.0211170884405
-0.00923210262137
0.022230201843
-0.00860256990289
0.0232520213508
-0.00796467411465
0.024183014761
-0.00732346379197
0.0250242758009
-0.00668348585447
0.0257774239657
-0.00604876961405
0.0264445082615
-0.00542283009124
0.0270279197801
-0.00480868803405
0.027530314426
-0.00420890445352
0.0279545495035
-0.00362562452861
0.0283036327368
-0.00306062699217
0.0285806848076
-0.00251537248729
0.0287889107416
-0.00199104783528
0.0289315793689
-0.00148860170545
0.0290120050792
-0.00100877252536
0.0290335320531
-0.000552107799803
0.0289995166799
-0.000118979073712
0.0289133105896
0.000290407187279
0.028778242683
0.000675996872148
0.0285976036975
0.00103788235652
0.0283746264589
0.00137627679269
0.0281124762083
0.00169151501276
0.0278142360433
0.00198403476654
0.0274828978745
0.00225436486281
0.0271213531127
0.00250311283607
0.026732386527
0.00273095498181
0.0263186693037
0.00293862598816
0.0258827549157
0.00312691086341
0.0254270738279
0.00329663605
0.0249539309272
0.00344866245972
0.0244655016786
0.00358387726143
0.0239638311302
0.00370318734262
0.0234508316782
0.00380751125863
0.0229282838769
0.0038977727769
0.0223978360601
0.0039748928066
0.0218610072144
0.00403978302827
0.0213191886885
0.00409333796116
0.0207736492839
0.00413642898449
0.0202255390907
0.00416989698001
0.0196758967014
0.00419454731664
0.0191256549365
0.00421114371149
0.0185756497628
0.0042204048357
0.0180266273327
0.00422300001644
0.0174792538853
0.00421954801083
0.0169341232979
0.00421061497383
0.0163917670762
0.00419671564203
0.0158526615184
0.00417831363988
0.0153172368946
0.00415582495204
0.0147858834201
0.00412962029203
0.0142589588859
0.00410003039159
0.0137367928483
0.00406734985356
0.0132196922357
0.00403184355444
0.0127079434726
0.00399375124564
0.0122018159078
0.00395329425927
0.0117015618974
0.00391068008465
0.0112074182003
0.00386610861253
0.0107196043221
0.00381977602005
0.0102383222694
0.00377187993652
0.009763753646
0.00372262214957
0.00929605830024
0.00367221230286
0.00883537076448
0.00362086917256
0.00838179838419
0.00356882274999
0.00793541768447
0.00351631406461
0.00749627252471
0.00346359573161
0.00706437090006
0.00341093049966
0.00663968355575
0.00335859051596
0.00622214159719
0.00330685491222
0.00581163583854
0.0032560081471
0.00540801542865
0.00320633701803
0.00501108804624
0.00315812847763
0.00462061956405
0.00311166646872
0.00423633509409
0.00306722959591
0.00385791961279
0.00302508815368
0.00348501989006
0.00298550196039
0.00311724620094
0.00294871794118
0.0027541757688
0.00291496851691
0.00239535538539
0.0028844692286
0.00204030668004
0.0028574190191
0.00168853528569
0.00283399855956
0.00133952764164
0.00281435925147
0.000992764235882
0.00279858979652
0.000647838645599
0.00278598593083
0.000306096269759
0.0027623083052
0.00247620607504
0.00177886728463
-0.014225732544
0.00374690489293
-0.0157566024225
0.0057021671484
-0.0156853043726
0.00762134223895
-0.0154423884056
0.00949236307428
-0.0151151691239
0.0113048224522
-0.0147140353773
0.0130495508288
-0.0142458025597
0.0147186693074
-0.0137177022634
0.0163056214624
-0.013137385873
0.0178051629558
-0.012512706496
0.0192133156134
-0.0118515155626
0.0205272957038
-0.0111614883806
0.0217454222642
-0.0104499805621
0.0228670124218
-0.00972391276494
0.0238922668277
-0.00898968291391
0.0248221502049
-0.00825310345621
0.0256582695341
-0.00751936371876
0.0264027549357
-0.00679301604612
0.0270581466746
-0.0060779856868
0.0276272936639
-0.00537760197694
0.028113266715
-0.00469464784899
0.0285192899146
-0.00403142175246
0.0288486902313
-0.00338980526424
0.0291048640827
-0.00277132851673
0.0292912565918
-0.00217722694652
0.029411348705
-0.00160848513895
0.0294686469617
-0.00106586697181
0.0294666723306
-0.000549934504992
0.029408946289
-6.10596292647e-05
0.0292989741882
0.000400567144488
0.0291402243104
0.000834928987421
0.0289361183749
0.00124216463679
0.0286900065614
0.00162255902305
0.0284051570038
0.00197652881327
0.0280847439228
0.00230460592229
0.0277318382345
0.00260742222768
0.0273494001953
0.00288569618375
0.0269402732181
0.00314022067183
0.0265071788205
0.00337185255181
0.0260527120771
0.00358150300659
0.0255793378531
0.00377012897489
0.0250893873979
0.0039387246942
0.0245850557822
0.00408831381918
0.0240683998053
0.00421994120319
0.023541336958
0.00433466503598
0.0230056450333
0.00443354844719
0.0224629630513
0.00451765147807
0.0219147929828
0.00458802249531
0.0213625030154
0.00464569019497
0.0208073316713
0.00469165521543
0.0202503935878
0.00472688276631
0.0196926860015
0.00475229517031
0.0191350968204
0.00476876596424
0.0185784130203
0.00477711425197
0.0180233303615
0.00477810112389
0.0174704628544
0.00477242654288
0.0169203531386
0.0047607286286
0.0163734819574
0.00474358342144
0.0158302781123
0.00472150712632
0.0152911268913
0.00469495861609
0.014756378602
0.0046643442471
0.0142263551095
0.00463002254332
0.0137013562331
0.00459231082811
0.0131816638851
0.0045514912322
0.0126675459749
0.0045078181727
0.0121592580299
0.00446152472145
0.0116570446409
0.00441282994338
0.0111611388054
0.00436194471405
0.0106717612673
0.0043090780618
0.0101891180989
0.00425444172353
0.00971339852555
0.00419825488869
0.00924477141962
0.00414074705021
0.00878338229974
0.00408216084512
0.00832934944743
0.00402275305983
0.00788276077246
0.00396279556171
0.0074436701909
0.00390257458108
0.00701209493724
0.00384238997113
0.00658801269954
0.00378255310051
0.0061713597998
0.00372338484828
0.00576202938769
0.00366521255887
0.00535987070554
0.00360836725461
0.00496468845464
0.00355318014856
0.0045762431532
0.00349997955251
0.004194251666
0.00344908739816
0.00381838851556
0.00340081624409
0.00344828766596
0.00335546620269
0.00308354491268
0.00331332229566
0.00272372067456
0.00327465186823
0.00236834520527
0.00323970316739
0.00201692162818
0.00320870166255
0.00166892818936
0.00318184791332
0.00132383207049
0.00315931960521
0.000981086930551
0.00314120944928
0.000640220232947
0.00312670735859
0.000302514748014
0.00309986771703
0.00277865701597
0.00185729768831
-0.0160827959705
0.00391100806881
-0.0178100617403
0.00594951098559
-0.0177235553118
0.0079476076769
-0.017440232969
0.00989202226207
-0.0170593315658
0.0117714068389