/*--------------------------------*- C++ -*----------------------------------*\
| =========                 |                                                 |
| \\      /  F ield         | OpenFOAM: The Open Source CFD Toolbox           |
|  \\    /   O peration     | Version:  v1906                                 |
|   \\  /    A nd           | Web:      www.OpenFOAM.com                      |
|    \\/     M anipulation  |                                                 |
\*---------------------------------------------------------------------------*/
FoamFile
{
    version     2.0;
    format      ascii;
    class       volScalarField;
    location    "430";
    object      p;
}
// * * * * * * * * * * * * * * * * * * * * * * * * * * * * * * * * * * * * * //

dimensions      [0 2 -2 0 0 0 0];


internalField   nonuniform List<scalar> 
9216
(
304.152613892
304.233637801
304.401935524
304.654723092
304.991050098
305.409144869
305.906777941
306.481327043
307.129831406
307.849040606
308.635460936
309.485400686
310.395012671
311.360334675
312.377325979
313.441901024
314.549958657
315.69740844
316.880192724
318.094306196
319.335811777
320.600854633
321.88567325
323.186609252
324.500114983
325.822760308
327.151237766
328.482367234
329.813099289
331.140518396
332.461845218
333.774438357
335.075795657
336.363554999
337.635494777
338.889533714
340.123730633
341.336283372
342.525527942
343.689936622
344.828116597
345.93880733
347.020878792
348.073328212
349.095278002
350.085972009
351.044773207
351.971159582
352.86472165
353.72515808
354.552273079
355.345971869
356.106257928
356.833228431
357.52707132
358.188060819
358.816554245
359.412987729
359.97787264
360.511791631
361.015394505
361.489394704
361.934564387
362.351731463
362.741773604
363.105615896
363.444223466
363.758599789
364.049777617
364.318817951
364.566799031
364.794816001
365.003967907
365.195358156
365.370079811
365.529217112
365.673829785
365.80495611
365.923597439
366.030723485
366.127258597
366.214090131
366.292058361
366.361969349
366.424591497
366.480678066
366.530977267
366.57649074
366.616269242
366.647598479
366.670292861
366.686092308
366.696485216
366.702607001
366.705608583
366.706648449
304.071670743
304.153146613
304.321090825
304.574914641
304.912896631
305.33310861
305.833240005
306.410613059
307.062219296
307.784763367
308.574708596
309.428322312
310.341719085
311.310901422
312.331796811
313.400291297
314.512258931
315.663587701
316.850201598
318.068079638
319.313271666
320.58191181
321.870229468
323.174558631
324.491345402
325.817154409
327.148673925
328.482720246
329.816241227
331.146319132
332.470172846
333.785159714
335.088776786
336.378661585
337.652592524
338.908488772
340.144409898
341.358554911
342.549261209
343.715002879
344.854389037
345.966161494
347.049192596
348.102482353
349.125155902
350.1164602
351.075761208
352.002540266
352.89639106
353.757015785
354.584221953
355.377918417
356.13811206
356.86490375
357.558484918
358.219133509
358.847210425
359.443155527
360.007483898
360.540781933
361.043703344
361.516965357
361.961344332
362.377672071
362.766830881
363.129749938
363.467399601
363.78078775
364.070953119
364.33896151
364.585897973
364.812862835
365.020962672
365.211306245
365.384994484
365.543116645
365.686739934
365.816906511
365.934623777
366.040863142
366.136552271
366.222576658
366.299775206
366.368945609
366.430844247
366.486195297
366.535688286
366.580052392
366.619259381
366.650451134
366.672686008
366.688066962
366.698140953
366.703925526
366.706682969
366.707735643
303.902577677
303.986231542
304.156022706
304.41255917
304.754116388
305.178716343
305.683969649
306.267112316
306.925046925
307.654389045
308.451514929
309.312608593
310.23370662
311.210739843
312.239571129
313.316029119
314.435937692
315.595141469
316.789527457
318.01504335
319.267712742
320.54364782
321.839059778
323.150267483
324.473704549
325.805925255
327.143609379
328.483566237
329.822738005
331.158202422
332.487174965
333.807010507
335.115204522
336.409393823
337.687356905
338.947013821
340.186425727
341.403793952
342.597458815
343.765897982
344.907724637
346.021685221
347.106657083
348.161645712
349.185781973
350.178318951
351.138628879
352.066199694
352.960631746
353.821634153
354.64902136
355.442709362
356.202712159
356.929137904
357.622185278
358.282139611
358.909369178
359.504321315
360.067518639
360.599555152
361.101092346
361.57285529
362.015628531
362.430252124
362.817617202
363.178661849
363.514366186
363.825747936
364.113856817
364.379769639
364.624583812
364.849411842
365.055373859
365.243591543
365.415179837
365.571240605
365.712854101
365.841073073
365.956914978
366.061357584
366.155333186
366.23972684
366.315373701
366.383060695
366.443527385
366.497470509
366.545542728
366.588408783
366.626305315
366.656340646
366.677574364
366.692202522
366.701504325
366.706801928
366.709515498
366.710741395
303.646216596
303.731602699
303.904284901
304.165069206
304.512180441
304.943556426
305.456694575
306.048703124
306.716349785
307.45611358
308.2642368
309.136775395
310.069646316
311.05867088
312.099613552
313.188215975
314.320226271
315.491423912
316.697640523
317.934777131
319.198818312
320.485843778
321.792037811
323.113696985
324.44723649
325.789195361
327.136240814
328.485171842
329.832922234
331.176563057
332.513304688
333.840498329
335.155637133
336.456356876
337.740436242
339.005796657
340.250501752
341.47275641
342.670905472
343.84343206
344.988955629
346.106229674
347.19413924
348.251698139
349.278046042
350.272445323
351.234277842
352.163041526
353.058346934
353.91991366
354.747566756
355.541233015
356.300937308
357.0267988
357.719027226
358.377919076
359.003853836
359.597290154
360.158762043
360.688875041
361.188302347
361.657780947
362.098107638
362.510135045
362.89476744
363.252956536
363.58569693
363.894021497
364.178996235
364.441715039
364.683293689
364.904863786
365.107565718
365.292541676
365.460927669
365.613845896
365.752396327
365.877649201
365.990637222
366.092349409
366.183725253
366.265651171
366.33895774
366.404419566
366.462756172
366.514636305
366.56068289
366.601579431
366.63720533
366.665245981
366.685248614
366.698695915
366.707233378
366.712260772
366.715051992
366.716359719
303.300644171
303.388088893
303.564708729
303.831319714
304.1860448
304.626691499
305.150598342
305.754696672
306.435567963
307.189503033
308.012560065
308.900619755
309.849436152
310.854682294
311.911990196
313.016985148
314.165314566
315.352671876
316.574815988
317.827587015
319.106918857
320.408849242
321.729527761
323.065222325
324.412324435
325.76735353
327.126960628
328.487931383
329.847188716
331.201795034
332.548954063
333.886012229
335.210459676
336.519930885
337.81220488
339.085205009
340.33699833
341.56579458
342.769944783
343.947939483
345.098406674
346.220109412
347.311943194
348.372933088
349.402230693
350.399110913
351.362968624
352.293315197
353.189774973
354.052081621
354.880074482
355.673694841
356.432982194
357.158070461
357.849184221
358.506634908
359.130817027
359.722204348
360.281346122
360.808863276
361.30544461
361.771842983
362.208871451
362.617399373
362.998348409
363.35268842
363.681433149
363.98563572
364.266383742
364.524794096
364.762007139
364.97918045
365.17748181
365.358081699
365.522144994
365.670822373
365.805241208
365.926496703
366.03564318
366.1336864
366.221576847
366.300204725
366.370396415
366.432912816
366.488449088
366.537636439
366.581043203
366.619248618
366.652190558
366.677964456
366.696083897
366.708340176
366.716257321
366.72111819
366.724002739
366.725388476
302.863751749
302.953745998
303.135412611
303.409524135
303.774052251
304.226621508
304.764356335
305.383953394
306.081749179
306.853788572
307.695890735
308.603710413
309.572793177
310.598623795
311.676667477
312.802404207
313.971356707
315.179112756
316.421342714
317.693813089
318.992396963
320.313081974
321.65197649
323.005314453
324.369459291
325.740907182
327.116289856
328.492377001
329.866078478
331.234446238
332.59467595
333.944108245
335.280229657
336.60067317
337.903218368
339.185791147
340.446463012
341.683449956
342.895110943
344.079946017
345.236594084
346.363830387
347.460563735
348.525833492
349.558806401
350.558773235
351.525145343
352.457451087
353.355332203
354.218540101
355.046932135
355.840467817
356.599205038
357.323296252
358.012984675
358.668600473
359.290556967
359.879346845
360.435538387
360.959771718
361.452755059
361.915260999
362.34812276
362.752230437
363.128527193
363.478005351
363.801702342
364.100696422
364.376102065
364.629064924
364.860756235
365.072366528
365.265098539
365.440159257
365.59875105
365.742062059
365.871255921
365.987461381
366.091762034
366.185186991
366.268702724
366.343206731
366.409522882
366.46839858
366.520503108
366.5664274
366.606683444
366.641772795
366.671584564
366.694509941
366.710748446
366.721901068
366.729182305
366.734107316
366.737083558
366.738523639
302.332893753
302.426025553
302.613954935
302.89738595
303.274088279
303.741444233
304.296299163
304.935047185
305.653711833
306.448026503
307.313510272
308.245536819
309.239394899
310.290339706
311.393635198
312.544587955
313.738573517
314.971056336
316.237604498
317.533900358
318.855748077
320.199078947
321.5599552
322.934572846
324.319263953
325.710498621
327.10488683
328.499180137
329.89027345
331.275206683
332.651166168
334.01548582
335.365648022
336.69928413
338.014174573
339.308248503
340.579582998
341.826401824
343.047073768
344.240110591
345.404164628
346.538026087
347.640620081
348.711003452
349.748361422
350.75200409
351.72136284
352.655986652
353.555538354
354.419790838
355.248623235
356.042017078
356.800052455
357.522904158
358.210837848
358.864206218
359.483445192
360.069070142
360.621672137
361.141914236
361.630527816
362.088308934
362.516114738
362.914859876
363.285512925
363.629092742
363.94666474
364.239336939
364.508255732
364.754601182
364.979581694
365.184427875
365.37038536
365.538706503
365.690640757
365.827423901
365.950266189
366.060340005
366.158767517
366.246609192
366.324853872
366.394410925
366.456104665
366.510670527
366.558752109
366.600897486
366.637550783
366.669067448
366.695398711
366.715532111
366.730012086
366.740073306
366.746929377
366.751708576
366.754648058
366.756061466
301.704806864
301.801748152
301.997294612
302.292057477
302.683545695
303.168829211
303.744396574
304.406258624
305.150046216
305.971105848
306.864587853
307.825524471
308.848896239
309.92968634
311.062923435
312.243714137
313.467266636
314.728907118
316.024090579
317.348407515
318.697587717
320.067502225
321.454164221
322.853729467
324.262496668
325.676907999
327.093549928
328.50915418
329.920599124
331.32491123
332.719266324
334.100990739
335.467562212
336.816610386
338.145916892
339.45341494
340.737188422
341.995470533
343.226641935
344.4292285
345.60189869
346.74346063
347.852858914
348.929171211
349.971604708
350.97949243
351.952289475
352.889569182
353.791019264
354.656437906
355.485729856
356.278902511
357.036062004
357.757409306
358.443236344
359.093922147
359.70992902
360.291798766
360.840148952
361.355669244
361.839117802
362.291317755
362.713153756
363.105568602
363.46955992
363.806176863
364.116516776
364.401721717
364.66297473
364.901495646
365.118536234
365.315374358
365.493306915
365.653641204
365.797684541
365.926732079
366.042052951
366.144875371
366.236371417
366.317642764
366.389708381
366.453495221
366.509831978
366.559445452
366.602957881
366.640883029
366.673616394
366.701427564
366.724319732
366.741707814
366.754362367
366.763374956
366.76979323
366.774077347
366.776871507
366.778171475
300.975526765
301.077043563
301.28173713
301.590093827
301.999289291
302.505994846
303.106247178
303.795576277
304.569125581
305.421766984
306.348204269
307.343061888
308.400957702
309.516559817
310.684628836
311.900047467
313.157839827
314.45318274
315.781411198
317.138019844
318.518662004
319.91914746
321.335439848
322.763654276
324.200055539
325.641057095
327.083220833
328.523257398
329.958027267
331.38454218
332.799966313
334.20161756
335.586968516
336.953647054
338.299436418
339.622274775
340.920254214
342.191619196
343.434764502
344.648232727
345.830711387
346.981029706
348.098155149
349.181189761
350.22936637
351.242044686
352.218707349
353.158955928
354.062506912
354.929187689
355.758932537
356.551778626
357.307862031
358.027413781
358.710755926
359.358297647
359.97053141
360.548029175
361.091438677
361.601479784
362.078940967
362.524675872
362.939600033
363.324687719
363.68096892
364.009526434
364.311493037
364.588048594
364.840417032
365.069862873
365.277687119
365.46522204
365.633824451
365.784867006
365.919727046
366.03977284
366.146347176
366.240749075
366.324214619
366.397898762
366.462859932
366.520048921
366.570302786
366.614342743
366.65277444
366.686087609
366.714651662
366.738705201
366.758315473
366.773223242
366.784066983
366.791951867
366.797582302
366.801341702
366.803844752
366.804911696
300.140292451
300.247266722
300.46286125
300.787393094
301.217611943
301.749681551
302.379068203
303.10070131
303.909122978
304.798627626
305.763383935
306.797535791
307.895281275
309.050930801
310.258946852
311.513968496
312.810824067
314.14453522
315.510315173
316.903563464
318.319859015
319.754952849
321.204761371
322.6653608
324.132983046
325.604013109
327.07498789
328.542596036
330.003678907
331.455232212
332.89440726
334.318512556
335.725014996
337.111540605
338.475874699
339.815961412
341.129902571
342.41595595
343.672532947
344.898195766
346.09165418
347.25176197
348.377513122
349.468037851
350.522598516
351.540585469
352.521512882
353.465014564
354.370839796
355.238849179
356.06901052
356.86139474
357.616171814
358.333606752
359.014055618
359.657961589
360.265851079
360.838329923
361.376079654
361.87985388
362.350474793
362.788829847
363.195868607
363.572599835
363.920088792
364.239454783
364.531868909
364.798551938
365.040772174
365.259843033
365.457120051
365.633996704
365.791898537
365.932274736
366.056586461
366.166291348
366.262823973
366.34757298
366.421856312
366.486897342
366.543804852
366.593559803
366.637009921
366.674871211
366.707733704
366.736068429
366.760233171
366.780476304
366.796937122
366.809613671
366.818948683
366.825797266
366.830595987
366.833830483
366.835672297
366.836222243
299.193427003
299.306888347
299.535424514
299.879121344
300.33418191
300.896122151
301.559687761
302.319058752
303.168037611
304.100219947
305.109138551
306.18837753
307.331656582
308.532888086
309.786211251
311.086008218
312.426906956
313.803775267
315.211709505
316.646020787
318.102220751
319.576008273
321.063258046
322.560011515
324.062470339
325.566992306
327.07008939
328.568427453
330.058827472
331.538267593
333.003884805
334.452977056
335.883004837
337.29159218
338.676526956
340.035760387
341.367405783
342.669736544
343.941183496
345.180331669
346.385916642
347.556820547
348.692067858
349.790821036
350.852376116
351.876158262
352.861717358
353.808723618
354.71696326
355.58633422
356.41684192
357.208595089
357.961801623
358.676764495
359.353877713
359.993622331
360.596562517
361.163341705
361.69467884
362.19136475
362.654258675
363.084285005
363.482430259
363.849740375
364.187318349
364.496322253
364.777963669
365.033506449
365.264265746
365.471606992
365.656944511
365.821739047
365.967493421
366.095745144
366.208054737
366.305988626
366.391095786
366.464878745
366.528760662
366.584052753
366.631927227
366.673400655
366.709330422
366.740422051
366.767243451
366.790241333
366.809757909
366.826048691
366.839306521
366.849700588
366.857552265
366.863286851
366.867363966
366.86997103
366.871295595
366.871514282
298.128185526
298.249354301
298.493242997
298.859619472
299.343980418
299.941010599
300.64454225
301.447819059
302.343734817
303.325042889
304.38452601
305.515123723
306.710019455
307.96269248
309.266941719
310.616888681
312.006966281
313.431899228
314.886680416
316.36654652
317.866955013
319.383563959
320.912215381
322.448922509
323.9898609
325.531363167
327.06991651
328.602163128
330.124902016
331.635091638
333.12985277
334.606471266
336.062400235
337.495261447
338.902845815
340.283112911
341.634189523
342.954367322
344.242099761
345.495998344
346.714828426
347.897504692
349.043086443
350.1507728
351.219897899
352.249926138
353.240447487
354.191172901
355.101929817
355.972657735
356.803403877
357.594318916
358.345652757
359.05775038
359.731047726
360.366067648
360.963415915
361.523777309
362.047911806
362.536650916
362.990894179
363.411605928
363.799812334
364.156598868
364.483108226
364.780538838
365.050144007
365.293231706
365.511165011
365.705362893
365.877301089
366.028512174
366.160583879
366.275153931
366.373899496
366.458519006
366.53070458
366.592104747
366.644279539
366.688654229
366.726480435
366.758814293
366.786516029
366.810267334
366.830597869
366.847913149
366.862520796
366.874656135
366.884510611
366.892268083
366.898171897
366.902511012
366.905568793
366.907547971
366.908620546
366.908919886
296.936558749
297.066904577
297.329038674
297.722288329
298.241229026
298.879471271
299.629683284
300.483935582
301.434005638
302.471635286
303.588729384
304.777494857
306.030525595
307.340842598
308.701900296
310.107569669
311.552107357
313.030117986
314.536514973
316.066483286
317.61544629
319.179037827
320.75308001
322.333566793
323.916653039
325.498648536
327.076015789
328.645371642
330.203490525
331.747308436
333.273927261
334.780618622
336.264826883
337.72417108
339.15644566
340.559619982
341.931836622
343.271408606
344.576815717
345.846700108
347.079861413
348.275251562
349.431969468
350.549255706
351.62648727
352.663172465
353.658945945
354.61356391
355.526899432
356.398937919
357.229772668
358.019600512
358.768717527
359.477514806
360.146474276
360.776164576
361.367236985
361.920421428
362.436522582
362.91641611
363.361045094
363.771416727
364.148599364
364.493720054
364.807962681
365.092566881
365.348827884
365.578097409
365.7817857
365.961364581
366.118371291
366.254412261
366.371165655
366.470380392
366.553868782
366.623488924
366.681112956
366.728579207
366.767629383
366.799839861
366.826562745
366.848894476
366.867682201
366.883558605
366.896987852
366.908307951
366.917765763
366.925547177
366.931804697
366.936684928
366.94035809
366.943014881
366.944844031
366.946002918
366.946630703
366.946855022
295.60901675
295.750338771
296.034245208
296.459447615
297.019306945
297.706032949
298.51080093
299.424206136
300.436654343
301.538677392
302.721162203
303.975496443
305.293642279
306.668154128
308.092157084
309.55930113
311.063703304
312.599886688
314.162722062
315.747375629
317.349264487
318.964020456
320.587462235
322.215575562
323.844500766
325.470526902
327.090090819
328.699780953
330.296343198
331.876686907
333.437891302
334.977210827
336.492079197
337.980111996
339.439107699
340.867047125
342.262091391
343.622578525
344.947019001
346.234090471
347.482632003
348.691638068
349.860252495
350.987762546
352.073593181
353.117301572
354.118571868
355.07721018
355.993139768
356.866396389
357.697123778
358.485569215
359.232079181
359.93709506
360.60114889
361.224859161
361.80892665
362.35413032
362.86132329
363.331428938
363.765437168
364.164400962
364.529433297
364.861704625
365.162441071
365.43292361
365.674488486
365.88852915
366.0765
366.239922037
366.380390451
366.499583434
366.599271087
366.681321616
366.747700801
366.800458425
366.841694388
366.873497974
366.897858592
366.916559678
366.931082997
366.942560372
366.951793656
366.959323311
366.965506563
366.970578697
366.97469537
366.977965058
366.98047407
366.982307071
366.983562655
366.984353192
366.984794634
366.984993056
366.985044395
366.985030936
294.13417073
294.28870953
294.598759595
295.062163126
295.670659778
296.414614459
297.283273824
298.265370676
299.349625614
300.525130932
301.781607851
303.10954807
304.500261186
305.945853775
307.439165091
308.973680279
310.543436678
312.142933526
313.767050925
315.410980729
317.07016996
318.740276335
320.417135117
322.096736444
323.775212256
325.448831689
327.11400293
328.76728064
330.405375922
332.025165347
333.623700207
335.19821375
336.746126483
338.265049513
339.752785885
341.207329904
342.626864566
344.009757324
345.354554549
346.659975119
347.924903508
349.148382743
350.32960749
351.467917416
352.562790933
353.613839327
354.620801257
355.583537566
356.502026358
357.376358273
358.206731907
358.993449349
359.736911777
360.437615115
361.096145718
361.713176087
362.289460596
362.82583126
363.323193536
363.782522219
364.20485747
364.591301095
364.943013188
365.261209351
365.547158723
365.802183146
366.027657885
366.22501436
366.395745453
366.541413913
366.663664262
366.764238113
366.84499207
366.907915316
366.955141951
366.988948487
367.011723545
367.025894541
367.033800381
367.037520589
367.038711222
367.038521776
367.037646708
367.036460927
367.035154391
367.033816373
367.032478371
367.031145972
367.029818973
367.028505949
367.027232969
367.026043483
367.024991628
367.024133867
367.023525867
367.023207829
292.498320859
292.66891744
293.010622564
293.520036246
294.186703763
294.998533774
295.942262409
297.004262669
298.171187691
299.430431052
300.770402763
302.18064637
303.651835162
305.175688261
306.744842932
308.352711219
309.993339943
311.66128502
313.35150487
315.059273667
316.780112992
318.509739797
320.244028772
321.97898777
323.710745285
325.435548668
327.149770853
328.849923774
330.532674073
332.194856739
333.833487952
335.445774472
337.029120274
338.581130661
340.099613897
341.582580313
343.028238955
344.434992158
345.801428544
347.126315055
348.408588567
349.647347558
350.841844143
351.991476653
353.095782826
354.154433575
355.167227264
356.134084409
357.055042693
357.930252218
358.759970926
359.544560108
360.284479995
360.980285364
361.632621178
362.242218211
362.809888671
363.336521811
363.823079521
364.27059196
364.680153241
365.052917309
365.390094107
365.692946298
365.962786783
366.20097747
366.408929799
366.588107744
366.740034203
366.866301775
366.968589185
367.048684179
367.108513152
367.15017579
367.17597917
367.188459532
367.190369435
367.184599675
367.174001286
367.161102023
367.147804992
367.135232861
367.123850927
367.11374325
367.104848107
367.097061737
367.090259193
367.08432189
367.079148526
367.074663179
367.070819297
367.067596856
367.064995761
367.063028311
367.061714479
367.061058825
290.684842799
290.875169036
291.255604544
291.820949588
292.557734515
293.450560226
294.482870374
295.638039776
296.900194078
298.254747585
299.688675022
301.190568028
302.750540716
304.360047163
306.011662403
307.69886329
309.415830885
311.157284212
312.91834703
314.694444584
316.481225437
318.274503698
320.070218292
321.864407601
323.653198863
325.432810846
327.199569227
328.949928805
330.680497064
332.388055231
334.069574953
335.722229837
337.343403209
338.93069294
340.481913404
341.995094234
343.468475871
344.900502422
346.28981263
347.635229801
348.935751488
350.190539551
351.398910963
352.560329538
353.674398585
354.740854381
355.75956032
356.730501588
357.653780205
358.529610339
359.358313761
360.140315394
360.876138905
361.566402302
362.211813522
362.813165996
363.371334155
363.887268882
364.361992868
364.796595918
365.192230201
365.550105575
365.87148507
366.157680797
366.41005056
366.629995663
366.81896054
366.978435143
367.109961344
367.215145068
367.295676347
367.35335978
367.390158101
367.408249438
367.410096328
367.398512436
367.376698186
367.348186169
367.316609767
367.285219469
367.256297497
367.230832855
367.208817995
367.189828092
367.173440399
367.159324787
367.147173642
367.136730961
367.12778632
367.12017554
367.113781658
367.108527701
367.104366364
367.101271448
367.099233476
367.09822701
288.673341282
288.888241611
289.316665838
289.950764331
290.772858258
291.763042395
292.900412844
294.164531121
295.536454757
296.999337837
298.538651481
300.142118215
301.799465846
303.502095553
305.242735153
307.015122011
308.81373732
310.633596994
312.4700943
314.318884623
316.175801952
318.036798651
319.897903437
321.755196086
323.604799797
325.442890945
327.26572688
329.069682169
330.851284348
332.607244422
334.334477778
336.030116974
337.691519843
339.31627492
340.902203924
342.447360161
343.95002246
345.408685581
346.822048313
348.189000529
349.508610335
350.780112129
352.002896014
353.176498654
354.300595482
355.374994021
356.399628051
357.374552401
358.299938147
359.176068069
360.003332231
360.782223608
361.513333708
362.197348181
362.835042386
363.427276898
363.974992933
364.479207634
364.941009188
365.361551763
365.742050245
366.083774864
366.388045776
366.656227834
366.889725814
367.089980601
367.258466986
367.396694146
367.506210405
367.588614525
367.645576937
367.678875635
367.690452904
367.682499147
367.657570212
367.618731813
367.569702331
367.514897344
367.459193497
367.407094099
367.361520521
367.323076363
367.290777011
367.263303339
367.239757051
367.219615624
367.202372527
367.187634702
367.175082955
367.16446482
367.155599797
367.148363024
367.142668593
367.138459335
367.13570103
367.134342883
286.438459883
286.684471056
287.173249324
287.892970466
288.819979978
289.928165283
291.190850403
292.582754967
294.081258825
295.66701827
297.324047016
299.039427032
300.80281842
302.605907761
304.441888547
306.305023297
308.190303309
310.093200541
312.009494972
313.935157256
315.86626805
317.79896036
319.729377942
321.653649648
323.567884511
325.468191222
327.350724205
329.211742445
331.047663916
332.855108312
334.630921427
336.372186323
338.076229933
339.740629146
341.36321469
342.942069444
344.475520011
345.962123465
347.400651383
348.790072907
350.129538544
351.418365807
352.656027088
353.842139736
354.97645804
356.05886664
357.089374957
358.068112292
358.995323347
359.871363951
360.696696845
361.471887433
362.197599466
362.874590672
363.503708326
364.08588474
364.62213263
365.11354028
365.561266442
365.966534884
366.330628572
366.654883476
366.940682054
367.189446574
367.402632477
367.581722203
367.728220086
367.843649343
367.929552801
367.987499996
368.019104892
368.026061474
368.010206252
367.973625805
367.918830382
367.849013742
367.768397934
367.682562793
367.598429665
367.522840796
367.459917433
367.409268117
367.367863631
367.33279512
367.302656653
367.276988078
367.255052978
367.236340487
367.220434184
367.206991747
367.195783292
367.186651679
367.179483039
367.17419711
367.170739605
367.169037468
283.9481709
284.234336138
284.800352121
285.628305273
286.685912388
287.938424626
289.351479145
290.89368385
292.538104069
294.262787138
296.050547378
297.888290427
299.766142711
301.676586256
303.613714912
305.572657507
307.549166639
309.539346745
311.539485396
313.545951797
315.555132313
317.563382333
319.566985604
321.562124361
323.544873397
325.511230741
327.457192601
329.378848387
331.272465124
333.134546066
334.96185484
336.751417694
338.500524799
340.206738043
341.867899042
343.48212839
345.047813336
346.563588906
348.028316087
349.44105929
350.801065706
352.107748089
353.360671095
354.559540864
355.704197206
356.794607522
357.83086182
358.813168396
359.741849878
360.617339381
361.440176578
362.211003618
362.930560868
363.59968257
364.219292433
364.790399154
365.314091794
365.791534898
366.223963226
366.61267597
366.959030351
367.264434561
367.530340002
367.758232907
367.949625422
368.106046427
368.229032466
368.320119527
368.380837052
368.412706364
368.417248429
368.396006335
368.350599583
368.282835094
368.194919871
368.089850335
367.972082544
367.848530617
367.729546251
367.626721167
367.546601661
367.486279401
367.43839647
367.397193157
367.361090486
367.330586048
367.304491373
367.282223284
367.26330183
367.247270505
367.233881437
367.222971034
367.214410095
367.208105985
367.203984552
367.201949626
281.161256886
281.500445853
282.16731284
283.134387632
284.35672224
285.787461375
287.382013185
289.101365956
290.913704946
292.794632328
294.726389805
296.696540022
298.696518864
300.72033859
302.763570166
304.822624733
306.894294887
308.975493077
311.063121701
313.154016946
315.244920766
317.33245112
319.413059474
321.482985236
323.538236599
325.57463125
327.587918302
329.573934285
331.528738591
333.448691884
335.33046999
337.171039687
338.967647493
340.717833731
342.419452139
344.07067261
345.669961262
347.216052429
348.707918582
350.144739767
351.525877023
352.850852067
354.119332355
355.33112079
356.486148905
357.584471929
358.626264839
359.611818934
360.54153865
361.415938327
362.235638667
363.001362801
363.713932055
364.374261598
364.983356066
365.542305183
366.05227926
366.514524394
366.930357154
367.301158556
367.628367147
367.91347108
368.157999062
368.363510141
368.531582264
368.663799631
368.761738894
368.826954364
368.860962771
368.865229305
368.841154691
368.790072207
368.713266494
368.612039289
368.48788957
368.342947964
368.180996702
368.009781487
367.845459895
367.709514046
367.614485041
367.551134033
367.502068104
367.456435595
367.414234002
367.37977093
367.350140568
367.324781987
367.303275977
367.284916199
367.269520587
367.256963332
367.247107936
367.239863367
367.235125557
367.232760838
278.023494305
278.434631998
279.236254858
280.385485652
281.818523448
283.471486821
285.286263477
287.214553147
289.219366666
291.274554421
293.363028567
295.4744045
297.602699572
299.744469321
301.897487233
304.059917151
306.229865686
308.405194276
310.583485027
312.762074803
314.93809302
317.108460992
319.269838378
321.4185347
323.55044885
325.661104407
327.745856427
329.800159168
331.819787502
333.80094104
335.740223883
337.6345522
339.481117756
341.277423362
343.021333152
344.711084151
346.345248186
347.922688514
349.442518901
350.904061203
352.306810719
353.650413217
354.934649463
356.159426221
357.324771861
358.430833482
359.477874522
360.466272525
361.396517011
362.269207108
363.085048465
363.844849401
364.549516539
365.200050344
365.797540784
366.343163145
366.838173828
367.283905826
367.681763576
368.033216851
368.339793471
368.603070605
368.824664484
369.006218398
369.149388693
369.255828611
369.32716952
369.364999008
369.370835977
369.346098877
369.29206872
369.209846878
369.10030372
368.964029033
368.801320206
368.612319491
368.397675257
368.161835406
367.928625107
367.748081906
367.645206302
367.595388167
367.558797711