/*--------------------------------*- C++ -*----------------------------------*\
| =========                 |                                                 |
| \\      /  F ield         | OpenFOAM: The Open Source CFD Toolbox           |
|  \\    /   O peration     | Version:  v1906                                 |
|   \\  /    A nd           | Web:      www.OpenFOAM.com                      |
|    \\/     M anipulation  |                                                 |
\*---------------------------------------------------------------------------*/
FoamFile
{
    version     2.0;
    format      ascii;
    class       volVectorField;
    location    "669";
    object      Ua;
}
// * * * * * * * * * * * * * * * * * * * * * * * * * * * * * * * * * * * * * //

dimensions      [0 1 -1 0 0 0 0];


internalField   nonuniform List<vector> 
9216
(
(-0.00664312928141 0.00664608615503 0)
(-0.00682916683375 0.0207262544628 2.38060066358e-27)
(-0.00681482251811 0.0348856620092 -4.59807538517e-31)
(-0.00676647716609 0.0490355992205 0)
(-0.00669875690067 0.0630393859888 0)
(-0.00661339265407 0.0768615922014 0)
(-0.00651157433695 0.0904628470553 0)
(-0.00639458890734 0.10380643612 0)
(-0.00626306576224 0.11685821789 0)
(-0.00611830201428 0.129586257102 0)
(-0.00596089210332 0.141961312146 0)
(-0.00579223469144 0.153956466257 0)
(-0.00561286729851 0.165547560066 0)
(-0.0054242258085 0.176712737511 0)
(-0.00522671550123 0.18743277482 0)
(-0.0050217301609 0.197690536827 0)
(-0.00480946863772 0.207471208354 0)
(-0.00459121256333 0.216761687194 0)
(-0.00436690096995 0.225550732547 0)
(-0.00413765726969 0.233828331228 0)
(-0.00390313615632 0.241585789128 0)
(-0.0036642852729 0.24881512242 0)
(-0.00342048751195 0.25550911151 0)
(-0.00317252913148 0.261660769303 0)
(-0.00291956733849 0.267263375069 0)
(-0.00266226580298 0.27231007673 0)
(-0.00239963357769 0.276793901303 0)
(-0.0021322693942 0.280707542122 0)
(-0.00185913562238 0.284043336152 0)
(-0.00158083717535 0.286793282656 0)
(-0.00129641032074 0.288948999278 0)
(-0.00100651895797 0.290501965762 0)
(-0.000710412841659 0.291443361378 0)
(-0.000408925393095 0.291764768811 0)
(-0.000101677394204 0.291457831116 0)
(0.000210283244368 0.290515310499 0)
(0.000526820047163 0.288930572209 0)
(0.000846626658206 0.286699040805 0)
(0.00116892979616 0.283817435907 0)
(0.00149217033513 0.280285591126 0)
(0.00181487380465 0.276105395264 0)
(0.00213529182216 0.271282872141 0)
(0.00245126329298 0.265826821103 0)
(0.00276096846947 0.259751000419 0)
(0.00306164994693 0.253072533231 0)
(0.00335154460122 0.245813998721 0)
(0.0036274260245 0.238001786457 0)
(0.00388765216548 0.229667944284 0)
(0.00412860310981 0.220848766337 0)
(0.00434866842702 0.211586337737 0)
(0.00454379874697 0.201927680255 0)
(0.00471219414464 0.191925998864 0)
(0.00484933425486 0.181640482357 0)
(0.00495316907048 0.171137059568 0)
(0.0050190738382 0.160488395104 0)
(0.00504536357181 0.149773525632 0)
(0.00502846752345 0.139077053592 0)
(0.00496844539047 0.128486988543 0)
(0.0048643212475 0.118092524203 0)
(0.00471920004151 0.1079803435 0)
(0.00453564111555 0.098231486557 0)
(0.00432008722501 0.0889172547036 0)
(0.00407809386359 0.080096654339 0)
(0.00381781479749 0.0718139146057 0)
(0.0035448837142 0.064099125219 0)
(0.00326582747654 0.0569694710668 0)
(0.00298471323063 0.0504319116906 0)
(0.00270714659285 0.0444832749758 0)
(0.00243698647135 0.0391111761751 0)
(0.00217897498508 0.0342939467098 0)
(0.0019356439871 0.0300028365854 0)
(0.00170980388629 0.026203286746 0)
(0.00150227807962 0.0228574204891 0)
(0.00131422943057 0.0199250864364 0)
(0.00114523636436 0.017365727418 0)
(0.000995154621939 0.0151391846283 0)
(0.000862481675401 0.0132073843435 0)
(0.000746111219388 0.0115348527899 0)
(0.000644111440542 0.0100896151734 0)
(0.000555149753788 0.00884293062593 0)
(0.000477320842984 0.00776963311713 0)
(0.00040912668098 0.0068478665961 0)
(0.000348203976853 0.006059482582 0)
(0.000289978027834 0.00539818349862 0)
(0.000224753625215 0.00477415685905 0)
(0.000201903544588 0.00440917089862 0)
(0.000193967389459 0.00398307477946 0)
(0.000170536487157 0.00361698216016 0)
(0.000170601939566 0.00330311385396 0)
(0.00018233840447 0.00294756051412 0)
(0.00018147007294 0.00259272623221 0)
(0.000182841564257 0.00221822564031 0)
(0.000205107701942 0.00181574867162 0)
(0.000231316270046 0.00137883524231 0)
(0.00026089962649 0.000853111674209 0)
(0.000280485361454 0.000273883430619 0)
(-0.0207572751608 0.00686911585757 0)
(-0.0219141256118 0.0220149782377 0)
(-0.0218400851329 0.0370731365724 -2.44701565696e-27)
(-0.0216538333764 0.0521340708423 0)
(-0.0214001461449 0.0670275340685 0)
(-0.0210844783795 0.0817239015732 0)
(-0.0207100999037 0.0961829072796 0)
(-0.0202809346329 0.110366094325 0)
(-0.0198001877092 0.124237217698 0)
(-0.0192721920219 0.137762428624 0)
(-0.0187003558333 0.150910604861 0)
(-0.0180892971977 0.16365326836 0)
(-0.0174423733143 0.175964778029 0)
(-0.0167641829678 0.187822122583 0)
(-0.016057720429 0.199204995884 0)
(-0.0153272613923 0.210095484437 0)
(-0.0145751608068 0.220478040964 0)
(-0.013805124596 0.230339091314 0)
(-0.0130186730276 0.239666930779 0)
(-0.0122187887113 0.24845128747 0)
(-0.0114060696617 0.256683174623 0)
(-0.0105827321405 0.264354456237 0)
(-0.0097484858161 0.271457690102 0)
(-0.00890484917888 0.277985743767 0)
(-0.00805078816221 0.283931658062 0)
(-0.00718728186622 0.289288357075 0)
(-0.00631278707179 0.294048548549 0)
(-0.00542796576174 0.29820456361 0)
(-0.00453106527896 0.301748299279 0)
(-0.00362269477801 0.304671222628 0)
(-0.00270124862851 0.306964330225 0)
(-0.00176755482603 0.308618405262 0)
(-0.000820532071021 0.309624000896 0)
(0.000138437254551 0.309971837346 0)
(0.00110947873151 0.309652854877 0)
(0.00209039183381 0.308658870485 0)
(0.00307996533125 0.306982606142 0)
(0.00407497013237 0.304618578832 0)
(0.00507256819258 0.301563074922 0)
(0.00606843728882 0.297815222058 0)
(0.00705800157417 0.293376853971 0)
(0.00803597558546 0.288253676933 0)
(0.00899616652506 0.282454971111 0)
(0.00993264685744 0.275994732521 0)
(0.0108379341733 0.268891191221 0)
(0.0117058584847 0.261167816083 0)
(0.0125280293632 0.252852713742 0)
(0.0132982698848 0.243979451897 0)
(0.0140074276209 0.23458652577 0)
(0.014649088596 0.224718085484 0)
(0.0152130219893 0.214423752041 0)
(0.0156918882542 0.203759406244 0)
(0.0160739584677 0.192787500308 0)
(0.0163507458384 0.181577788311 0)
(0.0165099337995 0.170207664269 0)
(0.0165439100216 0.158762006177 0)
(0.0164434446895 0.147332327777 0)
(0.0162064633414 0.136014649183 0)
(0.0158319420257 0.124906725784 0)
(0.0153277068827 0.114104160081 0)
(0.0147040872627 0.103696364116 0)
(0.0139800111609 0.0937620523468 0)
(0.0131756795193 0.0843655431941 0)
(0.0123160098922 0.0755537584012 0)
(0.0114208328153 0.0673568376601 0)
(0.0105087727748 0.0597913021162 0)
(0.00959356799988 0.0528635349393 0)
(0.00869136184725 0.0465699483873 0)
(0.00781579821752 0.0408965267552 0)
(0.00698079534103 0.0358189207975 0)
(0.00619542025248 0.0313046374621 0)
(0.00546732045777 0.0273152469635 0)
(0.00479978751217 0.0238088643038 0)
(0.0041954252793 0.0207416056285 0)
(0.00365354235473 0.0180690918002 0)
(0.00317274767296 0.0157476007258 0)
(0.00274866155172 0.0137357532254 0)
(0.00237684674619 0.011995487774 0)
(0.0020515231013 0.0104926729994 0)
(0.00176785853857 0.00919686919686 0)
(0.0015203480177 0.00808122458964 0)
(0.00130428520145 0.00712200673714 0)
(0.00111405584106 0.00629782030104 0)
(0.00094346408541 0.00559085970633 0)
(0.000779266020259 0.00494122776325 0)
(0.000670958601827 0.00434203598429 0)
(0.00059187122522 0.00390274803133 0)
(0.000517414286687 0.00354005422419 0)
(0.000504767078305 0.00317489365936 0)
(0.000531886348325 0.00287837801898 0)
(0.000543712505256 0.00256834256264 0)
(0.000566368017955 0.00217682812893 0)
(0.000614977323519 0.00176503313205 0)
(0.000749837862363 0.00139290224641 0)
(0.000911544691582 0.000888655084671 0)
(0.000824642512764 0.000243701823721 0)
(-0.0350777445365 0.0069244427026 0)
(-0.0370541655607 0.0221977354376 0)
(-0.036902636859 0.0373480875995 -2.45037616295e-27)
(-0.0365820776073 0.0525185533117 0)
(-0.0361544843498 0.0675194393842 0)
(-0.0356251235017 0.0823197658786 0)
(-0.0349985836849 0.0968782535134 0)
(-0.0342804369185 0.111155954671 0)
(-0.0334764406114 0.125116200186 0)
(-0.0325931352931 0.138724874008 0)
(-0.031636890031 0.151950632847 0)
(-0.0306146571676 0.164764944062 0)
(-0.0295328605792 0.177142166613 0)
(-0.0283983048698 0.189059454899 0)
(-0.0272169215326 0.20049671439 0)
(-0.0259948473124 0.211436390416 0)
(-0.0247370468303 0.221863318283 0)
(-0.023448572282 0.23176442249 0)
(-0.0221330814979 0.241128488929 0)
(-0.0207942849358 0.249945810604 0)
(-0.0194343763123 0.258207921786 0)
(-0.0180556620029 0.265907236605 0)
(-0.0166589175311 0.273036787026 0)
(-0.0152451786876 0.279589900424 0)
(-0.0138140343412 0.285559980234 0)
(-0.0123655444072 0.290940261447 0)
(-0.0108984850781 0.295723657174 0)
(-0.00941234812445 0.299902618352 0)
(-0.00790556894824 0.303469060857 0)
(-0.00637755378339 0.306414346287 0)
(-0.00482695600857 0.308729309092 0)
(-0.00325364407375 0.310404371262 0)
(-0.00165707446653 0.311429645658 0)
(-3.81680688525e-05 0.311795240068 0)
(0.00160215700812 0.311491461605 0)
(0.00326135309855 0.31050927987 0)
(0.00493645526494 0.308840620197 0)
(0.00662282816662 0.306478986856 0)
(0.00831504270116 0.303419803026 0)
(0.0100061557389 0.299661141849 0)
(0.0116881634554 0.295204046066 0)
(0.0133519494198 0.290053281441 0)
(0.0149872198892 0.284217550475 0)
(0.0165831968703 0.277710158393 0)
(0.0181279337834 0.270549045861 0)
(0.019609721062 0.262757266028 0)
(0.021015672352 0.254362833507 0)
(0.0223336745936 0.245399002091 0)
(0.0235501487882 0.23590407151 0)
(0.0246522988213 0.225921638863 0)
(0.0256251075839 0.215500705875 0)
(0.026453824654 0.204696263157 0)
(0.0271207424819 0.19357001594 0)
(0.0276084516397 0.1821913911 0)
(0.0278975298375 0.170638442811 0)
(0.0279713376796 0.158998218076 0)
(0.0278151914044 0.147366138952 0)
(0.0274220240425 0.135843928775 0)
(0.0267914673188 0.124536269551 0)
(0.0259341327226 0.113546635957 0)
(0.024870032158 0.102972251598 0)
(0.0236302910852 0.0928987591737 0)
(0.0222538784091 0.0833948391346 0)
(0.0207846815733 0.0745070928437 0)
(0.0192596228073 0.0662611512575 0)
(0.0177071183863 0.0586691376036 0)
(0.0161500865945 0.0517359351543 0)
(0.0146144845561 0.0454580746728 0)
(0.0131261196043 0.0398201714224 0)
(0.0117083589376 0.0347946298643 0)
(0.0103779773834 0.0303446300945 0)
(0.00914644958808 0.0264276794548 0)
(0.00801981280583 0.0229984885797 0)
(0.00700127355716 0.0200104154716 0)
(0.00609049494681 0.0174163704692 0)
(0.00528417199832 0.0151699972883 0)
(0.0045749760036 0.0132277976713 0)
(0.00395402391095 0.0115506897944 0)
(0.00341170892129 0.0101043161963 0)
(0.00293925071727 0.00885842873912 0)
(0.00252801378476 0.00778642291486 0)
(0.00217021193238 0.00686496775373 0)
(0.00185868315873 0.00607326587414 0)
(0.0015878932031 0.00539597947017 0)
(0.00135891685406 0.00477229023205 0)
(0.00118047023942 0.00421534254449 0)
(0.00104741879694 0.00386003680798 0)
(0.000905802201629 0.00336579260602 0)
(0.000817628753708 0.00294272439415 0)
(0.000834403814276 0.00267661490458 0)
(0.000932441394289 0.00245683867347 0)
(0.0009428179628 0.0019545445308 0)
(0.00105699193518 0.0016000718287 0)
(0.00121877942517 0.00115958130145 0)
(0.00136105288907 0.000693827675447 0)
(0.00132178279393 0.000213897233835 0)
(-0.0495955750994 0.00698188105114 0)
(-0.0524135661065 0.0224015216703 0)
(-0.0521968588964 0.0376757816571 2.45005137742e-27)
(-0.0517391982138 0.0529753999061 0)
(-0.0511295197248 0.0681017875948 0)
(-0.050375554842 0.083022770468 0)
(-0.0494839303332 0.0976958889899 0)
(-0.0484623740202 0.112081394648 0)
(-0.047319319001 0.126142008029 0)
(-0.0460639309356 0.139843208586 0)
(-0.0447056182443 0.153153406015 0)
(-0.0432541204215 0.166044015993 0)
(-0.041718972806 0.178489497917 0)
(-0.040109655883 0.190467290714 0)
(-0.038435027335 0.201957718133 0)
(-0.0367035494849 0.212943800464 0)
(-0.0349227093133 0.223411045623 0)
(-0.0330993444301 0.233347161121 0)
(-0.0312390733076 0.242741761771 0)
(-0.0293467358702 0.251586020861 0)
(-0.0274258506026 0.259872338648 0)
(-0.0254791748655 0.267593982455 0)
(-0.0235081938655 0.274744766641 0)
(-0.0215137874705 0.281318732551 0)
(-0.0194957431661 0.287309884001 0)
(-0.0174535030217 0.292711945198 0)
(-0.0153856905084 0.297518178813 0)
(-0.013290907601 0.301721243357 0)
(-0.0111672758911 0.305313107196 0)
(-0.0090132604128 0.308285010828 0)
(-0.00682725388606 0.310627509806 0)
(-0.00460837419061 0.31233054467 0)
(-0.0023561082732 0.313383577189 0)
(-7.11103909404e-05 0.313775852634 0)
(0.0022451143457 0.313496669616 0)
(0.00458950800562 0.312535783648 0)
(0.00695770822187 0.3108838173 0)
(0.00934352557311 0.308532813483 0)
(0.0117391381528 0.305476745264 0)
(0.0141348434634 0.301712163651 0)
(0.0165192068208 0.29723873309 0)
(0.018879164234 0.292059879366 0)
(0.0212001129856 0.286183237857 0)
(0.0234663831141 0.279621175527 0)
(0.0256612093308 0.272391023096 0)
(0.027767483032 0.264515350056 0)
(0.0297674601311 0.256021909164 0)
(0.0316435583016 0.24694363396 0)
(0.0333775517329 0.237318404908 0)
(0.0349510896953 0.227189011728 0)
(0.0363441900709 0.216603209424 0)
(0.0375354601919 0.205614286884 0)
(0.0385004237639 0.194282147731 0)
(0.0392124948127 0.182674953111 0)
(0.0396429549322 0.170871002026 0)
(0.0397644604674 0.15896005763 0)
(0.0395539005829 0.147043364535 0)
(0.0389976722385 0.135231424182 0)
(0.0380942212628 0.123639839973 0)
(0.0368565084775 0.112384760039 0)
(0.0353144389568 0.101576266231 0)
(0.033513224494 0.0913121671063 0)
(0.0315156190316 0.0816696577538 0)
(0.0293930694385 0.0726937003459 0)
(0.0272023923597 0.0643990214132 0)
(0.024978111091 0.056788167595 0)
(0.0227470193424 0.0498650709578 0)
(0.0205461198016 0.0436290236162 0)
(0.0184164292441 0.0380633959975 0)
(0.0163934004611 0.0331347663719 0)
(0.0145015526832 0.028798695741 0)
(0.0127554557616 0.0250059518645 0)
(0.011162439015 0.0217063100836 0)
(0.00972607973672 0.0188494367009 0)
(0.00844643864629 0.0163843648879 0)
(0.00731841903923 0.0142603053818 0)
(0.00633021448353 0.0124302290981 0)
(0.00546711843745 0.0108537292614 0)
(0.00471468587736 0.00949671674607 0)
(0.00406015089212 0.00832966912859 0)
(0.00349147672801 0.00732668156488 0)
(0.00299749881418 0.00646545276829 0)
(0.00256855245707 0.00572676416144 0)
(0.00219758551915 0.00509970312526 0)
(0.00188442140098 0.00449606203336 0)
(0.00166671922804 0.00404747065291 0)
(0.00147949113805 0.00362158183773 0)
(0.0013064567488 0.00313631712666 0)
(0.00122483961505 0.00279969908905 0)
(0.00116329409596 0.0023757319602 0)
(0.00121664187796 0.00202116121461 0)
(0.00139689008295 0.00176970343743 0)
(0.00144297963698 0.00127574643536 0)
(0.0016054359144 0.000882127713028 0)
(0.00177171183732 0.00053191564217 0)
(0.00175669294661 0.00017375633083 0)
(-0.0642603024441 0.00705605441199 0)
(-0.0679162147549 0.022670803734 0)
(-0.0676328829458 0.0381170059803 0)
(-0.0670348698668 0.0535909960438 0)
(-0.0662382739738 0.0688861212109 0)
(-0.0652535766182 0.083968989171 0)
(-0.0640896889287 0.0987957517798 0)
(-0.0627568151809 0.113325575171 0)
(-0.0612662044182 0.12752034743 0)
(-0.0596299447561 0.141344974023 0)
(-0.057860592593 0.154767534063 0)
(-0.0559709809397 0.167759364133 0)
(-0.0539738381479 0.180295078121 0)
(-0.0518816255869 0.19235250434 0)
(-0.0497061647997 0.203912562784 0)
(-0.0474585272682 0.214959066442 0)
(-0.0451486962364 0.225478472535 0)
(-0.0427855364435 0.235459571916 0)
(-0.0403765196085 0.244893146241 0)
(-0.0379278001125 0.25377158714 0)
(-0.0354440261441 0.262088510209 0)
(-0.0329285326624 0.269838362046 0)
(-0.030383240392 0.277016051309 0)
(-0.0278089531176 0.283616602592 0)
(-0.0252053245405 0.289634856558 0)
(-0.0225712283678 0.295065211848 0)
(-0.0199047651946 0.299901421207 0)
(-0.0172036749756 0.30413643714 0)
(-0.0144653699821 0.307762312262 0)
(-0.0116873765705 0.310770143252 0)
(-0.00886741335609 0.313150114211 0)
(-0.00600382487618 0.314891536071 0)
(-0.00309571585312 0.315982987956 0)
(-0.000143430022676 0.316412563438 0)
(0.00285131654588 0.316168165978 0)
(0.00588499145405 0.315237907791 0)
(0.00895211667942 0.313610582773 0)
(0.0120449378443 0.311276235675 0)
(0.0151533631028 0.308226776848 0)
(0.0182648373989 0.304456666873 0)
(0.0213644088991 0.29996358748 0)
(0.0244348853452 0.294749136884 0)
(0.0274570560165 0.288819412423 0)
(0.0304101449404 0.282185557642 0)
(0.0332721446191 0.274864075873 0)
(0.0360204552277 0.266877042999 0)
(0.0386321434805 0.25825200198 0)
(0.0410844538494 0.249021727305 0)
(0.0433545698343 0.239223753284 0)
(0.0454194424297 0.228899923968 0)
(0.0472545286874 0.218096202604 0)
(0.0488326869283 0.206863088794 0)
(0.0501223221664 0.195257097023 0)
(0.0510869749087 0.183343413632 0)
(0.051685773799 0.171199335903 0)
(0.0518774089409 0.158917519004 0)
(0.0516258329071 0.146607127193 0)
(0.0509079633625 0.13439144386 0)
(0.0497188109482 0.122401719727 0)
(0.048071503647 0.110772894092 0)
(0.0460067935599 0.0996344485734 0)
(0.0435832561629 0.0891048798004 0)
(0.0408972901534 0.0792791106201 0)
(0.0380666591137 0.0701978161431 0)
(0.0351744736184 0.0618497115358 0)
(0.032249055004 0.0542168953441 0)
(0.029307741576 0.047306721868 0)
(0.0264024621816 0.0411299391943 0)
(0.0235975134031 0.0356696113866 0)
(0.0209451631741 0.0308816461628 0)
(0.0184773972191 0.0267083407218 0)
(0.0162093153927 0.0230900107708 0)
(0.0141467427924 0.0199703717053 0)
(0.0122930556678 0.0172955105075 0)
(0.0106500395713 0.0150096621894 0)
(0.00921168919595 0.0130546024388 0)
(0.00795887880229 0.0113772213453 0)
(0.00686803876734 0.00993579556672 0)
(0.00591854474675 0.00869790543326 0)
(0.00509406233801 0.0076357090774 0)
(0.00437915546329 0.00672420197082 0)
(0.00375863132179 0.00594242094848 0)
(0.00321957309347 0.00527357928923 0)
(0.00275321528249 0.00470865719851 0)
(0.00234424300111 0.00413136207469 0)
(0.00214617911048 0.00380918394202 0)
(0.00196574168323 0.00339021382864 0)
(0.00176750877433 0.00292914298945 0)
(0.00157411946368 0.00241263444602 0)
(0.0015437407354 0.00206635102865 0)
(0.00153583730866 0.00164888213679 0)
(0.00171698951492 0.00139129291489 0)
(0.00192158228651 0.00107805911724 0)
(0.00195229555784 0.000677046651967 0)
(0.00203476597474 0.000390144097678 0)
(0.00201511362966 0.00012892076889 0)
(-0.0791219041864 0.0071485619017 0)
(-0.0836226327928 0.0230109736313 0)
(-0.083269390755 0.0386771561901 0)
(-0.082525668783 0.0543731196443 0)
(-0.0815350062508 0.0698825159382 0)
(-0.0803108117768 0.0851705773432 0)
(-0.0788645184523 0.100191790155 0)
(-0.0772091134695 0.114903966782 0)
(-0.0753589162633 0.129267939932 0)
(-0.0733292548692 0.143247879564 0)
(-0.0711360822389 0.15681144752 0)
(-0.0687956429607 0.169929884098 0)
(-0.0663240871243 0.182578016647 0)
(-0.0637371567216 0.194734187328 0)
(-0.0610498235025 0.206380106404 0)
(-0.0582760237182 0.217500629551 0)
(-0.055428352768 0.228083468928 0)
(-0.052517885287 0.238118841608 0)
(-0.0495539660912 0.247599071203 0)
(-0.0465441532448 0.25651815342 0)
(-0.0434941367008 0.264871307112 0)
(-0.0404078231613 0.272654526541 0)
(-0.0372873850217 0.279864156863 0)
(-0.0341334698696 0.28649650625 0)
(-0.030945346751 0.292547508455 0)
(-0.0277211951382 0.298012440759 0)
(-0.0244583023656 0.302885699572 0)
(-0.0211533911525 0.307160631796 0)
(-0.0178028445364 0.310829419697 0)
(-0.0144030635191 0.313883004672 0)
(-0.0109507433857 0.316311123561 0)
(-0.00744323445533 0.318102313316 0)
(-0.00387889041217 0.319244044233 0)
(-0.000257505778959 0.319722954409 0)
(0.00341934059511 0.319525154357 0)
(0.00714785121996 0.3186366381 0)
(0.0109216908464 0.317043806752 0)
(0.0147316524546 0.314734089902 0)
(0.0185654611008 0.311696660473 0)
(0.0224076566932 0.307923209951 0)
(0.0262396214218 0.303408766045 0)
(0.0300397814579 0.29815249603 0)
(0.0337839269348 0.292158451954 0)
(0.0374457665184 0.285436204346 0)
(0.0409975235719 0.278001260505 0)
(0.0444107358498 0.269875264674 0)
(0.0476569374142 0.261085814695 0)
(0.0507082953282 0.251665961976 0)
(0.0535377691351 0.241653294946 0)
(0.0561186491463 0.231088878533 0)
(0.0584230921254 0.220016376641 0)
(0.0604196594868 0.20848202697 0)
(0.0620702144487 0.196536414653 0)
(0.0633274305825 0.184238421586 0)
(0.0641347916113 0.171661491218 0)
(0.0644311600379 0.158900204363 0)
(0.0641606633665 0.146074027934 0)
(0.0632858083222 0.13332451964 0)
(0.0617965824882 0.1208034934 0)
(0.0597002492717 0.108672838511 0)
(0.0570521907714 0.0970880896238 0)
(0.0539122145298 0.0862026984384 0)
(0.050428843866 0.0761530519402 0)
(0.0468108556484 0.0669708426739 0)
(0.0431832225494 0.058581371079 0)
(0.0395314098578 0.0509214070323 0)
(0.035829845326 0.0440184699926 0)
(0.032159781699 0.0379187990182 0)
(0.0286291429241 0.0326061032807 0)
(0.0253152549908 0.0280146556408 0)
(0.0222553561914 0.0240628529941 0)
(0.0194584664289 0.0206753027641 0)
(0.0169229684151 0.0177900547699 0)
(0.0146511136469 0.0153527343712 0)
(0.0126511999929 0.0133029946441 0)
(0.0109201357757 0.0115691385634 0)
(0.00942511764801 0.0100865741676 0)
(0.00812696412844 0.0088133942305 0)
(0.00699721551693 0.00772274243737 0)
(0.00601826291503 0.00679028375406 0)
(0.00517206299784 0.00599125501649 0)
(0.00443782872088 0.00530586341154 0)
(0.00379908476023 0.00472098195297 0)
(0.00324547457162 0.00421344245677 0)
(0.00278835214954 0.003715348291 0)
(0.00255849618015 0.00338085983272 0)
(0.00231684626589 0.0029171400848 0)
(0.00217462331786 0.00256032049954 0)
(0.00207083003528 0.00218296038492 0)
(0.00202587168565 0.00181526695561 0)
(0.00187682810994 0.00133317726039 0)
(0.00194481904366 0.00100767212689 0)
(0.00219999586415 0.000809703469762 0)
(0.00226472241909 0.000541690340735 0)
(0.00226769881654 0.000299891499658 0)
(0.00224925068765 9.8937571292e-05 0)
(-0.0942264995581 0.00726094940791 0)
(-0.0995829782558 0.0234262015399 0)
(-0.0991552588223 0.0393616786536 2.46792631123e-27)
(-0.098258661928 0.0553290772531 0)
(-0.0970646390434 0.0711001120949 0)
(-0.095589717232 0.0866383151012 0)
(-0.0938481206239 0.101896156768 0)
(-0.0918559501972 0.116829792157 0)
(-0.0896309320898 0.131398763334 0)
(-0.087192001174 0.145566339264 0)
(-0.0845588543191 0.159299678522 0)
(-0.0817515150001 0.17256991594 0)
(-0.0787898857441 0.185352163157 0)
(-0.0756933300203 0.197625422123 0)
(-0.0724802545457 0.209372414263 0)
(-0.0691677415692 0.220579325183 0)
(-0.0657712007822 0.231235470623 0)
(-0.0623040996019 0.241332889595 0)
(-0.0587777383473 0.250865878484 0)
(-0.0552011327689 0.25983048248 0)
(-0.0515809592926 0.268223967644 0)
(-0.047921619582 0.276044297564 0)
(-0.0442253610253 0.283289639665 0)
(-0.0404924995535 0.289957921709 0)
(-0.0367216650152 0.296046452393 0)
(-0.0329101135184 0.301551612064 0)
(-0.0290540254535 0.306468610267 0)
(-0.0251488472814 0.310791303903 0)
(-0.0211896081102 0.314512067696 0)
(-0.0171712871532 0.317621694317 0)
(-0.0130891883152 0.320109417426 0)
(-0.00893932236539 0.321962869479 0)
(-0.00471888267399 0.32316819614 0)
(-0.000426740827997 0.323710269514 0)
(0.00393606696995 0.323572990744 0)
(0.00836581467272 0.322739716241 0)
(0.0128556240925 0.321193831015 0)
(0.017395034875 0.318919440773 0)
(0.0219697037115 0.31590220344 0)
(0.0265612236317 0.312130237328 0)
(0.0311471299245 0.307595110975 0)
(0.0357011181154 0.302292830997 0)
(0.0401934671015 0.296224777636 0)
(0.0445917347546 0.289398528037 0)
(0.0488616304621 0.28182841505 0)
(0.0529681378822 0.273535825836 0)
(0.0568766747092 0.264548933559 0)
(0.0605542304597 0.254901939553 0)
(0.0639700047551 0.24463350335 0)
(0.0670951401269 0.23378466876 0)
(0.0699008044145 0.222396672853 0)
(0.0723542236475 0.21050972366 0)
(0.0744127837983 0.1981644476 0)
(0.0760181154215 0.185407647578 0)
(0.0770933104566 0.172302801672 0)
(0.0775478948858 0.158943197983 0)
(0.0772944833883 0.145461635798 0)
(0.0762732161611 0.132027257511 0)
(0.0744730545807 0.118816072715 0)
(0.0718775681541 0.106028410922 0)
(0.06857672934 0.0938463150266 0)
(0.0645747010356 0.0824814014068 0)
(0.0601071428281 0.0721775590288 0)
(0.0555865523778 0.0629519535498 0)
(0.0512212743876 0.0545700333985 0)
(0.0468469754731 0.0468633454477 0)
(0.0423119561239 0.0399349811535 0)
(0.0377792959759 0.0339291607452 0)
(0.0334487540602 0.0288250225583 0)
(0.0294348661957 0.0245078031437 0)
(0.0257711140853 0.0208515033872 0)
(0.0224449832019 0.0177575841848 0)
(0.0194345671699 0.0151629874755 0)
(0.016739453289 0.0130237101721 0)
(0.0143879833145 0.0112786457288 0)
(0.0123932793564 0.00982847831497 0)
(0.0106927588176 0.00858401315374 0)
(0.00921583888595 0.00750786659003 0)
(0.00792510376136 0.00658918576027 0)
(0.00680987706442 0.0058105431225 0)
(0.00585237117815 0.00514375580245 0)
(0.00502109128339 0.00456937600247 0)
(0.00429691082845 0.00407929074619 0)
(0.00366584027656 0.00363507088901 0)
(0.00321582421881 0.00324409289138 0)
(0.00295969685485 0.0028993378878 0)
(0.00272949957574 0.00251424920244 0)
(0.00252387168856 0.00211684244896 0)
(0.00244447555831 0.00178461400102 0)
(0.00232983140273 0.00140088644194 0)
(0.00233139982514 0.00110735341828 0)
(0.00222342692625 0.000747060066806 0)
(0.00231136449224 0.000542079756286 0)
(0.00246966088789 0.000399052618558 0)
(0.00244415688459 0.000220480651829 0)
(0.00242454550283 7.26255798606e-05 0)
(-0.109623586989 0.00739446722917 0)
(-0.115849725338 0.023920990854 0)
(-0.115341904426 0.0401773593034 -2.46754665607e-27)
(-0.114283458494 0.0564680839735 0)
(-0.112874457389 0.0725503567481 0)
(-0.111134830163 0.0883856306903 0)
(-0.109081932316 0.103923930369 0)
(-0.106735373867 0.11911941727 0)
(-0.104116706631 0.133930083571 0)
(-0.101248912282 0.14831812431 0)
(-0.0981558693395 0.162250107304 0)
(-0.0948618211545 0.17569706102 0)
(-0.0913908444718 0.188634466448 0)
(-0.08776633456 0.201042155469 0)
(-0.0840105049498 0.212904114075 0)
(-0.080143923439 0.224208190289 0)
(-0.0761850883218 0.234945707307 0)
(-0.072150075583 0.245110988659 0)
(-0.0680522649892 0.254700807499 0)
(-0.0639021769243 0.263713781968 0)
(-0.0597074193 0.272149744067 0)
(-0.0554727622903 0.280009116549 0)
(-0.0512003178423 0.287292330015 0)
(-0.0468898193339 0.293999310062 0)
(-0.0425389575746 0.300129050257 0)
(-0.0381437592853 0.305679277394 0)
(-0.0336989664963 0.310646197627 0)
(-0.0291984214458 0.31502430929 0)
(-0.024635440548 0.318806262363 0)
(-0.0200032103212 0.321982732928 0)
(-0.0152952246117 0.324542424464 0)
(-0.0105057102973 0.326471961331 0)
(-0.00563021078642 0.327755967173 0)
(-0.000666175987857 0.328377240294 0)
(0.00438640866614 0.328317037465 0)
(0.00952435769817 0.327555511429 0)
(0.0147406610707 0.326072329755 0)
(0.0200239108782 0.32384745769 0)
(0.0253578611496 0.320862122308 0)
(0.0307211521128 0.317099894405 0)
(0.036087256173 0.312547904816 0)
(0.0414247055342 0.307198064949 0)
(0.0466975876064 0.301048289628 0)
(0.0518664237443 0.294103580242 0)
(0.0568893182744 0.286376870279 0)
(0.0617235512057 0.277889512861 0)
(0.0663273773745 0.268671112662 0)
(0.0706620212433 0.258758504686 0)
(0.0746933285756 0.248193433083 0)
(0.0783922371115 0.237018934919 0)
(0.0817328427805 0.225274762426 0)
(0.0846865309962 0.212993375877 0)
(0.0872116574557 0.200199766403 0)
(0.0892408365694 0.186918517219 0)
(0.0906711482413 0.173190954382 0)
(0.0913673987798 0.159101162095 0)
(0.0911877495493 0.144799203651 0)
(0.0900366602256 0.130502987428 0)
(0.0879289515902 0.116407767593 0)
(0.0847668390594 0.10277642124 0)
(0.0807696457195 0.0897851495388 0)
(0.0756706114481 0.0777330031237 0)
(0.0698647835688 0.0671646675317 0)
(0.0642626358414 0.0580846200987 0)
(0.0592819132864 0.0498414928187 0)
(0.0542852215794 0.042012007845 0)
(0.0487870795345 0.0349508993087 0)
(0.0432162147679 0.0290558051107 0)
(0.0379736172996 0.0242619049115 0)
(0.0332206192827 0.0203372370463 0)
(0.0289581867447 0.0170731741822 0)
(0.0251188574735 0.0143389395546 0)
(0.0216326542094 0.0120846753985 0)
(0.0184919922491 0.0103062399561 0)
(0.0157808093912 0.00895682763914 0)
(0.0135726018058 0.00787387376856 0)
(0.011731145906 0.00690908941393 0)
(0.0101141688168 0.00604570806666 0)
(0.00867835804035 0.00531676089554 0)
(0.00744513645996 0.00471753575249 0)
(0.00640498892551 0.00420245255526 0)
(0.00549729743079 0.00375025936972 0)
(0.00470705581913 0.00336129138114 0)
(0.00401476853338 0.00298575234215 0)
(0.00359930039231 0.00269046596667 0)
(0.00330863701353 0.00235767930216 0)
(0.00311870119983 0.00205361031467 0)
(0.0029258719735 0.0017060671423 0)
(0.00277701320804 0.00137331787278 0)
(0.00262094397512 0.00103822802382 0)
(0.00254526614002 0.000772235096817 0)
(0.00254771409362 0.000561929490332 0)
(0.00245555758642 0.00035306507072 0)
(0.00261927951787 0.000252967625437 0)
(0.00256918883683 0.000149814810397 0)
(0.00254041056302 4.69374212721e-05 0)
(-0.125365870787 0.00755040325236 0)
(-0.132478213592 0.0245006276559 0)
(-0.131883477364 0.0411325441821 0)
(-0.130652216529 0.0578014955448 0)
(-0.129014034835 0.0742473525916 0)
(-0.126992643267 0.0904290201184 0)
(-0.124608961694 0.106293598545 0)
(-0.121886591925 0.121792872779 0)
(-0.118851423465 0.136883004738 0)
(-0.115531013733 0.151524930834 0)
(-0.111953953685 0.165684540598 0)
(-0.108149235168 0.179332762429 0)
(-0.104145623711 0.192445547745 0)
(-0.0999710435542 0.205003753896 0)
(-0.0956519779975 0.216992922863 0)
(-0.0912128997786 0.228402949711 0)
(-0.0866757469063 0.239227637426 0)
(-0.0820594734371 0.249464140139 0)
(-0.0773797014341 0.259112307458 0)
(-0.0726485071389 0.268173954889 0)
(-0.0678743587582 0.276652097804 0)
(-0.0630622176546 0.284550195316 0)
(-0.058213787723 0.291871451495 0)
(-0.0533278875858 0.298618215264 0)
(-0.048400897111 0.304791502088 0)
(-0.0434272347164 0.310390641249 0)
(-0.0383998212272 0.315413026951 0)
(-0.0333105159787 0.31985394192 0)
(-0.0281505256578 0.323706417161 0)
(-0.0229108191228 0.326961078896 0)
(-0.017582601 0.329606117594 0)
(-0.0121577791975 0.331627089675 0)