/*--------------------------------*- C++ -*----------------------------------*\
| =========                 |                                                 |
| \\      /  F ield         | OpenFOAM: The Open Source CFD Toolbox           |
|  \\    /   O peration     | Version:  v1906                                 |
|   \\  /    A nd           | Web:      www.OpenFOAM.com                      |
|    \\/     M anipulation  |                                                 |
\*---------------------------------------------------------------------------*/
FoamFile
{
    version     2.0;
    format      ascii;
    class       surfaceScalarField;
    location    "31";
    object      phia;
}
// * * * * * * * * * * * * * * * * * * * * * * * * * * * * * * * * * * * * * //

dimensions      [0 3 -1 0 0 0 0];
oriented        oriented;


internalField   nonuniform List<scalar> 
18240
(
0.00319091156488
-0.00322143639753
0.0066855492616
-0.00351279412115
0.0101748643428
-0.00352723435185
0.0136571789609
-0.00349996347454
0.017045145343
-0.00343278520557
0.0203225116214
-0.00329689685842
0.0234735373959
-0.00320266395161
0.0265837598706
-0.00313369689943
0.0296023888021
-0.00307770074344
0.0325913945343
-0.00301829173252
0.0355194524068
-0.00299504554347
0.0383873821113
-0.00290630062866
0.0409780424464
-0.00266527610097
0.043199128619
-0.0022701887929
0.0451822861393
-0.0020640747697
0.0471017589932
-0.00197956411512
0.0489195642402
-0.00190412615655
0.050544460035
-0.00169651413319
0.0518482613176
-0.00139298980951
0.0528757250018
-0.00111254605859
0.0535978894048
-0.000813163333205
0.0540646611759
-0.000565832909595
0.0543659266002
-0.000392775965501
0.0544900055458
-0.000235227480399
0.0544724747515
-7.11037415742e-05
0.054331536631
2.0429076136e-05
0.053941488229
0.00030557159047
0.0532303510704
0.000582806185514
0.052496569782
0.000656504586735
0.0517548657428
0.000607935732112
0.0515059319822
0.000177876001924
0.0511042567682
0.000257935974799
0.0498916073644
0.00114771794297
0.0481556119656
0.00159104233516
0.0465635262627
0.00153794652281
0.0450135536392
0.00140242951297
0.0435466721678
0.00142070520599
0.0419085533398
0.00149027930599
0.0402160768108
0.00165521442562
0.0383440844177
0.00172753515979
0.0366923121852
0.00162621201184
0.0349288352509
0.00162548429653
0.0331034377142
0.00181155728658
0.0311313822214
0.00184655726565
0.0292015518326
0.00192746765493
0.0272066282642
0.00188131263618
0.0253881240686
0.00183436481388
0.0234467901511
0.00183741180935
0.0216746857751
0.00181123990695
0.0198222499252
0.00175764528664
0.018080318815
0.00180099704307
0.0162766519536
0.00172310524012
0.0146725424755
0.00167612776904
0.0129910600289
0.00162473623941
0.0115029244885
0.00156698781452
0.0100230815422
0.00144877708952
0.00869909785307
0.00140149908341
0.00737419834078
0.00131432784693
0.00624837739187
0.00119901710696
0.00521100420777
0.00103929517573
0.0043489174672
0.00093070921977
0.00355787603194
0.00079947206665
0.00292822560192
0.000693552258257
0.00239035388762
0.000544969836522
0.00203383454476
0.000411876222822
0.00172271284806
0.000314894024405
0.00151864707856
0.000250554781739
0.00135709025516
0.000162186806888
0.00131979008103
7.57020996482e-05
0.00133238757767
-1.31742061932e-05
0.00142561438007
-6.13189632232e-05
0.00152144123109
-9.42877224491e-05
0.00164354492124
-9.38207899773e-05
0.00169014943844
-3.92508551104e-05
0.0016793629448
3.78678675534e-05
0.00159710814573
9.52143233675e-05
0.00147553521447
0.000147019569622
0.0013147907367
0.000174093804399
0.00115286323329
0.000182547168463
0.000993564742381
0.000167953316442
0.000873637659681
0.000135175596465
0.000784732016985
9.33142285745e-05
0.000727895520253
6.96671542322e-05
0.000674623526138
5.75439467033e-05
0.000622914563203
6.4467050031e-05
0.000551575843112
7.60420053464e-05
0.000489652807873
7.38933074001e-05
0.000441104880422
5.33040824798e-05
0.000406432974403
4.62996110589e-05
0.000361522644828
5.29742259476e-05
0.000312420659032
6.3869385111e-05
0.000255827165951
7.00186167667e-05
0.000199700321037
7.25915159588e-05
0.00013739793448
8.15950097584e-05
7.2561206681e-05
8.7004071597e-05
8.32469643205e-05
0.0035316593947
-0.00678116859984
0.00751072021159
-0.00751627557777
0.0114438034934
-0.00749221138642
0.0153452611138
-0.00742879249599
0.0191789602804
-0.00730297105441
0.0229865919741
-0.00713601010577
0.0267058080458
-0.00696438488711
0.030303970513
-0.00676933952429
0.033731002382
-0.00655439712411
0.0369745821677
-0.00630665528173
0.0400059341933
-0.00608402575243
0.0428632877863
-0.00581713778922
0.0456004317924
-0.0054684403084
0.0484551811317
-0.00518762769378
0.0511161396015
-0.0048003190412
0.0532700260082
-0.00420668705848
0.0548051619919
-0.00352173983327
0.0560771466737
-0.00305062415589
0.0574549146335
-0.00285987867035
0.0587950417401
-0.00254470644663
0.0600826154939
-0.0021974210515
0.0611138788083
-0.00169988360754
0.0616976813925
-0.00107967309911
0.0618615575216
-0.000509850597974
0.0617617308715
-7.65277744698e-05
0.0613705018049
0.000297081463124
0.0610838134842
0.00048584617555
0.0610338987015
0.00051321772846
0.0608700069198
0.000713943196462
0.0606152913325
0.000740334640604
0.0599317655911
0.000754767546504
0.0590127054043
0.00105299972821
0.0583025344432
0.00175247870054
0.0572005070685
0.00256994822978
0.0557343115364
0.00290178731454
0.0540292541549
0.00298562152408
0.0521278477257
0.00322703535496
0.0500902285079
0.00341027004293
0.0482788620261
0.00338156880763
0.0464997523788
0.00339385083927
0.044473930126
0.00357666719789
0.0421193478618
0.00387196260934
0.0397634538477
0.00410800199718
0.0374534557681
0.00405337861373
0.0354088329093
0.00392794414174
0.0333884463172
0.00380931948781
0.0312206857665
0.00396720137607
0.0288765247516
0.00411473125469
0.0266443689183
0.00401510958168
0.0244366877934
0.0039250898911
0.0222087121098
0.00401103933358
0.0200066910429
0.00390806267198
0.0179446904942
0.00374076389722
0.0158531338709
0.00372071771387
0.0139179448464
0.00352713718678
0.0121509281417
0.00323980818191
0.0106012206433
0.00299074539479
0.0091800624674
0.00277120488856
0.00785389151609
0.00257358295022
0.00658370407028
0.00235185181863
0.00545588050214
0.00211009544347
0.00446710017332
0.00183218667565
0.0036193608721
0.00158880464528
0.00290577531462
0.00129694478997
0.00241554526673
0.000940221141352
0.00207580342054
0.000685341637001
0.00181159607548
0.00054456575145
0.00163443977168
0.00036307526936
0.00158013117686
0.000155556678816
0.00161565575994
-3.01025981323e-05
0.00172344180398
-0.000146765066134
0.00187008857436
-0.000224714165199
0.00203398704963
-0.000234472465964
0.00211157368459
-9.90112270245e-05
0.00209385627541
8.06377317199e-05
0.00199604936992
0.000213613529966
0.00184193597523
0.000326043543604
0.00163431949287
0.000400999555125
0.0014057765816
0.000431239673953
0.00119726129816
0.000389015100059
0.00103587771128
0.000310275665712
0.000924970576235
0.000211684438495
0.000857291342433
0.000148181474959
0.000796448700377
0.000126330278052
0.000723640890623
0.000148077540733
0.000627416219101
0.00018115434329
0.000536263552293
0.000175282357812
0.000460608904396
0.000137607069024
0.00040890740016
0.000107816561942
0.000363345446751
0.000108970446186
0.000310059159022
0.000130415949744
0.000250423118083
0.000144149520945
0.000197444481109
0.000142801233763
0.000144912750485
0.00015382159542
7.83125358506e-05
0.000176028980884
0.000172976852382
0.00357378392345
-0.0103809914646
0.00760902888819
-0.0115784263991
0.0116692086994
-0.0115806727664
0.0156820659843
-0.011470957308
0.0196029829134
-0.0112566353417
0.0234159568207
-0.0109828177432
0.0271510960641
-0.0107380264449
0.0307873386516
-0.0104459188364
0.0342897053335
-0.0101027318694
0.0376845936066
-0.00974977856553
0.0408788439229
-0.00933276709393
0.0437994793332
-0.00879491246341
0.0465026276278
-0.0082344874404
0.0490017146107
-0.00775284056591
0.051444018374
-0.00731455483548
0.053854138071
-0.00669248207517
0.0562010240027
-0.00595004159516
0.0583117078322
-0.00524700111643
0.059915565932
-0.00455436081161
0.0611446028637
-0.0038686339395
0.0620316847979
-0.00318346947633
0.0625907320387
-0.00236228085551
0.0628890547476
-0.00148427598947
0.0629821697959
-0.000712569390526
0.06301219185
-0.000216660710427
0.0634996601637
-0.000304541671286
0.0642272196709
-0.000357069654817
0.0646310208277
-1.03455860437e-05
0.064919925735
0.000307978349504
0.0647128812444
0.000826068618643
0.0640429144748
0.00130608232565
0.0631965544738
0.00177614508444
0.0621841575494
0.00264853062961
0.0613875060086
0.00324385331562
0.0603724572102
0.00380314557808
0.0587173998598
0.0045215913114
0.0566566566861
0.00517944246482
0.054296313979
0.00565834129056
0.0519017186948
0.00567511164027
0.0494162462555
0.00577241012201
0.0469729816889
0.00592565992369
0.0445218891339
0.00622733773702
0.042036049093
0.00650288401997
0.0400438908921
0.00596378481686
0.0380784310062
0.00580840860413
0.0359318928077
0.00588535074731
0.0342210100627
0.00561400918732
0.0327346932169
0.00553926011716
0.0309885179375
0.00571986140845
0.0291104190449
0.00575820677208
0.0274164027306
0.00568523505201
0.0254100673009
0.00589123626544
0.0230186088452
0.00613470386763
0.0203589003886
0.00638826844804
0.0178309763758
0.00608481345213
0.0155637655606
0.0055388406612
0.0135065357937
0.0050972005905
0.0115319748174
0.00479592100597
0.00977664292551
0.00438625338235
0.00822901650085
0.00395938710401
0.00684771229498
0.00354611051967
0.00568387604273
0.00305529005295
0.00464304476632
0.00267571456621
0.00388017906693
0.00211213122054
0.00342930930707
0.00142765217569
0.00311575538307
0.00104181859155
0.00275676462807
0.000927729134895
0.00249155834683
0.000666946256902
0.00242853035688
0.000235568557433
0.0024699900551
-3.71336760912e-05
0.00255501954583
-0.000218101061952
0.00272974777622
-0.000368643527477
0.00290243419365
-0.000390024084294
0.00296103703295
-0.000128777357195
0.00285462265496
0.000208482997921
0.00265968852779
0.000437474842446
0.00241479823077
0.00059571788821
0.00211033580703
0.000729869896814
0.00172493716064
0.000837319452498
0.00137761953121
0.000751697184615
0.00115704243271
0.000543505599063
0.00102899427164
0.000349270539718
0.000980126501142
0.000206766401135
0.000932632012155
0.000183884654919
0.000833853874387
0.000257892242666
0.00069531962826
0.00032993767436
0.000565800347827
0.000316704816097
0.000465141552615
0.00024831006761
0.0003785919481
0.000204666381049
0.000323795342288
0.000174820791981
0.00028467664791
0.000183326408373
0.000230098861507
0.000213804790936
0.000165972024058
0.000222344314193
0.000117885988463
0.00022032002729
7.21962344566e-05
0.000243300271893
0.000255907280775
0.00361798285137
-0.0140235491817
0.0077485105222
-0.0157328372623
0.0118723074969
-0.0157314283291
0.0159231588455
-0.0155497267174
0.0199122345624
-0.0152766811893
0.0238472126865
-0.0149507828444
0.027645444614
-0.014573117005
0.0313459060501
-0.0141865690363
0.0349480833794
-0.0137497499902
0.0383287789262
-0.0131789251452
0.0414868303371
-0.0125441094269
0.0444615087871
-0.0118267426743
0.0473900945504
-0.0112254304127
0.050325679072
-0.0107554384915
0.0530016705683
-0.0100632190416
0.0553351824708
-0.009102813948
0.0574259471788
-0.00812286361695
0.0592362823544
-0.00714349838913
0.060798116141
-0.00620736705042
0.0620591550089
-0.00522516720132
0.0630907395289
-0.00431542280462
0.0640835330379
-0.00345996581696
0.0648114815491
-0.0023207526205
0.0654761717347
-0.00148914091441
0.0664440714065
-0.00129953939471
0.0673429772146
-0.00132225729534
0.0679032132849
-0.00103763288925
0.0681325958843
-0.000362335043942
0.0680563029125
0.000262532007131
0.0679415973056
0.000816937787187
0.0674322973639
0.00169175272109
0.066332405273
0.00275163172807
0.065015575898
0.00384320513082
0.0634428224847
0.0046949191265
0.061787898551
0.0053388979587
0.0600311410998
0.00616033446411
0.0584702912408
0.00662550280467
0.0566585036565
0.00735520576238
0.0543973376378
0.00782371251357
0.0521085368215
0.00795249934805
0.0499904714477
0.00793652925606
0.0490857098555
0.00702950466193
0.0485584937006
0.00693044013538
0.0472568496345
0.00716458062137
0.045710021347
0.00727145779448
0.043958708435
0.00755360127109
0.0413704310593
0.0081299441071
0.0384322617682
0.00841599744529
0.0355819542539
0.00852104746319
0.032628971639
0.00866941216634
0.0297044390744
0.00858582396808
0.0270382905826
0.00853930188712
0.0249381991134
0.00823699765696
0.0227132232576
0.00862585625171
0.0200696376024
0.00875812220527
0.0177253161969
0.00792548128195
0.0156211516141
0.00725449790785
0.0135355535072
0.00693994347125
0.0117329274921
0.00625781768831
0.0102019932902
0.00554381681287
0.00878907159237
0.00502884904946
0.00766353366986
0.00422576326709
0.00653416273837
0.00386023899717
0.00576288886887
0.00291916232719
0.0055997501253
0.00163548905465
0.00552648505274
0.0011371647191
0.00511087689305
0.00138525695454
0.00472784098081
0.00105892908051
0.00476186631099
0.000242917916363
0.00487982003772
-0.000148607088368
0.00499572224333
-0.00029653933468
0.00503739829685
-0.000397412162253
0.00525582798771
-0.000576349793189
0.00532818264516
-0.000177193253334
0.00486567503254
0.000700685330226
0.00432091495307
0.00101487894266
0.00381935416483
0.00112210384342
0.00324294693799
0.00134007801248
0.00260429498647
0.00149184788714
0.00202986085337
0.00135076955499
0.00164828416882
0.000933018990368
0.00146215754195
0.000550591297472
0.00142772315095
0.000250150925504
0.00134723964759
0.000278023070129
0.00112976979932
0.00048749017841
0.00086170336121
0.000611015452396
0.000618832789362
0.000572990749104
0.000468361277895
0.000410200537498
0.000366299359273
0.000318506079885
0.00027817518072
0.000275256061247
0.000226960138674
0.000247381373817
0.000194159231589
0.000261074174372
0.000148432995684
0.000285131056511
9.6438334255e-05
0.000289752033977
6.42429492871e-05
0.000295189147661
0.000331893842393
0.00367285465405
-0.0177187105414
0.00787313335483
-0.0199572847076
0.012066762458
-0.0199491771283
0.0161953524797
-0.0197048812019
0.0202490447743
-0.0193590002365
0.0242208127316
-0.0189541049444
0.0281644575374
-0.0185518548596
0.0319659926037
-0.0180274675148
0.0355618416691
-0.0173891202999
0.0389895826122
-0.0166545435156
0.042231062938
-0.0158378266328
0.0453904436759
-0.0150430492227
0.0485931830663
-0.0144905443369
0.0515179402303
-0.0137479077797
0.0540607973069
-0.0126785515037
0.0563775817178
-0.0114971705652
0.0584469270011
-0.0102742265361
0.0602602219542
-0.00904379941661
0.0619264946187
-0.00796561774654
0.0635652006715
-0.00696124064107
0.0649406669758
-0.00579352742093
0.0658297708294
-0.0044558942722
0.0666335309316
-0.00323436389126
0.0676968676417
-0.0026670324466
0.0691244826357
-0.00284573299906
0.0701480528276
-0.00246708383669
0.0707314593801
-0.00174422179932
0.0711104950711
-0.000866441793569
0.0708954783709
0.000352220311436
0.0701482696644
0.00143894137807
0.0690337875771
0.00268070206832
0.067936219309
0.0037239311586
0.0672480643474
0.00440598672239
0.0663608767302
0.00545627774402
0.0648025101655
0.00677306178768
0.0628250816161
0.00801435941836
0.0606716036835
0.00865718897976
0.0590108089695
0.00889568329154
0.0576948752023
0.00901901351537
0.0573215806294
0.00820754570967
0.0568613555013
0.00827991006218
0.0557670329535
0.00801137615357
0.0541691565534
0.0084215926028
0.0518250210526
0.00941215891172
0.049030511459
0.00997549208125
0.0464931361787
0.0100064410427
0.0445261493122
0.0100275115646
0.042535040369
0.0103409817087
0.0398148407387
0.0111875041737
0.0366329228807
0.0118135756731
0.0334674508526
0.0117229570275
0.0304217812117
0.0115702155469
0.0277609815718
0.0108990909919
0.0257497746437
0.0106514808613
0.0237516939281
0.0107907354483
0.0217792825224
0.00993775768399
0.0201438372417
0.00894812889937
0.0184850243556
0.00865816693657
0.017330408075
0.00747155223765
0.016806783098
0.00613039247482
0.0161215763065
0.00576228499217
0.015961859065
0.00442364116457
0.0155765383527
0.00428928319313
0.0155970267726
0.00291639677773
0.0165918232386
0.000683353200386
0.0175753144476
0.000171844944476
0.0177675873102
0.00122091776454
0.0178313129638
0.00101946182015
0.0182558701548
-0.000155543304599
0.0183888061778
-0.000254827641041
0.0181060201839
1.68655965865e-05
0.0174568877397
0.000276227847522
0.0168685869342
5.68781261891e-05
0.0158017621789
0.000912999015098
0.0134020064533
0.00315204422975
0.0108637848354
0.0035756994444
0.0088523439052
0.00318427708775
0.00692272123163
0.00328490272931
0.00525747871369
0.00319622063605
0.00388797657768
0.00272728979243
0.00295300060725
0.00189306196382
0.00246385938749
0.00104906316161
0.00237136176452
0.000359598421293
0.00215919367249
0.000509261323303
0.00167003884603
0.000988906336161
0.0011054862218
0.00119603992904
0.000731175674574
0.000959906395513
0.00055594306743
0.000600488351113
0.000409771294997
0.000478704906184
0.000270121639799
0.000429028940258
0.00018317389929
0.000347897069318
0.000143342116051
0.000314900459426
0.000125765680849
0.000317299387543
7.68384270801e-05
0.000357463810466
4.98083732232e-05
0.000341943661633
0.00039170860551
0.0037432788214
-0.0214822077973
0.00803970227423
-0.0242728830856
0.0123243035069
-0.0242562122333
0.0165432029749
-0.0239475050456
0.0206819845823
-0.0235244679216
0.0248137439139
-0.0231153186082
0.0288154363282
-0.0225871319789
0.0325895206077
-0.0218391252802
0.036308638139
-0.0211507449357
0.0398111936069
-0.0202037562014
0.0431254981441
-0.0192037154893
0.0465771450002
-0.0185516261152
0.0498395797818
-0.017815641806
0.0526594073618
-0.0166354225755
0.0552533061446
-0.015345355923
0.0576225283252
-0.0139440325909
0.0597768229964
-0.012511314797
0.0619401342588
-0.0112953150817
0.0638946576149
-0.0100145014423
0.0653395346782
-0.00850547916712
0.0664163219389
-0.00697468448798
0.0672447875983
-0.00539211758547
0.0684771730747
-0.00457860785553
0.0701937933934
-0.00450180799222
0.0714328991401
-0.00420641683867
0.0723432738501
-0.00350081799414
0.0728403474076
-0.00236655907419
0.0726554638142
-0.000807731702433
0.0723013273679
0.000580374350682
0.0717164250143
0.00189712118778
0.071335181533
0.00293408384288
0.0708540971257
0.00407500834921
0.0695920078956
0.00553976471289
0.0680713433243
0.00684861309404
0.066504234412
0.00821269310848
0.0651850516031
0.00920597434421
0.0640079852607
0.00970559762373
0.0635727475661
0.00920204372806
0.0634108432465
0.00905195489675
0.0626466462635
0.00884590371705
0.0615019256994
0.00930585845071
0.0593544632303
0.0100455585117
0.0569224994883
0.0107475764814
0.0553401767791
0.0108921754157
0.0536171496915
0.0116037524885
0.0511388829032
0.0124023158743
0.0481076269644
0.0129796868044
0.0454870028519
0.0128979378661
0.0436700469916
0.0129532572524
0.0417004459082
0.0137413548191
0.0390109844574
0.0143870668496
0.036061477651
0.0145040985269
0.0338147830409
0.0131519482596
0.0325786411878
0.0119030298215
0.0319666718172
0.0114395524141
0.0316976477322
0.0102469973693
0.0325328756266
0.00816491947286
0.034558660203
0.00668127162689
0.0383438395708
0.00374199189713
0.0440503126802
0.000457127654868
0.0497707398525
7.87242149117e-05
0.0559824271825
-0.00175609476767
0.0638536086838
-0.00357528652837
0.0717763096438
-0.00495521346719
0.0782858949705
-0.00581463818235
0.0845809934517
-0.00606831015415
0.0938115424317
-0.00798898219947
0.102240643826
-0.00735076225252
0.105121990338
-0.00300491817074
0.104618070691
0.000310418246332
0.101418116034
0.00324966799798
0.09509877847
0.006666689676
0.0838335302576
0.0113598009857
0.0714811102616
0.0133386262692
0.0614977409197
0.013176584653
0.0500590070783
0.0150910939102
0.0378620075344
0.0154196491428
0.0280773273895
0.0131279765897
0.0212909764173
0.010010477863
0.0163789959975
0.0076780895244
0.0123722993516
0.005926022173
0.00948385339053
0.00396237647193
0.00736806328496
0.00251015186699
0.00529993707656
0.00259122643987
0.00337677701271
0.00294135962636
0.0018342809924
0.00275268769732
0.000971153815511
0.00184315476967
0.000741989772293
0.000848778195749
0.000488119026289
0.00074842277903
0.000309384643767
0.000625561615562
0.000179970505829
0.000493222044029
0.000110834739508
0.000398696169582
9.35510924984e-05
0.000350458377004
7.37742900452e-05
0.000394536917175
3.8444494319e-05
0.000394973074247
0.00044068347517
0.00386475158921
-0.0253639262774
0.0082597106626
-0.0286867871461
0.0126528614486
-0.0286679043846
0.016987813007
-0.0283038691004
0.0212901914111
-0.0278505696952
0.0255473269357
-0.0273999072614
0.0295925683516
-0.0266636305169
0.0334904007056
-0.0257730752405
0.0372885109117
-0.0249895544737
0.0408902730644
-0.0238513782984
0.0445579388704
-0.0229224250204
0.0480902763473
-0.0221411541988
0.0511246402235
-0.0209124728909
0.0539845706983
-0.0195631212446
0.0566699791291
-0.018103789414
0.0591373519293
-0.0164897694725
0.0616061288849
-0.0150641251278
0.0638223410406
-0.0136019441727
0.0655392511715
-0.0118272318338
0.0669399327696
-0.0100076949594
0.0680467712132
-0.00818719099756
0.0692259633062
-0.00668084484767
0.0712971551147
-0.00676606566796
0.0733871833843
-0.00671318044183
0.0744954930587
-0.00543957217477
0.0748126491834
-0.00394339530799
0.0746424218619
-0.0023228822775
0.074285496934
-0.000577535494929
0.0739708225389
0.000766728668769
0.0740206372281
0.00171786161363
0.0737015077552
0.0031216099389
0.0726516198162
0.00499416927344
0.0712676327426
0.0067925238295
0.0698418527421
0.00814292194861
0.0690405554437
0.00888239130373
0.0687162027586
0.00939696351737
0.0687669263972
0.00951859229541
0.0688406184526
0.00899325530321
0.0682909198466
0.00946719897921
0.0663660061618
0.0106480170577
0.0642130951384
0.0113372131735
0.0630942218264
0.0110511287564
0.0618329800222
0.0118960874415
0.0593838220238
0.0132408963914
0.0568225431364
0.0140704228571
0.0554964874063
0.0136424689463
0.053935576334
0.0144653775595
0.051394738853
0.0153755456342
0.0487184148104
0.0155754222406
0.0463441869304
0.0160825751962
0.0455961128152
0.0151016601202
0.0452026861877
0.0148946656256
0.0452491951679
0.0130983571613
0.0469967008469
0.010187030412
0.0511795597441
0.00726964335058
0.0579155513349
0.00355129722906
0.0680198048322
-0.00191416903198
0.0794904473723
-0.00475559721191
0.0938276398837
-0.0105780562474
0.107401644836
-0.0130870570993
0.12749255766
-0.0200026742164
0.152080108466
-0.026322902606
0.176694990612
-0.0281633353222
0.198036552445
-0.0262624825394
0.210040414381
-0.0177586272763
0.216625198932
-0.0126048299544
0.218799912789
-0.010102605256
0.218247934184
-0.0067441903941
0.216511051732
-0.00120457169236
0.212818170412
0.0040572961079
0.207085239096
0.00904574586878
0.199582321037
0.0142266501761
0.191382653327
0.0196323792626
0.181490592574
0.0232983957612
0.169347654083
0.0254015561104
0.156589899503
0.0279262405792
0.143077336953
0.0290148881126
0.128628663512
0.0276477521417
0.113580377078
0.0251235371113
0.0979627307885
0.0233543542513
0.0808248220799
0.0231099158775
0.0603502657912
0.0244978550129
0.0391125599619
0.0237798221751
0.022721245513
0.0190258135728
0.0126763895773
0.0130147287341
0.00696180395438
0.00849935950666
0.00353462950712
0.00530858265309
0.00201825005352
0.00238539686457
0.000886714460565
0.00190293057523
0.000423628155809
0.00111038118781
0.000222671128205
0.00071431897586
9.98966125529e-05
0.000539220536027
5.05408545278e-05
0.000414204784485
6.56272930769e-05
0.000395606081184
3.40285171526e-05
0.000445803310711
0.000483480939031
0.00398809178837
-0.0293662238487
0.00851376901886
-0.0332245496866
0.0130328544817
-0.0332029224878
0.017485924909
-0.032774425512
0.021977742034
-0.032363401619
0.0263260049919
-0.0317725742293
0.0305085911979
-0.0308752709951
0.034545213378
-0.0298435351311
0.0384764316839
-0.0289600911433
0.0423080218783
-0.0277273501526
0.0460637802692
-0.0267288911674
0.0494403800355
-0.0255741816716
0.0525410883623
-0.0240754219358
0.0555445905327
-0.0226346537228
0.0584007517752
-0.0210337874322
0.061201280953
-0.0193699480324
0.0637115332739
-0.0176607336861
0.0656926999749
-0.0156751669904
0.0673831478744
-0.0136160206566
0.068774295275
-0.0115022823888
0.0699013209533
-0.00942167079449
0.0721064844462
-0.00899991552847
0.0742214593241
-0.00900144424946
0.0753823177801
-0.00799741563946
0.0763016486885
-0.00648462371799
0.0766193061187
-0.00438775851659
0.076636475604
-0.00246732963884
0.0770437198254
-0.00111451324961
0.0773926195497
0.000285810417655
0.0768796628125
0.00209821132699
0.0758842117591
0.00398430619218
0.0747883139444
0.00595657404234
0.0741224211581
0.00732306701833
0.0735235231442
0.00860454430688
0.0728583414162
0.00941066957762
0.0727564546047
0.00935823843104
0.0729322239257
0.00920398925055
0.0723884780636
0.00939701291057
0.0711435703638
0.0105836366338
0.0703239942078
0.0113397212718
0.0693846146301
0.0121571615101
0.0673111915039
0.0130075957103
0.0653137685827
0.013788818475
0.0640601731301
0.014391246425
0.0627765451822
0.0152622240008
0.0604016360167
0.01592897973
0.0580368998391
0.0167592340818
0.0557850443315
0.0175561306522
0.055383165092
0.0159324256411
0.0560587507536
0.0153527110405
0.0581149146977
0.0130281350389
0.0622975240181
0.0106766921568
0.0694954785017
0.00591236357849
0.078664435942
0.000995945631219
0.0929564357116
-0.00700839311479
0.108560284756
-0.0120620563921
0.127108473502
-0.0204567899946
0.151749573201
-0.0293896843355
0.182280194397
-0.0410966217418
0.216864800167
-0.047656683234
0.247311451204
-0.0504163580426
0.264580644976
-0.0435590690832
0.273448150074
-0.0369854493812
0.277205451934
-0.0299659959972
0.280282466164
-0.0207744216225
0.281139990731
-0.0134037753469
0.278930517013
-0.00783130760051
0.274518445668
-0.00227286811508
0.269284910525
0.00408851984254
0.263023478391
0.0103739885685
0.255657325975
0.0164682715701
0.247447431729
0.0224921551875
0.238879769795
0.028261653234
0.229297036931
0.0329443498512
0.218244560787
0.0365241571792
0.206617130739
0.0396248181461
0.194259506517
0.0414432309353
0.180477306622
0.0414943581351
0.165085339324
0.0405731237801
0.148485981648
0.0400022501979
0.131296618503
0.0403466148209
0.114606185072
0.0412305263629
0.0979110782973
0.0405261594227
0.0801555856937
0.0368325002856
0.0617302031742
0.0314918454974
0.0435930071871
0.0267030173577
0.0255063757717
0.0234455702685
0.0110993686088
0.0168325498898
0.00363421614657
0.00940742183435
0.00121439501013
0.00355695327305
0.00040847642119
0.0015446424648
0.000139629061011
0.00082962592445
2.89288721046e-05
0.000543828130678
4.16673711324e-05
0.000397957509913
3.20835726453e-05
0.00047238208928
0.000525401516038
0.00412787902321
-0.0335035266248
0.00881173963513
-0.0379197058912
0.013495112361
-0.0378969658833
0.0181338448157
-0.0374273366596
0.0227937407173
-0.0370403585312
0.0272477714973
-0.0362479402408
0.0315684953713
-0.0352220406731
0.0357381660474
-0.0340448906323
0.0397808735065
-0.0330399016905
0.0437449356668
-0.031734747579
0.0475567648357
-0.0305899099335
0.0510861444194
-0.0291597274037
0.0546583578137
-0.027709837836
0.0580455176729
-0.0260911553856
0.0610094555928
-0.0240729198588
0.0636080607536
-0.0220505911296
0.0658219998454
-0.0199627002833
0.0677916388959
-0.0177395890048
0.0695299838989
-0.0154550904938
0.071029303971
-0.013107367534
0.0731665012738
-0.0116701151042
0.0754456162253
-0.0113981170037
0.0770630328742
-0.0107422715494
0.0781750995492
-0.00923559059636
0.0785686809104
-0.00700531042911
0.0788215617755
-0.00476823955916
0.0794473278369
-0.00322343678734
0.0798772016314
-0.00167678927538
0.0796037172546
0.00042583889362
0.0789874012131
0.00258059277273
0.0781044620755
0.00473191764925
0.077646383381
0.00627656725352
0.0771317165765
0.00769765241739
0.0767318914422
0.00886304010094
0.0769620341196
0.00903605870508
0.0772660433774
0.0089099851662
0.076677339249
0.00964803971467
0.0753424791392
0.0105936513484
0.0750728894503
0.0107195177385
0.0743175280678
0.0119699526142
0.0724363831816
0.0139161313974
0.0703636171604
0.0149689766322
0.0697367105011
0.0143056735818
0.0688291810512
0.0152011957495
0.0668229432129
0.0171692617202
0.0648856663896
0.0177870342716
0.0647528880003
0.0168060974053
0.0651381168969
0.0171118257056
0.0649128768257
0.0160890372538
0.0682382585511
0.0119996801388
0.0735690015498
0.00764693103517
0.0836313947857
0.000609854972028
0.0972909134959
-0.00779144458923
0.116729003347
-0.0184481873086
0.141381132731
-0.0317033869305
0.171575601917
-0.0422681296372
0.209089080582
-0.057979419266
0.249505043554
-0.0697957377761
0.284288816445
-0.0758497714036
0.303249694013
-0.066573318425
0.311027594319
-0.0581406161872
0.314916124051
-0.0473915721567
0.315162882964
-0.0371713825294
0.312819135156
-0.0275590086773
0.310062844054
-0.017954227353
0.306282270892
-0.0095616087355
0.300846655094
-0.00233456704698
0.294079620503
0.00455282203448
0.286676956753
0.0115480846811
0.278688940548
0.0184161881296
0.270133784371
0.0250766607084
0.261174950012
0.0315039752828
0.251981765773
0.0375111438262
0.242280237163
0.0427043066561
0.231853492768
0.0470138506952
0.220988704108
0.0505534316333
0.209495902462
0.0529984131287
0.196839593881
0.0542081508062
0.182808689873
0.0546549252003
0.16777959407
0.0550749505956
0.152425674003
0.0557401060515
0.137398537664
0.0562956065439
0.122269713903
0.0556958038967
0.105999824052
0.053144014681
0.0884294342027
0.0491089110755
0.070444467737
0.0447367982515
0.0534651060816
0.0404800763416
0.03612089633
0.0342433592048
0.0189769765316
0.0266098116993
0.00661987849481
0.0159601691794
0.00148873348076
0.00671058763571
0.000308941025312
0.00203471831304
7.60306392768e-05
0.000799574959886
2.5563015925e-05
0.000465965488425
3.74190905048e-05
0.000479502403332
0.000571670913475
0.00427827255789
-0.0377873564576
0.00914892177602
-0.0427927197848
0.0140150221345
-0.0427701080656
0.0188420688534
-0.0422633272877
0.0236339760941
-0.0418454887767
0.0282784890658
-0.040909661652
0.0327700343441
-0.0397366359564
0.0370833566763
-0.0383868921715
0.0412161211823
-0.0372080325852
0.0454023415553
-0.0359623055393
0.0493720849043
-0.0346084580769
0.0532414602934
-0.0330844667616
0.0569637661582
-0.0314955673448
0.0601915184988