/*--------------------------------*- C++ -*----------------------------------*\
| =========                 |                                                 |
| \\      /  F ield         | OpenFOAM: The Open Source CFD Toolbox           |
|  \\    /   O peration     | Version:  v1906                                 |
|   \\  /    A nd           | Web:      www.OpenFOAM.com                      |
|    \\/     M anipulation  |                                                 |
\*---------------------------------------------------------------------------*/
FoamFile
{
    version     2.0;
    format      ascii;
    class       volScalarField;
    location    "989";
    object      p;
}
// * * * * * * * * * * * * * * * * * * * * * * * * * * * * * * * * * * * * * //

dimensions      [0 2 -2 0 0 0 0];


internalField   nonuniform List<scalar> 
9216
(
273.52813092
273.607902767
273.772966037
274.024726627
274.361763406
274.782490717
275.284939323
275.866800792
276.525461398
277.258047735
278.061458078
278.932408513
279.867461086
280.863067997
281.915593951
283.021356317
284.176640286
285.377734207
286.62093743
287.902591065
289.219079219
290.566856028
291.94244141
293.342445394
294.763559534
296.202579487
297.65639309
299.122001879
300.596506591
302.077128094
303.561190919
305.046143318
306.529539125
308.009058555
309.48248814
310.947740454
312.402833138
313.845908485
315.275211289
316.689108043
318.086063864
319.464661301
320.823576557
322.16159791
323.477601448
324.770569124
326.039564251
327.283749212
328.502360923
329.69472824
330.860247613
331.998400194
333.108727876
334.190850105
335.244440473
336.269243212
337.265050468
338.23171843
339.169145393
340.077287445
340.956137372
341.805739826
342.626171108
343.417553702
344.180036956
344.913810867
345.61908768
346.296114817
346.945157385
347.566510178
348.16048111
348.727402215
349.267614038
349.781475587
350.269349736
350.731612108
351.168637531
351.580807873
351.968499615
352.332090647
352.671949033
352.988438804
353.281909978
353.552703395
353.801142064
354.027535095
354.232170471
354.415318179
354.57722462
354.718115355
354.83819211
354.937637377
355.016620016
355.075324524
355.114247297
355.131443535
273.448400076
273.528534146
273.6939415
273.946703957
274.28517675
274.707698631
275.212256585
275.796503884
276.457791941
277.19321075
277.999625013
278.873715848
279.812014938
280.810943353
281.866840486
282.975997702
284.134680629
285.339156928
286.585711868
287.870670611
289.190407849
290.541365579
291.920057966
293.323085734
294.74713741
296.189001363
297.645564384
299.113822133
300.590875756
302.073941221
303.560344345
305.047529612
306.533053973
308.014594274
309.489940246
310.9570018
312.413800755
313.858477401
315.289281413
316.704577835
318.102837247
319.482641223
320.842671893
322.181716937
323.498658703
324.792478832
326.062247097
327.307125745
328.526358227
329.719273354
330.885274066
332.023841478
333.134523835
334.216940503
335.270771211
336.295760035
337.291705002
338.258462063
339.195935122
340.104079965
340.982894727
341.832423733
342.652748396
343.443990903
344.206305509
344.939882003
345.644937367
346.321718947
346.970496451
347.591564764
348.185236276
348.751843296
349.291730715
349.805258006
350.292792236
350.75470966
351.191389118
351.603213249
351.990562315
352.353815078
352.693343107
353.009511355
353.302673017
353.57316985
353.821327647
354.047456354
354.251846213
354.434767734
354.596468551
354.737173222
354.857080539
354.956362011
355.035156032
355.093549226
355.131473085
355.148643768
273.282571106
273.363853438
273.530793671
273.785861016
274.12737908
274.553641432
275.06257419
275.651762369
276.318486366
277.059762946
277.872385282
278.752964238
279.697966197
280.703750441
281.766601395
282.882759805
284.048448063
285.25989466
286.513352735
287.805118431
289.131543648
290.489049502
291.87413459
293.283384828
294.713478464
296.161193398
297.623409925
299.097116336
300.579410044
302.067501967
303.558716425
305.050494636
306.540393622
308.026088695
309.505371501
310.976151874
312.436454967
313.884422343
315.318308334
316.736480461
318.137415105
319.519697335
320.882016007
322.223163096
323.542028363
324.837598312
326.108950562
327.355252558
328.575755794
329.769794392
330.936779315
332.076196924
333.187603288
334.270622807
335.324942717
336.350311828
337.346535281
338.313473439
339.251036911
340.159185592
341.037923956
341.8873002
342.707401779
343.498354606
344.260318777
344.993487762
345.69808427
346.374359371
347.022588455
347.643070237
348.236122783
348.802082367
349.341299552
349.854137897
350.340970106
350.802176595
351.238141743
351.649252356
352.035894054
352.398449679
352.737295884
353.052801517
353.345324473
353.615210119
353.862788444
354.088372578
354.292256289
354.474712602
354.635991616
354.776319097
354.895894234
354.99488739
355.073435946
355.13163457
355.169452422
355.187518815
273.027615787
273.110185132
273.279522892
273.538194778
273.88446326
274.31654611
274.832275699
275.429131993
276.104284249
276.854635494
277.676866576
278.567479638
279.522838879
280.539208769
281.612788108
282.739740814
283.916222177
285.138402022
286.40248367
287.704720488
289.041428904
290.408999854
291.803907405
293.222716589
294.662089019
296.11878831
297.5896837
299.07175388
300.562089253
302.057894652
303.556490573
305.055314934
306.55192348
308.043990818
309.529309866
311.005792052
312.471466008
313.924476996
315.363084841
316.785662638
318.190694008
319.576771177
320.942591658
322.286955822
323.608763139
324.907009376
326.180782535
327.42925982
328.651703413
329.847457344
331.015943248
332.156657243
333.269165786
334.353102663
335.408165022
336.434110545
337.430753715
338.397963199
339.335658363
340.243806874
341.122421444
341.97155761
342.791310671
343.58181359
344.343234061
345.07577247
345.779659028
346.455151719
347.102533454
347.72210996
348.314206904
348.879167705
349.417350618
349.929126457
350.41487566
350.874985936
351.30984934
351.719859896
352.105410716
352.466891646
352.804686493
353.119170743
353.410708957
353.67965261
353.926337703
354.151082779
354.354186774
354.53592722
354.696558307
354.836309171
354.955381957
355.053949868
355.132154923
355.19010419
355.22779141
355.246010904
272.68245305
272.766671289
272.939298615
273.202924453
273.555717904
273.99578592
274.520828848
275.128180034
275.814853815
276.577595474
277.412930318
278.317210969
279.286661385
280.317417016
281.405560352
282.547151999
283.738257065
284.974967475
286.253420279
287.569812775
288.920414597
290.301577604
291.709743658
293.141451048
294.593339517
296.062154546
297.5447507
299.038094594
300.53926715
302.045465655
303.554005204
305.062319855
306.567963393
308.068609979
309.562053872
311.046209145
312.519108764
313.978903501
315.423860239
316.85236014
318.262896246
319.654071003
321.024593267
322.373275309
323.699029364
325.000864265
326.277881683
327.529272537
328.754313088
329.952361256
331.122852708
332.265297223
333.379274885
334.464432597
335.520480473
336.547188577
337.544383564
338.511945673
339.449805644
340.357941957
341.236377992
342.085179486
342.904451881
343.694337929
344.455015156
345.186693545
345.889613035
346.564041208
347.210270766
347.82861716
348.419416005
348.983020623
349.519799382
350.030133147
350.51441256
350.973035429
351.406403973
351.814922197
352.198993158
352.559016377
352.895385183
353.208484223
353.498686948
353.76635327
354.011827242
354.235434917
354.437482255
354.618253194
354.778007785
354.916980445
355.035378256
355.133379522
355.211132476
355.26875362
355.306248513
355.324443655
272.245300183
272.331610099
272.508473253
272.778486136
273.139688774
273.590037221
274.127055227
274.747881754
275.449326935
276.227929391
277.080011771
278.001733211
278.989137322
280.038194918
281.144841067
282.305006536
283.514643861
284.769748607
286.066376344
287.40065608
288.768800705
290.167115125
291.592002541
293.039969401
294.507629301
295.991706204
297.489037072
298.996574152
300.511386884
302.030663561
303.551712641
305.071963656
306.588967994
308.100399501
309.604054106
311.097849441
312.579823929
314.04813554
315.501060074
316.936989141
318.354427713
319.751991421
321.128403493
322.482491511
323.813183881
325.119506211
326.400577475
327.655606168
328.883886339
330.084793673
331.257781535
332.402377131
333.518177686
334.604846792
335.662110823
336.689755545
337.68762282
338.655607523
339.593654544
340.501755997
341.3799485
342.22831062
343.046960361
343.836052778
344.595777577
345.326356805
346.028042483
346.701114273
347.345877077
347.962658619
348.551806948
349.11368792
349.648682582
350.157184548
350.639597294
351.096331448
351.527802038
351.934425758
352.316618213
352.674791229
353.009350164
353.320691319
353.609199386
353.875245021
354.119182485
354.341347425
354.54205476
354.721596699
354.880240888
355.018228696
355.135773662
355.233060221
355.310242882
355.367444913
355.404677588
355.422768528
271.713879938
271.802780688
271.984908277
272.262859436
272.634505278
273.097604604
273.649452377
274.286937579
275.006609574
275.804745008
276.677411577
277.620527024
278.629911882
279.701335203
280.830553076
282.013340212
283.245515164
284.522959994
285.841635226
287.197591001
288.586975227
290.006039485
291.451143311
292.918757363
294.40546586
295.907968591
297.423082647
298.947744014
300.47900902
302.014055667
303.550184741
305.084820602
306.615511967
308.139932458
309.655880147
311.161277126
312.654168561
314.132721318
315.595222173
317.040075612
318.465801265
319.871030989
321.254505651
322.615071645
323.951677197
325.263368491
326.549285669
327.808658747
329.040803488
330.245117274
331.421075022
332.568225162
333.686185725
334.774640559
335.833335697
336.862075885
337.860721297
338.829184415
339.767427096
340.675457792
341.553328929
342.401134405
343.219007195
344.007117035
344.765668148
345.494896997
346.195070026
346.866481381
347.509450576
348.124320103
348.711452972
349.27123017
349.804048057
350.310315687
350.790452077
351.244883423
351.674040295
352.078354812
352.45825783
352.814176145
353.146529743
353.455729113
353.742172628
354.006244031
354.248310016
354.46871794
354.667793657
354.8458395
355.003132412
355.139922233
355.256430193
355.352847779
355.429335805
355.486022884
355.522924478
355.540862197
271.085369688
271.177418968
271.365946684
271.653542431
272.037861008
272.516408552
273.086188853
273.743775096
274.485389843
275.306984281
276.20431235
277.172997717
278.208592066
279.306624044
280.462639
281.672230157
282.931062212
284.234888562
285.579563355
286.961049555
288.375424051
289.81888073
291.287732222
292.778410914
294.287469627
295.811582238
297.347544399
298.892274403
300.442814178
301.996330347
303.55011505
305.101586944
306.648291886
308.18790335
309.71822209
311.23717563
312.742817254
314.233324539
315.706997429
317.162255876
318.597637073
320.011792332
321.403483625
322.771579868
324.115052961
325.432973673
326.724507381
327.988909749
329.225522366
330.433768407
331.613148338
332.763235732
333.883673195
334.974168471
336.034490704
337.064466923
338.063978713
339.032959117
339.971389721
340.879297958
341.756754552
342.603871139
343.420797983
344.207721781
344.964863521
345.692476345
346.390843403
347.060275658
347.701109626
348.313705032
348.89844237
349.455720375
349.985953383
350.489568626
350.967003427
351.418702359
351.845114343
352.246689743
352.623877443
352.97712196
353.30686059
353.613520621
353.897516623
354.159247838
354.399095684
354.617421387
354.814563758
354.990837117
355.146529385
355.281900369
355.397180234
355.492568271
355.568232011
355.624305481
355.660808109
355.67855404
270.356339103
270.452164894
270.648365456
270.9475112
271.346982265
271.843963949
272.435092828
273.116547032
273.884144091
274.733435975
275.659796088
276.658495773
277.724768797
278.853863461
280.041082938
281.28181507
282.571553192
283.905909716
285.280624125
286.691566903
288.13474071
289.606279874
291.102449043
292.619641617
294.154378383
295.703306602
297.263199649
298.830957173
300.403605697
301.978299501
303.552321287
305.123083403
306.688128615
308.245130414
309.791892807
311.326349769
312.846564192
314.350726296
315.837151563
317.304278173
318.750664019
320.174983312
321.576022858
322.952678034
324.303948541
325.628933971
326.926829263
328.196920077
329.438578169
330.651256777
331.834486112
332.987868941
334.111076353
335.2038437
336.26596677
337.297298183
338.297744052
339.267260876
340.205852695
341.113568454
341.990499583
342.836777735
343.652572661
344.438090176
345.193570166
345.919284607
346.615535553
347.282653043
347.920992942
348.530934641
349.112878656
349.667244088
350.194465969
350.694992487
351.169282125
351.617800714
352.041018437
352.439406805
352.813435621
353.163569966
353.49026723
353.793974204
354.07512426
354.334134634
354.571403831
354.787309174
354.982204498
355.156418011
355.310250335
355.443972726
355.557825505
355.652016847
355.726721636
355.782079516
355.818114892
355.835633909
269.522674495
269.622993114
269.828313734
270.141168574
270.558589304
271.077354798
271.693640052
272.403131299
273.201147184
274.082753923
275.042868065
276.076344112
277.17804559
278.342899784
279.565937508
280.84231999
282.167355245
283.536506372
284.945393974
286.389794658
287.865637193
289.368997585
290.896093994
292.443282168
294.007051776
295.584023859
297.170949391
298.764708845
300.362312534
301.960901495
303.557748143
305.150257862
306.735970064
308.312558379
309.877830641
311.429728366
312.966325637
314.485827412
315.986567266
317.46700461
318.925721414
320.361418524
321.772911589
323.159126698
324.51909577
325.851951769
327.156923798
328.433332148
329.680583325
330.89816516
332.085641989
333.242650021
334.368892865
335.46413732
336.528209401
337.560990673
338.562414867
339.532464804
340.471169599
341.378602153
342.254876858
343.10014752
343.914605424
344.698477495
345.452024509
346.1755393
346.869344904
347.533792623
348.169259949
348.776148352
349.354880899
349.905899716
350.429663288
350.926643626
351.397323303
351.842192399
352.261745378
352.656477925
353.026883764
353.373451509
353.696661543
353.996982975
354.274870691
354.530762511
354.765076482
354.978208325
355.170529035
355.342382665
355.494084289
355.625918178
355.738136167
355.830956272
355.904561624
355.959098448
355.994596676
356.011853876
268.579483647
268.685123863
268.901234679
269.230280589
269.668849939
270.213205817
270.858942819
271.601135418
272.434489656
273.35348373
274.352489878
275.425874531
276.568075856
277.773659837
279.037357489
280.354086496
281.718960769
283.127291241
284.574580804
286.05651577
287.568955762
289.107923419
290.669594924
292.250292017
293.84647583
295.454742668
297.071821618
298.694573718
300.319992305
301.94520415
303.567470384
305.184188573
306.792894398
308.391261641
309.977102532
311.548367254
313.103142793
314.639651105
316.156246653
317.651413339
319.123760914
320.572020908
321.995042181
323.391786132
324.76132168
326.102820049
327.415549465
328.698869788
329.952227186
331.175148859
332.367237926
333.528168474
334.657680856
335.755577266
336.821717627
337.856015822
338.858436283
339.828990939
340.767736516
341.67477215
342.550237296
343.394309856
344.207204493
344.989171044
345.740492982
346.46148585
347.152495623
347.813896929
348.446091113
349.049504095
349.624584033
350.171798765
350.691633067
351.184585717
351.651166429
352.091892648
352.507286275
352.897870333
353.264165623
353.606687391
353.925942053
354.222423986
354.496612422
354.748968468
354.979932271
355.189920341
355.379323051
355.548502323
355.697789522
355.827483532
355.937849054
356.02911526
356.101474462
356.155080012
356.189968633
356.206928494
267.520974418
267.632909691
267.861766663
268.209897872
268.673324174
269.247651133
269.927741346
270.707907606
271.582104448
272.544100733
273.58762426
274.706475492
275.894610505
277.146195995
278.455640743
279.817608589
281.227017907
282.679032018
284.169044235
285.692660407
287.245681108
288.824084967
290.424014136
292.041762514
293.673766966
295.316601546
296.966974394
298.621726886
300.277834387
301.932408026
303.582696266
305.226087717
306.860113671
308.482447934
310.090907629
311.683452788
313.258185133
314.813346097
316.347314089
317.858601102
319.345848719
320.807823614
322.243412623
323.651617481
325.031549295
326.382422863
327.70355087
328.994338085
330.254275574
331.482935037
332.679963294
333.845077015
334.978057709
336.078747075
337.147042704
338.182894208
339.186299772
340.157303146
341.095991047
342.002490964
342.876969285
343.719629715
344.530711892
345.31049012
346.059272138
346.777397858
347.465237967
348.123192371
348.751688398
349.351178767
349.922139268
350.465066199
350.980473537
351.468889904
351.930855335
352.366917913
352.777630295
353.163546179
353.525216761
353.863187197
354.177993131
354.470157306
354.740186276
354.988567271
355.215765209
355.422219888
355.608343368
355.774517555
355.921091992
356.048381877
356.156666291
356.246186664
356.317145584
356.369704701
356.403908043
356.420533422
266.340298851
266.459690113
266.703618609
267.074258726
267.566899041
268.176301283
268.896400441
269.72055841
270.641807616
271.653063492
272.747295493
273.917654429
275.157558244
276.460741733
277.82127735
279.233574638
280.69236522
282.192679148
283.729817166
285.299322172
286.896952178
288.518656233
290.160554221
291.818921012
293.490175095
295.170871486
296.857698413
298.54747699
300.237163025
301.923849877
303.604771294
305.277305403
306.938978006
308.587462551
310.220581483
311.836305894
313.432754253
315.008190188
316.561019454
318.089786115
319.593168085
321.069972094
322.519128216
323.939684024
325.330798503
326.691735792
328.021858851
329.320623113
330.587570212
331.82232183
333.024573766
334.19409025
335.330698611
336.434284323
337.504786522
338.542193989
339.546541681
340.517907761
341.456411158
342.362209582
343.235497964
344.076507212
344.885503222
345.662786006
346.408688862
347.123577462
347.807848787
348.461929807
349.086275884
349.681368833
350.24771465
350.7858409
351.296293799
351.779635019
352.236438281
352.667285761
353.072764392
353.453462088
353.809963958
354.142848535
354.452684078
354.740024964
355.005408211
355.24935015
355.472343277
355.674853296
355.857316369
356.020136584
356.163683658
356.288290844
356.394253086
356.481825546
356.551222141
356.602613402
356.636051968
356.65230415
265.029351285
265.1576052
265.419412103
265.816670077
266.343713013
266.994210864
267.760915918
268.635998624
269.611359066
270.678888604
271.830670382
273.059118471
274.357061344
275.7177794
277.135007801
278.602915545
280.116070172
281.66939551
283.258127798
284.877773748
286.524072729
288.192964353
289.880562099
291.583133268
293.29708521
295.018957433
296.745418788
298.473268594
300.199440398
301.921006199
303.635182251
305.339334209
307.030980363
308.707793218
310.367600866
312.008386758
313.628288298
315.225594367
316.798741855
318.346311362
319.86702214
321.359726454
322.823403428
324.257152558
325.660186943
327.031826397
328.371490476
329.678691549
330.95302794
332.194177252
333.401889915
334.575983055
335.716334743
336.822878725
337.895599665
338.934529007
339.939741432
340.911351981
341.849513777
342.754416345
343.626284405
344.465377096
345.271987453
346.046442059
346.789100692
347.50035588
348.180632209
348.830385332
349.450100575
350.040291125
350.601495785
351.134276296
351.639214287
352.116907886
352.567968066
352.993014792
353.392673028
353.767568682
354.118324529
354.445556176
354.749868089
355.031849755
355.292071973
355.531083323
355.749406834
355.947536863
356.125936201
356.285033424
356.425220477
356.546850519
356.650236012
356.73564704
356.80331004
356.853405686
356.885995693
356.901833657
263.578504407
263.717353344
264.000480615
264.429361293
264.997070077
265.695850916
266.516937687
267.451001824
268.488551886
269.62025457
270.837166158
272.130878295
273.493589939
274.918121846
276.397890766
277.926858837
279.499470635
281.110586902
282.755420886
284.429480691
286.128519382
287.848493502
289.585530243
291.335903248
293.096016845
294.862398134
296.631695798
298.40068396
300.166269184
301.925497218
303.675562397
305.413814517
307.137762121
308.845075755
310.533589386
312.201300211
313.846367057
315.467107493
317.061993856
318.629648298
320.168837059
321.678464046
323.157563933
324.605294866
326.020930954
327.403854624
328.753548964
330.069590104
331.351639736
332.599437807
333.812795504
334.991588569
336.135751089
337.245269801
338.320179057
339.360556475
340.366519362
341.338221907
342.275853146
343.179635621
344.049824671
344.886708194
345.690606761
346.46187389
347.200896326
347.908094146
348.583920565
349.228861306
349.843433475
350.428183878
350.983686782
351.510541148
352.009367388
352.480803721
352.925502211
353.34412458
353.73733787
354.105810043
354.450205571
354.771181079
355.069381089
355.345433889
355.599947584
355.833506333
356.046666818
356.239954938
356.413862767
356.568845771
356.705320296
356.823661294
356.924200338
357.007224036
357.072972463
357.12163702
357.153289866
357.168670516
261.976259935
262.127874552
262.436612399
262.903305294
263.519344836
264.275093168
265.159820231
266.162303777
267.271342192
268.476145089
269.76659337
271.133380649
272.5680581
274.063009256
275.611380354
277.206987693
278.844217905
280.517931625
282.223376437
283.95611167
285.711945579
287.486884557
289.277093824
291.078869333
292.888620603
294.70286393
296.518224435
298.331444575
300.139396158
301.939091493
303.727696529
305.502540553
307.261119529
309.001100665
310.720323967
312.416801975
314.088717792
315.734421654
317.352426249
318.941401021
320.500165564
322.027682335
323.523048807
324.985489284
326.414346499
327.809073151
329.16922345
330.494444771
331.784469445
333.039106781
334.258235365
335.441795769
336.589783745
337.702244062
338.77926508
339.820974177
340.827534086
341.799140204
342.736018826
343.638426268
344.506648739
345.341002835
346.141836418
346.909529709
347.644496332
348.347184145
349.018075627
349.657687716
350.266570977
350.845308064
351.394511461
351.914820575
352.406898223
352.871426655
353.309103192
353.720635628
354.106737469
354.468123123
354.805503102
355.119579303
355.41104041
355.680557465
355.928779629
356.156330177
356.363802735
356.55175779
356.720719484
356.87117269
357.003560383
357.118281307
357.215687927
357.296084631
357.359726392
357.406816675
357.437438528
357.452315949
260.208780009
260.375930205
260.71571923
261.228000402
261.901882858
262.725218122
263.684717021
264.766756554
265.958036114
267.246045449
268.619343704
270.067675775
271.581964664
273.154221671
274.777411741
276.445302828
278.152318746
279.893406601
281.663923492
283.45954296
285.276179465
287.109928711
288.957022222
290.813795634
292.676670863
294.542151915
296.406832537
298.267412196
300.120715712
301.963711083
303.793527483
305.607467676
307.403011394
309.177820878
310.929742424
312.656805847
314.357221936
316.029378224
317.671833452
319.283310907
320.862690824
322.409002002
323.92141289
325.399222317
326.841850099
328.248827635
329.619788609
330.95445982
332.252652217
333.514252133
334.739212837
335.927546492
337.079316666
338.194631556
339.273638095
340.316517062
341.323479327
342.294763265
343.230633342
344.131379797
344.997319283
345.828796243
346.626184802
347.389890868
348.120354178
348.818049997
349.48349026
350.117223958
350.719836658
351.291949097
351.83421488
352.347317332
352.831965636
353.288890392
353.718838765
354.122569349
354.500846908
354.854437075
355.18410111
355.490590762
355.774643305
356.036976759
356.278285345
356.499235207
356.700460406
356.882559227
357.046090794
357.191572014
357.31947484
357.430223837
357.524194052
357.601709354
357.66304078
357.708404429
357.737895695
357.752221461
258.25924825
258.445539443
258.823406505
259.391206938
260.134905575
261.038967074
262.086744265
263.261563359
264.547556875
265.93020982
267.396634689
268.935626186
270.537560844
272.194206147
273.898492214
275.644283493
277.42617264
279.23930655
281.079245893
282.941854544
284.823213323
286.719552928
288.627203001
290.542556896
292.46205359
294.382177982
296.299477493
298.210589923
300.112273957
302.001438094
303.87516443
305.730721335
307.565568284
309.377360903
311.16395228
312.923392004
314.653922712
316.353974755
318.022159539
319.657261784
321.258230695
322.82417031
324.354329268
325.848090306
327.304959699
328.72455685
330.10660406
331.450916534
332.757392566
334.026003951
335.256786645
336.449831861
337.605277714
338.723301703
339.804114188
340.847953106
341.855080044
342.825777788
343.760349326
344.659118237
345.52243028
346.350655932
347.144193536
347.903472713
348.628957652
349.321149935
349.98059059
350.607861153
351.203583588
351.76841901
352.303065257
352.808253404
353.284743397
353.733319015
354.154782354
354.549948052
354.919637402
355.264672492
355.585870445
355.884037829
356.159965266
356.41442229
356.648152462
356.861868788
357.056249462
357.231933944
357.389519403
357.529557518
357.652551622
357.758954226
357.849164847
357.92352813
357.982332483
358.02580804
358.054062962
358.067785346
256.10698266
256.317210885
256.742412348
257.37863457
258.207438722
259.208671226
260.361252946
261.644631699
263.039823434
264.53002222
266.100824954
267.740162532
269.438044441
271.186214611
272.977791954
274.806941516
276.668598661
278.558251512
280.471776277
282.405314703
284.355181869
286.317794683
288.289616034
290.267115028
292.246747986
294.224965263
296.198241785
298.163123561
300.11627495
302.054524272
303.97489342
305.874608068
307.751103613
309.602027655
311.425241064
313.218816548
314.981033842
316.710372715
318.405504998
320.065285615
321.68874236
323.275064671
324.823591855
326.333801068
327.805295461
329.237792648
330.631113567
331.985171623
333.299962049
334.575551389
335.812067178
337.009687957
338.168633884
339.289158219
340.371540017
341.416078264
342.423087731
343.392896624
344.325846112
345.222291578
346.082605435
346.907181118
347.696437869
348.450825807
349.170830822
349.856978804
350.509838851
351.130025133
351.718197278
352.275059183
352.801356366
353.297871965
353.765421687
354.204847948
354.617013517
355.002794924
355.363075835
355.698740531
356.010667578
356.299723735
356.566758117
356.812596642
357.038036785
357.243842673
357.430740542
357.599414592
357.750503236
357.884595764
358.002229409
358.103886759
358.189993561
358.260917006
358.316964051
358.358379404
358.385285526
358.398349856
253.726177485
253.966880503
254.451873246
255.173584049
256.107300623
257.226512301
258.504268401
259.915099027
261.436283222
263.04847933
264.735814332
266.485589685
268.287776187
270.134443871
272.019224621
273.936859049
275.882844246
277.853176874
279.844174039
281.852349882
283.874326535
285.906763106
287.946294782
289.98948472
292.032800336
294.072628703
296.105328434
298.127305951
300.135091332
302.125404244
304.095191004
306.04162905
307.962126904
309.854323232
311.716088255
313.545522428
315.340949357
317.100906206
318.824134229
320.50956875
322.156327286
323.763696401
325.331117996
326.858175487
328.344580407
329.790159758
331.194843975
332.558655333
333.881696494
335.16413905
336.406212033
337.60819065
338.770385532
339.893132968
340.976786498
342.021710301
343.028274655
343.996853708
344.927825584
345.821574757
346.678496381
347.499002189
348.283527351
349.032537707
349.746536696
350.426071389
351.07173711
351.684180308
352.264099429
352.812243785
353.329410493
353.81643976
354.274208836
354.703625068
355.105618441
355.48113397
355.831124186
356.156541878
356.458333141
356.737430751
356.99474786
357.231172006
357.44755948
357.64473006
357.823462177
357.984488511
358.128492063
358.256102683
358.367894033
358.464381006
358.546017514
358.613194586
358.666239038
358.705411576
358.730849352
358.743197184
251.084074942
251.364417693
251.926364649
252.756564846
253.821217937
255.085002891
256.513186942
258.074107862
259.740655433
261.490828552
263.307541486
265.17794024
267.092506118
269.044161711
271.027501773
273.038196392
275.072565618
277.127299023
279.199283034
281.285497034
283.38294314
285.48858324
287.599270832
289.711684432
291.822287779
293.927355537
296.023058359
298.105588102
300.1712807
302.216712527
304.238741431
306.234496378
308.201359508
310.136959943
312.039179116
313.906151802
315.736254616
317.528091659
319.280483857
320.99245872
322.663236518
324.292214535
325.878951003
327.423148919
328.924640886
330.383375357
331.799403933
333.17286923
334.503992815
335.79306275
337.040420777
338.246449403
339.411559429
340.53617847
341.620741115
342.665681214
343.671426791
344.638397839
345.567007147
346.45766403
347.31078064
348.126780271
348.906106951
349.649235447
350.356680834
351.02900681
351.666832126
352.270834627
352.8417527
353.38038406
353.887582074
354.364249958
354.811333367
355.229811951
355.62069046
355.984989865
356.323738806
356.637965519
356.928690249
357.196918093
357.443632215
357.669787404
357.876304015
358.064062316
358.23389732
358.386594127
358.522883796
358.643439761
358.748874744
358.839738125
358.916513735
358.979618213
359.029399373
359.066134376
359.089976643
359.101546168
248.138230874
248.471490795
249.134662566
250.104952131
251.335191319
252.777827788
254.387862735
256.125938388
257.959957984
259.865398016
261.824585122
263.825360876
265.859584959
267.921791773
270.008136578
272.115650892
274.241767074
276.384049493
278.540065927
280.707337239
282.88331132
285.065319717
287.250495882
289.435666982
291.617268278
293.791381495
295.953872141
298.100597118
300.227612283
302.331311013
304.408458865
306.456152147
308.471752865
310.452877999
312.397420618
314.303559833
316.16973845
317.994638651
319.777171934
321.516471628
323.21187619
324.862909618
326.469262427
328.030772308
329.547406729
331.019248424
332.446482388
333.829383745
335.168305409
336.46366468
337.715928797
338.925599929
340.093200367
341.2192588
342.304298455
343.348827899
344.353335067
345.318285014
346.244121536
347.131272625
347.980159277
348.791206969
349.564858771
350.301588997
351.001916182
351.66641435
352.295721672
352.890545969
353.451666727
353.979933671
354.476262097
354.941625516
355.377046295
355.783585177
356.16233048
356.514387641
356.840869472
357.142887249
357.421542532
357.677919524
357.91307783