/*--------------------------------*- C++ -*----------------------------------*\
| =========                 |                                                 |
| \\      /  F ield         | OpenFOAM: The Open Source CFD Toolbox           |
|  \\    /   O peration     | Version:  v1906                                 |
|   \\  /    A nd           | Web:      www.OpenFOAM.com                      |
|    \\/     M anipulation  |                                                 |
\*---------------------------------------------------------------------------*/
FoamFile
{
    version     2.0;
    format      ascii;
    class       volVectorField;
    location    "258";
    object      U;
}
// * * * * * * * * * * * * * * * * * * * * * * * * * * * * * * * * * * * * * //

dimensions      [0 1 -1 0 0 0 0];


internalField   nonuniform List<vector> 
9216
(
(0.00166745415913 -0.00166956875225 0)
(0.00156921610153 -0.00484159926113 6.57233727033e-28)
(0.00157333504158 -0.00817550844212 1.09856641316e-31)
(0.00155591112867 -0.0114421673956 0)
(0.00152652075336 -0.0146606224766 0)
(0.00148862026217 -0.0178078826277 0)
(0.00144403069156 -0.0208685748666 0)
(0.00139354397903 -0.0238298116348 0)
(0.00133836274862 -0.0266805067446 0)
(0.00127899311901 -0.0294115074161 0)
(0.00121657234278 -0.0320152003888 0)
(0.00115146589772 -0.0344856988371 0)
(0.00108474232905 -0.0368184700891 0)
(0.00101660113094 -0.0390104376368 0)
(0.000948001843364 -0.041059615081 0)
(0.000878961224094 -0.0429651430521 0)
(0.000810314169734 -0.0447269526188 0)
(0.000741903594968 -0.0463457651154 0)
(0.000674445707889 -0.0478228075492 0)
(0.000607634444606 -0.0491597978557 0)
(0.000542086795757 -0.0503587202081 0)
(0.000477380560834 -0.0514218044602 0)
(0.000414056114664 -0.0523513643522 0)
(0.00035160740355 -0.0531497757803 0)
(0.000290520680613 -0.0538193721239 0)
(0.000230236344492 -0.0543624188613 0)
(0.000171205384011 -0.0547810630225 0)
(0.000112840997457 -0.0550773043122 0)
(5.55766778228e-05 -0.055252992886 0)
(-1.17546469524e-06 -0.0553097926275 0)
(-5.69864944741e-05 -0.0552492391643 0)
(-0.000112425752542 -0.0550726692403 0)
(-0.000167045755438 -0.0547813443104 0)
(-0.000221366574146 -0.0543763965369 0)
(-0.000274909567655 -0.0538589673249 0)
(-0.000328123765162 -0.0532301674273 0)
(-0.000380480796599 -0.0524912553124 0)
(-0.000432335428045 -0.0516435964034 0)
(-0.000483095927308 -0.0506888801219 0)
(-0.000533005948692 -0.0496290760893 0)
(-0.000581402370477 -0.0484666785861 0)
(-0.000628408522385 -0.0472046533096 0)
(-0.000673290342326 -0.0458466979922 0)
(-0.00071605159681 -0.0443971769196 0)
(-0.000755894592308 -0.0428613810975 0)
(-0.000792713761984 -0.0412454482961 0)
(-0.000825664421578 -0.0395566047392 0)
(-0.000854557437439 -0.0378030684331 0)
(-0.000878534956693 -0.0359942396113 0)
(-0.000897380329505 -0.0341405682644 0)
(-0.000910294659668 -0.0322536431084 0)
(-0.000917139655158 -0.0303459796051 0)
(-0.000917297086213 -0.0284309479233 0)
(-0.000910853829777 -0.0265224335816 0)
(-0.000897513533052 -0.0246345912019 0)
(-0.000877716551589 -0.0227813865867 0)
(-0.000851573770912 -0.0209762511619 0)
(-0.00081991141474 -0.0192315850399 0)
(-0.000783222986577 -0.0175584554676 0)
(-0.000742629412202 -0.0159661699982 0)
(-0.000698870415671 -0.0144621537091 0)
(-0.000653171095594 -0.0130516836187 0)
(-0.000606308995294 -0.0117380253107 0)
(-0.000559388971376 -0.010522370894 0)
(-0.000513029881637 -0.00940420902495 0)
(-0.000468057705081 -0.00838141484652 0)
(-0.000424834731045 -0.00745072622119 0)
(-0.00038387231311 -0.00660787815998 0)
(-0.000345291857957 -0.00584804212949 0)
(-0.000309352625199 -0.00516591547058 0)
(-0.000276014014328 -0.00455604986442 0)
(-0.000245372653169 -0.00401287167574 0)
(-0.000217298709953 -0.00353090953653 0)
(-0.00019178897102 -0.00310477352954 0)
(-0.000168665834774 -0.00272931861657 0)
(-0.000147863565785 -0.00239960619921 0)
(-0.000129182016431 -0.00211102217233 0)
(-0.000112517629768 -0.00185922852579 0)
(-9.7659207959e-05 -0.00164025120264 0)
(-8.44615612372e-05 -0.00145044333167 0)
(-7.26458671178e-05 -0.00128659567212 0)
(-6.18045314826e-05 -0.00114627719164 0)
(-5.06759138422e-05 -0.00102626142061 0)
(-3.99625215338e-05 -0.000917969465231 0)
(-3.8126306359e-05 -0.000854572095662 0)
(-3.74616380817e-05 -0.000773232161073 0)
(-3.26486868294e-05 -0.000696952310571 0)
(-2.74811173972e-05 -0.000637111471651 0)
(-2.79015854843e-05 -0.000587419759261 0)
(-3.09222547214e-05 -0.000527433424394 0)
(-3.11394504122e-05 -0.000466572374799 0)
(-3.16971682916e-05 -0.000400615949638 0)
(-3.63396880754e-05 -0.000328183081936 0)
(-4.09935620743e-05 -0.000248322751071 0)
(-4.53878763904e-05 -0.000151593436116 0)
(-4.82177928419e-05 -4.77932529976e-05 0)
(0.004851892074 -0.00158792573962 0)
(0.0050883024117 -0.0051302490427 0)
(0.00506938182397 -0.00867897940842 -6.75814871695e-28)
(0.00499924104802 -0.0121818848552 0)
(0.00490034430461 -0.0156156956242 0)
(0.00477695217398 -0.018968857694 0)
(0.00463273058491 -0.0222273814063 0)
(0.00447013398424 -0.0253783151451 0)
(0.00429231754721 -0.0284102121137 0)
(0.00410143415379 -0.0313134414579 0)
(0.00390051175739 -0.0340800810993 0)
(0.00369138110034 -0.0367039651234 0)
(0.00347678785985 -0.0391804649062 0)
(0.00325809486335 -0.0415064369284 0)
(0.00303763224121 -0.0436799704289 0)
(0.00281622655763 -0.0457002891084 0)
(0.0025957525291 -0.0475675059278 0)
(0.00237651918346 -0.0492825138009 0)
(0.00215997896007 -0.0508467731727 0)
(0.0019459966381 -0.0522622124897 0)
(0.00173567549024 -0.0535310599267 0)
(0.0015285327177 -0.0546557621529 0)
(0.00132540620445 -0.0556388622022 0)
(0.00112556227135 -0.05648293728 0)
(0.000929653144864 -0.0571905188599 0)
(0.000736782314492 -0.0577640466171 0)
(0.000547485536359 -0.0582058262243 0)
(0.000360780695158 -0.0585179964265 0)
(0.000177149217091 -0.0587025201125 0)
(-4.40416217377e-06 -0.0587611640744 0)
(-0.000183395969117 -0.0586955133827 0)
(-0.000360767332077 -0.0585069894909 0)
(-0.000535967574846 -0.0581968789398 0)
(-0.000709806454997 -0.0577663481249 0)
(-0.000881606413603 -0.0572165318236 0)
(-0.00105197431743 -0.0565485537345 0)
(-0.00122004297784 -0.0557636480175 0)
(-0.00138614861431 -0.0548631937528 0)
(-0.0015491836056 -0.0538488640319 0)
(-0.00170916350047 -0.052722670006 0)
(-0.00186470989765 -0.0514871283779 0)
(-0.00201549320114 -0.0501453069055 0)
(-0.00215986095113 -0.0487009991413 0)
(-0.00229714328114 -0.0471587636587 0)
(-0.00242543550065 -0.0455240943473 0)
(-0.00254376076213 -0.0438034480733 0)
(-0.00265001250674 -0.0420043981684 0)
(-0.00274298318749 -0.0401356435329 0)
(-0.0028204722437 -0.0382071224505 0)
(-0.00288121098424 -0.0362299776419 0)
(-0.00292313933852 -0.0342165806894 0)
(-0.00294526024567 -0.0321803943714 0)
(-0.0029460608204 -0.0301358353725 0)
(-0.0029252949712 -0.0280979694867 0)
(-0.00288247449287 -0.0260821812137 0)
(-0.00281852950871 -0.0241037118621 0)
(-0.00273428782647 -0.0221772128595 0)
(-0.00263196717123 -0.020316238275 0)
(-0.00251362564408 -0.0185328351537 0)
(-0.00238247688954 -0.016837132638 0)
(-0.00224135267313 -0.0152371132818 0)
(-0.00209384724714 -0.0137384107711 0)
(-0.00194286675317 -0.0123443591202 0)
(-0.00179164948626 -0.0110560519552 0)
(-0.00164251864336 -0.00987265035512 0)
(-0.00149783797141 -0.00879162712801 0)
(-0.00135903012699 -0.00780918900199 0)
(-0.00122747304139 -0.00692055671568 0)
(-0.00110375883717 -0.00612034287118 0)
(-0.000988491622367 -0.00540275206362 0)
(-0.000881708635393 -0.00476183482125 0)
(-0.000783536093931 -0.00419158579403 0)
(-0.000693699319093 -0.00368609774695 0)
(-0.000612042462111 -0.0032396042627 0)
(-0.00053811309382 -0.00284658384888 0)
(-0.000471583396396 -0.00250177562362 0)
(-0.000411909189168 -0.00220024744325 0)
(-0.0003586698053 -0.0019373874982 0)
(-0.00031128636432 -0.00170893786479 0)
(-0.000269276573786 -0.00151095567151 0)
(-0.000231982854078 -0.00133978417005 0)
(-0.000198657940444 -0.00119189422686 0)
(-0.000167714177574 -0.00106363728712 0)
(-0.000139235912074 -0.000942459198367 0)
(-0.000123641021601 -0.000837250081377 0)
(-0.000115628528096 -0.000759490789568 0)
(-9.70829873821e-05 -0.000676884331641 0)
(-8.23079174404e-05 -0.000621927042224 0)
(-8.14606864624e-05 -0.00056270881286 0)
(-8.90020725827e-05 -0.000516274843089 0)
(-9.2996791459e-05 -0.000465860454232 0)
(-9.87319183787e-05 -0.000396611117131 0)
(-0.000109216300331 -0.000322830220808 0)
(-0.000135104888488 -0.000256629658297 0)
(-0.000163839553023 -0.000163223134181 0)
(-0.000145269010961 -4.38824632122e-05 0)
(0.00824961333533 -0.00162486546432 0)
(0.00866856797182 -0.0052165153126 0)
(0.00859294380972 -0.00878060142029 -6.74871935489e-28)
(0.00846088406153 -0.0123221437187 0)
(0.00828736148559 -0.0157935887032 0)
(0.00807531276569 -0.0191816652777 0)
(0.00782874721294 -0.0224716432088 0)
(0.00755176488217 -0.0256503497816 0)
(0.00724897742936 -0.0287063179329 0)
(0.00692461094246 -0.0316299546406 0)
(0.00658315835819 -0.0344134996995 0)
(0.006228433791 -0.0370509839093 0)
(0.0058643760661 -0.0395380650483 0)
(0.00549405961531 -0.0418718926417 0)
(0.00512063410289 -0.0440508973429 0)
(0.00474630410824 -0.0460746235688 0)
(0.00437337909434 -0.047943519467 0)
(0.00400322219853 -0.0496587750443 0)
(0.00363737931381 -0.051222140985 0)
(0.0032764947848 -0.0526357923212 0)
(0.0029214914718 -0.0539021865355 0)
(0.00257245385676 -0.0550239582172 0)
(0.00222983715748 -0.0560038174879 0)
(0.00189332333813 -0.0568444739721 0)
(0.00156304395256 -0.0575485699545 0)
(0.00123841817796 -0.0581186283447 0)
(0.000919378555844 -0.0585570157181 0)
(0.00060520282175 -0.0588659103597 0)
(0.000295734649554 -0.059047290499 0)
(-9.77886433568e-06 -0.0591029200597 0)
(-0.000311476772755 -0.0590343635747 0)
(-0.000610029864514 -0.0588429858668 0)
(-0.000905452882735 -0.0585299955674 0)
(-0.00119822022201 -0.0580964679105 0)
(-0.00148810566523 -0.0575434112275 0)
(-0.0017752667207 -0.0568718151184 0)
(-0.00205912371033 -0.0560827440815 0)
(-0.00233940724472 -0.0551774073681 0)
(-0.00261508950746 -0.0541572768697 0)
(-0.00288539270705 -0.0530241732524 0)
(-0.00314878327456 -0.0517803985969 0)
(-0.00340393813369 -0.0504288283728 0)
(-0.00364880809023 -0.0489730476997 0)
(-0.00388153637657 -0.0474174395225 0)
(-0.00409959241192 -0.0457673145797 0)
(-0.00430063939825 -0.044028990062 0)
(-0.00448174214696 -0.0422099086862 0)
(-0.00464019616021 -0.0403187053017 0)
(-0.00477282869538 -0.0383653018189 0)
(-0.00487682862115 -0.0363609388653 0)
(-0.00494917384853 -0.0343181966049 0)
(-0.00498750330794 -0.0322509171771 0)
(-0.00498966715823 -0.0301740535039 0)
(-0.00495461096825 -0.028103381426 0)
(-0.00488194205333 -0.0260551131359 0)
(-0.00477269741535 -0.0240454013379 0)
(-0.00462878643238 -0.022089801158 0)
(-0.00445355136549 -0.0202027158278 0)
(-0.00425105145999 -0.0183968963856 0)
(-0.00402642622831 -0.0166830033548 0)
(-0.00378507318774 -0.0150693023194 0)
(-0.00353284669738 -0.0135614720922 0)
(-0.00327521305688 -0.0121626222314 0)
(-0.00301741370378 -0.0108734343812 0)
(-0.00276378572235 -0.00969248714145 0)
(-0.00251803593409 -0.00861662124013 0)
(-0.0022828229705 -0.00764138266522 0)
(-0.00206015458673 -0.00676140965396 0)
(-0.00185118245355 -0.00597079754368 0)
(-0.00165663384135 -0.00526335891269 0)
(-0.00147669246918 -0.00463282767463 0)
(-0.00131134631889 -0.00407297198931 0)
(-0.00116025069641 -0.00357769757763 0)
(-0.00102297260918 -0.0031411020021 0)
(-0.000898852391329 -0.00275754800206 0)
(-0.00078720183301 -0.00242169862139 0)
(-0.000687190862611 -0.0021285599552 0)
(-0.000598011571693 -0.00187349005322 0)
(-0.000518786468763 -0.00165220595789 0)
(-0.000448700784661 -0.00146075469112 0)
(-0.000386932678016 -0.00129545920991 0)
(-0.000332774916226 -0.00115277716787 0)
(-0.000285738556639 -0.00102961773015 0)
(-0.000245992155122 -0.000913043013609 0)
(-0.000216848415329 -0.000816568966809 0)
(-0.000193529663753 -0.000736919363844 0)
(-0.000170223246886 -0.00067389206905 0)
(-0.00014463518762 -0.000591200322016 0)
(-0.000130195908046 -0.000520575023105 0)
(-0.000135982373552 -0.000480393665991 0)
(-0.000159145657941 -0.000450466139367 0)
(-0.000163614007165 -0.000358183355869 0)
(-0.000187332395895 -0.000297131060172 0)
(-0.000219413166782 -0.000217546180924 0)
(-0.000246541846698 -0.000131093405607 0)
(-0.000237144976338 -4.00406590747e-05 0)
(0.0116661674756 -0.0016573270911 0)
(0.0122938335603 -0.00530602433525 0)
(0.0121842543663 -0.00891735021149 6.74782812803e-28)
(0.0119926937675 -0.0125094174795 0)
(0.0117419627853 -0.0160288130896 0)
(0.0114368786736 -0.0194609110774 0)
(0.0110829480999 -0.0227901089805 0)
(0.0106861818584 -0.0260028159421 0)
(0.0102529983417 -0.0290874382388 0)
(0.00978970186743 -0.0320344463862 0)
(0.00930253492992 -0.0348363163823 0)
(0.00879722170953 -0.0374874253161 0)
(0.00827914509155 -0.0399838762482 0)
(0.00775294754941 -0.0423233090635 0)
(0.00722281664572 -0.0445046796925 0)
(0.00669213356862 -0.0465280504699 0)
(0.00616383980322 -0.0483943762393 0)
(0.0056401126615 -0.050105314872 0)
(0.00512278099771 -0.0516630484412 0)
(0.00461300752244 -0.0530701316566 0)
(0.00411172687432 -0.0543293567534 0)
(0.00361932100145 -0.0554436421984 0)
(0.00313606184389 -0.0564159382954 0)
(0.00266177512512 -0.0572491503125 0)
(0.00219627880682 -0.0579460772364 0)
(0.00173903681867 -0.0585093619261 0)
(0.00128959018587 -0.0589414558156 0)
(0.000847206788499 -0.059244590182 0)
(0.000411305538881 -0.059420762269 0)
(-1.8890765072e-05 -0.0594717249172 0)
(-0.00044393699229 -0.0593989972542 0)
(-0.000864502914546 -0.0592038651907 0)
(-0.00128096213489 -0.0588874213319 0)
(-0.00169371513245 -0.0584505932483 0)
(-0.00210278698763 -0.0578942009154 0)
(-0.00250813775487 -0.0572190166807 0)
(-0.00290927681253 -0.056425850081 0)
(-0.00330556414227 -0.0555156346654 0)
(-0.0036958514675 -0.0544895381813 0)
(-0.00407878004228 -0.0533490697866 0)
(-0.00445245723854 -0.0520962054452 0)
(-0.00481475381122 -0.0507335029349 0)
(-0.005163018726 -0.0492642289044 0)
(-0.00549437165418 -0.047692468823 0)
(-0.00580545075628 -0.0460232463152 0)
(-0.00609269488553 -0.044262625258 0)
(-0.00635212323893 -0.0424178246729 0)
(-0.0065796210896 -0.0404973214303 0)
(-0.00677078133015 -0.0385109646465 0)
(-0.00692125267651 -0.0364700674046 0)
(-0.00702671455761 -0.0343874729195 0)
(-0.00708335917119 -0.0322775397903 0)
(-0.00708803203981 -0.0301560162454 0)
(-0.00703880204687 -0.0280397513547 0)
(-0.00693510360531 -0.0259462474042 0)
(-0.00677815664696 -0.0238930739922 0)
(-0.00657087525902 -0.0218972127605 0)
(-0.0063179846631 -0.0199743908848 0)
(-0.00602564524105 -0.0181384731531 0)
(-0.00570132282384 -0.0164009444015 0)
(-0.00535321139987 -0.0147705157138 0)
(-0.00498988367189 -0.0132528994482 0)
(-0.00461958970004 -0.0118508226383 0)
(-0.00424991480612 -0.0105642519669 0)
(-0.00388727658061 -0.00939081282237 0)
(-0.00353685702058 -0.00832629565117 0)
(-0.00320244328088 -0.00736520194493 0)
(-0.00288663990865 -0.00650123758466 0)
(-0.00259096775379 -0.00572772562249 0)
(-0.0023161946047 -0.00503789285759 0)
(-0.002062493857 -0.00442504031352 0)
(-0.00182967918642 -0.00388262384979 0)
(-0.00161724351032 -0.00340430499217 0)
(-0.00142447016151 -0.00298399229452 0)
(-0.00125042274242 -0.00261589939471 0)
(-0.0010940448448 -0.00229458578367 0)
(-0.000954161878185 -0.00201499097008 0)
(-0.000829569742851 -0.00177244762325 0)
(-0.000719043130825 -0.00156268350804 0)
(-0.000621417097002 -0.0013818045529 0)
(-0.000535626961919 -0.0012262551787 0)
(-0.000460840198449 -0.00109282588893 0)
(-0.000397118904119 -0.00097849750887 0)
(-0.000341882902833 -0.00086739014979 0)
(-0.000303306854028 -0.000786526284778 0)
(-0.000269896721033 -0.000709724995393 0)
(-0.000239362147475 -0.000636057417564 0)
(-0.000209629226391 -0.000554142968467 0)
(-0.000197186847767 -0.0005013155369 0)
(-0.000188525783404 -0.000428278176973 0)
(-0.000203376383257 -0.000369156076526 0)
(-0.000243534616381 -0.000331610794359 0)
(-0.000254645275951 -0.000240410004308 0)
(-0.000288958984402 -0.000168853108054 0)
(-0.000324610007205 -0.000103630310997 0)
(-0.000321397649557 -3.3836604428e-05 0)
(0.0151561358402 -0.00169473718002 0)
(0.0159787082891 -0.00542103933901 0)
(0.0158341139694 -0.00910395328847 0)
(0.0155803408331 -0.0127657448338 0)
(0.015248214315 -0.0163502622201 0)
(0.014844787394 -0.019841698527 0)
(0.0143775782857 -0.0232235321095 0)
(0.0138547868981 -0.026481659764 0)
(0.0132849871712 -0.0296043197887 0)
(0.0126766959664 -0.0325820944672 0)
(0.0120381631982 -0.0354078033718 0)
(0.0113770536083 -0.0380763365303 0)
(0.0107003754585 -0.0405844332541 0)
(0.0100142792486 -0.0429304381764 0)
(0.00932410980578 -0.0451140432098 0)
(0.00863429761969 -0.047136038765 0)
(0.0079484971938 -0.0489980769456 0)
(0.00726953316573 -0.0507024603985 0)
(0.0065995837201 -0.0522519545561 0)
(0.00594014697641 -0.053649628735 0)
(0.00529223735071 -0.0548987213603 0)
(0.0046563497396 -0.0560025298207 0)
(0.00403265036305 -0.0569643206508 0)
(0.00342092914955 -0.0577872575658 0)
(0.00282077819701 -0.0584743448232 0)
(0.00223153216359 -0.0590283823793 0)
(0.00165243518529 -0.0594519330175 0)
(0.00108257452993 -0.0597472972352 0)
(0.000521040535328 -0.059916498462 0)
(-3.31391418652e-05 -0.0599612743188 0)
(-0.000580841551469 -0.0598830843978 0)
(-0.00112290695672 -0.0596831097636 0)
(-0.00165997980598 -0.0593622901588 0)
(-0.00219255797894 -0.0589213523717 0)
(-0.00272083271802 -0.0583608643637 0)
(-0.00324473172758 -0.0576813001047 0)
(-0.0037637661782 -0.0568831240744 0)
(-0.00427707605741 -0.0559668879604 0)
(-0.00478329629592 -0.0549333449991 0)
(-0.00528061579174 -0.053783571635 0)
(-0.00576667402745 -0.0525190995622 0)
(-0.0062386407309 -0.0511420460341 0)
(-0.00669314480282 -0.0496552452638 0)
(-0.0071263687102 -0.0480623696639 0)
(-0.00753399731148 -0.0463680494206 0)
(-0.00791131138 -0.044577983139 0)
(-0.00825314491648 -0.0426990603324 0)
(-0.00855398593556 -0.0407394900477 0)
(-0.0088079815638 -0.0387089581404 0)
(-0.00900913059469 -0.036618792406 0)
(-0.00915146298018 -0.0344821171184 0)
(-0.00922946804037 -0.0323139412577 0)
(-0.00923854853069 -0.0301310951591 0)
(-0.00917564773008 -0.0279519443767 0)
(-0.00903973242386 -0.0257958529235 0)
(-0.00883218691373 -0.0236824539983 0)
(-0.00855691781131 -0.0216308087389 0)
(-0.00822029453056 -0.0196585673851 0)
(-0.00783080902402 -0.0177812221587 0)
(-0.00739872624558 -0.0160114677184 0)
(-0.0069354737408 -0.0143586768973 0)
(-0.00645293098827 -0.0128285848872 0)
(-0.00596255366261 -0.0114233140227 0)
(-0.00547467584296 -0.010141713562 0)
(-0.00499794597594 -0.00897995873855 0)
(-0.00453910434991 -0.00793225974679 0)
(-0.00410293499665 -0.00699158493983 0)
(-0.00369248747655 -0.0061503060313 0)
(-0.00330938217306 -0.00540068133084 0)
(-0.00295423553007 -0.00473517567857 0)
(-0.00262701044425 -0.00414656856707 0)
(-0.00232726737918 -0.00362794736911 0)
(-0.00205425415245 -0.00317268714851 0)
(-0.00180694522615 -0.00277445585016 0)
(-0.0015840614168 -0.00242727617739 0)
(-0.00138414775685 -0.00212557270369 0)
(-0.00120562384662 -0.00186420356954 0)
(-0.00104685655003 -0.00163847586335 0)
(-0.000906207778508 -0.00144414555461 0)
(-0.000782098630241 -0.00127742004473 0)
(-0.000673068096541 -0.00113495334939 0)
(-0.000577863414988 -0.0010142982612 0)
(-0.000496351819618 -0.000909820293042 0)
(-0.000429992316751 -0.000815519105685 0)
(-0.000386049262944 -0.000747373947858 0)
(-0.000350006092672 -0.000676155801231 0)
(-0.000321547528373 -0.000607286377291 0)
(-0.000288076522158 -0.000527944261121 0)
(-0.000254882379115 -0.000435977242712 0)
(-0.000252162224483 -0.000379227068161 0)
(-0.000254677170332 -0.000306141274168 0)
(-0.000296287583888 -0.000265980116754 0)
(-0.000343750102314 -0.000212201941543 0)
(-0.000354106854339 -0.000134506294468 0)
(-0.000374754478158 -7.8566256624e-05 0)
(-0.000372040965628 -2.60476102376e-05 0)
(0.0187320272505 -0.00174092145356 0)
(0.0197490209173 -0.00556658085846 0)
(0.019566139865 -0.00934398632769 0)
(0.0192453360288 -0.0130961905927 0)
(0.01882557406 -0.0167644211749 0)
(0.0183163999529 -0.0203315825592 0)
(0.0177277776057 -0.0237801496043 0)
(0.0170704659029 -0.0270954523488 0)
(0.0163555752545 -0.0302655794163 0)
(0.0155940958121 -0.0332813252962 0)
(0.0147965481957 -0.0361360181155 0)
(0.013972667152 -0.03882527659 0)
(0.0131312289391 -0.0413467180379 0)
(0.0122799038598 -0.0436996457566 0)
(0.0114252406668 -0.0458847357062 0)
(0.0105726481251 -0.0479037405277 0)
(0.00972648277592 -0.0497592209379 0)
(0.00889010236084 -0.0514543111139 0)
(0.00806600080351 -0.0529925196691 0)
(0.00725588490961 -0.0543775650719 0)
(0.00646081619214 -0.0556132428016 0)
(0.00568128110089 -0.0567033195143 0)
(0.00491731884701 -0.0576514505012 0)
(0.00416857358867 -0.0584611151477 0)
(0.00343440291197 -0.0591355677272 0)
(0.00271391246964 -0.0596777990578 0)
(0.00200604894454 -0.0600905079773 0)
(0.00130962431753 -0.0603760795589 0)
(0.000623401488122 -0.0605365706459 0)
(-5.38822961665e-05 -0.0605737013803 0)
(-0.000723429110844 -0.0604888598163 0)
(-0.00138634894827 -0.0602830980667 0)
(-0.00204356633266 -0.0599571666481 0)
(-0.00269577888504 -0.0595115399346 0)
(-0.00334335614667 -0.0589464677249 0)
(-0.00398629195395 -0.0582620422971 0)
(-0.00462410534429 -0.0574582854672 0)
(-0.00525579936828 -0.0565352545481 0)
(-0.00587978080088 -0.0554931661923 0)
(-0.00649384323089 -0.0543325341143 0)
(-0.00709512282612 -0.0530543151015 0)
(-0.00768011758565 -0.0516600563568 0)
(-0.00824468299744 -0.0501520372623 0)
(-0.00878407782702 -0.0485333992551 0)
(-0.0092929764005 -0.0468082642637 0)
(-0.00976550736147 -0.0449818453243 0)
(-0.0101952486126 -0.0430605687051 0)
(-0.0105752495351 -0.0410522244296 0)
(-0.0108980408001 -0.0389661724081 0)
(-0.0111557596639 -0.0368136085862 0)
(-0.0113403840883 -0.0346078667267 0)
(-0.0114442347245 -0.0323646782719 0)
(-0.0114606867414 -0.0301022454324 0)
(-0.0113850786734 -0.0278409813518 0)
(-0.0112155431513 -0.0256028293711 0)
(-0.0109535081432 -0.0234102989617 0)
(-0.0106039471801 -0.0212853568986 0)
(-0.0101751737861 -0.0192483157165 0)
(-0.00967838606297 -0.0173169357284 0)
(-0.00912723649696 -0.0155056373622 0)
(-0.00853711029551 -0.0138247462139 0)
(-0.00792401586412 -0.0122800027723 0)
(-0.00730331774112 -0.010872588662 0)
(-0.00668862733765 -0.00959966334078 0)
(-0.00609106921663 -0.00845525840343 0)
(-0.00551897963412 -0.0074312998897 0)
(-0.00497794599609 -0.00651859856738 0)
(-0.00447116145965 -0.00570769667911 0)
(-0.00399995092624 -0.00498948416457 0)
(-0.00356443565917 -0.00435553033919 0)
(-0.00316411375319 -0.00379808024048 0)
(-0.00279818862959 -0.0033098746386 0)
(-0.00246561538428 -0.0028839890431 0)
(-0.00216502996892 -0.00251380499415 0)
(-0.00189475025068 -0.00219310668731 0)
(-0.00165286468831 -0.0019161523874 0)
(-0.00143732154933 -0.00167770342467 0)
(-0.00124600502811 -0.00147303477104 0)
(-0.00107680215987 -0.00129792840952 0)
(-0.00092765619737 -0.00114866707821 0)
(-0.000796612581769 -0.00102201293783 0)
(-0.000681896341047 -0.000915813205023 0)
(-0.000582610363414 -0.000820929064649 0)
(-0.000506932403142 -0.000739946147974 0)
(-0.000455695538069 -0.000670642249986 0)
(-0.000418256041847 -0.000605910557994 0)
(-0.000377380228235 -0.000527416512971 0)
(-0.000356325286582 -0.000470835303669 0)
(-0.000340865713987 -0.000408364271073 0)
(-0.000336657405448 -0.000346884100126 0)
(-0.000313172600125 -0.000257554328128 0)
(-0.000333156748961 -0.000199713324304 0)
(-0.000394312439857 -0.000167217422714 0)
(-0.000416529277748 -0.000114281854378 0)
(-0.000422107150663 -6.3916138749e-05 0)
(-0.000420594164558 -2.11858479893e-05 0)
(0.0224146137063 -0.00179778379262 0)
(0.0236286101531 -0.00574687757752 0)
(0.0234026339898 -0.00964255833371 6.70054464022e-28)
(0.0230079488949 -0.0135073659367 0)
(0.0224920249303 -0.017279234832 0)
(0.0218672660434 -0.0209395011627 0)
(0.0211465639684 -0.0244694716746 0)
(0.0203437128115 -0.0278538678062 0)
(0.019472811119 -0.031080695734 0)
(0.0185476848704 -0.0341411275052 0)
(0.0175814244687 -0.0370292381067 0)
(0.0165860253867 -0.0397416619242 0)
(0.0155721636085 -0.0422772027212 0)
(0.0145490653151 -0.0446364326312 0)
(0.0135244862437 -0.0468213051114 0)
(0.0125047467497 -0.0488348027791 0)
(0.0114948358765 -0.0506806287685 0)
(0.0104985299089 -0.05236294834 0)
(0.00951854480851 -0.0538861778689 0)
(0.00855667374318 -0.0552548190795 0)
(0.00761393726693 -0.0564733307598 0)
(0.00669070405544 -0.057546032598 0)
(0.00578681605275 -0.0584770334264 0)
(0.00490168092509 -0.0592701785837 0)
(0.0040343690553 -0.059929010838 0)
(0.00318368113066 -0.0604567410477 0)
(0.00234822457629 -0.0608562256724 0)
(0.00152646684726 -0.0611299489908 0)
(0.000716803334125 -0.0612800091366 0)
(-8.23904198825e-05 -0.0613081088148 0)
(-0.000872687641324 -0.0612155553206 0)
(-0.00165554710027 -0.0610032514183 0)
(-0.00243222905893 -0.0606717246818 0)
(-0.00320371738548 -0.0602211469207 0)
(-0.00397062061626 -0.0596513823094 0)
(-0.00473308370368 -0.0589620543128 0)
(-0.00549068646064 -0.058152636621 0)
(-0.00624236225977 -0.0572225686574 0)
(-0.00698631729815 -0.0561713941918 0)
(-0.00771998302294 -0.0549989190586 0)
(-0.00843998303251 -0.0537053793557 0)
(-0.0091421403273 -0.052291611652 0)
(-0.00982150046014 -0.0507592109188 0)
(-0.0104723811113 -0.049110668402 0)
(-0.0110884139654 -0.0473494841582 0)
(-0.0116625738433 -0.0454802603681 0)
(-0.0121871631328 -0.0435088072808 0)
(-0.0126537620997 -0.0414422867207 0)
(-0.0130531605857 -0.039289472427 0)
(-0.0133753723901 -0.0370611395036 0)
(-0.0136098339065 -0.0347705956295 0)
(-0.0137459916527 -0.0324342470043 0)
(-0.0137743305267 -0.0300719418505 0)
(-0.0136877866937 -0.0277068032001 0)
(-0.0134831652991 -0.0253642845331 0)
(-0.0131617123707 -0.0230708599756 0)
(-0.0127296493958 -0.0208524762446 0)
(-0.0121976226236 -0.0187330081403 0)
(-0.0115800067843 -0.0167332868006 0)
(-0.0108945898712 -0.0148701939535 0)
(-0.0101617873436 -0.0131554583266 0)
(-0.00940296654807 -0.0115947944223 0)
(-0.00863846352922 -0.0101879275617 0)
(-0.0078858946457 -0.00892946701852 0)
(-0.00715916326069 -0.00781031287166 0)
(-0.00646816855078 -0.00681913817048 0)
(-0.00581898456592 -0.00594376818494 0)
(-0.00521442955518 -0.00517231214701 0)
(-0.00465490975457 -0.00449395649491 0)
(-0.00413949423021 -0.00389933928059 0)
(-0.00366687612417 -0.00338032216218 0)
(-0.00323582409328 -0.00292944950928 0)
(-0.00284504422907 -0.00253952890609 0)
(-0.00249284026633 -0.00220359106149 0)
(-0.00217705197653 -0.00191511118191 0)
(-0.00189522891805 -0.0016681442385 0)
(-0.00164476978942 -0.00145734410517 0)
(-0.00142300976747 -0.00127795663585 0)
(-0.00122730346331 -0.00112579683759 0)
(-0.00105507335445 -0.000997229917178 0)
(-0.000903838289261 -0.000889173218203 0)
(-0.0007713730346 -0.000799663314783 0)
(-0.000656528097545 -0.000715763688855 0)
(-0.000585881103436 -0.000657869291013 0)
(-0.000526066234831 -0.000589706220151 0)
(-0.000483736614882 -0.00052934311378 0)
(-0.000445420228231 -0.00046735467037 0)
(-0.000411514737628 -0.00040096694038 0)
(-0.000402712354149 -0.00034816857477 0)
(-0.000388455804761 -0.000280412435955 0)
(-0.000397207166905 -0.000229951661757 0)
(-0.000384432831367 -0.00015977886858 0)
(-0.000413327648921 -0.000120520401068 0)
(-0.000458736426699 -9.1922508668e-05 0)
(-0.000460313243968 -5.15652095526e-05 0)
(-0.000459496206784 -1.71075123917e-05 0)
(0.0262278638601 -0.00186694520541 0)
(0.0276430033885 -0.00596648615281 0)
(0.027367753833 -0.0100064296929 -6.69951727702e-28)
(0.0268901816293 -0.0140080614924 0)
(0.0262669414963 -0.0179051466319 0)
(0.0255138662254 -0.021677049534 0)
(0.024647413355 -0.0253037077876 0)
(0.0236850358819 -0.0287692101154 0)
(0.0226443884591 -0.032061612243 0)
(0.0215425958194 -0.0351727167782 0)
(0.0203956733471 -0.0380976823609 0)
(0.0192181072921 -0.0408345421261 0)
(0.0180226026229 -0.0433836826861 0)
(0.0168199702415 -0.0457473275832 0)
(0.0156191372081 -0.0479290586045 0)
(0.0144272397796 -0.0499333950828 0)
(0.0132497792898 -0.0517654418076 0)
(0.012090805504 -0.0534306060373 0)
(0.0109531156997 -0.0549343795052 0)
(0.00983844527363 -0.0562821760875 0)
(0.00874764875359 -0.0574792157594 0)
(0.007680856966 -0.0585304437873 0)
(0.00663761715266 -0.0594404764753 0)
(0.00561700786045 -0.0602135647708 0)
(0.00461773955368 -0.060853569929 0)
(0.00363823548894 -0.0613639457267 0)
(0.0026767054955 -0.0617477242363 0)
(0.00173120823034 -0.0620075025643 0)
(0.000799714968923 -0.0621454294161 0)
(-0.000119828876095 -0.0621631939116 0)
(-0.00102943376914 -0.0620620183146 0)
(-0.00193098863647 -0.061842641463 0)
(-0.00282617039672 -0.0615053390748 0)
(-0.003716344048 -0.0610499337986 0)
(-0.00460244786215 -0.0604758365155 0)
(-0.00548487498867 -0.0597821107781 0)
(-0.00636334901148 -0.0589675668199 0)
(-0.00723680996489 -0.0580308883354 0)
(-0.00810331255887 -0.0569707900473 0)
(-0.00895995591598 -0.0557862030671 0)
(-0.00980284674089 -0.054476475729 0)
(-0.0106271092639 -0.053041577183 0)
(-0.0114269343987 -0.0514822814814 0)
(-0.0121956587118 -0.0498003161836 0)
(-0.0129258474531 -0.0479984603485 0)
(-0.0136093349097 -0.0460805977088 0)
(-0.014237194731 -0.0440517599758 0)
(-0.0147995859431 -0.0419182246348 0)
(-0.0152855282529 -0.0396877851441 0)
(-0.0156826750673 -0.037370284025 0)
(-0.0159773352971 -0.034978487775 0)
(-0.0161550614225 -0.0325291763468 0)
(-0.0162021040735 -0.0300440415958 0)
(-0.0161076989147 -0.0275498169103 0)
(-0.0158666711676 -0.02507675557 0)
(-0.0154796873015 -0.0226567834206 0)
(-0.0149546125208 -0.0203212675459 0)
(-0.0143050858511 -0.0180986736885 0)
(-0.0135489774287 -0.016013903817 0)
(-0.0127091408276 -0.0140874190365 0)
(-0.0118126111451 -0.0123331242674 0)
(-0.0108880072811 -0.0107566805484 0)
(-0.00996227016389 -0.0093555184777 0)
(-0.00905797781211 -0.00812036481419 0)
(-0.00819214252447 -0.0070375339725 0)
(-0.00737605549151 -0.00609112269581 0)
(-0.00661574625593 -0.00526486084746 0)
(-0.00591283876024 -0.0045436228889 0)
(-0.00526580520457 -0.0039145496146 0)
(-0.00467176669076 -0.00336749727979 0)