/*--------------------------------*- C++ -*----------------------------------*\
| =========                 |                                                 |
| \\      /  F ield         | OpenFOAM: The Open Source CFD Toolbox           |
|  \\    /   O peration     | Version:  v1906                                 |
|   \\  /    A nd           | Web:      www.OpenFOAM.com                      |
|    \\/     M anipulation  |                                                 |
\*---------------------------------------------------------------------------*/
FoamFile
{
    version     2.0;
    format      ascii;
    class       volScalarField;
    location    "52";
    object      pa;
}
// * * * * * * * * * * * * * * * * * * * * * * * * * * * * * * * * * * * * * //

dimensions      [0 2 -2 0 0 0 0];


internalField   nonuniform List<scalar> 
9216
(
967.672827687
967.273973482
966.445630607
965.183098385
963.491627232
961.38087822
958.85658896
955.934871232
952.62329939
948.939155676
944.893466944
940.509976039
935.80205584
930.791287484
925.489396995
919.923020835
914.101371512
908.048862783
901.776820374
895.315598003
888.676454067
881.889296711
874.964203412
867.927867098
860.78795866
853.570228379
846.290917471
838.980991433
831.631129451
824.259122252
816.873388273
809.5277892
802.231499205
794.970583299
787.745767196
780.596724384
773.529197074
766.567490246
759.715196993
752.990930435
746.398578096
739.963318135
733.686655459
727.578739226
721.643003882
715.897151895
710.341382035
704.986510031
699.834351633
694.893818286
690.164294427
685.654751339
681.363560776
677.294698855
673.447054418
669.82225435
666.418573413
663.232492872
660.262190802
657.506486918
654.959769553
652.614875032
650.466420175
648.504572786
646.724048618
645.119313512
643.685588138
642.403408324
641.261389011
640.244139038
639.340154158
638.536445516
637.824416216
637.191723263
636.630600724
636.132621626
635.692076247
635.301562124
634.955902649
634.648651863
634.376439544
634.135395115
633.923206528
633.737381016
633.576049687
633.436841404
633.316537663
633.21090208
633.122901009
633.055197048
633.007770852
632.976231082
632.955187795
632.941769534
632.934061313
632.930885779
968.063869134
967.662740903
966.833113114
965.564937731
963.865429343
961.743095058
959.206991562
956.271693701
952.946858689
949.24704656
945.18671794
940.784920596
936.056874795
931.020596195
925.698784879
920.114081788
914.276783174
908.203089334
901.908948242
895.424210367
888.764305378
881.955623316
875.014581912
867.959847575
860.804411095
853.570218173
846.272682701
838.940942518
831.57852883
824.192418078
816.80682372
809.446828087
802.12252821
794.842862414
787.612588891
780.45517058
773.380446897
766.407229593
759.543904029
752.808555053
746.214861118
739.772932288
733.487782962
727.372087497
721.429857446
715.679886893
710.124229852
704.765824014
699.613429557
694.671380049
689.941549872
685.432071162
681.143072584
677.075621805
673.230976564
669.608979219
666.207286138
663.024179117
660.061318527
657.314016407
654.774195867
652.436980792
650.296458864
648.344892974
646.571391099
644.973786987
643.549136059
642.278309942
641.148162992
640.142303171
639.247720937
638.453417605
637.750185131
637.125824624
636.571214763
636.079810437
635.645146976
635.260652743
634.919964819
634.617035879
634.34855003
634.110599539
633.90068643
633.717239582
633.558020043
633.420877641
633.303149802
633.202249615
633.11647426
633.048999438
633.002138958
632.971479695
632.95119675
632.938115351
632.930856556
632.927664433
968.879171734
968.471905628
967.635306558
966.356267366
964.642911746
962.503058128
959.946395817
956.986663268
953.636459335
949.908042171
945.818349459
941.385433732
936.625003603
931.556552338
926.198868429
920.573623132
914.695598891
908.585140777
902.261329533
895.743183999
889.051055914
882.206644315
875.229258469
868.138181539
860.949972773
853.680500768
846.354152433
838.997623733
831.607406762
824.197064412
816.788105531
809.399909614
802.045540097
794.729682054
787.473890544
780.294761314
773.196872246
766.200342187
759.319020495
752.564432354
745.949132499
739.483211444
733.177533812
727.043550293
721.090382612
715.329091755
709.755153896
704.382091879
699.225245145
694.276429921
689.538528831
685.028273567
680.740389345
676.671352941
672.827951269
669.208711267
665.811659156
662.63542439
659.678909464
656.938529928
654.408456746
652.083234807
649.955933424
648.017270992
646.260414802
644.683636241
643.280492592
642.032989235
640.925385614
639.942138272
639.066840624
638.290045846
637.605181261
636.995367711
636.45274523
635.97414393
635.551874113
635.178718654
634.84920234
634.554401606
634.291195964
634.058858491
633.854306875
633.676275685
633.52249318
633.38914418
633.276365462
633.182669542
633.102093781
633.036129554
632.990615695
632.962405919
632.943181503
632.930416089
632.923073247
632.919282368
970.132953279
969.71892095
968.871578143
967.575687586
965.839931586
963.67216952
961.083625706
958.08750121
954.696711083
950.925660071
946.789409222
942.306194204
937.493574537
932.37164773
926.96193264
921.282225768
915.348497069
909.181449137
902.801484504
896.228036095
889.481774247
882.581173314
875.548978571
868.40481214
861.166796969
853.858558652
846.494070649
839.092260822
831.659968152
824.20367975
816.752265325
809.324046787
801.92379915
794.567668441
787.271758907
780.048251999
772.907845159
765.874306061
758.963553668
752.17702895
745.529112575
739.025582072
732.690441555
726.545830269
720.573553899
714.791854484
709.20838843
703.823690257
698.650624982
693.689229407
688.945326948
684.423738761
680.12174717
676.048544477
672.208143506
668.593625641
665.202379019
662.033813874
659.086803253
656.359369186
653.844891132
651.538654767
649.433286525
647.518465767
645.790360243
644.246418936
642.878997351
641.666351464
640.592985197
639.639543491
638.79230133
638.044632173
637.383171784
636.795406237
636.276341125
635.818705776
635.415464088
635.059041493
634.74227521
634.459896279
634.209498148
633.987582989
633.791323795
633.620937295
633.472370611
633.34389883
633.23888657
633.150263078
633.074473536
633.014973118
632.974249487
632.947301039
632.928913852
632.916318402
632.909409471
632.905599533
971.830214272
971.407353688
970.545106082
969.226548614
967.4605527
965.255742863
962.622335586
959.575548982
956.130577526
952.299651296
948.099637341
943.548360239
938.66643899
933.475145102
927.992632272
922.236477444
916.226657806
909.983727246
903.528775367
896.879490657
890.059899573
883.090098451
875.983604724
868.769478322
861.471246456
854.106949275
846.684368871
839.219934329
831.729371919
824.217949211
816.70730891
809.216096318
801.753152708
794.340676112
786.993840494
779.716690532
772.528573736
765.441803386
758.480835662
751.647796071
744.963398303
738.439188635
732.07778769
725.898569995
719.894625504
714.083118558
708.463651751
703.056465779
697.866791147
692.888458366
688.132543053
683.60030504
679.294060701
675.212437678
671.367906298
667.761447185
664.377520882
661.217965948
658.282368202
655.573076712
653.078847924
650.798509833
648.722240225
646.832393459
645.14947053
643.66539055
642.351869673
641.185378132
640.159287263
639.244473519
638.430559968
637.715908623
637.088162911
636.533848687
636.044332665
635.612728512
635.235225724
634.903538579
634.60718223
634.343621421
634.108544961
633.895780606
633.708735124
633.547363434
633.406843174
633.287291621
633.188715158
633.105794162
633.036893402
632.985181692
632.949404174
632.924613258
632.907768295
632.895560709
632.889465056
632.886149184
973.979896793
973.545681093
972.664198724
971.316354667
969.511527639
967.259107669
964.570270989
961.45844556
957.941804174
954.03481745
949.753303646
945.116573959
940.147215128
934.866310941
929.289432289
923.437512573
917.331317053
910.991387666
904.442041543
897.702995727
890.791009067
883.727805084
876.530185848
869.23295854
861.866104211
854.425274392
846.924748629
839.385354468
831.814597882
824.226860583
816.638004629
809.074552339
801.548040045
794.065877682
786.644301738
779.293853739
772.042933013
764.896985904
757.885302655
751.013121358
744.283872048
737.714837453
731.305426011
725.069217559
719.024273919
713.181072726
707.532995445
702.097610626
696.871433225
691.872072479
687.104323305
682.55949838
678.247167335
674.160055135
670.316496566
666.714577746
663.336633703
660.184825176
657.265818425
654.583124639
652.117484233
649.86264542
647.817356833
645.99525211
644.414632178
643.015912645
641.751077687
640.63655998
639.668991073
638.793345655
638.014030152
637.344033051
636.755828868
636.229799247
635.769086485
635.367690739
635.023652196
634.718515429
634.443226584
634.200281947
633.980940061
633.780385198
633.607692013
633.457846943
633.327859225
633.218138788
633.126046296
633.050362494
632.99043702
632.947510809
632.915440879
632.893150956
632.878847336
632.869235165
632.862878253
632.860326644
976.592670293
976.144031274
975.238607101
973.854440085
972.001423076
969.690355465
966.932568526
963.741949892
960.137585747
956.136128301
951.753631405
947.014505449
941.939091781
936.545466104
930.85408798
924.885848018
918.662284692
912.208320656
905.545711118
898.691659886
891.667161654
884.491331795
877.190808816
869.801084061
862.342814985
854.810752306
847.215189127
839.577299617
831.912611992
824.231720907
816.558368362
808.911518696
801.294986281
793.726670584
786.217508457
778.787626918
771.46553346
764.260471157
757.19318185
750.259812333
743.466084124
736.825072166
730.357867107
724.076485967
717.981381314
712.082015385
706.394966656
700.930567345
695.678761036
690.652919866
685.854423932
681.295834203
676.981635343
672.891692519
669.051922365
665.449880737
662.086498911
658.954439727
656.058071677
653.403820622
650.952031698
648.781246283
646.867725447
645.171993561
643.687600484
642.345268064
641.129278698
640.082929295
639.174715125
638.327786116
637.581003746
636.958129321
636.400433207
635.912822758
635.483524964
635.103018865
634.790952783
634.523289374
634.27204421
634.048702445
633.845021669
633.65363561
633.492650744
633.352637194
633.232667149
633.13095258
633.046712074
632.984158844
632.936265912
632.900697875
632.87318336
632.853632608
632.842142447
632.837210468
632.831437181
632.82944698
979.68018571
979.214634649
978.28042746
976.852598236
974.942342334
972.559511319
969.71870378
966.433492411
962.724439092
958.609180303
954.10828938
949.245439922
944.040996564
938.515065021
932.688438619
926.581792849
920.222283747
913.633383375
906.833783074
899.844989499
892.687897285
885.381623543
877.972272493
870.478115311
862.898595461
855.251518188
847.542760813
839.79065912
832.020050928
824.243272927
816.467708538
808.712806772
800.989801465
793.324472698
785.726328339
778.211285338
770.809569941
763.535071536
756.38750924
749.361554245
742.492701606
735.790917106
729.254785636
722.895207382
716.742061266
710.801386496
705.068301397
699.55313736
694.260724529
689.207097832
684.391716774
679.825097937
675.499089352
671.418037487
667.582955183
663.994150072
660.650234069
657.525021239
654.62418173
652.046963265
649.771429576
647.773229257
645.972328756
644.356733962
642.934968972
641.676063936
640.514590225
639.516965194
638.663008847
637.830025062
637.13225415
636.569584228
636.030208251
635.556735408
635.159600733
634.830789194
634.56966538
634.324424995
634.087500685
633.896091556
633.696576088
633.514783136
633.362939299
633.229269641
633.120884359
633.028698694
632.958583423
632.908305547
632.868815877
632.841630911
632.82230997
632.808860346
632.799554008
632.798723593
632.796327262
632.794880094
983.258065999
982.772513375
981.804149423
980.324259918
978.346081866
975.879593811
972.940089919
969.543319179
965.711284023
961.463513971
956.821691007
951.812611401
946.455993733
940.774475517
934.792262988
928.529081087
922.010579035
915.261876261
908.304501651
901.159831166
893.846642333
886.408068263
878.871495964
871.24257687
863.531625418
855.748554296
847.908103908
840.035999482
832.148016379
824.24815618
816.352501729
808.476385939
800.644698035
792.870491253
785.166359406
777.560979707
770.072885032
762.704445223
755.449807028
748.336098098
741.383923936
734.589962448
727.966773252
721.53927929
715.323710874
709.313195763
703.517282601
697.955886712
692.637259975
687.552527617
682.718634873
678.140990924
673.810940015
669.735474368
665.907769115
662.334528493
658.997765586
655.852339518
653.127853995
650.792066842
648.679012928
646.768835718
645.056668421
643.524452772
642.211252824
640.992238752
639.846437156
638.919315162
638.118788271
637.32441535
636.672003196
636.154000346
635.634339532
635.183965103
634.835572027
634.555966117
634.32569348
634.126869589
633.960062934
633.769212703
633.561152969
633.372299155
633.222372707
633.092002041
632.99621328
632.912347197
632.850815418
632.814177782
632.790291964
632.774304792
632.76300013
632.7587287
632.755136364
632.755162233
632.757615995
632.756885387
987.344564796
986.835644371
985.827246771
984.286587034
982.227915134
979.66378986
976.609393149
973.082696307
969.107696269
964.707358832
959.901927779
954.721353126
949.190897899
943.331489977
937.16669098
930.721575169
924.021753763
917.092091926
909.955843836
902.633568198
895.155114366
887.561100567
879.876561264
872.0960112
864.230196642
856.295624454
848.31697011
840.310416959
832.282009255
824.245075919
816.212734897
808.21221728
800.256484921
792.359249529
784.548193062
776.841014267
769.236874624
761.753690804
754.401263213
747.180495465
740.10898392
733.218223407
726.517488982
720.005336999
713.692778029
707.613349935
701.76873062
696.150324058
690.789242851
685.677591655
680.83154398
676.239542803
671.91320939
667.838128673
664.02965555
660.460212417
657.116318354
654.222380654
651.781156307
649.571049392
647.570562093
645.758110386
644.151915552
642.705406498
641.471987184
640.318029473
639.253418158
638.310688496
637.526292998
636.866739554
636.267263681
635.745865761
635.229022254
634.808662068
634.546100925
634.348587318
634.182367682
634.047266653
633.888372948
633.695836061
633.477051115
633.269544977
633.126024706
632.972644596
632.891924017
632.800351369
632.732010572
632.716321458
632.708408087
632.702620077
632.699541175
632.702752765
632.707422085
632.709891014
632.715459846
632.716365684
991.960504692
991.424960275
990.37006799
988.759018253
986.607219965
983.929171954
980.74149692
977.064284378
972.923166735
968.347421452
963.357362962
957.981490675
952.248822207
946.18541959
939.81378963
933.161705139
926.255874474
919.122199176
911.78504893
904.26484971
896.608496423
888.845008923
880.980683212
873.026954608
864.990217058
856.897842963
848.766261826
840.60139026
832.42013242
824.231066235
816.057774727
807.917375088
799.8230097
791.802930977
783.874717714
776.037013483
768.307734982
760.704444776
753.219574006
745.867677253
738.687901803
731.69326849
724.879854109
718.262254318
711.866975742
705.715647837
699.791645738
694.123183274
688.723283349
683.584872663
678.721916279
674.122251715
669.797243667
665.729330379
661.920719977
658.37125257
655.341040995
652.792347803
650.475201282
648.369613917
646.510206533
644.807865581
643.350287022
641.993616352
640.738032002
639.68716975
638.664717989
637.782878843
637.068192044
636.554360135
636.112132018
635.513263453
634.876504932
634.513794875
634.389784988
634.292128706
634.195605779
634.138208686
633.953217765
633.639704497
633.397883545
633.226690308
633.07412409
632.925204418
632.810199637
632.685847815
632.605918778
632.611267977
632.619504349
632.619001111
632.630417975
632.644961305
632.656732621
632.665580867
632.672296899
632.675634707
997.134389985
996.564835812
995.455541582
993.763834125
991.504505127
988.694768172
985.353489031
981.503229235
977.172189925
972.391997201
967.189414757
961.595033275
955.635775782
949.339026938
942.733452859
935.847940766
928.710616307
921.348773488
913.787056037
906.056277053
898.197449797
890.241931457
882.182916465
874.032527258
865.81652835
857.551109096
849.242043669
840.903036642
832.558527519
824.218361933
815.885124031
807.589638542
799.356803032
791.203912229
783.129566474
775.150992184
767.284728433
759.529672087
751.896934655
744.418702556
737.116308956
729.977613436
723.048186261
716.335798664
709.834710726
703.589068789
697.596051927
691.877738255
686.430563594
681.270313636
676.385737601
671.789926624
667.465067944
663.401362435
659.645377935
656.460068764
653.792689854
651.417859479
649.163622085
647.205917627
645.567636989
643.960769653
642.471072791
641.237887748
640.197076799
639.178218632
638.254246395
637.467963641
636.929328606
636.573627635
636.09613847
635.427875027
634.921385514
634.66981525
634.515287078
634.383139381
634.25360024
634.125249626
633.936934152
633.733183421
633.484878528
633.215343365
633.062757235
632.911278195
632.74983664
632.61081024
632.556193117
632.575724963
632.562133876
632.539514456
632.557843253
632.586984729
632.60710002
632.62299862
632.632873754
632.637710286
1002.89781181
1002.28792524
1001.11506546
999.327561817
996.943891156
993.982328686
990.464614694
986.416289899
981.868933982
976.857256031
971.41133801
965.565872314
959.350684311
952.792729071
945.92480835
938.778006244
931.382100898
923.765266806
915.952519952
908.000544627
899.928067286
891.744120445
883.465871457
875.11280283
866.703330504
858.241177988
849.740521434
841.226338046
832.70981498
824.188627884
815.688804903
807.240527947
798.860038855
790.545374854
782.315154523
774.183343169
766.141973563
758.230356386
750.458568869
742.83218475
735.368410953
728.095059654
721.041053531
714.194268531
707.589668456
701.247797501
695.181847676
689.39957249
683.911004757
678.720339278
673.827403748
669.231598202
664.905882345
660.851492861
657.534091545
654.720092797
652.260363308
650.089593451
648.04133543
646.23310995
644.561900713
643.035976492
641.789905002
640.818471518
639.843170346
638.982152986
638.188455581
637.547021027
637.111727623
636.713324134
636.24315631
635.703611256
635.240229058
634.934888683
634.715564825
634.530110613
634.355639562
634.180218834
633.979752657
633.760505175
633.506661327
633.270145781
633.095619335
632.94608063
632.782193166
632.63017963
632.571821224
632.523373686
632.472846314
632.452671581
632.479195167
632.525480152
632.562454396
632.5845275
632.599108014
632.605079712
1009.28249981
1008.6298092
1007.38066451
1005.47966893
1002.95244662
999.8162263
996.096229396
991.821617756
987.028422269
981.754320471
976.033279429
969.903794601
963.398971376
956.547903339
949.386772588
941.949088896
934.26647155
926.373080803
918.295776193
910.080830786
901.76894756
893.348544436
884.835456889
876.258746299
867.634562971
858.961775221
850.267581673
841.56757684
832.854995739
824.151467307
815.483844642
806.87349212
798.316976707
789.830324309
781.434303187
773.113992685
764.90752596
756.830128949
748.871390701
741.081305535
733.470652977
726.034037135
718.825163408
711.854434288
705.122953353
698.671696137
692.523022334
686.67355584
681.137178233
675.922935876
671.024506502
666.427888825
662.096806033
658.496292306
655.642894888
653.020834209
650.814711011
648.843807241
646.901680924
645.331326165
643.833924063
642.529759429
641.629319766
640.737892386
639.904959402
639.207075502
638.513362769
637.868283395
637.354733458
636.892224648
636.420683361
635.942533458
635.517203503
635.182224487
634.91401019
634.68287742
634.469591309
634.261444599
634.045605253
633.820114866
633.584591188
633.363440186
633.172778756
632.997008631
632.818104063
632.680482448
632.600899236
632.542135251
632.477266058
632.425024643
632.442342131
632.483941307
632.530829409
632.557397155
632.573312911
632.57971748
1016.3267952
1015.62679049
1014.29021088
1012.25636381
1009.55985752
1006.22357126
1002.27201213
997.739118077
992.667952351
987.096539846
981.064065274
974.613964568
967.783418714
960.604406328
953.11658996
945.355780995
937.358876213
929.158606736
920.796064038
912.308156614
903.719067728
895.033908658
886.275957596
877.465690306
868.604804683
859.717072865
850.81439776
841.909149354
833.00757917
824.123799262
815.27337478
806.472522274
797.728082422
789.055096514
780.464069404
771.967482498
763.582852979
755.297860876
747.160935462
739.19673101
731.392929144
723.7907752
716.414967691
709.286753542
702.42056166
695.858587691
689.614172849
683.681882775
678.093850891
672.863571661
667.951522311
663.317298254
659.514707156
656.412449527
653.799713489
651.429501877
649.50954102
647.774114288
645.915822695
644.768950137
643.769670928
642.740880488
641.927406126
641.089146386
640.231589435
639.475644549
638.774491111
638.130121953
637.569482033
637.06458873
636.58660844
636.133191473
635.72509554
635.376723032
635.079602355
634.817651127
634.577059634
634.347319812
634.1201487
633.892845312
633.66728913
633.453532675
633.257592146
633.07529002
632.905000754
632.76567887
632.662470312
632.577154398
632.481879479
632.403179651
632.398897201
632.448737465
632.504957928
632.539478249
632.556617171
632.562209681
1024.08000822
1023.32179284
1021.88750713
1019.70312564
1016.8060253
1013.23427782
1009.01759749
1004.18810083
998.799376572
992.894524531
986.514096383
979.701958853
972.505914711
964.960714332
957.109829311
948.994454811
940.649636181
932.115287023
923.436374394
914.65294455
905.772132625
896.804111236
887.777575853
878.711615204
869.613794113
860.498998161
851.379423531
842.263141435
833.159625345
824.078761517
815.033714815
806.035612444
797.095495221
788.224349916
779.435982688
770.748174792
762.144419765
753.659733689
745.319767884
737.147801914
729.162292021
721.366607107
713.806778779
706.504412638
699.485915629
692.78007189
686.415261933
680.40190287
674.784852818
669.528488699
664.554960705
660.438943051
657.255772536
654.373854978
651.931258702
649.925856775
648.433105113
647.231821234
646.130970216
645.15436303
644.199732984
643.164601161
642.236978334
641.342279972
640.471940897
639.676679515
638.952780539
638.297570125
637.714389039
637.190425313
636.710419915
636.269146769
635.870941246
635.518959137
635.208215482
634.929257938
634.672590219
634.430209603
634.196215348
633.968154
633.74697738
633.536713504
633.340113707
633.157244558
632.98991361
632.844870378
632.72233152
632.611433144
632.499937717
632.431741366
632.414062453
632.437348535
632.481123591
632.522288155
632.54660283
632.551655071
1032.59525987
1031.76648446
1030.21654611
1027.86037065
1024.73640791
1020.8890323
1016.36318116
1011.19563092
1005.44249083
999.155893992
992.384855153
985.172103658
977.566555578
969.612419218
961.362862868
952.857906946
944.130838879
935.236230831
926.213769283
917.09594315
907.899024079
898.637949005
889.330403823
879.999336452
870.650834215
861.299940972
851.955423379
842.62209121
833.307533461
824.02116982
814.771049587
805.56865134
796.421989435
787.343488147
778.342873516
769.437345805
760.632780693
751.919881559
743.35805076
734.961203975
726.752730683
718.759864287
710.98993744
703.491536691
696.290888938
689.423694098
682.92509008
676.831053412
671.163448396
665.820286279
661.367358745
657.72793633
654.992473475
652.510328142
650.613484149
649.662013169
648.814193772
647.775933784
646.655822425
645.585362188
644.524803603
643.440253868
642.417349494
641.457570038
640.562224374
639.748347732
639.016530668
638.361832461
637.778782729
637.257209741
636.786083039
636.358455202
635.9718034
635.624077655
635.310893934
635.025826702
634.762057325
634.513644032
634.276187054
634.047574866
633.827892279
633.61877925
633.421844562
633.238263723
633.069954818
632.91963274
632.787268335
632.669319379
632.565564004
632.494598438
632.458266485
632.451200665
632.490465577
632.525996636
632.546631796
632.549148315
1041.9300793
1041.01924126
1039.33291518
1036.77378801
1033.38841774
1029.22427467
1024.34052103
1018.78724327
1012.62163003
1005.90296102
998.686633177
991.024575665
982.964777897
974.561095211
965.866035984
956.930182339
947.789148805
938.504066841
929.109857773
919.625037402
910.096054103
900.526383834
890.922768035
881.313611353
871.706820992
862.106346752
852.536198479
842.979954949
833.449592267
823.950051145
814.489039757
805.074061282
795.714546323
786.418484519
777.198630024
768.073705073
759.020359851
750.078419224
741.276450737
732.638624592
724.183384015
715.94701953
707.961821907
700.236354489
692.825250653
685.760951016
679.102002839
672.891280736
667.095454308
662.301107031
658.419868808
655.053108235
653.184515949
652.381477181
651.478992284
650.486433618
649.474485748
648.320573338
647.076208791
645.836016285
644.625589957
643.455143419
642.367353962
641.37476349
640.477875021
639.676806231
638.965774719
638.33562792
637.776453343
637.277530833
636.828602674
636.421763744
636.05208088
635.715582477
635.407824489
635.123956246
634.858926267
634.608346896
634.369058659
634.139390066
633.919085546
633.708902382
633.509990413
633.323682016
633.151665541
632.995696765
632.856600358
632.734517941
632.631895382
632.556521031
632.510564287
632.491147558
632.497184921
632.520885071
632.541480456
632.548173707
1052.15893434
1051.15023963
1049.30167532
1046.50259314
1042.81103235
1038.28248919
1032.98622663
1026.9889195
1020.35625758
1013.14820225
1005.43110006
997.263262043
988.695242578
979.793845785
970.611672432
961.200971684
951.61356195
941.893907185
932.094089669
922.231828765
912.338897048
902.435618303
892.530957122
882.639139044
872.765672537
862.930002296
853.118878829
843.334709044
833.583370756
823.867830339
814.189333489
804.558013778
794.977426499
785.456806245
776.002898122
766.630299777
757.35009399
748.148219995
739.084286193
730.183254044
721.457087704
712.947773104
704.697017648
696.735095611
689.072273973
681.761752927
674.918461597
668.478410586
662.86359556
659.199821238
655.930952995
654.657749729
654.204115598
653.522014553
652.563911906
651.364125565
650.020307358
648.57920139
647.111192337
645.693936903
644.367986194
643.150463336
642.057278849
641.089115841
640.237060597
639.489632266
638.833729769
638.255841611
637.743319152
637.284848871
636.870521521
636.492298394
636.144629867
635.823624709
635.525250422
635.245559119
634.981083142
634.728979443
634.487198914
634.254632243
634.031069897
633.817010141
633.613406695
633.421538561
633.242970395
633.079366214
632.932227819
632.803130688
632.694717441
632.610902171
632.553056566
632.5175575
632.484883375
632.492699583
632.527704038
632.54626356
1063.36937767
1062.2421349
1060.19830466
1057.11258638
1053.05879057
1048.10756476
1042.33762617
1035.83030508
1028.66292064
1020.9039803
1012.62337013
1003.88958197
994.760009146
985.298465376
975.577606163
965.650158959
955.57555477
945.39180636
935.139523147
924.872875797
914.604935657
904.356208522
894.137273101
883.955945354
873.829562262
863.743229489
853.694320727
843.67945225
833.708496342
823.775172883
813.876880428
804.025199991
794.221621083
784.469119315
774.775842073
765.148219878
755.600518769
746.136539554
736.801976252
727.617184656
718.576667436
709.760102295
701.216461947
692.965243525
685.040236856
677.495503897
670.389747658
663.583025104
658.374658487
657.349205512
657.122611957
656.474750823
655.904378444
654.878691431
653.445862223
651.769307635
649.997450593
648.244341244
646.585918005
645.07398616
643.729801191
642.553004003
641.53488248
640.659122936
639.90544592
639.253791353
638.685802087
638.185046629
637.737492145
637.331882991
636.9594121
636.613512782
636.289281181
635.983057194
635.692129519
635.414331651
635.147868643
634.891328784
634.643731748
634.404606796
634.1739874
633.95235264
633.740546195
633.539731248
633.35136288
633.177120164
633.018843317
632.878626233
632.759004286
632.6625291
632.589786169
632.537052761
632.495211447
632.482945654
632.523149521
632.550276632
1075.66715889
1074.39393982
1072.11121146
1068.6785219
1064.19202058
1058.74192609
1052.4225114
1045.33434489
1037.55888458
1029.17761555
1020.26584248
1010.89835645
1001.14743621
991.079145381
980.760348137
970.261842679
959.643317897
948.956539333
938.234960456
927.519015267
916.860186156
906.256252548
895.716531605
885.260777506
874.868918262
864.539381748
854.254270934
844.003966639
833.821411649
823.682877405
813.555828464
803.484780167
793.456155162
783.470468813
773.531748451
763.644094382
753.824134412
744.074096506
734.435312575
724.913937077
715.544391316
706.402314488
697.530004375
688.955940615
680.738454182
672.908909403
665.385470814
659.440404671
658.228988372
658.727189357
659.060080859
658.521458299
657.367481056
655.607748046
653.492102751
651.284267114
649.158437086
647.220162023
645.514068518
644.050367937
642.81573664
641.783576422
640.923215252
640.203599584
639.595466365
639.073143634
638.615757757
638.206638151
637.832531692
637.483333871
637.151922742
636.83355717
636.525391136
636.225993428
635.934796433
635.651608337
635.376364428
635.109060906
634.849749564
634.59859596
634.355913297
634.122194554
633.898140048
633.68469673
633.483103909
633.294918507
633.122041804
632.966764735
632.831750359
632.71964703
632.631998263
632.568008138
632.524528147
632.499994317
632.52748086
632.562319148
1089.18187955
1087.72521671
1085.14476111
1081.28531835
1076.27703045
1070.23668872
1063.27967845
1055.52153696
1047.06051115
1037.97857827
1028.36086366
1018.28985697
1007.84078223
997.098692873
986.12936498
975.006129897
963.800635081
952.558204138
941.327878666
930.153246186
919.06773752
908.101615395
897.255725611
886.515147794
875.863779289
865.305393353
854.800488512
844.336903108
833.924185049
823.557092986
813.223308476
802.943399258
792.695043939
782.478586181
772.291317535
762.139165018
752.036642633
741.987594045
732.030916235
722.139436532
712.393683011
702.858092886
693.577623826
684.675148161
676.159569953
667.862481079
661.362047861
660.13962464
660.846239024
661.568465671
661.307084511
659.923770152
657.749235559
655.113903883
652.383060666
649.823073474
647.567386121
645.663195038
644.100523411
642.842399651
641.840280789
641.04340016
640.404670946
639.883239999
639.44613868
639.067428661
638.726449394
638.407512957
638.099578407
637.795555191
637.49154523
637.186107059
636.879599668
636.573443712
636.269531734
635.969782434
635.67587679
635.389154484
635.110602461
634.840922941
634.580618649
634.330098666