/*--------------------------------*- C++ -*----------------------------------*\
| =========                 |                                                 |
| \\      /  F ield         | OpenFOAM: The Open Source CFD Toolbox           |
|  \\    /   O peration     | Version:  v1906                                 |
|   \\  /    A nd           | Web:      www.OpenFOAM.com                      |
|    \\/     M anipulation  |                                                 |
\*---------------------------------------------------------------------------*/
FoamFile
{
    version     2.0;
    format      ascii;
    class       volVectorField;
    location    "52";
    object      U;
}
// * * * * * * * * * * * * * * * * * * * * * * * * * * * * * * * * * * * * * //

dimensions      [0 1 -1 0 0 0 0];


internalField   nonuniform List<vector> 
9216
(
(0.00324131341999 -0.00326700491353 0)
(0.00341155750294 -0.0105389483812 1.31504362948e-27)
(0.00341532003583 -0.0179556166973 2.21038854918e-31)
(0.00338457377468 -0.0253862768865 0)
(0.00334060777372 -0.0327480698691 0)
(0.00327193074361 -0.0399628677873 0)
(0.00320348784479 -0.0470540197505 0)
(0.00313013730628 -0.0539902120695 0)
(0.0030589389106 -0.0607682889337 0)
(0.00297820097368 -0.0673664815399 0)
(0.00290495805813 -0.0737915000039 0)
(0.00281211752975 -0.0800235635856 0)
(0.00270028720972 -0.0860586076183 0)
(0.00255193693585 -0.091783946757 0)
(0.00244026157648 -0.097277415631 0)
(0.00234866893607 -0.102541737189 0)
(0.00226985355269 -0.10760864858 0)
(0.00215516271151 -0.112443317878 0)
(0.00202466103942 -0.117020651981 0)
(0.00188661497325 -0.121322151838 0)
(0.0017578343178 -0.125350110732 0)
(0.00162699654387 -0.129108455983 0)
(0.00152680166381 -0.132612021654 0)
(0.00141049468088 -0.135871738528 0)
(0.00130550318341 -0.13888580459 0)
(0.00118951729577 -0.141577116906 0)
(0.00104484247181 -0.14412302836 0)
(0.000873769862639 -0.1462616011 0)
(0.000759356427765 -0.148122077285 0)
(0.000645323624744 -0.149751107711 0)
(0.000627942510662 -0.151004101175 0)
(0.000477725308109 -0.152448749203 0)
(0.000188847076306 -0.153156541518 0)
(-3.06350424646e-05 -0.153308435161 0)
(-0.000136984496715 -0.153267163347 0)
(-0.000260108249985 -0.152931190738 0)
(-0.000393471894604 -0.152206533221 0)
(-0.000569918144545 -0.151205186241 0)
(-0.000754506863453 -0.149747242608 0)
(-0.000936872807136 -0.147937610266 0)
(-0.00104334381509 -0.145707013836 0)
(-0.0012008344093 -0.1433249676 0)
(-0.00138188726984 -0.140396599495 0)
(-0.00155418236409 -0.137170797049 0)
(-0.0017144391707 -0.133581917262 0)
(-0.00184408076844 -0.129682008946 0)
(-0.00193845661413 -0.125515370324 0)
(-0.00205862466701 -0.121091499578 0)
(-0.00214208987259 -0.116436679505 0)
(-0.00223020936037 -0.11159086189 0)
(-0.00230478213848 -0.106561893125 0)
(-0.00236209490015 -0.101379320457 0)
(-0.00239265464347 -0.0961056058875 0)
(-0.00242264730712 -0.0907576712362 0)
(-0.00242803717597 -0.0853693592589 0)
(-0.0024276524884 -0.079971520073 0)
(-0.00242330464714 -0.0746214276157 0)
(-0.00239814740841 -0.0692416499316 0)
(-0.00232228973427 -0.0640145773159 0)
(-0.00223174008604 -0.0589278250538 0)
(-0.00214459877187 -0.054028255456 0)
(-0.00204853740193 -0.0493275070096 0)
(-0.00193830111428 -0.0448566120836 0)
(-0.00180924524044 -0.0406338501104 0)
(-0.00170484041369 -0.0366821929202 0)
(-0.0016077217988 -0.0330065927738 0)
(-0.00147752059718 -0.0295670032189 0)
(-0.00132935177816 -0.0264347172489 0)
(-0.00117256582603 -0.0236792512608 0)
(-0.00102664738452 -0.0212468479859 0)
(-0.000901947809551 -0.0191266801115 0)
(-0.000788540300722 -0.0172669419229 0)
(-0.00068080555669 -0.0156541900651 0)
(-0.000589240085502 -0.0142595900298 0)
(-0.00051896848917 -0.0130433885112 0)
(-0.000455907157033 -0.0119693932889 0)
(-0.000401485050576 -0.0110228474229 0)
(-0.000350185105476 -0.0101912781604 0)
(-0.000307077079607 -0.00946017685781 0)
(-0.000277060764249 -0.00880998599265 0)
(-0.00025009984742 -0.0082159420195 0)
(-0.000230836399107 -0.00767498293183 0)
(-0.000221162259152 -0.00717168015017 0)
(-0.000209715193933 -0.00670089891649 0)
(-0.000201809687976 -0.00625107654901 0)
(-0.000193566134057 -0.00584423238696 0)
(-0.00015942222379 -0.00541403219802 0)
(-8.44219181329e-05 -0.00500334329476 0)
(-7.68876476657e-05 -0.00493184360532 0)
(-0.00013989992347 -0.00466895700316 0)
(-0.000210964655136 -0.00442312904 0)
(-0.000252994863201 -0.00389334702966 0)
(-0.00030570097343 -0.00325285128193 0)
(-0.00039423137468 -0.00251629348366 0)
(-0.00043087730687 -0.00145602700317 0)
(-0.000419241188565 -0.000433234845706 0)
(0.0104916648649 -0.00346828747984 0)
(0.0116226733108 -0.0117629272824 0)
(0.0116249787195 -0.0200575557745 -1.38059737513e-27)
(0.0115150787916 -0.0283900564564 0)
(0.0113587907139 -0.0366115421476 0)
(0.0111548344317 -0.0447017615187 0)
(0.0109358059538 -0.0526639057123 0)
(0.0106833490383 -0.0604506165525 0)
(0.0104188792944 -0.0680300315262 0)
(0.0101247621375 -0.0754006265116 0)
(0.00983160298857 -0.0825352302404 0)
(0.00950648837617 -0.0894260094346 0)
(0.00914859958434 -0.0960870639935 0)
(0.00876189875615 -0.102467029113 0)
(0.00840267277765 -0.10879303854 0)
(0.00800834726703 -0.114651309077 0)
(0.00761950870566 -0.120318224314 0)
(0.00721361559195 -0.125469807716 0)
(0.0068602643618 -0.130582217459 0)
(0.00647010027374 -0.135378908761 0)
(0.00609194399178 -0.139967014479 0)
(0.00567831735696 -0.144309264603 0)
(0.00527540744068 -0.148329856856 0)
(0.00484642007011 -0.151987222402 0)
(0.00444467253212 -0.155357038548 0)
(0.00401150498254 -0.158399638846 0)
(0.00358655324139 -0.161085129512 0)
(0.00315928064111 -0.163756363688 0)
(0.00274874599481 -0.166015864527 0)
(0.00235652807712 -0.167968022806 0)
(0.00206837511003 -0.169717116154 0)
(0.00155937393299 -0.17077790946 0)
(0.000837486983679 -0.171808985922 0)
(0.000136370814135 -0.172328097119 0)
(-0.000350990004795 -0.172473130498 0)
(-0.000833845790268 -0.172148808983 0)
(-0.00135652711659 -0.171388972727 0)
(-0.00193252837886 -0.170201320033 0)
(-0.0024786589795 -0.16858435905 0)
(-0.00304769358158 -0.166721363641 0)
(-0.00357032843907 -0.164395904885 0)
(-0.00417526994815 -0.161504480187 0)
(-0.00477578825564 -0.158220827957 0)
(-0.00532331427176 -0.154575222631 0)
(-0.0057872919317 -0.150537111535 0)
(-0.00622969022821 -0.146411575612 0)
(-0.00668704699246 -0.141724966148 0)
(-0.00712079896472 -0.136756333951 0)
(-0.00739862857017 -0.131498488743 0)
(-0.00768611096901 -0.12602525712 0)
(-0.00795599097429 -0.120338507087 0)
(-0.00811474027855 -0.114467044556 0)
(-0.00820728267832 -0.10848281275 0)
(-0.00830501496258 -0.102414917991 0)
(-0.00832545190951 -0.0962929078207 0)
(-0.00830202940456 -0.0901836683641 0)
(-0.00823803517969 -0.0841243630428 0)
(-0.00812215394194 -0.0781648716188 0)
(-0.00794513255049 -0.0723821803529 0)
(-0.00771019624826 -0.0665964671735 0)
(-0.00743044072498 -0.0610172715046 0)
(-0.00710571332242 -0.0556452349828 0)
(-0.00673851701436 -0.0505226440066 0)
(-0.00634611762652 -0.0457002402253 0)
(-0.00590885870015 -0.0409925076007 0)
(-0.00548828953963 -0.0368753517112 0)
(-0.00500751619133 -0.0329900918103 0)
(-0.00449141721726 -0.0295212153955 0)
(-0.00397183198294 -0.0264494793854 0)
(-0.00346109077749 -0.0236895176564 0)
(-0.00302754943054 -0.0213299211732 0)
(-0.00264719909487 -0.019265485844 0)
(-0.00227613703353 -0.0174749358043 0)
(-0.00197770296286 -0.0159300597558 0)
(-0.00174992852996 -0.0145863954302 0)
(-0.0015388929038 -0.0133905088416 0)
(-0.0013520437283 -0.0123291025816 0)
(-0.00118930503989 -0.011407818045 0)
(-0.00102713252652 -0.0105474295575 0)
(-0.000923509350098 -0.00982857880388 0)
(-0.000865632247405 -0.00918581616109 0)
(-0.00079859879132 -0.00849281568602 0)
(-0.000756012341749 -0.00793190759828 0)
(-0.000703504707748 -0.00734834321519 0)
(-0.000660362167963 -0.00686209038391 0)
(-0.000639699866758 -0.00639212027171 0)
(-0.000554255912572 -0.00591345035275 0)
(-0.000361744423591 -0.0054869019561 0)
(-0.000272908885051 -0.00502579968321 0)
(-0.000420311808856 -0.00489564959462 0)
(-0.000641280458591 -0.00464827835273 0)
(-0.000805463758602 -0.00419062743527 0)
(-0.000997869562157 -0.00350185490621 0)
(-0.00137205862196 -0.00281525414464 0)
(-0.00174982720328 -0.00185519480853 0)
(-0.00145555095387 -0.000481541070565 0)
(0.0179596525637 -0.00351394821889 0)
(0.0199145200995 -0.0119206908519 0)
(0.0198977719819 -0.0203144754144 -1.37808195017e-27)
(0.0197091842572 -0.02876768981 0)
(0.0194364900937 -0.037093530208 0)
(0.0190971855091 -0.0452862576278 0)
(0.0187090924867 -0.0533082010736 0)
(0.0182793508234 -0.0611855641381 0)
(0.0178005930122 -0.0688400264518 0)
(0.0172904932774 -0.0762835666121 0)
(0.0167601538492 -0.0835321363674 0)
(0.0161831691691 -0.0904873264946 0)
(0.0155840094663 -0.0971936156387 0)
(0.0149868555403 -0.103633757787 0)
(0.0143703048879 -0.10980965116 0)
(0.013704315799 -0.11581277371 0)
(0.0130097252494 -0.121507319902 0)
(0.0123577377719 -0.127062487842 0)
(0.0117457324822 -0.132221690452 0)
(0.0111033215749 -0.137089143695 0)
(0.0104585742877 -0.141648725264 0)
(0.00974799336053 -0.145898695127 0)
(0.00901324906583 -0.149857328088 0)
(0.00827734954114 -0.153523417244 0)
(0.00758304257719 -0.156940982729 0)
(0.00695099250541 -0.160040062495 0)
(0.00635929368497 -0.163200448035 0)
(0.00569272536957 -0.165996964378 0)
(0.00497064458581 -0.16833374343 0)
(0.00421709182977 -0.170565342597 0)
(0.0034542570804 -0.172113909324 0)
(0.00261359920137 -0.173487670128 0)
(0.00162626070947 -0.174374225465 0)
(0.000604644759184 -0.174908488726 0)
(-0.000347708702967 -0.17534426267 0)
(-0.00133852019077 -0.175041933976 0)
(-0.00236240929822 -0.174314365522 0)
(-0.00335656450713 -0.173096486285 0)
(-0.00424391824543 -0.171427265417 0)
(-0.0051929968713 -0.16933740539 0)
(-0.00619824392475 -0.166824325599 0)
(-0.00729248208297 -0.163884625669 0)
(-0.00826728419056 -0.16055836274 0)
(-0.009007016714 -0.156821015173 0)
(-0.00977531137844 -0.153037898883 0)
(-0.0105278833168 -0.14864768159 0)
(-0.0112278283675 -0.14394322173 0)
(-0.0119219622585 -0.139257909301 0)
(-0.0125253018255 -0.134257095505 0)
(-0.013040614132 -0.128734255517 0)
(-0.0134990515496 -0.12321887515 0)
(-0.0139124411508 -0.117565069661 0)
(-0.0142362416088 -0.111427018391 0)
(-0.0144338157742 -0.10518444492 0)
(-0.0144625017181 -0.0988165764392 0)
(-0.0143974300739 -0.0924695842324 0)
(-0.0142553007835 -0.0861654237194 0)
(-0.0140270831497 -0.0799137607973 0)
(-0.0137404400332 -0.0737591313485 0)
(-0.0133669417167 -0.0677625222126 0)
(-0.012893541106 -0.0619734734896 0)
(-0.0123277772353 -0.0564165392864 0)
(-0.011683849031 -0.0511475953365 0)
(-0.0110074265781 -0.0461774268794 0)
(-0.0102454314781 -0.0415538140666 0)
(-0.00943656160581 -0.0373667865861 0)
(-0.00857792643965 -0.0335435038374 0)
(-0.00769908608951 -0.0300866870285 0)
(-0.00683529998958 -0.0270192029825 0)
(-0.00602120408502 -0.0243264119859 0)
(-0.00524402884092 -0.0217888230401 0)
(-0.00456645309193 -0.0196942050624 0)
(-0.003964133716 -0.0178884042811 0)
(-0.00341293526428 -0.0161695548466 0)
(-0.00297192783653 -0.0148396093997 0)
(-0.00260281469291 -0.0136827906666 0)
(-0.00229050920251 -0.0126666178647 0)
(-0.00203824889468 -0.0117675509885 0)
(-0.00183353601286 -0.0110013784591 0)
(-0.00161105452018 -0.0100340748642 0)
(-0.00147289282583 -0.00942036205275 0)
(-0.00133901567541 -0.0087501258537 0)
(-0.00125237027146 -0.00822855349157 0)
(-0.00117471542384 -0.00774885314007 0)
(-0.00112893565156 -0.00727419976413 0)
(-0.00110620244719 -0.00672716925559 0)
(-0.000988915186814 -0.00627932209906 0)
(-0.00083558197204 -0.00582065149868 0)
(-0.000684360313238 -0.00505969255474 0)
(-0.000672691175769 -0.00446482502402 0)
(-0.00096421581184 -0.00444793846857 0)
(-0.00141836047881 -0.00419041893251 0)
(-0.00168113591411 -0.00322046013729 0)
(-0.0021105368513 -0.00239895790003 0)
(-0.00263408257747 -0.00158815528623 0)
(-0.00245690762804 -0.000472334512654 0)
(0.0255658163576 -0.00355094218676 0)
(0.0284061082689 -0.0120591668187 0)
(0.028380323136 -0.0205451945045 1.37818257295e-27)
(0.028091665058 -0.0290763727321 0)
(0.0276950256647 -0.0374863104651 0)
(0.0272098256494 -0.0457526923788 0)
(0.0266632883301 -0.0538790800858 0)
(0.0260270356875 -0.0617791287514 0)
(0.0253553235685 -0.0695218866217 0)
(0.0246179848093 -0.0770108526402 0)
(0.0238286127948 -0.0842610010703 0)
(0.022987268288 -0.0912530708636 0)
(0.0221352318679 -0.0979870048899 0)
(0.0213023913905 -0.104517851326 0)
(0.0204587267751 -0.110829108486 0)
(0.0195380758832 -0.116796290743 0)
(0.0186025513968 -0.122510379607 0)
(0.0176588848433 -0.12794769779 0)
(0.0167180952803 -0.133102779026 0)
(0.015763220771 -0.137973528887 0)
(0.0148170949955 -0.142570262079 0)
(0.0138571861212 -0.146861981378 0)
(0.0128463761582 -0.151020360261 0)
(0.0118526498532 -0.154715389163 0)
(0.0109721474815 -0.158366360837 0)
(0.0101871562329 -0.161770897073 0)
(0.00932525367894 -0.164830228531 0)
(0.00829432418882 -0.167631239497 0)
(0.00725117898289 -0.170016412187 0)
(0.00614410127608 -0.172052418662 0)
(0.00497363515582 -0.173951842636 0)
(0.00370900151457 -0.175184780724 0)
(0.00232315060286 -0.176102776115 0)
(0.000993109947777 -0.176632219661 0)
(-0.000343947508652 -0.176764405996 0)
(-0.00180251658669 -0.176510668201 0)
(-0.00323495762424 -0.175776825329 0)
(-0.0047234814799 -0.174896721848 0)
(-0.00612217799412 -0.173249789763 0)
(-0.00753540436724 -0.171210321736 0)
(-0.0088759616195 -0.168821812144 0)
(-0.0101229481448 -0.165913340648 0)
(-0.0114261960954 -0.163373031926 0)
(-0.0125946699725 -0.160012164434 0)
(-0.0137739578922 -0.155934881832 0)
(-0.0149862912712 -0.151922086948 0)
(-0.0160688769227 -0.147025336022 0)
(-0.0169906162533 -0.141815683576 0)
(-0.0178521269859 -0.136270646981 0)
(-0.0186158631911 -0.130497173529 0)
(-0.0191994746019 -0.124490866338 0)
(-0.0197686176939 -0.118357015582 0)
(-0.0202363724045 -0.112071221719 0)
(-0.0206603884346 -0.106025985849 0)
(-0.0207942466935 -0.0995013166036 0)
(-0.0206839172784 -0.0930175049834 0)
(-0.0205010864261 -0.0865814515599 0)
(-0.020217057995 -0.0801865571795 0)
(-0.0198222208658 -0.0738673778041 0)
(-0.0192481829734 -0.0677084834757 0)
(-0.0185626198944 -0.0617680959545 0)
(-0.0177334967302 -0.0560631572823 0)
(-0.0167889773473 -0.05067448557 0)
(-0.0158209198965 -0.0455723442775 0)
(-0.0145901799883 -0.0407898791404 0)
(-0.0132718062721 -0.0366092661796 0)
(-0.0119771636215 -0.0328451936035 0)
(-0.0107492828235 -0.0294452488406 0)
(-0.00951893807795 -0.0264498902858 0)
(-0.00842133144726 -0.0238364905185 0)
(-0.00744400766884 -0.0214965323907 0)
(-0.00650133022651 -0.019420152301 0)
(-0.00559546816713 -0.0175356114028 0)
(-0.00482870438569 -0.0160609270364 0)
(-0.00416715109623 -0.0147728758141 0)
(-0.00363350120766 -0.0136456626714 0)
(-0.0031837568671 -0.012670821857 0)
(-0.00281273130749 -0.011847038454 0)
(-0.00255355516387 -0.0111596043667 0)
(-0.00231157535032 -0.0105836804609 0)
(-0.00209563378683 -0.0100932931091 0)
(-0.00198287921899 -0.00964903655644 0)
(-0.00185392532977 -0.00901478605281 0)
(-0.00177738848561 -0.00859220490088 0)
(-0.00166762386641 -0.0078016304507 0)
(-0.00164323599532 -0.00733091766707 0)
(-0.00160403870525 -0.00691333035911 0)
(-0.00140467299246 -0.00584441280878 0)
(-0.00131133516042 -0.00528288124966 0)
(-0.00113143200586 -0.00447307955991 0)
(-0.00129347293818 -0.00404417604319 0)
(-0.00184809070661 -0.0035826599142 0)
(-0.0025664572351 -0.00314224178541 0)
(-0.00289550535996 -0.00211345094676 0)
(-0.00349662163058 -0.00137334687156 0)
(-0.0034809609855 -0.000459909584752 0)
(0.0332813951854 -0.00360237693979 0)
(0.0369829790035 -0.0122309502685 0)
(0.0369423770596 -0.0208327090682 0)
(0.0365594877861 -0.0294778466059 0)
(0.0360370085389 -0.0379940303579 0)
(0.0354014718828 -0.0463647601598 0)
(0.0346590870754 -0.054547910193 0)
(0.0338584535027 -0.062593371395 0)
(0.0329420440651 -0.0703578972215 0)
(0.0319588471063 -0.0779060939408 0)
(0.0309182508916 -0.0852052836762 0)
(0.0298335769484 -0.0922324721109 0)
(0.0287673144874 -0.0990549926859 0)
(0.0277000934007 -0.105655567405 0)
(0.0265361534451 -0.11190121367 0)
(0.0253269861168 -0.117887235444 0)
(0.0241116309724 -0.123601145868 0)
(0.0228893380494 -0.129032125219 0)
(0.0216857787468 -0.134209827862 0)
(0.0204929230901 -0.139100270643 0)
(0.0192946275295 -0.143862853332 0)
(0.0180582036168 -0.148204898801 0)
(0.0167657836726 -0.152228638092 0)
(0.0155882077206 -0.156142695225 0)
(0.0145807600014 -0.159812571381 0)
(0.0134868764533 -0.163433163492 0)
(0.012244861398 -0.166368460407 0)
(0.0109198583204 -0.169346655815 0)
(0.00948674627807 -0.1717399784 0)
(0.00803574851297 -0.173826679013 0)
(0.00644880633076 -0.175487580206 0)
(0.00480035369977 -0.176818196283 0)
(0.0031469901784 -0.177773333963 0)
(0.00141728172787 -0.178704240934 0)
(-0.000400070283588 -0.178879784901 0)
(-0.00229779567357 -0.178656183593 0)
(-0.00409195132232 -0.177978519022 0)
(-0.00595749831852 -0.176768243925 0)
(-0.00776941818591 -0.175620060071 0)
(-0.00945162509999 -0.173561286425 0)
(-0.0111933968124 -0.172080110921 0)
(-0.0127358461043 -0.169094558335 0)
(-0.0144551433745 -0.166267707297 0)
(-0.0163077792257 -0.162404888313 0)
(-0.0179467645232 -0.15819614652 0)
(-0.0194424664267 -0.153588363632 0)
(-0.0209224459738 -0.148562861753 0)
(-0.0223000670188 -0.143681086372 0)
(-0.0235564554239 -0.137995240215 0)
(-0.0245715623935 -0.132095783152 0)
(-0.0253431171927 -0.125894673383 0)
(-0.0260176048221 -0.119544715532 0)
(-0.0264650966316 -0.113091820237 0)
(-0.0268748689559 -0.106491159213 0)
(-0.0271982618261 -0.100177505974 0)
(-0.027112511213 -0.0934729828193 0)
(-0.0269162779238 -0.0869093728554 0)
(-0.0265900851442 -0.0803528715201 0)
(-0.026061381089 -0.0738377035413 0)
(-0.0252432465875 -0.0674671101595 0)
(-0.0243195518955 -0.0613657045817 0)
(-0.0232782742769 -0.0554839143912 0)
(-0.0220367964781 -0.0500113358986 0)
(-0.0204516427118 -0.044790334973 0)
(-0.0184795695404 -0.0400547530272 0)
(-0.0167063489996 -0.0362663550722 0)
(-0.0151285561248 -0.0326276157966 0)
(-0.0136220668338 -0.0293451743468 0)
(-0.0120065269016 -0.0263642530039 0)
(-0.0106122518072 -0.023743986123 0)
(-0.00941757688945 -0.0213753243543 0)
(-0.00819539130142 -0.0192222938733 0)
(-0.0070218184093 -0.0174158962353 0)
(-0.00604356122396 -0.0159320690998 0)
(-0.00524565376422 -0.0146580708362 0)
(-0.0045526288513 -0.013435427183 0)
(-0.00393547012138 -0.0124168719868 0)
(-0.00344291657245 -0.0115902089923 0)
(-0.00308190548024 -0.0108838371614 0)
(-0.00275690724947 -0.0102787871936 0)
(-0.00249659276189 -0.00972951141453 0)
(-0.00234361219314 -0.00918062900522 0)
(-0.00225262678774 -0.00888011876721 0)
(-0.00220057011995 -0.00853876736101 0)
(-0.00218900862987 -0.00818940091944 0)
(-0.00217927045057 -0.0077761694351 0)
(-0.00230619544529 -0.00737388032408 0)
(-0.00228402599687 -0.00665172859228 0)
(-0.0020874887611 -0.00570971419658 0)
(-0.00199107869655 -0.0050292775966 0)
(-0.00187000327765 -0.0037870790414 0)
(-0.00227307369807 -0.00314768443656 0)
(-0.00298036345652 -0.00267507520217 0)
(-0.00384782892344 -0.00210617816143 0)
(-0.00406703879939 -0.00115827228557 0)
(-0.00424592033182 -0.000407964458173 0)
(0.0411000447227 -0.00366617561333 0)
(0.0457008108495 -0.0124532781055 0)
(0.0456416567844 -0.0212053381587 0)
(0.0451536095248 -0.029997067961 0)
(0.0444913290929 -0.0386479810283 0)
(0.0436924462346 -0.047141881998 0)
(0.0427927908203 -0.0554816153989 0)
(0.0417301152917 -0.0635509333358 0)
(0.0405978427115 -0.0714343102753 0)
(0.0393612769687 -0.0790426948354 0)
(0.0380556305373 -0.0863958447575 0)
(0.0367413635282 -0.0934671720551 0)
(0.0354670744607 -0.100423560328 0)
(0.0340650000491 -0.106955060734 0)
(0.0326110633767 -0.113234317539 0)
(0.0311317116689 -0.119237530061 0)
(0.0296402742402 -0.124966269491 0)
(0.0281687091042 -0.130409065151 0)
(0.0267402322498 -0.135726615663 0)
(0.0252742212373 -0.140635054008 0)
(0.0237689909007 -0.145281458103 0)
(0.0222167117463 -0.149642215324 0)
(0.0207478001452 -0.153643136265 0)
(0.0194693557433 -0.157782679509 0)
(0.0182380055714 -0.161639805658 0)
(0.0167957720972 -0.164935431312 0)
(0.015237098428 -0.168259040589 0)
(0.0135381077659 -0.170974013312 0)
(0.0117401601089 -0.173443123725 0)
(0.0098915902769 -0.175598085895 0)
(0.00800747351164 -0.177340664748 0)
(0.00609265142051 -0.179077824175 0)
(0.00407582105621 -0.180105316533 0)
(0.0019310581879 -0.180796184207 0)
(-0.000381428760618 -0.181072558646 0)
(-0.0026835469866 -0.18086482098 0)
(-0.00487773098351 -0.180646612492 0)
(-0.0069641417144 -0.179453001456 0)
(-0.00906707298678 -0.178870541245 0)
(-0.0111237776561 -0.176796883931 0)
(-0.0133836672432 -0.174937276258 0)
(-0.0157049881264 -0.171930299938 0)
(-0.0179459828513 -0.168571040174 0)
(-0.0201581241898 -0.164600305907 0)
(-0.0223226589598 -0.160776013595 0)
(-0.0243166775666 -0.155972801468 0)
(-0.0260408137871 -0.150833078751 0)
(-0.0275887442803 -0.14532869807 0)
(-0.0291176990076 -0.139486860327 0)
(-0.0305435918777 -0.133872185743 0)
(-0.0316636461581 -0.127479109883 0)
(-0.032483680954 -0.120958595174 0)
(-0.0329728824715 -0.114285734364 0)
(-0.0333574619807 -0.107443873097 0)
(-0.0336863606668 -0.100962241133 0)
(-0.0336925080066 -0.094059528637 0)
(-0.0334047782357 -0.0873391047673 0)
(-0.0329239070089 -0.0805395111807 0)
(-0.0324088004153 -0.074141374252 0)
(-0.0313689611969 -0.0675173972289 0)
(-0.0304773897735 -0.0616918438308 0)
(-0.0286291368774 -0.0557927946634 0)
(-0.0260906474801 -0.0498581846862 0)
(-0.0244414054302 -0.046167613966 0)
(-0.0221360420794 -0.0417812381718 0)
(-0.0200179194457 -0.0380119190875 0)
(-0.0180846478619 -0.0342415662844 0)
(-0.0164077536069 -0.0311480012678 0)
(-0.0144900214724 -0.028129218402 0)
(-0.0128813438172 -0.0255077385938 0)
(-0.0115920419914 -0.0231738372956 0)
(-0.0101929934084 -0.0211040498155 0)
(-0.00867943003346 -0.0190013396758 0)
(-0.00731230609357 -0.0171336580534 0)
(-0.00639381929646 -0.0158140541033 0)
(-0.00569360361006 -0.0146072736751 0)
(-0.00494900037171 -0.0134229466477 0)
(-0.0041773042607 -0.012196896356 0)
(-0.0036905803576 -0.0113289883963 0)
(-0.00331850497325 -0.0106593967025 0)
(-0.00295546506224 -0.00989687140736 0)
(-0.00278735719832 -0.00944370884319 0)
(-0.00262312353233 -0.00895974527626 0)
(-0.00249735928132 -0.00839956444692 0)
(-0.00247379664052 -0.00795386690462 0)
(-0.00257835119611 -0.00759345647932 0)
(-0.00269609195358 -0.00702134885969 0)
(-0.0028235865414 -0.00662440361766 0)
(-0.00292031943061 -0.00613070222713 0)
(-0.0031228707871 -0.00554780340244 0)
(-0.00304842760705 -0.00429143862824 0)
(-0.00295507459018 -0.00306422791297 0)
(-0.00340478484731 -0.00235530269367 0)
(-0.00460300538056 -0.002076231007 0)
(-0.00487087475185 -0.00117826688294 0)
(-0.00494011005004 -0.000365593122875 0)
(0.0490999982987 -0.00375187850832 0)
(0.0545919008366 -0.0127352587592 0)
(0.0545082885115 -0.0216726556359 1.36659179586e-27)
(0.0539071902299 -0.0306466021729 0)
(0.0531000000212 -0.0394643889949 0)
(0.0521473067564 -0.0481412225071 0)
(0.05100459675 -0.0565912297989 0)
(0.0497134197006 -0.0647823039568 0)
(0.0483426084813 -0.0727695280233 0)
(0.0468296226316 -0.080455644559 0)
(0.0452681424373 -0.0878590275998 0)
(0.0437690296553 -0.0951278545427 0)
(0.042137402692 -0.101968709626 0)
(0.0404380377176 -0.108538776855 0)
(0.0387110706047 -0.11484058141 0)
(0.0369513720197 -0.120864798817 0)
(0.0352091655815 -0.126597549465 0)
(0.0335324411591 -0.132187995377 0)
(0.0317809062538 -0.137373010266 0)
(0.029999348273 -0.142298153955 0)
(0.0282154861847 -0.146955633335 0)
(0.0264304853858 -0.15129161628 0)
(0.0249308434836 -0.155522062576 0)
(0.0235490750219 -0.159853000377 0)
(0.0218685707176 -0.163661467728 0)
(0.020077441009 -0.167036055786 0)
(0.0181571915141 -0.170149746993 0)
(0.0160954223178 -0.172916360625 0)
(0.0140402044632 -0.175460129728 0)
(0.0119704407838 -0.177666007125 0)
(0.00981632898659 -0.179861634299 0)
(0.00745658774749 -0.181343582044 0)
(0.00492963684686 -0.182484897552 0)
(0.00240665640944 -0.183273283307 0)
(-0.000166307203348 -0.183628538064 0)
(-0.0027316323648 -0.183899984823 0)
(-0.00526162979506 -0.183720181783 0)
(-0.00768082157194 -0.183093156588 0)
(-0.0103135809091 -0.182139704831 0)
(-0.0131672384189 -0.180142337316 0)
(-0.0159436759386 -0.177738102745 0)
(-0.0186939010134 -0.17468983928 0)
(-0.0215042100447 -0.171761996822 0)
(-0.0241947872472 -0.167680796215 0)
(-0.0266974321634 -0.163262122128 0)
(-0.0290331821955 -0.158286705199 0)
(-0.0313220862857 -0.153514201867 0)
(-0.0333279704411 -0.147762940981 0)
(-0.035078764001 -0.141733375537 0)
(-0.0366044513688 -0.135425249139 0)
(-0.0379102659782 -0.128769093667 0)
(-0.0390020473808 -0.12249297362 0)
(-0.0396329754667 -0.11556210077 0)
(-0.039916342446 -0.108522480348 0)
(-0.0402714898949 -0.101877614289 0)
(-0.0402040138114 -0.094740380089 0)
(-0.0400158953171 -0.0882133956013 0)
(-0.0395273708045 -0.0811402714252 0)
(-0.0391622992758 -0.0745753813568 0)
(-0.0372755205758 -0.067882524659 0)
(-0.0344154860147 -0.0611546108549 0)
(-0.0329704434735 -0.0579583302097 0)
(-0.0302168596795 -0.0530466572217 0)
(-0.0280297707494 -0.0492300175511 0)
(-0.0257558519707 -0.0450512986571 0)
(-0.0228684392134 -0.040532104408 0)
(-0.0210257606869 -0.0372378195911 0)
(-0.0192876259394 -0.0342183283235 0)
(-0.016917409101 -0.0308291726339 0)
(-0.0150485987732 -0.0281594279464 0)
(-0.0134670364738 -0.0257442517786 0)
(-0.0118583824039 -0.0236585708452 0)
(-0.0103870874716 -0.0217377315793 0)
(-0.0090773634505 -0.0201953577431 0)
(-0.00765493044959 -0.0181149834955 0)
(-0.0067543487528 -0.0167919833383 0)
(-0.0059650172801 -0.015509716655 0)
(-0.0053104072226 -0.0144762212086 0)
(-0.00462435984047 -0.0131443919139 0)
(-0.00410465276154 -0.0123070286809 0)
(-0.00368187511498 -0.0113254731282 0)
(-0.00339978084295 -0.0105405008578 0)
(-0.00327024153863 -0.00989881377238 0)
(-0.00313458918938 -0.00907864246113 0)
(-0.00304564153417 -0.00836175576738 0)
(-0.00304555680661 -0.00757651345228 0)
(-0.00313148687262 -0.00700193395833 0)
(-0.00319967063862 -0.00638193432689 0)
(-0.00348380624585 -0.00592524502985 0)
(-0.00375219584913 -0.00515693738469 0)
(-0.00418236260994 -0.00453965563016 0)
(-0.00411087409798 -0.00338963103182 0)
(-0.00389878723362 -0.00214196256923 0)
(-0.00493476596208 -0.00181291771996 0)
(-0.00576722623776 -0.00125506993306 0)
(-0.00571255590716 -0.000365656981091 0)
(0.0572912711232 -0.00385327736764 0)
(0.0636942692176 -0.0130742348109 0)
(0.063579711743 -0.0222399269318 -1.36575119868e-27)
(0.0628518022637 -0.031429805741 0)
(0.0618859664618 -0.0404584732891 0)
(0.0607375509152 -0.049322812893 0)
(0.059357633513 -0.0579293735388 0)
(0.0578131577926 -0.066264950093 0)
(0.0561847181698 -0.0743748115568 0)
(0.0543960572517 -0.082141433802 0)
(0.0526093115108 -0.0896952939883 0)
(0.050755237463 -0.096921776359 0)
(0.048797649806 -0.103789960402 0)
(0.0468133216272 -0.110397545269 0)
(0.044821345811 -0.116737050919 0)
(0.0428114172085 -0.122773531787 0)
(0.0408540188851 -0.128645265255 0)
(0.0388339922456 -0.134099964105 0)
(0.0367852157089 -0.139292489079 0)
(0.0347323037761 -0.144219308171 0)
(0.0326696127517 -0.148876413215 0)
(0.0308169762056 -0.153147763567 0)
(0.0293184336195 -0.158012622983 0)
(0.0275047640264 -0.161769280359 0)
(0.0254893127531 -0.165706040103 0)
(0.0233102275189 -0.169111160267 0)
(0.0210754936151 -0.172307981384 0)
(0.0188188744106 -0.17517095973 0)
(0.0165645434847 -0.178119933601 0)
(0.0141700388962 -0.180427434352 0)
(0.0115916164655 -0.18242894944 0)
(0.00880357536162 -0.184044803506 0)
(0.00599713423599 -0.185274328679 0)
(0.00314806391811 -0.186546594074 0)
(0.000273087227371 -0.186971977724 0)
(-0.00254730686596 -0.187374220536 0)
(-0.00542707039467 -0.187245616815 0)
(-0.00843852873069 -0.186786174336 0)
(-0.0118030013902 -0.185402851875 0)
(-0.0152070994829 -0.183463734333 0)
(-0.0185331504306 -0.18152503493 0)
(-0.02177483631 -0.178438269371 0)
(-0.0250795083626 -0.174948824198 0)
(-0.028286655238 -0.170771646611 0)
(-0.0313358753485 -0.16667862381 0)
(-0.0340852838644 -0.161490503409 0)
(-0.0367343422818 -0.155976846619 0)
(-0.03915345637 -0.150058752633 0)
(-0.0411049715467 -0.143694682758 0)
(-0.0430482190776 -0.137686073512 0)
(-0.0443780453785 -0.130705711332 0)
(-0.045612155278 -0.124252553757 0)
(-0.046378853956 -0.117014769506 0)
(-0.0469157132006 -0.110282922358 0)
(-0.0470457947274 -0.102807364985 0)
(-0.0471259468482 -0.0959548050807 0)
(-0.0467812767687 -0.0887540941077 0)
(-0.046437702593 -0.0816301301543 0)
(-0.0443016186126 -0.0744782344116 0)
(-0.0415984640898 -0.0687567169243 0)
(-0.03896820361 -0.0645211034933 0)
(-0.0359565525148 -0.0597082717786 0)
(-0.0331695867509 -0.0550920021357 0)
(-0.0307565828719 -0.0507545339141 0)
(-0.0285046968757 -0.0468230890133 0)
(-0.0261593748785 -0.0437875303016 0)
(-0.0233232830437 -0.0395380713215 0)
(-0.021390357817 -0.0369675916771 0)
(-0.0187654395917 -0.033555732243 0)
(-0.0164292276202 -0.0307091502204 0)
(-0.0149705318141 -0.0292525444342 0)
(-0.0128640029839 -0.0265737662304 0)
(-0.0112878883009 -0.0248300223676 0)
(-0.0100720600463 -0.0233020644235 0)
(-0.00890679613448 -0.0217859683085 0)
(-0.00785567908298 -0.0202770944027 0)
(-0.00708106452484 -0.0189643510299 0)
(-0.00612644444324 -0.0169490326638 0)
(-0.00543510460478 -0.0158069161592 0)
(-0.00495653552522 -0.0147097906278 0)
(-0.00448031923537 -0.0132683504542 0)
(-0.00426778611567 -0.0123143632089 0)
(-0.00403039110692 -0.0110759151721 0)
(-0.00389613932355 -0.0100762688475 0)
(-0.00379148995414 -0.0092344725265 0)
(-0.00381971147699 -0.00841064618261 0)
(-0.00409035931597 -0.00789202035956 0)
(-0.00400278396422 -0.00667112769655 0)
(-0.0040480927837 -0.00569774271973 0)
(-0.004325267839 -0.00491694668868 0)
(-0.00474453849863 -0.00423029348376 0)
(-0.00528674668713 -0.00365011818699 0)
(-0.00509280186526 -0.00240906948183 0)
(-0.0050116561092 -0.00147440395396 0)
(-0.00656507132219 -0.00120662133067 0)
(-0.00648059361256 -0.000385310060472 0)