/*--------------------------------*- C++ -*----------------------------------*\
| =========                 |                                                 |
| \\      /  F ield         | OpenFOAM: The Open Source CFD Toolbox           |
|  \\    /   O peration     | Version:  v1906                                 |
|   \\  /    A nd           | Web:      www.OpenFOAM.com                      |
|    \\/     M anipulation  |                                                 |
\*---------------------------------------------------------------------------*/
FoamFile
{
    version     2.0;
    format      ascii;
    class       volScalarField;
    location    "578";
    object      p;
}
// * * * * * * * * * * * * * * * * * * * * * * * * * * * * * * * * * * * * * //

dimensions      [0 2 -2 0 0 0 0];


internalField   nonuniform List<scalar> 
9216
(
273.521860233
273.601633276
273.766698919
274.018463179
274.355504836
274.776238365
275.278694409
275.860564715
276.519235405
277.251833297
278.05525648
278.926221314
279.861289622
280.856913923
281.909458666
283.015241582
284.17054757
285.371665387
286.614894049
287.89657512
289.213092332
290.560900318
291.936518582
293.336557687
294.757708738
296.196767959
297.650622702
299.116275104
300.590825385
302.07149504
303.555608055
305.040613338
306.524064149
308.003641379
309.477130964
310.942446178
312.397604046
313.840747572
315.270120926
316.684091323
318.081123245
319.459799972
320.81879707
322.156903548
323.472994859
324.766053686
326.035142716
327.279425048
328.498136984
329.690608082
330.856234192
331.994497148
333.104938254
334.18717761
335.240888238
336.265814985
337.261749439
338.22854836
339.166109494
340.074389444
340.953380452
341.803127618
342.623706697
343.415240541
344.177877939
344.911809169
345.617245893
346.294435711
346.943643118
347.565162971
348.159302529
348.726393771
349.266776537
349.780809656
350.268855242
350.731288617
351.168483799
351.580822239
351.968679569
352.33243317
352.672450234
352.989094223
353.282714306
353.55365075
353.802225813
354.028748146
354.233505251
354.41676707
354.578780332
354.719772042
354.839947387
354.93949695
355.018608496
355.077519279
355.117111664
355.133311656
273.442127823
273.522263076
273.687672806
273.940438908
274.278916584
274.701444646
275.206010041
275.790266127
276.451564273
277.186994574
277.993421684
278.867526844
279.805841676
280.804787398
281.860703329
282.969881004
284.128585964
285.333086058
286.579666457
287.864652528
289.184418851
290.535407645
291.914132949
293.31719572
294.741284349
296.183187449
297.639791659
299.108092898
300.585192147
302.06830564
303.554759017
305.041997041
306.527576472
308.009174445
309.484580492
310.951704814
312.408569029
313.853313724
315.284188364
316.699558295
318.097893888
319.47777702
320.83788961
322.177019644
323.494049262
324.787960409
326.057822651
327.302798539
328.522131321
329.715150101
330.881257625
332.01993529
333.130731149
334.213264834
335.267215885
336.292328622
337.28840088
338.255288829
339.192896168
340.101178868
340.980134843
341.82980856
342.650281185
343.441674988
344.204143946
344.937877863
345.643093398
346.320037833
346.968980496
347.59021612
348.184056647
348.750834138
349.290892963
349.804592243
350.292298447
350.754387374
351.191237195
351.603229995
351.990745305
352.354161254
352.693848638
353.010171731
353.303482946
353.574123366
353.822418059
354.048676383
354.253188024
354.43622314
354.598029164
354.738830726
354.858826746
354.958188056
355.037048379
355.095473482
355.133340864
355.149515027
273.276295672
273.357579177
273.524521779
273.779592742
274.121115669
274.547384159
275.056324329
275.645521237
276.312255282
277.053543282
277.866178417
278.746771612
279.691789259
280.697590714
281.760460407
282.87663917
284.0423494
285.253819681
286.507303155
287.799096064
289.12555031
290.483087112
291.868205064
293.277490191
294.707620732
296.1553747
297.617632377
299.091382168
300.573721467
302.061861311
303.553125996
305.044956858
306.534910893
308.020663535
309.500006397
310.970849438
312.431217776
313.879253098
315.313209704
316.731455238
318.132466048
319.51482733
320.877227907
322.218459881
323.537412983
324.833073843
326.104520052
327.350919183
328.571522701
329.765664853
330.932756574
332.072284345
333.183804207
334.26694067
335.321380935
336.346873913
337.343224699
338.310293734
339.24799157
340.156278152
341.035157871
341.884678938
342.704928696
343.496033025
344.258151861
344.991478586
345.696235695
346.372674099
347.021068908
347.641718599
348.23494088
348.801071695
349.340461168
349.853472429
350.340477655
350.801856737
351.237993439
351.64927395
352.036083199
352.398803336
352.73781026
353.053472081
353.346145914
353.616176372
353.863892683
354.089607261
354.293613172
354.476182783
354.637565504
354.777986259
354.897642821
354.996702576
355.075296168
355.133501978
355.171263687
355.189059941
273.021335523
273.103906031
273.273246141
273.531921612
273.878194919
274.310283852
274.826020795
275.422885742
276.098047971
276.848410542
277.670654329
278.56128152
279.516656342
280.533043317
281.60664128
282.733614204
283.910117417
285.132320804
286.396427726
287.698691614
289.035428935
290.403030692
291.797970986
293.216814922
294.656224143
296.112962337
297.58389877
299.066012205
300.556393072
302.052246272
303.550892328
305.049769226
306.546432737
308.038557534
309.52393656
311.000481307
312.466220432
313.919299261
315.357977643
316.780628742
318.1857362
319.571892314
320.937794618
322.282243557
323.604138626
324.902475663
326.176342698
327.424917005
328.647460798
329.843318177
331.011910804
332.152734868
333.265356849
334.349410599
335.404593283
336.430662639
337.427433156
338.394773539
339.332603146
340.240889659
341.119645754
341.96892695
342.788828479
343.579483241
344.341058817
345.073755477
345.777803258
346.453459963
347.101008259
347.720753612
348.313021366
348.878154587
349.416511115
349.928461319
350.414385122
350.874669689
351.309706466
351.719888836
352.105609216
352.467256725
352.805214406
353.119856958
353.411548129
353.680638576
353.927463466
354.152340512
354.355567798
354.537421968
354.698156198
354.837998334
354.957148627
355.055777183
355.134020828
355.191978081
355.229634923
355.247759196
272.676166318
272.760385705
272.933015355
273.196644736
273.549442956
273.989516985
274.514567186
275.121926927
275.808610572
276.571363435
277.406710853
278.311005488
279.280471335
280.311243889
281.399405683
282.541017372
283.732144113
284.968877883
286.247355782
287.563775164
288.914405712
290.295599345
291.70379797
293.135539936
294.587465031
296.056318796
297.538955839
299.03234283
300.533560734
302.039806892
303.54839644
305.056763489
306.562461864
308.063165778
309.556669526
311.040887232
312.513851899
313.973714352
315.418741508
316.847314583
318.257926656
319.649180227
321.019784191
322.368550873
323.694392552
324.996318114
326.273429277
327.524917017
328.750057639
329.948209121
331.118807177
332.261361643
333.375452645
334.46072714
335.516895282
336.543727176
337.541049508
338.508742549
339.446737048
340.355011498
341.233589264
342.082536065
342.901957294
343.691995643
344.452828546
345.184665868
345.8877474
346.56234054
347.208737767
347.827254272
348.41822536
348.982004001
349.518958159
350.029468245
350.513924395
350.972723857
351.406268239
351.814960884
352.199204138
352.559396768
352.895931307
353.209191573
353.499550154
353.767366078
354.012982492
354.236724519
354.438897148
354.619783285
354.77964182
354.918705778
355.037180448
355.135241738
355.213034764
355.270672525
355.308159768
355.326323044
272.239005355
272.325316404
272.502181847
272.77219822
273.133405558
273.583759929
274.120785103
274.741620063
275.44307497
276.221688475
277.073783261
277.995518502
278.982937851
280.032012165
281.138676559
282.29886185
283.508520625
284.763648502
286.060301104
287.394607495
288.762780618
290.161125435
291.5860452
293.034046417
294.501742733
295.985858165
297.483229722
298.990809705
300.505667599
302.024991747
303.546090652
305.066393894
306.583452906
308.094941578
309.598655881
311.092513493
312.574552878
314.042932048
315.495926848
316.931928932
318.349443315
319.747085676
321.123579287
322.477751779
323.808531606
325.114944426
326.396109264
327.65123467
328.879614742
330.080625223
331.253719529
332.398424924
333.514338684
334.601124455
335.65850866
336.686277112
337.684271714
338.652387376
339.590569014
340.498808759
341.377143232
342.225650989
343.044450004
343.833695279
344.593576447
345.324315451
346.026164175
346.699402117
347.344333964
347.961287193
348.550609557
349.112666564
349.647838863
350.156519619
350.639111795
351.096025458
351.527675012
351.93447647
352.316844707
352.675190759
353.009919154
353.321425314
353.610093018
353.876291971
354.120375454
354.342678099
354.543513771
354.723173566
354.881923926
355.020004881
355.137628454
355.234977378
355.312204461
355.369431839
355.406671927
355.424756351
271.707575406
271.796477267
271.978607104
272.25656169
272.628212146
273.09131729
273.643172103
274.280665589
275.000347141
275.798493437
276.671172206
277.614301231
278.623701089
279.695140879
280.824376737
282.007183426
283.239379552
284.516847233
285.835547049
287.191529198
288.580941642
290.000036022
291.445171927
292.912820071
294.399564728
295.902105737
297.417260243
298.941964278
300.473274222
302.008368123
303.544546812
305.079234698
306.609980539
308.134458002
309.650465202
311.155924272
312.64888042
314.127500553
315.590071489
317.034997758
318.460799035
319.86610722
321.249663225
322.610313493
323.947006298
325.258787876
326.544798419
327.804267997
329.036512428
330.240929152
331.416993143
332.56425289
333.682326483
334.770897828
335.829713014
336.858576843
337.857349538
338.825943629
339.764321009
340.672490162
341.550503529
342.398455012
343.216477573
344.004740913
344.763449199
345.492838807
346.193176066
346.86475497
347.50789484
348.122937934
348.710246977
349.270202623
349.803200842
350.30965024
350.789969323
351.244583717
351.673923357
352.078419664
352.458502733
352.814598542
353.1471262
353.456495269
353.743103148
354.007332564
354.249549158
354.470099198
354.669307416
354.847474982
355.004877635
355.141763964
355.258353919
355.354837766
355.431375363
355.488095058
355.525013541
355.542955713
271.079053862
271.171104229
271.359634143
271.647233242
272.031556332
272.510109568
273.079896757
273.737491109
274.479115212
275.300720288
276.198060312
277.166758994
278.202368061
279.300416209
280.45644884
281.666059229
282.924912131
284.228761
285.573460042
286.954972281
288.369374666
289.81286114
291.281744392
292.772456865
294.281551435
295.805702032
297.341704359
298.886476761
300.437061211
301.990624382
303.544458457
305.095982139
306.642741331
308.182409545
309.712787578
311.231802994
312.737509117
314.228083567
315.701826325
317.157157387
318.592613988
320.006847484
321.398619892
322.766800175
324.110360282
325.428371032
326.719997855
327.984496472
329.221208526
330.429557253
331.60904318
332.759239944
333.879790216
334.970401804
336.030843918
337.060943649
338.060582647
339.029694009
339.968259377
340.876306226
341.753905316
342.601168305
343.418245459
344.205323467
344.962623277
345.690397969
346.388930599
347.058531998
347.699538513
348.312309653
348.897225646
349.454684905
349.985101391
350.48890189
350.96652322
351.418409375
351.84500863
352.24677063
352.62414347
352.977570811
353.307489026
353.614324421
353.898490527
354.1603855
354.400389629
354.618862981
354.816143177
354.992543331
355.148350153
355.283822256
355.399188676
355.494647725
355.570366283
355.626478305
355.663004014
355.680759727
270.350010416
270.445837265
270.642039969
270.941188977
271.340664441
271.83765167
272.428787261
273.11024937
273.877855551
274.727157814
275.653529596
276.652242286
277.718529697
278.847640183
280.034876971
281.27562796
282.565386546
283.899765201
285.27450347
286.685471899
288.12867321
289.600241791
291.09644235
292.613668345
294.14844062
295.697406489
297.25733938
298.82513899
300.397831891
301.97257241
303.546643291
305.11745693
306.682556133
308.239614433
309.786435874
311.320954471
312.841233153
314.345462182
315.831957076
317.299156058
318.74561706
320.170014336
321.571134736
322.947873684
324.29923093
325.624306115
326.922294233
328.192480999
329.434238229
330.647019224
331.83035426
332.983846171
334.107166118
335.200049527
336.262292258
337.293747007
338.29431996
339.263967689
340.202694302
341.110548806
341.987622686
342.834047636
343.649993437
344.435665914
345.191304944
345.917182464
346.613600459
347.280888868
347.919403407
348.529523278
349.111648752
349.66619863
350.193607578
350.694323353
351.168803933
351.617514568
352.040924783
352.439505349
352.81372525
353.164048669
353.490932023
353.794821059
354.07614804
354.335329039
354.572761353
354.78882106
354.983860734
355.158207316
355.312160187
355.445989415
355.55993424
355.654201942
355.728966811
355.784368332
355.820431254
355.837963123
269.516331406
269.616651052
269.821973749
270.134831756
270.552256751
271.071027624
271.687319391
272.396818307
273.194843048
274.076459865
275.036585347
276.070074042
277.171789527
278.33665914
279.559713756
280.836114662
282.161169939
283.53034275
284.939253763
286.383679652
287.85954925
289.362938627
290.890066005
292.437287191
294.001091913
295.578101266
297.165066276
298.758867468
300.356515199
301.955150555
303.552045992
305.144606938
306.730372847
308.307017386
309.872348425
311.424307519
312.960968785
314.48053722
315.981346435
317.46185588
318.920647564
320.356422374
321.767996002
323.154294583
324.514350081
325.847295514
327.152360038
328.428864
329.676213969
330.893897839
332.081480019
333.238596789
334.364951836
335.46031204
336.5245035
337.55740787
338.558958966
339.529139697
340.467979266
341.375550655
342.251968332
343.097386172
343.911995513
344.69602332
345.449730387
346.173409543
346.867383788
347.53200435
348.167648608
348.77471787
349.353634988
349.904841809
350.428796474
350.925970576
351.39684619
351.841912815
352.261664246
352.656595407
353.027199172
353.373963211
353.697366879
353.997878175
354.275950796
354.532021312
354.766506469
354.979800647
355.172273487
355.344267694
355.496097032
355.628044534
355.740360928
355.833263302
355.906934126
355.961519303
355.997048735
356.014320933
268.573124648
268.678765855
268.894878676
269.223927643
269.662501111
270.206862181
270.852605469
271.594805472
272.428168262
273.347172074
274.346189186
275.41958608
276.561800975
277.767399916
279.031113979
280.347860915
281.712754704
283.121106351
284.568418814
286.050378478
287.562845034
289.101841186
290.663543185
292.244272831
293.840491315
295.448794998
297.065913021
298.688706471
300.314168733
301.93942662
303.561741306
305.178510401
306.787269622
308.385692788
309.971592164
311.542917965
313.097757213
314.634331897
316.150996517
317.646235009
319.118657162
320.566994546
321.990096061
323.38692315
324.756544778
326.098132221
327.410953758
328.694369307
329.947825099
331.170848403
332.363042411
333.524081288
334.653705474
335.75171725
336.817976637
337.852397614
338.854944719
339.825629985
340.764510245
341.671684738
342.547293022
343.391513094
344.204559701
344.986682752
345.738165773
346.459324337
347.15050442
347.812080614
348.44445419
349.048050941
349.623318843
350.170725487
350.690755329
351.18390675
351.650688979
352.09161888
352.507217679
352.898007616
353.26450861
353.607234919
353.926691868
354.223372647
354.497755212
354.750299321
354.981443708
355.191603431
355.381167389
355.550496044
355.699919346
355.829734841
355.940206026
356.031561053
356.103991442
356.157650028
356.192573227
356.209549897
267.514598034
267.626534259
267.855393157
268.203527302
268.666957558
269.241289501
269.921385747
270.701559115
271.575764168
272.537769806
273.581303873
274.700166882
275.88831497
277.139914896
278.449375509
279.811360722
281.220788984
282.672823692
284.162858232
285.68649853
287.239545233
288.817977039
290.41793617
292.035716587
293.66775522
295.310626176
296.961037651
298.61583107
300.271981843
301.926601142
303.576937471
305.220379481
306.8544585
308.476848364
310.085366229
311.677972158
313.252767906
314.807994936
316.342031689
317.853390192
319.340712062
320.802764011
322.238432913
323.646720544
325.026738059
326.377700302
327.698920013
328.98980202
330.249837453
331.478598083
332.675730807
333.840952379
334.974044401
336.07484867
337.143262883
338.179236766
339.182768623
340.153902328
341.092724727
341.999363438
342.873984978
343.716793179
344.528027798
345.307963245
346.056907356
346.77520011
347.463212241
348.121343663
348.750021674
349.349698909
349.920851019
350.463974093
350.979581822
351.468202456
351.930375563
352.366648655
352.777573706
353.163703619
353.52558867
353.86377298
354.178791035
354.471164305
354.741397973
354.9899778
355.217367166
355.424004275
355.610299572
355.776633355
355.923353601
356.050774031
356.159172378
356.248788898
356.319825227
356.372442311
356.40668364
356.423327566
266.333903647
266.453295817
266.697226153
267.067869075
267.560513164
268.169920163
268.890025076
269.714189823
270.635446858
271.646711657
272.740953719
273.91132391
275.151240241
276.454437574
277.814988437
279.227302457
280.686111336
282.186445209
283.723604901
285.293133391
286.890788771
288.512520163
290.154447522
291.812845786
293.484133508
295.164865763
296.85173083
298.541549875
300.231278747
301.91801085
303.598979968
305.271564269
306.933289584
308.581829389
310.215006161
311.830791019
313.427302457
315.002804134
316.555701834
318.084539649
319.587995527
321.064876232
322.514111873
323.934750061
325.325949826
326.686975354
328.017189659
329.316048231
330.583092768
331.817945026
333.020300886
334.189924666
335.326643794
336.430343853
337.500964096
338.538493432
339.542966954
340.514462971
341.453100564
342.359037599
343.232469167
344.073626336
344.882775161
345.660215802
346.406281697
347.121338635
347.805783692
348.460043899
349.08457464
349.6798577
350.246398986
350.7847259
351.295384416
351.778935869
352.235953539
352.667019046
353.072718643
353.453639432
353.810365572
354.143474507
354.453533268
354.741094869
355.006694839
355.250847911
355.474044889
355.676749721
355.859396775
356.022388347
356.166092403
356.290840528
356.396926128
356.484603007
356.554083936
356.605538543
356.639018741
356.655291298
265.022935865
265.151190644
265.412999294
265.810259931
266.337306449
266.987808809
267.754519314
268.629608434
269.604976284
270.672514263
271.824305566
273.052764325
274.350719082
275.711450313
277.128693266
278.596617024
280.109789219
281.663133771
283.251887006
284.871555725
286.51787938
288.186797663
289.874424129
291.577026149
293.291011138
295.012918666
296.739417635
298.467307414
300.193521592
301.91513221
303.629355556
305.333557319
307.025255816
308.702123578
310.361988722
312.002834722
313.622799007
315.220170482
316.793386062
318.341026374
319.861810698
321.354591329
322.818347425
324.252178516
325.655297743
327.027024965
328.366779788
329.674074639
330.948507906
332.189757267
333.397573236
334.571773033
335.712234834
336.818892502
337.891730833
338.93078141
339.936119072
340.907859024
341.846154569
342.751195416
343.623206479
344.462447096
345.269210502
346.043823476
346.786645984
347.498070728
348.178522445
348.828456912
349.448359536
350.038743539
350.600147692
351.133133638
351.638282813
352.116193056
352.567474935
352.992747882
353.392636191
353.767764949
354.118755954
354.446223667
354.750771253
355.032986733
355.293439289
355.532675751
355.751217282
355.949556285
356.128153547
356.287435628
356.427792487
356.549575383
356.653095008
356.738619856
356.806375
356.856540017
356.889175694
356.905036032
263.572067424
263.710917175
263.994046098
264.42292929
264.990641451
265.689426534
266.510518426
267.444588581
268.482145585
269.613856177
270.830776692
272.124498841
273.487221659
274.911765988
276.391548674
277.920531953
279.493160502
281.104295164
282.749149283
284.423231061
286.122293651
287.842293682
289.579358426
291.329761601
293.089907601
294.856323589
296.625658303
298.394685911
300.160313021
301.919585414
303.669697462
305.407998987
307.131998555
308.839366732
310.527937507
312.195708095
313.840837342
315.461642839
317.056596943
318.62432183
320.163583761
321.673286672
323.152465265
324.600277717
326.015998175
327.399009107
328.748793649
330.064927987
331.347073876
332.594971337
333.808431644
334.987330636
336.131602512
337.241234135
338.31626
339.356757879
340.362845256
341.334676507
342.272440873
343.176361114
344.046692798
344.883724063
345.687775728
346.459201557
347.198388541
347.905756991
348.581760342
349.226884508
349.841646751
350.426593983
350.982300516
351.509365281
352.008408567
352.480068361
352.924996375
353.343853833
353.737307125
354.106023391
354.450666099
354.771890684
355.070340279
355.346641598
355.601400987
355.835200683
356.048595294
356.242108539
356.416230236
356.571413565
356.708072605
356.826580126
356.927265646
357.010413917
357.076263397
357.125004154
357.156707232
357.172112511
261.969800085
262.121415468
262.430154867
262.896850123
263.512892829
264.268645125
265.153376959
266.155866093
267.264910941
268.469721156
269.760177697
271.12697425
272.561662076
274.056624806
275.605008787
277.200630427
278.837876472
280.511607671
282.217071714
283.949828035
285.705684987
287.480649052
289.270885538
291.072690474
292.88247345
294.696750826
296.512147778
298.325406808
300.133399762
301.933138984
303.721790451
305.49668347
307.255314025
308.995349337
310.714629426
312.411166848
314.083144721
315.728913295
317.346985276
318.936030125
320.494867456
322.022459747
323.517904495
324.980426031
326.40936712
327.804180498
329.164420418
330.48973431
331.779854563
333.034590562
334.253820978
335.437486484
336.585582947
337.698155274
338.775291975
339.817120601
340.823804077
341.795538013
342.732548935
343.635093411
344.50345792
345.337959341
346.138945833
346.906797921
347.641929539
348.344788849
349.015858623
349.655656072
350.264732
350.843669254
351.393080454
351.913605061
352.405905852
352.870664923
353.308579307
353.720356353
354.106708947
354.468350684
354.805991058
355.120330723
355.412056896
355.681838924
355.930324053
356.158133434
356.365858392
356.554056964
356.723250738
356.87392198
357.006511065
357.121414211
357.218981496
357.299515123
357.363268154
357.410442472
357.441119776
357.456024399
260.202296037
260.369446951
260.709237431
261.221520811
261.895406215
262.718745155
263.678248454
264.760293116
265.951578555
267.239594557
268.612900329
270.061240847
271.575539213
273.147806839
274.771008794
276.438913162
278.145943885
279.887048195
281.657583312
283.453222888
285.269881491
287.103654921
288.950774793
290.807576825
292.670483007
294.535997411
296.40071384
298.261331805
300.11467616
301.957714934
303.78757732
305.601566097
307.397161008
309.1720243
310.924002281
312.651124771
314.351602571
316.023823225
317.666345484
319.277892649
320.857344968
322.403731258
323.916219983
325.394109996
326.836821138
328.243884838
329.614934819
330.949697928
332.247985172
333.509682953
334.734744627
335.923182457
337.075060133
338.190485992
339.269607132
340.312604517
341.319689229
342.291099877
343.22710119
344.127983693
344.994064347
345.825687928
346.623228913
347.387093578
348.117722036
348.815589934
349.481209588
350.11513035
350.717938125
351.290253945
351.832731655
352.346054738
352.830932443
353.28809531
353.718290301
354.122275637
354.500815512
354.854674773
355.184613653
355.49138262
355.775717398
356.038334184
356.279925112
356.501153983
356.702652289
356.885015552
357.048799996
357.19451954
357.322643141
357.433592426
357.527739651
357.605406121
357.666860608
357.712317321
357.741870056
357.756225992
258.252738948
258.439030814
258.816899239
259.384701735
260.128403109
261.032467996
262.080249207
263.255072944
264.54107174
265.923730638
267.390162197
268.929161212
270.531104331
272.187759172
273.892056
275.63785941
277.419762207
279.232911429
281.07286788
282.935495558
284.816875394
286.713238194
288.620913693
290.536295332
292.455822169
294.37597917
296.293313814
298.20446394
300.106188269
301.995395321
303.869167198
305.72477228
307.559670043
309.371516113
311.158163578
312.917662032
314.648254115
316.348370183
318.016621651
319.651793244
321.252834176
322.818848495
324.34908485
325.842925994
327.29987822
328.719560954
330.101696529
331.44610019
332.752670283
334.021378667
335.252261384
336.445409744
337.600961987
338.719095759
339.800021591
340.84397762
341.851225662
342.822048763
343.756750199
344.655653873
345.519105896
346.347477127
347.141166318
347.900603527
348.626253396
349.318617975
349.978238764
350.605697768
351.201617398
351.766659187
352.30152133
352.806935193
353.283660909
353.732482319
354.154201426
354.549632588
354.919596606
355.264914826
355.586403355
355.884867447
356.1610961
356.415856894
356.649891114
356.863909177
357.058586405
357.234559135
357.392421229
357.532720929
357.655958098
357.762581822
357.852988342
357.927519274
357.986460344
358.030039438
358.058362809
358.072118801
256.100446864
256.310675722
256.73587847
257.372102627
258.200909323
259.202144938
260.354730297
261.63811319
263.033309565
264.52351352
266.094322022
267.733666072
269.431555292
271.179733773
272.9713206
274.800480996
276.662150494
278.55181738
280.465358012
282.39891427
284.348801353
286.31143628
288.283282039
290.26080783
292.240470059
294.218719154
296.1920301
298.156948949
300.110140081
302.048431829
303.968846086
305.868608518
307.745154514
309.596131663
311.419400831
313.213034722
314.975313069
316.704715642
318.399914274
320.059763889
321.683292284
323.2696889
324.818293047
326.328581888
327.800158583
329.232740761
330.626149381
331.980297879
333.295181533
334.570866943
335.807481723
337.00520451
338.164255586
339.284888361
340.367382067
341.412035904
342.419164888
343.389097507
344.322175249
345.218753854
346.079206133
346.903925955
347.693333033
348.447877993
349.168047263
349.854367294
350.507407762
351.127783422
351.716154478
352.273225381
352.799742154
353.296488372
353.764280085
354.203959917
354.616390687
355.002448771
355.363017445
355.698980321
356.011214984
356.300586868
356.567943391
356.814108388
357.039876856
357.246010065
357.433231031
357.602220421
357.753612861
357.887993681
358.005896072
358.107798617
358.194123202
358.265233436
358.321433084
358.362964161
358.389946864
358.403048817
253.719614064
253.960317687
254.445311659
255.1670243
256.100743261
257.219957804
258.497717181
259.908551437
261.429739595
263.041940016
264.729279755
266.479060393
268.281252896
270.127927491
272.012716273
273.930360062
275.876356153
277.84670139
279.837713046
281.845905407
283.867900729
285.900358233
287.939913212
289.98312892
292.026472867
294.066332211
296.099065629
298.12107958
300.128904158
302.119259026
304.089090484
306.035575946
307.956123912
309.848373029
311.710193503
313.53968578
315.33517346
317.095193704
318.81848776
320.50399095
322.150820784
323.758263823
325.325761962
326.852898615
328.339385312
329.78504906
331.189820303
332.553721335
333.87685485
335.159392489
336.401563351
337.603642734
338.765941391
339.88879576
340.972559565
342.017597207
343.024279223
343.992980067
344.924078208
345.817958514
346.67501658
347.495664627
348.280338361
349.029504205
349.743666224
350.423372151
351.069218006
351.681850954
352.261970161
352.810325649
353.327715211
353.814979671
354.272996801
354.702674345
355.104942511
355.480746326
355.831038071
356.156769976
356.45888722
356.738321267
356.995983518
357.232759302
357.449502223
357.647028904
357.82611417
357.987486692
358.131825131
358.259754749
358.371844498
358.46860456
358.550484287
358.617870442
358.671086036
358.710388552
358.735912428
358.748302578
251.077482786
251.357826132
251.919774295
252.749976285
253.814631666
255.0784193
256.506606309
258.067530366
259.734081194
261.484257692
263.300974205
265.171376891
267.085947263
269.037608156
271.020954585
273.031656892
275.066035366
277.120779789
279.19277677
281.279005845
283.376469259
285.482129011
287.592838705
289.70527696
291.815907625
293.921005465
296.016741206
298.099306742
300.16503801
302.210511357
304.232584584
306.228386617
308.195299557
310.130952495
312.033226843
313.900257357
315.730420647
317.522320804
319.274778747
320.986821976
322.657670748
324.286722335
325.873534953
327.417811587
328.919384825
330.378203109
331.794318037
333.167872228
334.499087266
335.788251245
337.035705966
338.241834016
339.40704631
340.53177061
341.616441691
342.661493632
343.66735473
344.6344453
345.563178505
346.453964088
347.307214685
348.123354132
348.90282706
349.646108895
350.353715434
351.026211147
351.664215607
352.268407519
352.839526153
353.378370113
353.88579364
354.362700775
354.810037919
355.228785337
355.61994823
355.984547788
356.323612589
356.638170466
356.929240857
357.197827594
357.444912062
357.671446729
357.878349048
358.066495813
358.236717996
358.389796148
358.526456339
358.647366681
358.75313438
358.844303259
358.921351737
358.984691366
359.034665393
359.071547099
359.095486649
359.107104019
248.131608873
248.464869405
249.128042414
250.098333804
251.32857528
252.771214345
254.381252019
256.119330363
257.953352499
259.858794891
261.817984265
263.818762389
265.852989216
267.915199461
270.001548712
272.109068801
274.235192371
276.377484032
278.533511761
280.700796576
282.87678649
285.058813154
287.244010117
289.429204656
291.610832166
293.784974504
295.947497275
298.09425742
300.22131077
302.325050635
304.402242496
306.449982588
308.465632863
310.446810258
312.391407809
314.29760461
316.163843456
317.988806523
319.771405295
321.510773087
323.206248335
324.857355017
326.46378362
328.02537181
329.542087028
331.014011981
332.441331638
333.824321112
335.163333313
336.458785555
337.711145115
338.920914234
340.088615303
341.214777153
342.299923193
343.344562225
344.349182466
345.314249309
346.240206947
347.127483833
347.976501488
348.787685984
349.561481059
350.29836177
350.998847467
351.663513066
352.292997694
352.888010189
353.449331104
353.977811256
354.474367039
354.939973037
355.375652622
355.782467427
356.161506493
356.513875744
356.840688179
357.143054885
357.422076776
357.67883689
357.914393067
358.129770987
358.325957593