/*--------------------------------*- C++ -*----------------------------------*\
| =========                 |                                                 |
| \\      /  F ield         | OpenFOAM: The Open Source CFD Toolbox           |
|  \\    /   O peration     | Version:  v1906                                 |
|   \\  /    A nd           | Web:      www.OpenFOAM.com                      |
|    \\/     M anipulation  |                                                 |
\*---------------------------------------------------------------------------*/
FoamFile
{
    version     2.0;
    format      ascii;
    class       volVectorField;
    location    "433";
    object      Ua;
}
// * * * * * * * * * * * * * * * * * * * * * * * * * * * * * * * * * * * * * //

dimensions      [0 1 -1 0 0 0 0];


internalField   nonuniform List<vector> 
9216
(
(-0.00661458447128 0.0066179926006 0)
(-0.00679965171574 0.0206388890415 2.38247301321e-27)
(-0.00678521028385 0.034738382246 -4.57881277641e-31)
(-0.00673669333519 0.0488279502565 0)
(-0.00666889944746 0.0627711287205 0)
(-0.00658327967843 0.0765325495258 0)
(-0.00648133595843 0.0900726549768 0)
(-0.00636399387239 0.103354791821 0)
(-0.0062322778401 0.116344621242 0)
(-0.00608704571952 0.129010249629 0)
(-0.00592936374191 0.141322230353 0)
(-0.00576011643505 0.153253670644 0)
(-0.00558038686273 0.164780201813 0)
(-0.00539102711756 0.175879973962 0)
(-0.00519305713851 0.18653355284 0)
(-0.00498722195434 0.196723795877 0)
(-0.00477440019302 0.20643568437 0)
(-0.00455516684774 0.215656098435 0)
(-0.00433019939207 0.224373609374 0)
(-0.00409986375897 0.232578184372 0)
(-0.00386460539247 0.240260971747 0)
(-0.00362457390036 0.247413972949 0)
(-0.00337998531835 0.254029857426 0)
(-0.00313079881021 0.260101640468 0)
(-0.00287703583248 0.265622560343 0)
(-0.00261851985991 0.270585794504 0)
(-0.00235513840396 0.274984424438 0)
(-0.00208665590127 0.27881121427 0)
(-0.00181290629412 0.282058681567 0)
(-0.00153369081252 0.284718943949 0)
(-0.00124887894129 0.286783962204 0)
(-0.000958387788535 0.288245373862 0)
(-0.000662229594591 0.289094872384 0)
(-0.000360584192111 0.289324252956 0)
(-5.3707669552e-05 0.288925837224 0)
(0.000257873525192 0.287892605761 0)
(0.000573567363802 0.286218742593 0)
(0.000892412455417 0.283899836873 0)
(0.00121341429331 0.280933509716 0)
(0.00153512407877 0.277319650804 0)
(0.00185611667864 0.273061088057 0)
(0.00217444120694 0.268163822756 0)
(0.00248824524499 0.262637707976 0)
(0.00279508355639 0.256496662328 0)
(0.00309269026337 0.249759347322 0)
(0.00337813343908 0.24244937133 0)
(0.00364873879511 0.234595970961 0)
(0.00390109574549 0.226234222078 0)
(0.00413214942449 0.21740569582 0)
(0.00433809389711 0.208158626284 0)
(0.00451566084264 0.198548375044 0)
(0.00466096425407 0.188637342903 0)
(0.00477099876302 0.178494885402 0)
(0.00484248907266 0.168196615653 0)
(0.00487353137804 0.157823323581 0)
(0.00486246065843 0.14745941054 0)
(0.00480945001888 0.137190579599 0)
(0.00471540794018 0.127101516772 0)
(0.00458328462146 0.117272534952 0)
(0.00441701021606 0.107777103126 0)
(0.00422211361339 0.0986782580923 0)
(0.00400469766763 0.0900274208366 0)
(0.00377107153085 0.0818623041393 0)
(0.00352733010859 0.0742084388525 0)
(0.00327847928982 0.067079115617 0)
(0.00302930724195 0.0604783495644 0)
(0.00278315678231 0.0544012437545 0)
(0.00254376996483 0.0488363528101 0)
(0.00231331654487 0.0437658052443 0)
(0.00209465224506 0.0391670411005 0)
(0.00188876238825 0.0350134293815 0)
(0.00169737289625 0.031275811316 0)
(0.00152028250042 0.0279235741068 0)
(0.00135818934133 0.0249256741357 0)
(0.00121009629178 0.0222516252645 0)
(0.00107605157767 0.0198718487284 0)
(0.000954674861447 0.0177584337495 0)
(0.000845651582652 0.0158850519766 0)
(0.000747447628631 0.0142275676859 0)
(0.000659474493933 0.0127637938071 0)
(0.000579898541394 0.0114742075236 0)
(0.000507126103047 0.0103421237954 0)
(0.000435866853733 0.00936113680761 0)
(0.00035280712944 0.00847403009547 0)
(0.000301931412906 0.00777413785613 0)
(0.000300674231928 0.00722361945747 0)
(0.000281871452337 0.00658466633159 0)
(0.000247669847627 0.00605732637943 0)
(0.000257130987921 0.00560466949689 0)
(0.000287917823028 0.00505703724073 0)
(0.00029472502865 0.00449440409884 0)
(0.000305535060952 0.00387942504242 0)
(0.00035373304862 0.00319686273562 0)
(0.000406232548577 0.00243785319386 0)
(0.000460622224921 0.0015086478596 0)
(0.000494814325118 0.000482497358619 0)
(-0.0206683660111 0.00684022031657 0)
(-0.0218199924229 0.0219226277266 0)
(-0.0217456903409 0.0369174099619 -2.44894350559e-27)
(-0.0215591392883 0.0519143970526 0)
(-0.0213052831949 0.0667437492314 0)
(-0.0209891559114 0.081375789319 0)
(-0.0206144787676 0.0957701327326 0)
(-0.0201846446561 0.109888301967 0)
(-0.0197034265505 0.123693922968 0)
(-0.0191745136586 0.137153111814 0)
(-0.0186019927988 0.150234605911 0)
(-0.0179897311624 0.162909876454 0)
(-0.0173418715018 0.175153132033 0)
(-0.0166621625196 0.186941296417 0)
(-0.0159544857738 0.19825390698 0)
(-0.015222175963 0.209072975053 0)
(-0.0144685716749 0.219382796907 0)
(-0.0136963577195 0.229169718931 0)
(-0.0129081265393 0.238421889143 0)
(-0.0121057713543 0.247128960733 0)
(-0.0112910421904 0.25528182112 0)
(-0.010465013349 0.262872274739 0)
(-0.00962861367725 0.269892790937 0)
(-0.00878218553763 0.276336207478 0)
(-0.0079259654143 0.282195534298 0)
(-0.00705974611391 0.287463711747 0)
(-0.0061832830047 0.292133498031 0)
(-0.0052960698204 0.29619730596 0)
(-0.0043976489638 0.29964719091 0)
(-0.00348751366113 0.302474784495 0)
(-0.00256530442443 0.304671368393 0)
(-0.00163081912025 0.306227999981 0)
(-0.000684114462557 0.307135664594 0)
(0.000274324752849 0.30738543582 0)
(0.00124368260849 0.30696883513 0)
(0.00222248246176 0.305878094498 0)
(0.00320885777513 0.304106620099 0)
(0.00420007597952 0.301649342631 0)
(0.00519301433235 0.298503260539 0)
(0.0061835316012 0.294667836794 0)
(0.00716716443407 0.290145576596 0)
(0.00813832851368 0.284942425904 0)
(0.00909123406456 0.279068344646 0)
(0.0100188845713 0.272537683051 0)
(0.0109141986763 0.265369741709 0)
(0.0117687777742 0.257589140431 0)
(0.0125742346104 0.249226389601 0)
(0.0133207477238 0.240318284026 0)
(0.013998651182 0.230908486284 0)
(0.014596883388 0.221047904809 0)
(0.0151049561134 0.210795142648 0)
(0.0155114824166 0.200216618233 0)
(0.015806620847 0.189386487961 0)
(0.0159808100396 0.178386051767 0)
(0.0160275649052 0.167302631978 0)
(0.0159423280969 0.156227865754 0)
(0.0157251952949 0.14525529171 0)
(0.0153796991545 0.134477583037 0)
(0.0149149312709 0.123983031722 0)
(0.0143440628211 0.113852208629 0)
(0.0136848445368 0.104154189022 0)
(0.0129573149381 0.0949442714647 0)
(0.0121819708869 0.0862623790693 0)
(0.0113781047452 0.0781341661777 0)
(0.010561885351 0.0705722982263 0)
(0.00974760259264 0.063579249466 0)
(0.00894622937384 0.057148694637 0)
(0.0081684630315 0.0512672510825 0)
(0.00742197098072 0.045915027483 0)
(0.00671456905228 0.0410668595926 0)
(0.00605034718042 0.0366933271314 0)
(0.00543338213693 0.0327622751474 0)
(0.0048639716139 0.029240178124 0)
(0.00434290110141 0.0260932978952 0)
(0.00386793271897 0.0232886445315 0)
(0.00343792130784 0.0207944670401 0)
(0.00304939997583 0.0185808069431 0)
(0.00270025632532 0.0166195972335 0)
(0.00238654593825 0.0148849690364 0)
(0.00210565372502 0.0133530807695 0)
(0.00185323747396 0.0120021093849 0)
(0.00162543567029 0.0108114289106 0)
(0.00141492486488 0.00976045924696 0)
(0.00120448625613 0.0088206175231 0)
(0.00103987033309 0.00786132390855 0)
(0.0009735764993 0.00714327742165 0)
(0.000853513704373 0.00645494511223 0)
(0.000748692196927 0.00594970298116 0)
(0.000756997695492 0.00540618713131 0)
(0.000834309057787 0.00496628885848 0)
(0.000881541436985 0.00448696253052 0)
(0.000948224258342 0.00383851801848 0)
(0.00106002671977 0.00313704854702 0)
(0.00132224463481 0.00249641295153 0)
(0.00162441222927 0.00159940391743 0)
(0.0014664069507 0.000436616304067 0)
(-0.0349279708918 0.00689555773399 0)
(-0.0368955853087 0.0221052936388 0)
(-0.0367436190373 0.0371923375319 -2.45228793902e-27)
(-0.0364226816085 0.0522988491817 0)
(-0.0359946667663 0.0672356361094 0)
(-0.0354646561475 0.0819716391323 0)
(-0.0348374164822 0.0964654964088 0)
(-0.0341182882471 0.110678206708 0)
(-0.0333132513598 0.12457300596 0)
(-0.0324285675628 0.138115709344 0)
(-0.0314708733931 0.151274864966 0)
(-0.0304467998946 0.164021856462 0)
(-0.0293630839041 0.17633092155 0)
(-0.0282261714508 0.188179117349 0)
(-0.0270423526308 0.199546218413 0)
(-0.0258173740917 0.21041456387 0)
(-0.0245566047138 0.220768854478 0)
(-0.0232646817149 0.230595905579 0)
(-0.0219457122531 0.239884372992 0)
(-0.0206029745798 0.24862444732 0)
(-0.0192391559728 0.256807548854 0)
(-0.0178561227225 0.264426007367 0)
(-0.0164551861426 0.271472771446 0)
(-0.0150369450517 0.277941118225 0)
(-0.0136015629602 0.283824417379 0)
(-0.0121486788363 0.289115906025 0)
(-0.0106776751459 0.293808535869 0)
(-0.00918765207222 0.297894835595 0)
(-0.00767766974228 0.301366858331 0)
(-0.00614678382468 0.304216140822 0)
(-0.00459426952172 0.306433781293 0)
(-0.00301969028271 0.308010495305 0)
(-0.00142307658364 0.308936799161 0)
(0.000194908027947 0.309203221101 0)
(0.00183287850715 0.308800609069 0)
(0.00348851365569 0.307720452401 0)
(0.00515856127989 0.305955311421 0)
(0.00683859145608 0.303499238972 0)
(0.00852312512414 0.300348292177 0)
(0.0102053668724 0.296501006042 0)
(0.011877468826 0.291958932891 0)
(0.013530229548 0.286727112384 0)
(0.0151534744339 0.28081458888 0)
(0.0167356768694 0.274234845329 0)
(0.0182644122605 0.267006291356 0)
(0.0197258540296 0.25915268642 0)
(0.0211052820523 0.250703650946 0)
(0.0223864758159 0.241695150986 0)
(0.0235523657525 0.232170091163 0)
(0.0245844995601 0.22217887124 0)
(0.0254640802179 0.211779962053 0)
(0.026171819005 0.201040285709 0)
(0.0266896289029 0.190035337465 0)
(0.0270010550195 0.178848794302 0)
(0.0270935323005 0.167571489822 0)
(0.0269590940081 0.156299674128 0)
(0.0265965610977 0.145132500098 0)
(0.0260119883402 0.134168945869 0)
(0.0252202688174 0.123503995423 0)
(0.0242447484969 0.113224374067 0)
(0.0231167689847 0.103403934475 0)
(0.0218724429293 0.0941000454578 0)
(0.0205484201642 0.085352015724 0)
(0.0191782286949 0.0771826059441 0)
(0.0177898285087 0.0696009021604 0)
(0.0164063023728 0.0626059316414 0)
(0.0150464706852 0.0561888710069 0)
(0.013727272667 0.0503342247187 0)
(0.0124628770051 0.0450201069841 0)
(0.0112655784905 0.0402189547239 0)
(0.0101436244051 0.0358987271357 0)
(0.00910251501044 0.0320246479266 0)
(0.0081436996156 0.0285609035097 0)
(0.00726687878344 0.0254719833519 0)
(0.00646915939792 0.0227235764396 0)
(0.0057471835725 0.0202830411497 0)
(0.00509603671093 0.0181197680808 0)
(0.00451098223876 0.0162053209661 0)
(0.00398637395047 0.0145135633373 0)
(0.00351712822236 0.0130205322882 0)
(0.00309771270691 0.0117042311251 0)
(0.00272348032863 0.0105439211003 0)
(0.00239001585425 0.00951885684265 0)
(0.00209613624805 0.00861260372201 0)
(0.00184878157929 0.00767160983342 0)
(0.00168566519143 0.00699952940246 0)
(0.00151256099217 0.00645593428081 0)
(0.00132473240991 0.00570970801222 0)
(0.0012237469208 0.00505689562764 0)
(0.00129458437653 0.00466779542219 0)
(0.00151624192808 0.00435375611462 0)
(0.00158278500102 0.00349030387671 0)
(0.00182666373254 0.00289121669508 0)
(0.00215519293379 0.00211616729344 0)
(0.00243912206681 0.00127588952673 0)
(0.002372956605 0.000392904588046 0)
(-0.0493846260443 0.00695308280695 0)
(-0.0521901552317 0.0223092321495 0)
(-0.0519728111946 0.0375203548541 2.45196331461e-27)
(-0.0515146732978 0.0527561608867 0)
(-0.0509043764582 0.0678186116565 0)
(-0.0501495689926 0.0826754399894 0)
(-0.0492569231787 0.0972841215469 0)
(-0.0482340711465 0.111604842878 0)
(-0.0470895029331 0.125600242593 0)
(-0.0458322710548 0.139235719892 0)
(-0.0444718555253 0.15247958645 0)
(-0.0430178697698 0.165303161522 0)
(-0.0414799388343 0.177680791279 0)
(-0.03986740909 0.189589803859 0)
(-0.0381892490895 0.201010397857 0)
(-0.0364537839725 0.211925472516 0)
(-0.034668636185 0.222320403992 0)
(-0.0328405087167 0.232182775043 0)
(-0.0309751832601 0.241502070254 0)
(-0.0290773738948 0.250269343547 0)
(-0.0271507940024 0.25847687708 0)
(-0.0251980913823 0.266117836199 0)
(-0.0232209815166 0.273185943591 0)
(-0.0212202594693 0.279675171833 0)
(-0.0191959823216 0.285579477786 0)
(-0.0171475412876 0.290892570224 0)
(-0.0150738702434 0.295607733006 0)
(-0.0129735619023 0.299717687913 0)
(-0.0108450859048 0.303214520925 0)
(-0.00868694194609 0.306089641162 0)
(-0.00649789653136 0.308333852381 0)
(-0.00427713388095 0.309937397592 0)
(-0.00202450406802 0.310890135456 0)
(0.000259263606588 0.311181770848 0)
(0.00257237197365 0.310802153521 0)
(0.00491173579446 0.3097416341 0)
(0.00727285265027 0.307991499381 0)
(0.00964961676273 0.305544443706 0)
(0.0120342908375 0.302395095793 0)
(0.0144173811186 0.298540548203 0)
(0.0167877256203 0.293980905629 0)
(0.0191324191736 0.288719797074 0)
(0.0214369833154 0.282764876044 0)
(0.0236852758712 0.276128267421 0)
(0.0258596606071 0.268827007259 0)
(0.027940814081 0.260883462746 0)
(0.0299078368075 0.252325805723 0)
(0.0317379616869 0.243188545985 0)
(0.0334067166363 0.23351319276 0)
(0.0348877849259 0.223349015925 0)
(0.0361536157155 0.212753886096 0)
(0.0371759566604 0.201795046919 0)
(0.0379274304706 0.190549618752 0)
(0.0383831185717 0.179104563845 0)
(0.038523073445 0.167555845028 0)
(0.0383343941274 0.15600664358 0)
(0.0378136639165 0.144564682506 0)
(0.0369684910279 0.133338867076 0)
(0.0358196505713 0.122434934271 0)
(0.034401648481 0.111950043455 0)
(0.0327624508651 0.101966158832 0)
(0.0309582916848 0.0925439863049 0)
(0.0290456530046 0.083720937999 0)
(0.0270743936586 0.0755140264026 0)
(0.0250842281243 0.067925495886 0)
(0.02310599724 0.0609486856456 0)
(0.021165024585 0.0545711150666 0)
(0.019284407852 0.0487747253922 0)
(0.0174849691261 0.0435349456671 0)
(0.0157843660515 0.0388206463838 0)
(0.0141949650337 0.0345955619643 0)
(0.0127237226541 0.0308206839572 0)
(0.0113722810587 0.0274566293311 0)
(0.0101388345194 0.0244652590603 0)
(0.00901892757714 0.0218104677469 0)
(0.00800684552018 0.0194584277839 0)
(0.00709560044458 0.0173777500686 0)
(0.00627781186979 0.0155395870095 0)
(0.00554564145115 0.0139176776884 0)
(0.00489154805495 0.0124882529352 0)
(0.0043082827827 0.0112298892435 0)
(0.00378994768224 0.010123042062 0)
(0.003332840747 0.00915046266844 0)
(0.00294535042772 0.0082916434157 0)
(0.00258075649598 0.00736063164553 0)
(0.00236690194145 0.00682203004209 0)
(0.00214662836092 0.00615950479458 0)
(0.00193129908614 0.00541373565171 0)
(0.0018558461217 0.00490947711829 0)
(0.00181279238568 0.00422061270044 0)
(0.00197485132709 0.00364147645841 0)
(0.0023640192475 0.00324340721694 0)
(0.00250542400476 0.00236299361812 0)
(0.00285322573423 0.00165561988418 0)
(0.00320254544097 0.00100970223196 0)
(0.00319064454862 0.000330385418386 0)
(-0.0639883058827 0.00702738418784 0)
(-0.0676281453314 0.0225787338165 0)
(-0.0673439931991 0.0379619982873 0)
(-0.0667453994536 0.0533723742434 0)
(-0.0659480211578 0.0686037746546 0)
(-0.0649622871698 0.0836227205876 0)
(-0.0637971014294 0.0983853039957 0)
(-0.0624626154137 0.112850626214 0)
(-0.0609700705927 0.126980497907 0)
(-0.0593314944855 0.140739741069 0)
(-0.0575594400135 0.154096339168 0)
(-0.0556666772654 0.167021526909 0)
(-0.0536659402178 0.179489805025 0)
(-0.0515696304157 0.191478883349 0)
(-0.0493895891537 0.202969554076 0)
(-0.0471368368225 0.21394549936 0)
(-0.0448213956755 0.22439303936 0)
(-0.0424520939719 0.234300827987 0)
(-0.0400364671897 0.243659508087 0)
(-0.0375806545611 0.252461337186 0)
(-0.0350893990859 0.260699800656 0)
(-0.0325660497104 0.268369225336 0)
(-0.0300126602668 0.275464411784 0)
(-0.0274300868314 0.281980295014 0)
(-0.0248181625342 0.287911648016 0)
(-0.0221758613542 0.293252830741 0)
(-0.0195015166288 0.297997592966 0)
(-0.0167930244269 0.302138927304 0)
(-0.0140480855859 0.305668979764 0)
(-0.0112644391869 0.308578997469 0)
(-0.00844014115826 0.310859396925 0)
(-0.0055737870494 0.312499788971 0)
(-0.00266483202657 0.313489152128 0)
(0.000286128795115 0.313816069887 0)
(0.00327708697399 0.313469034215 0)
(0.00630434675552 0.312436829082 0)
(0.00936230588639 0.310708994322 0)
(0.0124432537866 0.308276347934 0)
(0.0155372679126 0.305131559341 0)
(0.0186321321179 0.301269739113 0)
(0.0217133762849 0.296689028762 0)
(0.024764308086 0.291391152072 0)
(0.027766147028 0.28538191747 0)
(0.0306980722235 0.278671651259 0)
(0.0335373141435 0.271275583512 0)
(0.0362590622848 0.263214212199 0)
(0.0388363812829 0.254513716458 0)
(0.0412399250976 0.245206492016 0)
(0.0434377769478 0.235331896561 0)
(0.045395290172 0.224937253397 0)
(0.0470754349344 0.214079100222 0)
(0.0484395982204 0.202824534621 0)
(0.0494493736433 0.191252387838 0)
(0.0500691046416 0.179453768719 0)
(0.0502692435744 0.167531531483 0)
(0.0500297723416 0.1555984605 0)
(0.0493432139301 0.143774222198 0)
(0.0482169917623 0.132181990858 0)
(0.0466770683345 0.120943653063 0)
(0.0447699534516 0.110173130024 0)
(0.0425651813533 0.0999660086373 0)
(0.0401464589388 0.0903881802328 0)
(0.0375966159617 0.0814725842163 0)
(0.0349850263739 0.0732252170508 0)
(0.0323623072541 0.065636147286 0)
(0.0297639416637 0.0586900093727 0)
(0.0272190937562 0.0523702340261 0)
(0.024756691515 0.0466568217646 0)
(0.0224051963084 0.0415224450554 0)
(0.0201892294677 0.0369310837982 0)
(0.0181257033014 0.0328399946595 0)
(0.0162226847375 0.0292036751825 0)
(0.0144805960589 0.0259775473532 0)
(0.0128950430235 0.023120000979 0)
(0.0114589346704 0.0205928143555 0)
(0.0101638347995 0.0183608119985 0)
(0.00900011114586 0.0163917174979 0)
(0.00795750094341 0.0146562429061 0)
(0.00702547841893 0.013128089902 0)
(0.0061937384134 0.0117838838551 0)
(0.00545241998472 0.010603269693 0)
(0.00479279388688 0.00956904023099 0)
(0.00420780564613 0.00867435833181 0)
(0.00370437578098 0.00785078844139 0)
(0.00331953071339 0.00713825264967 0)
(0.00307516130594 0.00658760166607 0)
(0.00289225786457 0.00594652124285 0)
(0.00266208895202 0.00520805729618 0)
(0.00242188938349 0.00434452173164 0)
(0.00243882134185 0.00378993772314 0)
(0.00250395807115 0.0030755995377 0)
(0.00291756401239 0.00264625974204 0)
(0.00337877333368 0.00208968804437 0)
(0.00350368090228 0.00133056938478 0)
(0.00370925716808 0.000775758233693 0)
(0.00369587300857 0.000256891792231 0)
(-0.0787890014684 0.00712004217501 0)
(-0.0832700658976 0.0229191736171 0)
(-0.0829158390607 0.0385226603234 0)
(-0.0821714437831 0.0541552395054 0)
(-0.0811798643309 0.0696011702171 0)
(-0.0799544583851 0.0848255945672 0)
(-0.0785066294755 0.0997829473012 0)
(-0.0768493186718 0.11443097663 0)
(-0.0749968105668 0.128730441098 0)
(-0.0729643818298 0.142645426296 0)
(-0.0707679510929 0.156143498387 0)
(-0.0684237127352 0.169195792139 0)
(-0.0659477895369 0.181777018601 0)
(-0.0633558809959 0.193865395018 0)
(-0.0606629448906 0.205442497796 0)
(-0.0578828891818 0.216493042308 0)
(-0.0550283151174 0.22700459437 0)
(-0.0521102900655 0.236967221558 0)
(-0.0491381913545 0.246373095949 0)
(-0.0461195983964 0.255216062837 0)
(-0.043060268412 0.263491193863 0)
(-0.0399641672119 0.271194343021 0)
(-0.0368335788306 0.278321725511 0)
(-0.0336692587023 0.284869534425 0)
(-0.0304706433436 0.290833608601 0)
(-0.0272360811677 0.296209156586 0)
(-0.0239630943738 0.300990540155 0)
(-0.0206486469279 0.305171113676 0)
(-0.0172894321392 0.30874312047 0)
(-0.0138821685265 0.311697622855 0)
(-0.0104239350993 0.314024567172 0)
(-0.00691245810876 0.315712776721 0)
(-0.0033465132418 0.316750122397 0)
(0.000273716477223 0.317123758315 0)
(0.00394627599428 0.316820434079 0)
(0.00766708423949 0.315826906954 0)
(0.0114296274705 0.314130449412 0)
(0.0152247062813 0.311719435998 0)
(0.0190402785748 0.308583990397 0)
(0.022861387174 0.304716658099 0)
(0.0266702051129 0.300113068171 0)
(0.0304461495375 0.294772539774 0)
(0.0341660699203 0.288698598508 0)
(0.0378044111917 0.2818993809 0)
(0.0413333318534 0.274387934257 0)
(0.0447226498841 0.266182460825 0)
(0.0479396253969 0.257306597918 0)
(0.0509485095775 0.24778987472 0)
(0.0537100161282 0.237668500391 0)
(0.0561808221239 0.226986631589 0)
(0.0583135342835 0.21579817164 0)
(0.0600574146643 0.204168985638 0)
(0.0613605008246 0.192179147718 0)
(0.0621731343886 0.179924475859 0)
(0.0624528909338 0.167516568923 0)
(0.0621695813479 0.155080677385 0)
(0.0613091515607 0.142751965143 0)
(0.0598755505525 0.130672776285 0)
(0.0578977561246 0.118987933899 0)
(0.0554333819697 0.107838168946 0)
(0.0525818129433 0.097342646131 0)
(0.0494679389106 0.0875753731193 0)
(0.0462126150531 0.0785594356578 0)
(0.0429097474992 0.0702796374593 0)
(0.0396176751409 0.06270433166 0)
(0.0363688900763 0.0558054006328 0)
(0.0331910527924 0.0495638041067 0)
(0.0301187756578 0.0439607775703 0)
(0.0271911078748 0.0389674426569 0)
(0.024442930894 0.0345411213383 0)
(0.0218969776701 0.0306289941421 0)
(0.0195613006863 0.0271755623267 0)
(0.0174326525748 0.0241289808883 0)
(0.0155018987357 0.0214435968542 0)
(0.0137580283214 0.0190792627361 0)
(0.0121894677419 0.0169996100403 0)
(0.0107834986031 0.0151714236602 0)
(0.00952653344057 0.0135649628581 0)
(0.00840493382951 0.0121539244961 0)
(0.00740529769345 0.0109152042253 0)
(0.00651454853647 0.00982895095359 0)
(0.0057202537508 0.00887830850618 0)
(0.00501052707532 0.00805775348489 0)
(0.00438154138196 0.00726041048731 0)
(0.00397232036977 0.00662542281674 0)
(0.0037218501266 0.00605481656929 0)
(0.00344876136628 0.00530158998289 0)
(0.00332555693381 0.00473496664861 0)
(0.00324512842458 0.00411812197578 0)
(0.00326317753081 0.00350484229787 0)
(0.0031045367229 0.00262703660138 0)
(0.00332699076271 0.00203560559541 0)
(0.00390639494413 0.00167359643141 0)
(0.004120604556 0.00113737180684 0)
(0.00418418579178 0.000638411035843 0)
(0.00417782921637 0.000211360554097 0)
(-0.0938328586476 0.00723261644055 0)
(-0.0991661052986 0.0233347053421 0)
(-0.0987372532331 0.039207753865 2.46975627591e-27)
(-0.0978399123968 0.0551120405642 0)
(-0.0966448697035 0.0708199075909 0)
(-0.0951685944865 0.0862948094517 0)
(-0.0934252670436 0.101489167764 0)
(-0.0914309365145 0.116359078521 0)
(-0.0892032775694 0.130864011621 0)
(-0.0867611678417 0.144967152028 0)
(-0.0841242520182 0.158635561525 0)
(-0.0813124987859 0.171840266064 0)
(-0.0783457655386 0.184556256432 0)
(-0.0752433711233 0.196762402781 0)
(-0.0720236917641 0.20844128455 0)
(-0.0687037827966 0.219578936711 0)
(-0.0652990455281 0.230164516942 0)
(-0.061822945813 0.24018990066 0)
(-0.0582868056656 0.249649216851 0)
(-0.054699673249 0.258538341858 0)
(-0.0510682861395 0.266854373774 0)
(-0.0473971229166 0.27459511207 0)
(-0.0436885433665 0.281758567348 0)
(-0.039942998195 0.288342521976 0)
(-0.0361592956033 0.2943441559 0)
(-0.0323349003853 0.2997597434 0)
(-0.0284662539586 0.304584418766 0)
(-0.0245491020798 0.308812003626 0)
(-0.0205788325078 0.312434889881 0)
(-0.0165508253535 0.315443948305 0)
(-0.0124608470931 0.317828586061 0)
(-0.00830539937035 0.319576694133 0)
(-0.00408221204646 0.320674809249 0)
(0.000209308801327 0.321108337543 0)
(0.00456760929606 0.320861873518 0)
(0.0089885281791 0.319919643035 0)
(0.0134648860042 0.318266068215 0)
(0.0179861529314 0.315886439335 0)
(0.0225382346973 0.312767668694 0)
(0.0271033957712 0.308899082621 0)
(0.0316603387775 0.304273197598 0)
(0.0361844184709 0.298886414503 0)
(0.0406479562698 0.2927395703 0)
(0.0450205651184 0.285838301182 0)
(0.0492693850195 0.278193211335 0)
(0.0533590893058 0.269819901571 0)
(0.0572515578199 0.260738985604 0)
(0.0609051456198 0.250976314015 0)
(0.0642736140975 0.240563671259 0)
(0.0673049510251 0.229540273651 0)
(0.0699405387946 0.217955242586 0)
(0.0721154291597 0.205871103618 0)
(0.0737605319269 0.193367763355 0)
(0.0748075581735 0.180545863963 0)
(0.0751963431597 0.167527725203 0)
(0.074882769574 0.154454500384 0)
(0.0738434089232 0.141479993853 0)
(0.0720726862579 0.128770410443 0)
(0.0695977872822 0.116501300206 0)
(0.0664790958602 0.104856987188 0)
(0.0628606851629 0.0940003385136 0)
(0.0589348325308 0.0840187263868 0)
(0.0548819295634 0.0749141184976 0)
(0.0508282837909 0.0666300028681 0)
(0.0468312167396 0.0590950337501 0)
(0.042902115762 0.0522631596482 0)
(0.0390566332398 0.0461199227378 0)
(0.0353367005641 0.040656706968 0)
(0.031799162553 0.0358464531902 0)
(0.0284963745907 0.0316368271431 0)
(0.0254593926465 0.0279582583952 0)
(0.0226934973545 0.0247392640839 0)
(0.0201868665723 0.0219180775848 0)
(0.0179217958569 0.019445323694 0)
(0.0158818485473 0.0172803413247 0)
(0.014052509563 0.0153862482973 0)
(0.0124178012217 0.0137287555117 0)
(0.0109600953605 0.0122776556575 0)
(0.00966232364725 0.0110068360366 0)
(0.00850786499083 0.00989348390029 0)
(0.0074802639651 0.00891820744748 0)
(0.00656391800644 0.00806478394354 0)
(0.00574527016511 0.00732824966271 0)
(0.00501508583577 0.00657054557115 0)
(0.00463961810234 0.00605671384621 0)
(0.00436801552292 0.00545520363595 0)
(0.00412207753353 0.00482492902956 0)
(0.00389954953905 0.0041516083748 0)
(0.0038825003546 0.0035981208886 0)
(0.0038131275928 0.0029007711602 0)
(0.00394161964481 0.00236871976183 0)
(0.00386323381618 0.00166009302923 0)
(0.00414487897101 0.00124243391239 0)
(0.00455563713481 0.000929303295359 0)
(0.00457466127851 0.000522127593093 0)
(0.00457049530603 0.000172976606369 0)
(-0.109169393469 0.00736633258961 0)
(-0.115368753124 0.0238298197312 0)
(-0.114859675146 0.0400240599229 -2.46937669067e-27)
(-0.113800443446 0.0562519614243 0)
(-0.112390358656 0.072271400173 0)
(-0.11064928012 0.0880437505955 0)
(-0.108594507276 0.103518998542 0)
(-0.106245587113 0.118651249477 0)
(-0.103624005338 0.133398426823 0)
(-0.100752674378 0.147722641968 0)
(-0.0976554052353 0.161590364611 0)
(-0.0943563750683 0.174972510658 0)
(-0.0908796009538 0.187844434655 0)
(-0.0872484240429 0.200185828951 0)
(-0.0834850147521 0.211980528 0)
(-0.0796099073101 0.223216217436 0)
(-0.0756415817863 0.233884048786 0)
(-0.071596109564 0.243978166025 0)
(-0.0674868857685 0.253495156816 0)
(-0.0633244645339 0.262433449449 0)
(-0.0591165131288 0.270792684229 0)
(-0.0548678856936 0.278573092404 0)
(-0.0505808111492 0.28577491678 0)
(-0.0462551728327 0.292397901933 0)
(-0.0418888542742 0.298440872621 0)
(-0.0374781186177 0.303901404248 0)
(-0.0330179989157 0.308775577748 0)
(-0.0285026842631 0.31305780132 0)
(-0.0239259045442 0.31674068446 0)
(-0.019281325438 0.319814921458 0)
(-0.0145629956839 0.322269334781 0)
(-0.00976575510283 0.324090757854 0)
(-0.00488582702754 0.325264175804 0)
(7.86281924897e-05 0.325772920051 0)
(0.00512691097489 0.325598985672 0)
(0.0102551849006 0.324723505052 0)
(0.0154559300471 0.323127382818 0)
(0.0207174963753 0.320792079451 0)
(0.0260238114272 0.3177005137 0)
(0.0313542854684 0.313838028674 0)
(0.0366839438849 0.309193344459 0)
(0.0419837803106 0.303759399761 0)
(0.0472212820722 0.297533979229 0)
(0.0523610183224 0.290520039017 0)
(0.0573651241528 0.282725688165 0)
(0.0621934660163 0.274163870441 0)
(0.0668032629155 0.264851906869 0)
(0.0711479947883 0.254811210217 0)
(0.0751755718167 0.244067623991 0)
(0.078825959149 0.232652926361 0)
(0.0820289318548 0.220608083233 0)
(0.0847029393508 0.207988483165 0)
(0.0867569821877 0.194870853194 0)
(0.088097104627 0.181359929273 0)
(0.0886381217437 0.167591476126 0)
(0.0883178048509 0.153727480504 0)
(0.0871028132964 0.139941651146 0)
(0.0849670984727 0.12642694438 0)
(0.0819280708458 0.113394141214 0)
(0.0780156929581 0.101100842394 0)
(0.0734477832529 0.0897981108773 0)
(0.068537084794 0.0795962911066 0)
(0.063563225398 0.070452521864 0)
(0.0586984562129 0.0622285533405 0)
(0.053977597504 0.0547778195776 0)
(0.0493479183362 0.0480305186722 0)
(0.0447938919556 0.0419981369556 0)
(0.0403725066375 0.0367030922656 0)
(0.03617557045 0.0321269297622 0)
(0.0322876223587 0.0282011882882 0)
(0.0287530345981 0.0248259788185 0)
(0.0255670533035 0.0219029249767 0)
(0.0226991673679 0.0193571935147 0)
(0.0201162401536 0.01713851337 0)
(0.0177952264906 0.0152099251046 0)
(0.0157210727928 0.013535520817 0)
(0.0138749798326 0.0120789748212 0)
(0.0122336232567 0.0108094568731 0)
(0.0107763291994 0.00970167100776 0)
(0.00948343247707 0.00873312549314 0)
(0.00833456650133 0.00788497574325 0)
(0.00731096501661 0.00714288602332 0)
(0.00639902785432 0.00649595406135 0)
(0.00559261079018 0.00580161083812 0)
(0.00525274588184 0.00536785150878 0)
(0.00494216014279 0.00477370263128 0)
(0.00477935541908 0.00427092842574 0)
(0.00459776337928 0.00365898135796 0)
(0.00448921651508 0.00305376985556 0)
(0.00436149338069 0.00240877856503 0)
(0.00437213749687 0.00188290020257 0)
(0.00452174302027 0.00144621539376 0)
(0.00447505413111 0.000967302857579 0)
(0.00491074513003 0.000718036609571 0)
(0.0048924307754 0.000426078526016 0)
(0.00487292305743 0.000136256730359 0)
(-0.124851315193 0.00752249621208 0)
(-0.131933360564 0.0244097831875 0)
(-0.131337267289 0.0409798777973 0)
(-0.130105216467 0.0575863213119 0)
(-0.128465934657 0.0739697014992 0)
(-0.126443049838 0.0900888619912 0)
(-0.124057411886 0.105890869255 0)
(-0.121332545439 0.121327459804 0)
(-0.11829425787 0.136354729621 0)
(-0.114970021885 0.150933532537 0)
(-0.11138834445 0.165029658253 0)
(-0.107578136285 0.17861391847 0)
(-0.103568087862 0.191662131708 0)
(-0.0993860562221 0.204155006997 0)
(-0.0950584683739 0.216077923818 0)
(-0.0906097531255 0.227420601744 0)
(-0.0860618199308 0.238176656757 0)
(-0.0814336110575 0.248343045836 0)
(-0.0767407568782 0.257919412856 0)
(-0.0719953638084 0.266907360498 0)
(-0.0672059562307 0.275309685966 0)
(-0.0623775804213 0.283129626654 0)
(-0.0575120594609 0.290370163833 0)
(-0.0526083696871 0.297033425298 0)
(-0.047663094615 0.303120211318 0)
(-0.042670908368 0.308629646826 0)
(-0.0376250490127 0.313558940358 0)
(-0.0325177622946 0.317903216949 0)
(-0.0273407213371 0.321655392545 0)
(-0.0220854491139 0.324806031407 0)
(-0.0167438022753 0.327343363082 0)
(-0.0113084328707 0.329253073802 0)
(-0.00577348677278 0.330518402721 0)
(-0.000135281944169 0.33112028018 0)