/*--------------------------------*- C++ -*----------------------------------*\
| =========                 |                                                 |
| \\      /  F ield         | OpenFOAM: The Open Source CFD Toolbox           |
|  \\    /   O peration     | Version:  v1906                                 |
|   \\  /    A nd           | Web:      www.OpenFOAM.com                      |
|    \\/     M anipulation  |                                                 |
\*---------------------------------------------------------------------------*/
FoamFile
{
    version     2.0;
    format      ascii;
    class       volVectorField;
    location    "405";
    object      Ua;
}
// * * * * * * * * * * * * * * * * * * * * * * * * * * * * * * * * * * * * * //

dimensions      [0 1 -1 0 0 0 0];


internalField   nonuniform List<vector> 
9216
(
(-0.0103872757571 0.0103960027938 0)
(-0.0109616875994 0.0335519024636 3.91932972463e-27)
(-0.0109581196317 0.0570654591421 -7.0957888905e-31)
(-0.0108557146704 0.0805869701182 0)
(-0.0107099579105 0.103718581941 0)
(-0.0105246305696 0.126366207576 0)
(-0.0103047386051 0.148428278331 0)
(-0.0100530555001 0.169812897665 0)
(-0.00977303835373 0.190437134432 0)
(-0.00946707967044 0.210227837596 0)
(-0.00913876762037 0.229121116135 0)
(-0.00879043012057 0.247063141225 0)
(-0.0084257511734 0.264009388231 0)
(-0.00804685252609 0.279925127612 0)
(-0.007657351363 0.294784368699 0)
(-0.00725901311486 0.308570087817 0)
(-0.00685526332623 0.321272965951 0)
(-0.00644741861975 0.332891445033 0)
(-0.00603864424321 0.343430377791 0)
(-0.0056297738858 0.352901009773 0)
(-0.00522370096388 0.361319637109 0)
(-0.00482079508439 0.368707581041 0)
(-0.00442370224342 0.375089932133 0)
(-0.00403237467916 0.380495563776 0)
(-0.00364925582828 0.384955997348 0)
(-0.00327393974074 0.388505460431 0)
(-0.00290870788505 0.391179890847 0)
(-0.00255284676891 0.393017035727 0)
(-0.00220850973445 0.394055584175 0)
(-0.00187472427723 0.3943352904 0)
(-0.00155355206809 0.393896196345 0)
(-0.00124374035791 0.392778944899 0)
(-0.000947157020408 0.391023789308 0)
(-0.000662384981117 0.388670733847 0)
(-0.000391289974657 0.38575933848 0)
(-0.000132264165417 0.382328630571 0)
(0.000112945119105 0.378416706333 0)
(0.000346117585159 0.374060803244 0)
(0.000565596847926 0.369296974331 0)
(0.000773303469522 0.364160146525 0)
(0.000967661901869 0.35868388873 0)
(0.0011507056414 0.352900440089 0)
(0.00132093411836 0.346840573315 0)
(0.00148046857915 0.340533596463 0)
(0.00162787262941 0.334007299894 0)
(0.0017653254863 0.327287924407 0)
(0.00189144578508 0.320400195694 0)
(0.0020084429871 0.313367264343 0)
(0.00211497702038 0.306210816441 0)
(0.00221325658828 0.298950979021 0)
(0.00230197238828 0.291606509442 0)
(0.00238330564115 0.284194670742 0)
(0.00245596557819 0.276731486604 0)
(0.00252207932421 0.269231578909 0)
(0.00258036865341 0.261708487933 0)
(0.00263288738882 0.254174474378 0)
(0.00267836536347 0.24664088939 0)
(0.00271876703677 0.239117932437 0)
(0.00275283393066 0.231615068594 0)
(0.00278243383066 0.224140743857 0)
(0.00280632604782 0.21670283426 0)
(0.00282627787836 0.209308311669 0)
(0.00284107948379 0.201963722649 0)
(0.00285240082897 0.194674808351 0)
(0.00285907646661 0.187447000625 0)
(0.00286268326823 0.180284993179 0)
(0.00286211710091 0.173193255515 0)
(0.00285886917942 0.166175562446 0)
(0.00285191076165 0.15923551769 0)
(0.00284265267853 0.152376043406 0)
(0.00283015525282 0.145599916862 0)
(0.00281575391278 0.138909229616 0)
(0.00279860647861 0.132305932715 0)
(0.00277997381127 0.125791269846 0)
(0.00275911718516 0.11936633581 0)
(0.00273722178054 0.113031493262 0)
(0.00271365279651 0.106786941876 0)
(0.00268951453355 0.100632123013 0)
(0.00266427412793 0.0945663040003 0)
(0.00263894796653 0.0885879779896 0)
(0.00261309904672 0.0826954616032 0)
(0.00258764579889 0.0768862926462 0)
(0.00256223904209 0.071157845086 0)
(0.00253768663946 0.0655067299002 0)
(0.00251371359388 0.0599294290112 0)
(0.00249099555348 0.0544217085806 0)
(0.002469299099 0.0489792899826 0)
(0.00244910225162 0.043597319214 0)
(0.00243007214687 0.038271160319 0)
(0.002412145842 0.0329961661796 0)
(0.00239399262721 0.0277691131679 0)
(0.00237269102291 0.0225899570537 0)
(0.0023396066253 0.0174694721992 0)
(0.00225623457052 0.0124880080229 0)
(0.00210415301215 0.00707740376024 0)
(0.00354679973916 0.00354774878247 0)
(-0.0336259646405 0.0110568664412 0)
(-0.0371712878915 0.0374638853968 0)
(-0.0370846435841 0.0637986860508 -4.11435197799e-27)
(-0.0365820666841 0.0901665719963 0)
(-0.035884033177 0.116062840867 0)
(-0.0350167677982 0.141402794419 0)
(-0.0339957476358 0.166078624298 0)
(-0.032834603566 0.189989060243 0)
(-0.0315489235292 0.213041893865 0)
(-0.030153282251 0.235155367754 0)
(-0.0286643132263 0.256258351591 0)
(-0.027096819798 0.276290842408 0)
(-0.0254674317689 0.295203614976 0)
(-0.0237900897496 0.312958274567 0)
(-0.0220804152552 0.329526533647 0)
(-0.0203506271719 0.344889957436 0)
(-0.0186146483084 0.359039003252 0)
(-0.0168824658454 0.371972586198 0)
(-0.0151659579486 0.383697011404 0)
(-0.0134727015313 0.394225474157 0)
(-0.0118124849281 0.403576994799 0)
(-0.0101905598999 0.411775941341 0)
(-0.00861478740916 0.418851045028 0)
(-0.00708833793989 0.424834996414 0)
(-0.00561741470639 0.429763579295 0)
(-0.00420341305411 0.433675354743 0)
(-0.00285116235909 0.436610919628 0)
(-0.0015605757315 0.43861266746 0)
(-0.000335362809327 0.439724156623 0)
(0.000825786837229 0.439989922457 0)
(0.00192006087686 0.43945496237 0)
(0.00294979949425 0.438164431511 0)
(0.00391301803823 0.436163503786 0)
(0.00481290242969 0.433497275855 0)
(0.00564798334935 0.430210083304 0)
(0.0064220882506 0.426345564554 0)
(0.00713423455342 0.421946359204 0)
(0.00778877207158 0.417054047504 0)
(0.00838507337711 0.411708930993 0)
(0.00892786955126 0.405949980125 0)
(0.00941678384967 0.399814677078 0)
(0.00985680445975 0.393338973126 0)
(0.0102477179279 0.386557192396 0)
(0.0105946601256 0.37950199687 0)
(0.0108975008047 0.37220434618 0)
(0.0111614206672 0.364693467977 0)
(0.0113863028076 0.356996872459 0)
(0.0115772803769 0.34914032712 0)
(0.0117341848604 0.341147921373 0)
(0.0118620158555 0.333042043451 0)
(0.0119604998609 0.32484349293 0)
(0.012034430701 0.316571457632 0)
(0.0120833862508 0.308243667221 0)
(0.0121118949089 0.299876365585 0)
(0.0121193602581 0.291484500476 0)
(0.0121100061054 0.283081686748 0)
(0.0120830521394 0.274680422492 0)
(0.0120423965521 0.266292036606 0)
(0.0119870870431 0.257926924577 0)
(0.0119206975402 0.249594475126 0)
(0.0118421315988 0.241303315855 0)
(0.011754656226 0.233061213415 0)
(0.0116570751551 0.22487532358 0)
(0.0115523812464 0.216752062332 0)
(0.0114393300839 0.208697353662 0)
(0.0113206792492 0.200716469873 0)
(0.011195192722 0.192814275605 0)
(0.011065434999 0.184995039254 0)
(0.0109302304389 0.177262670973 0)
(0.0107919872158 0.16962050791 0)
(0.0106496355607 0.162071548631 0)
(0.0105054571319 0.154618217703 0)
(0.0103585205847 0.147262597663 0)
(0.01021099857 0.140006178081 0)
(0.0100621186912 0.13285008949 0)
(0.00991395117943 0.125794843471 0)
(0.00976588870581 0.118840570678 0)
(0.0096198932308 0.111986756814 0)
(0.00947551768016 0.10523248887 0)
(0.0093346008176 0.0985761921387 0)
(0.00919684023368 0.0920158860623 0)
(0.00906392744982 0.0855489250487 0)
(0.00893568098685 0.0791722667664 0)
(0.00881361217608 0.0728822200127 0)
(0.00869762269879 0.066674726483 0)
(0.008588988435 0.0605451185275 0)
(0.00848761366405 0.0544884175993 0)
(0.00839439571567 0.0484991043981 0)
(0.00830896348002 0.0425714091821 0)
(0.00823125016151 0.0366990058538 0)
(0.00815927486807 0.0308749557791 0)
(0.00808892221743 0.0250901837023 0)
(0.00800888873792 0.0193286332101 0)
(0.00788835755921 0.0135526179948 0)
(0.00757722362341 0.00756189864158 0)
(0.00707109852249 0.0020988792637 0)
(-0.0575673560645 0.0112041359524 0)
(-0.063732550275 0.0380811913404 0)
(-0.0635151200221 0.0647481888769 -4.11810337502e-27)
(-0.0626438799963 0.0914996748367 0)
(-0.061462211598 0.117768358862 0)
(-0.0600039844779 0.143464118982 0)
(-0.0582901677919 0.168475348508 0)
(-0.056342888764 0.192698428382 0)
(-0.0541867338111 0.216039504663 0)
(-0.0518468891085 0.238415577863 0)
(-0.0493499388518 0.25975485376 0)
(-0.0467217905915 0.279997020577 0)
(-0.043988835294 0.299093066066 0)
(-0.0411757171699 0.317005076466 0)
(-0.0383069021331 0.333705659549 0)
(-0.0354043248877 0.349177426209 0)
(-0.0324893811722 0.363412169833 0)
(-0.0295804559746 0.376410172927 0)
(-0.0266953238138 0.388179283038 0)
(-0.0238485419128 0.398734171801 0)
(-0.0210542196157 0.408095420873 0)
(-0.0183232457944 0.416288827965 0)
(-0.0156663721288 0.423344582845 0)
(-0.0130912407561 0.429296675467 0)
(-0.0106057233177 0.434182193823 0)
(-0.00821472391359 0.438040844275 0)
(-0.00592372642588 0.440914370225 0)
(-0.00373536966559 0.442846169346 0)
(-0.00165317364164 0.443880809325 0)
(0.000322098102677 0.44406371577 0)
(0.00218855774131 0.443440776165 0)
(0.00394700654633 0.442058074932 0)
(0.00559685076756 0.439961547414 0)
(0.00714013449256 0.437196813487 0)
(0.00857738845028 0.433808872039 0)
(0.00991169985852 0.429841937213 0)
(0.0111444461966 0.425339217679 0)
(0.0122795112869 0.420342789296 0)
(0.0133189292497 0.414893429639 0)
(0.0142671819248 0.409030522401 0)
(0.0151267814873 0.402791936983 0)
(0.015902627095 0.396213959319 0)
(0.0165975491711 0.389331215748 0)
(0.017216700269 0.382176628775 0)
(0.0177630824615 0.374781379422 0)
(0.0182419495293 0.367174884363 0)
(0.0186563400268 0.359384797573 0)
(0.0190114678893 0.351437008754 0)
(0.0193102830841 0.343355679122 0)
(0.0195578305907 0.335163257675 0)
(0.0197568616353 0.326880551001 0)
(0.0199121409806 0.318526755689 0)
(0.0200261304431 0.310119554759 0)
(0.0201032267726 0.30167516016 0)
(0.0201455392025 0.293208432468 0)
(0.0201570394123 0.284732928658 0)
(0.0201394523633 0.276261034785 0)
(0.020096301348 0.267804010637 0)
(0.0200289303202 0.259372129972 0)
(0.0199404257942 0.250974716126 0)
(0.0198317857337 0.242620279453 0)
(0.0197057014768 0.234316536504 0)
(0.0195628869935 0.226070540756 0)
(0.0194057032914 0.217888682 0)
(0.019234659048 0.209776803601 0)
(0.0190518620718 0.201740178923 0)
(0.0188577016156 0.193783615426 0)
(0.0186541117842 0.185911409387 0)
(0.0184414438319 0.178127435086 0)
(0.0182215293082 0.170435079459 0)
(0.0179947505697 0.16283732078 0)
(0.0177628925451 0.155336648218 0)
(0.0175264183007 0.147935131904 0)
(0.0172871014164 0.140634331812 0)
(0.0170455136249 0.133435365358 0)
(0.01680343094 0.12633881157 0)
(0.0165615392246 0.11934477904 0)
(0.0163216097675 0.112452809745 0)
(0.0160844286938 0.105661952649 0)
(0.0158517381966 0.0989706716006 0)
(0.0156243944131 0.0923769261521 0)
(0.0154040717462 0.0858780858385 0)
(0.0151916532936 0.0794710208555 0)
(0.0149886943668 0.0731520241603 0)
(0.0147960466073 0.0669169107117 0)
(0.0146150740166 0.0607609453915 0)
(0.014446505214 0.0546789460103 0)
(0.0142913850888 0.0486651999544 0)
(0.0141501331095 0.042713527811 0)
(0.0140232051605 0.036817083393 0)
(0.0139103610273 0.0309681084809 0)
(0.0138112767718 0.0251570757996 0)
(0.0137258295632 0.0193706768621 0)
(0.0136556580839 0.0135855849982 0)
(0.0135525453296 0.00783083355047 0)
(0.0124545355837 0.00224149113808 0)
(-0.0820676915748 0.0113337139851 0)
(-0.0909277141153 0.0386613938009 0)
(-0.0906085270659 0.0656747219781 4.11618797946e-27)
(-0.0893502693882 0.0927934742858 0)
(-0.0876463517703 0.119413308001 0)
(-0.0855468285461 0.145439062206 0)
(-0.0830815497356 0.170754814845 0)
(-0.0802826910431 0.19525393671 0)
(-0.0771854401705 0.218840529402 0)
(-0.073826645197 0.241430329439 0)
(-0.0702443576903 0.262951045212 0)
(-0.0664764915641 0.283342491949 0)
(-0.0625606316903 0.302556399147 0)
(-0.0585328031766 0.320556052372 0)
(-0.0544275876636 0.337315692185 0)
(-0.0502770305071 0.352819831352 0)
(-0.0461110761227 0.367062410768 0)
(-0.0419566079925 0.38004595136 0)
(-0.0378381810057 0.391780618031 0)
(-0.0337771618957 0.402283344672 0)
(-0.02979270868 0.411576931008 0)
(-0.0259009543814 0.419689245852 0)
(-0.0221161622308 0.426652438659 0)
(-0.018449886455 0.432502275252 0)
(-0.0149122307747 0.4372774929 0)
(-0.0115109305631 0.441019272575 0)
(-0.0082526626222 0.443770721961 0)
(-0.00514202555653 0.445576454908 0)
(-0.00218288140595 0.44648216925 0)
(0.000622760921338 0.446534302203 0)
(0.00327337367697 0.445779675666 0)
(0.00576910609351 0.444265240423 0)
(0.00811031950615 0.442037687454 0)
(0.0102989037694 0.439143302114 0)
(0.0123368187256 0.435627706331 0)
(0.0142273795083 0.431535650692 0)
(0.0159737786207 0.426910830502 0)
(0.0175804314311 0.421795738335 0)
(0.0190514757523 0.416231519776 0)
(0.0203921502254 0.410257864164 0)
(0.021607279142 0.403912900686 0)
(0.0227026759286 0.397233122051 0)
(0.0236836199075 0.390253316829 0)
(0.0245562741518 0.3830065223 0)
(0.0253261596922 0.375523990276 0)
(0.0259995799031 0.367835167874 0)
(0.0265820995828 0.359967695601 0)
(0.02707996735 0.351947414351 0)
(0.0274986071339 0.343798393974 0)
(0.027844033708 0.335542965277 0)
(0.028121366113 0.32720177693 0)
(0.0283362305864 0.318793848967 0)
(0.0284933048515 0.310336653528 0)
(0.0285977053283 0.301846185311 0)
(0.0286535717867 0.293337060345 0)
(0.0286654335176 0.28482259624 0)
(0.0286368417024 0.276314920894 0)
(0.0285717103125 0.267825054898 0)
(0.0284730026485 0.259363022084 0)
(0.0283440396506 0.250937925645 0)
(0.0281872442051 0.242558052093 0)
(0.0280054102427 0.234230934239 0)
(0.02780050741 0.225963442369 0)
(0.0275749018625 0.217761828688 0)
(0.0273302217907 0.209631801065 0)
(0.0270685223653 0.201578546531 0)
(0.0267912126033 0.193606786398 0)
(0.0265001558926 0.185720778732 0)
(0.0261966578936 0.177924355476 0)
(0.0258824966633 0.170220906533 0)
(0.02555897227 0.162613402441 0)
(0.025227860647 0.155104364268 0)
(0.0248905256846 0.147695876042 0)
(0.0245487938655 0.140389545822 0)
(0.0242041308487 0.133186513463 0)
(0.0238584343168 0.1260874083 0)
(0.0235132772537 0.119092356934 0)
(0.0231706187841 0.112200942489 0)
(0.0228321171332 0.10541221707 0)
(0.0224997581017 0.0987246664924 0)
(0.0221752403828 0.0921362300299 0)
(0.0218605224195 0.0856442728811 0)
(0.0215572825898 0.0792456147189 0)
(0.0212673839391 0.0729365102339 0)
(0.0209924103572 0.0667126847261 0)
(0.0207340480639 0.0605693189414 0)
(0.020493697857 0.0545010848005 0)
(0.0202727732679 0.0485021207061 0)
(0.0200723965594 0.0425660345005 0)
(0.0198936497306 0.0366858077387 0)
(0.0197374582406 0.0308537068991 0)
(0.0196050686265 0.0250609863568 0)
(0.0194985617567 0.0192975643245 0)
(0.0194185196684 0.013547860008 0)
(0.0192772878171 0.00788676223551 0)
(0.0173760878656 0.00231013902035 0)
(-0.106968573544 0.0115003052316 0)
(-0.11853093607 0.0394221982989 0)
(-0.118103655436 0.0669146650287 0)
(-0.116443039188 0.0945259026198 0)
(-0.114195175295 0.121613934959 0)
(-0.111427409307 0.148078088551 0)
(-0.108179889542 0.173797185475 0)
(-0.104495844796 0.198660632611 0)
(-0.100422199925 0.222569773328 0)
(-0.0960082176165 0.245438703794 0)
(-0.0913043985993 0.267194532075 0)
(-0.0863612018872 0.287777384629 0)
(-0.0812282174272 0.307140114406 0)
(-0.0759531444259 0.325247791457 0)
(-0.0705812967656 0.342076989341 0)
(-0.0651548687417 0.357614946544 0)
(-0.0597127802781 0.371858613811 0)
(-0.0542902177688 0.384813662347 0)
(-0.0489187883745 0.396493459753 0)
(-0.0436262879707 0.4069180805 0)
(-0.0384370975383 0.416113348866 0)
(-0.0333720964645 0.424109967917 0)
(-0.0284492050834 0.430942718684 0)
(-0.023683343435 0.436649763994 0)
(-0.0190870205312 0.441272025179 0)
(-0.0146702549699 0.444852650421 0)
(-0.0104411456091 0.44743653538 0)
(-0.00640571741951 0.449069908121 0)
(-0.00256845803852 0.449799941811 0)
(0.0010679030361 0.449674411084 0)
(0.00450187716241 0.448741358028 0)
(0.00773349949371 0.447048853195 0)
(0.0107637249415 0.444644565901 0)
(0.0135948169144 0.44157569551 0)
(0.0162297908503 0.437888671849 0)
(0.0186727226001 0.433628955816 0)
(0.0209282240075 0.428840870439 0)
(0.0230017762671 0.423567451068 0)
(0.0248992083742 0.417850312042 0)
(0.0266270495776 0.411729537007 0)
(0.0281920114377 0.405243582809 0)
(0.02960135465 0.398429203025 0)
(0.0308623740655 0.391321385345 0)
(0.0319827743986 0.383953305612 0)
(0.0329701581838 0.376356295805 0)
(0.0338324063073 0.368559826936 0)
(0.0345771701212 0.360591507784 0)
(0.0352122543277 0.352477096652 0)
(0.0357451166007 0.344240529373 0)
(0.0361832526162 0.335903958436 0)
(0.0365337079178 0.327487809282 0)
(0.0368034660324 0.319010844512 0)
(0.0369989784121 0.31049024371 0)
(0.0371265574406 0.301941687215 0)
(0.0371919298524 0.29337945393 0)
(0.0372006354878 0.284816517687 0)
(0.0371576084213 0.276264653846 0)
(0.0370675810864 0.267734538954 0)
(0.0369346950481 0.259235857633 0)
(0.0367629077011 0.250777396736 0)
(0.0365556324029 0.242367142868 0)
(0.036316143289 0.234012362653 0)
(0.0360472423069 0.225719684506 0)
(0.0357516558968 0.217495159532 0)
(0.0354317252246 0.209344322347 0)
(0.0350897881891 0.201272229433 0)
(0.0347278885954 0.193283498278 0)
(0.0343481368845 0.18538232366 0)
(0.0339524344345 0.177572495946 0)
(0.0335428077656 0.16985739793 0)
(0.0331211451374 0.162240006808 0)
(0.0326895002155 0.154722876622 0)
(0.0322498395706 0.147308128736 0)
(0.0318043138552 0.139997425548 0)
(0.0313550162818 0.132791955986 0)
(0.0309042207381 0.125692406661 0)
(0.0304541526144 0.118698947543 0)
(0.0300071949145 0.111811205708 0)
(0.0295656737411 0.10502825635 0)
(0.0291320340372 0.0983486032368 0)
(0.0287086424273 0.091770177741 0)
(0.0282979347977 0.0852903281353 0)
(0.0279022392084 0.0789058280247 0)
(0.0275238971269 0.0726128745507 0)
(0.0271651088594 0.0664071043082 0)
(0.0268280308871 0.0602835974148 0)
(0.0265146481492 0.0542368971605 0)
(0.0262268553422 0.0482610104673 0)
(0.0259663747794 0.0423494244625 0)
(0.0257348619311 0.0364950952686 0)
(0.0255339510714 0.0306904459406 0)
(0.0253655320703 0.0249274263471 0)
(0.0252317963901 0.0191977351885 0)
(0.0251295154463 0.0134879926829 0)
(0.0249346495613 0.00787962774911 0)
(0.022389037548 0.00232340895921 0)
(-0.132410148863 0.0117082535734 0)
(-0.146717309242 0.0403913405235 0)
(-0.146169439452 0.0685029033405 0)
(-0.14408290347 0.0967464145096 0)
(-0.14125992716 0.124433598506 0)
(-0.137786262163 0.151457200113 0)
(-0.133713738112 0.177689663361 0)
(-0.129097963918 0.203015491451 0)
(-0.12399897674 0.227332621074 0)
(-0.118479635537 0.250553195118 0)
(-0.112604073985 0.272603714029 0)
(-0.106436218566 0.293424892639 0)
(-0.100038577743 0.312971210373 0)
(-0.0934711341637 0.331210220628 0)
(-0.086790546649 0.348121663015 0)
(-0.0800494462201 0.363696440601 0)
(-0.0732960521458 0.377935500928 0)
(-0.0665738505803 0.390848678248 0)
(-0.0599215833347 0.402453530249 0)
(-0.0533732468378 0.412774220264 0)
(-0.0469583676288 0.421840468574 0)
(-0.0407022120324 0.429686608918 0)
(-0.0346262185612 0.436350754485 0)
(-0.0287482788742 0.441874086527 0)
(-0.0230831900959 0.446300247586 0)
(-0.0176428893044 0.449674832139 0)
(-0.0124368393627 0.452044944443 0)
(-0.00747217119541 0.453458812016 0)
(-0.00275399419622 0.453965430114 0)
(0.00171453311213 0.453614234846 0)
(0.00593193416736 0.452454783749 0)
(0.00989841275565 0.450536546601 0)
(0.013615460857 0.447908403648 0)
(0.0170859961784 0.444618702865 0)
(0.0203140315844 0.440714874344 0)
(0.0233046743049 0.436243265107 0)
(0.026063878972 0.431248976 0)
(0.0285984544638 0.425775717025 0)
(0.030915830367 0.419865681993 0)
(0.0330240810849 0.413559443085 0)
(0.0349317036112 0.406895861111 0)
(0.0366476545514 0.399912012376 0)
(0.0381811355377 0.392643129668 0)
(0.0395416377264 0.38512255829 0)
(0.0407387316863 0.377381726457 0)
(0.0417821163625 0.369450130481 0)
(0.0426814129014 0.361355334952 0)
(0.0434462170387 0.353122987503 0)
(0.0440858986502 0.344776849264 0)
(0.0446096597606 0.336338839374 0)
(0.0450263442272 0.327829094702 0)
(0.0453445048722 0.319266041696 0)
(0.0455722287261 0.310666481744 0)
(0.0457172180816 0.302045685363 0)
(0.0457866368348 0.293417496465 0)
(0.0457872087108 0.284794440554 0)
(0.0457250882354 0.276187838565 0)
(0.0456059777318 0.267607919133 0)
(0.0454350239656 0.259063931488 0)
(0.0452169519787 0.25056425115 0)
(0.0449559851554 0.242116481779 0)
(0.0446559917279 0.233727545265 0)
(0.0443204236788 0.225403764558 0)
(0.0439524691338 0.217150931506 0)
(0.0435550036786 0.208974365734 0)
(0.0431307414591 0.200878957259 0)
(0.0426821922757 0.192869200159 0)
(0.0422118039409 0.184949210335 0)
(0.0417219190089 0.177122735956 0)
(0.0412149026818 0.169393153982 0)
(0.0406930947447 0.161763462171 0)
(0.0401589187645 0.154236259997 0)
(0.0396148266427 0.146813728481 0)
(0.0390633874574 0.13949760235 0)
(0.0385072242677 0.132289144643 0)
(0.037949082604 0.125189116843 0)
(0.0373917608376 0.118197754572 0)
(0.0368381603374 0.111314741588 0)
(0.0362912121263 0.10453919181 0)
(0.0357539114288 0.0978696314636 0)
(0.0352292439346 0.0913039906175 0)
(0.0347202082211 0.0848395957712 0)
(0.0342297451895 0.0784731720148 0)
(0.0337607516598 0.0722008461344 0)
(0.0333160167258 0.0660181582712 0)
(0.0328982308683 0.0599200736423 0)
(0.0325099352761 0.0539010022095 0)
(0.0321535357113 0.0479548195881 0)
(0.0318312799055 0.0420748943046 0)
(0.0315453039425 0.0362541210739 0)
(0.0312976766917 0.0304850243263 0)
(0.031090490036 0.024759831929 0)
(0.030925532002 0.0190706624461 0)
(0.0307963295181 0.0134043258163 0)
(0.0305468250973 0.00784048498073 0)
(0.0273991880807 0.00231990038597 0)
(-0.158526560988 0.0119627565724 0)
(-0.175639777237 0.0415867445237 0)
(-0.174953817351 0.0704640697234 4.13975760967e-27)
(-0.172409764184 0.0994883091256 0)
(-0.168970739583 0.127913559645 0)
(-0.164742377686 0.155624420058 0)
(-0.159789806798 0.182485581916 0)
(-0.154182700089 0.208375655478 0)
(-0.147995902593 0.233188572899 0)
(-0.141307432085 0.25683431276 0)
(-0.134196507144 0.279238901656 0)
(-0.126741753181 0.300344077807 0)
(-0.119019676749 0.320106625896 0)
(-0.11110337166 0.338497455683 0)
(-0.103061516604 0.355500485214 0)
(-0.0949576004189 0.371111388284 0)
(-0.0868494316142 0.385336259085 0)
(-0.0787888511233 0.398190247216 0)
(-0.0708217028486 0.409696212832 0)
(-0.0629879587563 0.419883449745 0)
(-0.0553220442928 0.428786517158 0)
(-0.0478532349838 0.436444211183 0)
(-0.0406061640168 0.442898692434 0)
(-0.0336012982967 0.448194769633 0)
(-0.0268554376354 0.452379322676 0)
(-0.0203821069222 0.455500837358 0)
(-0.0141919325543 0.457609018221 0)
(-0.00829289739935 0.458754448899 0)
(-0.00269059903098 0.458988276361 0)
(0.00261158594517 0.458361906583 0)
(0.00761229374802 0.456926700697 0)
(0.0123120929314 0.454733805266 0)
(0.0167131011873 0.451833538341 0)
(0.0208190783859 0.448275624086 0)
(0.0246351138757 0.444108681105 0)
(0.0281675238106 0.439380111462 0)
(0.0314236684341 0.434135939172 0)
(0.0344118475994 0.428420673889 0)
(0.0371411383545 0.422277194802 0)
(0.0396213109785 0.415746652341 0)
(0.041862683095 0.40886838494 0)
(0.0438760497416 0.401679850271 0)
(0.0456725472013 0.394216570047 0)
(0.0472635904517 0.386512088611 0)
(0.0486607417706 0.378597945308 0)
(0.0498756517404 0.370503661405 0)
(0.0509199308803 0.362256742171 0)
(0.0518050939316 0.353882694437 0)
(0.0525424364743 0.345405060153 0)
(0.0531429856656 0.336845465719 0)
(0.0536173867716 0.328223687336 0)
(0.0539758661303 0.319557730835 0)
(0.0542281345182 0.310863925361 0)
(0.0543833690562 0.302157028292 0)
(0.0544501400207 0.293450340162 0)
(0.054436417131 0.2847558257 0)
(0.0543495242671 0.276084239142 0)
(0.0541961725533 0.267445249604 0)
(0.0539824436851 0.258847564749 0)
(0.0537138482635 0.250299048401 0)
(0.0533953345652 0.241806830686 0)
(0.053031366919 0.23337740717 0)
(0.0526259533616 0.225016726466 0)
(0.0521827361153 0.216730263586 0)
(0.0517050296653 0.20852307942 0)
(0.051195914257 0.200399864906 0)
(0.0506582754199 0.192364971384 0)
(0.0500948916841 0.184422426551 0)
(0.0495084676429 0.176575938277 0)
(0.0489017087688 0.168828886672 0)
(0.0482773421247 0.161184307335 0)
(0.0476381735352 0.153644866442 0)
(0.0469870927414 0.146212830839 0)
(0.0463271109966 0.138890034041 0)
(0.0456613501169 0.131677841352 0)
(0.0449930610745 0.124577114609 0)
(0.044325598747 0.117588179515 0)
(0.0436624241849 0.110710795684 0)
(0.0430070685047 0.103944132042 0)
(0.0423631227219 0.0972867469033 0)
(0.0417341951225 0.0907365748653 0)
(0.0411238931702 0.0842909192925 0)
(0.040535778949 0.077946451912 0)
(0.0399733476576 0.0716992179474 0)
(0.0394399858318 0.0655446475473 0)
(0.0389389515231 0.0594775728277 0)
(0.0384733412541 0.0534922522693 0)
(0.03804607923 0.0475823992628 0)
(0.0376599032441 0.0417412312763 0)
(0.0373173736275 0.0359615271521 0)
(0.0370208846025 0.0302356946868 0)
(0.0367726609796 0.0245559125536 0)
(0.0365741916845 0.0189142734898 0)
(0.0364166277803 0.0132970013052 0)
(0.0361142819442 0.00778036739178 0)
(0.0323818666735 0.00230803060725 0)
(-0.185464195877 0.0122680562381 0)
(-0.205460257642 0.0430283176746 0)
(-0.20461403494 0.0728284989191 -4.13755079674e-27)
(-0.201572281914 0.102792635145 0)
(-0.197465335155 0.132104274134 0)
(-0.192420804223 0.160637969566 0)
(-0.186519208132 0.188249087766 0)
(-0.179846443961 0.214809310805 0)
(-0.172494286943 0.240208036201 0)
(-0.164557885931 0.264353006448 0)
(-0.156133323292 0.28717009585 0)
(-0.147315452798 0.308602713449 0)
(-0.138196065155 0.32861085425 0)
(-0.12886237829 0.347169886466 0)
(-0.119395860276 0.364269145332 0)
(-0.109871362191 0.37991039862 0)
(-0.10035656525 0.394106239967 0)
(-0.0909117122892 0.406878469523 0)
(-0.0815896223927 0.418256517615 0)
(-0.0724359391954 0.42827597128 0)
(-0.0634895899747 0.436977253347 0)
(-0.0547833749585 0.444404496139 0)
(-0.0463446423851 0.450604627562 0)
(-0.0381959545111 0.455626667783 0)
(-0.0303557108542 0.459521206195 0)
(-0.0228386611663 0.462340014727 0)
(-0.0156563228611 0.464135742911 0)
(-0.00881728323221 0.464961649579 0)
(-0.00232744372462 0.464871337878 0)
(0.00380979595042 0.463918475616 0)
(0.00959332765451 0.462156506881 0)
(0.0150242788844 0.459638528853 0)
(0.0201055489169 0.456416528069 0)
(0.0248419057165 0.452541817929 0)
(0.0292396589316 0.448064391172 0)
(0.0333064988997 0.44303286542 0)
(0.0370513137124 0.437494324443 0)
(0.040484038804 0.431494194231 0)
(0.0436155011766 0.425076138199 0)
(0.0464572950377 0.418281968318 0)
(0.0490216472433 0.411151569399 0)
(0.0513213091647 0.403722835709 0)
(0.0533694330245 0.396031619326 0)
(0.0551794706157 0.388111690967 0)
(0.0567650533785 0.379994713927 0)
(0.0581398932058 0.371710232314 0)
(0.0593176639649 0.363285674494 0)
(0.0603119041874 0.354746372862 0)
(0.0611359022408 0.34611560074 0)
(0.0618026053135 0.337414626814 0)
(0.0623245146679 0.328662787072 0)
(0.0627136087021 0.319877573495 0)
(0.0629812571823 0.311074738346 0)
(0.0631381676222 0.302268411814 0)
(0.0631943273199 0.293471230636 0)
(0.063158980481 0.284694474209 0)
(0.0630406037929 0.275948205197 0)
(0.0628469177897 0.267241410419 0)
(0.0625848969708 0.258582138962 0)
(0.062260813585 0.249977633327 0)
(0.0618802780719 0.241434451294 0)
(0.0614483087827 0.232958574903 0)
(0.0609693944021 0.224555505362 0)
(0.0604475795818 0.21623034131 0)
(0.0598865384734 0.207987840699 0)
(0.0592896649484 0.19983246486 0)
(0.0586601459918 0.191768406376 0)
(0.058001045573 0.183799600394 0)
(0.0573153679693 0.175929722155 0)
(0.0566061266156 0.168162171177 0)
(0.0558763901827 0.160500045612 0)
(0.0551293307408 0.152946107614 0)
(0.0543682487359 0.145502743599 0)
(0.0535965983916 0.138171920302 0)
(0.0528179911601 0.130955140386 0)
(0.0520361993825 0.12385339828 0)
(0.0512551406416 0.116867139553 0)
(0.0504788633053 0.109996224059 0)
(0.0497115162607 0.103239895531 0)
(0.0489573214029 0.0965967572118 0)
(0.0482205342488 0.090064755467 0)
(0.0475054091062 0.0836411704467 0)
(0.0468161562713 0.077322614835 0)
(0.0461569054143 0.0711050397375 0)
(0.0455316647723 0.0649837480242 0)
(0.0449442880895 0.0589534147873 0)
(0.0443984411558 0.0530081160405 0)
(0.0438975776456 0.0471413685848 0)
(0.0434449173149 0.0413461771032 0)
(0.0430434344098 0.0356150946192 0)
(0.0426958419522 0.0299403442388 0)
(0.0424045281826 0.0243138509221 0)
(0.0421708861142 0.0187272485687 0)
(0.0419842768246 0.0131662682449 0)
(0.0416304594218 0.00770368404304 0)
(0.0373229646397 0.00229097448922 0)
(-0.21338340483 0.012628793819 0)
(-0.236354155927 0.044740171672 0)
(-0.235319900729 0.0756340657061 0)
(-0.231730306959 0.106710765237 0)
(-0.226890874212 0.137068671125 0)
(-0.220954014651 0.166570112079 0)
(-0.214018374481 0.195059392933 0)
(-0.206188835142 0.222400228766 0)
(-0.197576757714 0.248477069668 0)
(-0.188296856293 0.273195552928 0)
(-0.178464231131 0.296481975637 0)
(-0.168191797481 0.318282344014 0)
(-0.157588141116 0.338561057406 0)
(-0.146755786116 0.35729933106 0)
(-0.135789860696 0.374493437667 0)
(-0.124777138311 0.390152830831 0)
(-0.113795446263 0.40429821073 0)
(-0.102913425479 0.416959590864 0)
(-0.0921906306504 0.428174435386 0)
(-0.0816779343692 0.437985936674 0)
(-0.0714181887219 0.446441505082 0)
(-0.0614470618915 0.453591523693 0)
(-0.0517939605983 0.459488398622 0)
(-0.0424829312735 0.464185894081 0)
(-0.0335334591874 0.467738708292 0)
(-0.0249611032052 0.470202213984 0)
(-0.0167779595921 0.471632282016 0)
(-0.00899297321476 0.472085114937 0)
(-0.00161215312138 0.471617049249 0)
(0.00536126444375 0.470284283738 0)
(0.0119266439058 0.468142709032 0)
(0.0180857696144 0.465247422366 0)
(0.0238425876727 0.461652522936 0)
(0.0292030501046 0.457411046853 0)
(0.0341748664331 0.452574548174 0)
(0.0387672789737 0.447193007407 0)
(0.0429908594044 0.441314692818 0)
(0.0468573296 0.434986052047 0)
(0.0503793967345 0.428251622131 0)
(0.0535706085934 0.421153952459 0)
(0.0564452153705 0.413733537769 0)
(0.0590180433472 0.406028760298 0)
(0.0613043676544 0.398075841437 0)
(0.063319791349 0.389908804067 0)
(0.0650801197517 0.38155944703 0)
(0.0666012388765 0.373057333488 0)
(0.0678989884377 0.364429794903 0)
(0.0689890396214 0.355701952251 0)
(0.0698867696411 0.34689675587 0)
(0.0706071444594 0.338035044886 0)