/*--------------------------------*- C++ -*----------------------------------*\
| =========                 |                                                 |
| \\      /  F ield         | OpenFOAM: The Open Source CFD Toolbox           |
|  \\    /   O peration     | Version:  v1906                                 |
|   \\  /    A nd           | Web:      www.OpenFOAM.com                      |
|    \\/     M anipulation  |                                                 |
\*---------------------------------------------------------------------------*/
FoamFile
{
    version     2.0;
    format      ascii;
    class       surfaceScalarField;
    location    "850";
    object      phia;
}
// * * * * * * * * * * * * * * * * * * * * * * * * * * * * * * * * * * * * * //

dimensions      [0 3 -1 0 0 0 0];
oriented        oriented;


internalField   nonuniform List<scalar> 
18240
(
0.00134652628652
-0.00134639030414
0.00282068599741
-0.00147400009876
0.0042937655397
-0.00147294057648
0.00574811379098
-0.00145418453013
0.0071756744766
-0.00142742762968
0.00856974837487
-0.00139390728296
0.00992422108129
-0.00135434587007
0.0112337001746
-0.00130931028636
0.0124932284461
-0.00125940801573
0.0136986060296
-0.00120520733383
0.0148460620461
-0.00114734280809
0.0159326226614
-0.00108638965233
0.0169557086863
-0.00102298014596
0.0179135383209
-0.000957658672519
0.0188046543381
-0.000891017812064
0.0196283634174
-0.000823538808255
0.0203842017869
-0.000755747984494
0.0210724146877
-0.000688044003189
0.0216933704012
-0.000620873384735
0.022248082579
-0.000554545307002
0.0227375813475
-0.000489424519929
0.0231634794524
-0.00042573389799
0.0235273079492
-0.000363762455467
0.0238311248792
-0.000303655982054
0.0240768208179
-0.00024563800654
0.0242667667896
-0.00018978885156
0.0244030940065
-0.000136277411252
0.0244883764258
-8.5129642338e-05
0.0245248880282
-3.6469710899e-05
0.0245153154512
9.72052883858e-06
0.0244619985475
5.33509650428e-05
0.0243676601333
9.4481114721e-05
0.024234624609
0.000133062065688
0.0240655822945
0.000169179362996
0.0238628024284
0.000202799059208
0.0236289022625
0.000234031225499
0.0233660501875
0.000262864316554
0.02307674696
0.000289428001578
0.0227630260072
0.000313726497575
0.0224272406746
0.000335903589299
0.0220712649256
0.000355975063786
0.0216972821537
0.00037409431901
0.0213069902996
0.000390285257793
0.0209023880368
0.000404706970679
0.0204849877788
0.000417388264793
0.0200565953325
0.000428490222349
0.019618534592
0.000438043714063
0.0191724169086
0.000446208492569
0.0187193805941
0.000453014795249
0.0182608464982
0.000458617935613
0.0177977756364
0.000463045240179
0.01733140758
0.000466444975639
0.0168625387885
0.000468839613885
0.0163922406454
0.00047036821771
0.0159211611878
0.000471047124266
0.0154502197491
0.000471004788389
0.0149799340799
0.000470250714405
0.0145110888355
0.000468902009399
0.0140440902054
0.000466961447901
0.0135796056902
0.000464534870648
0.0131179477714
0.000461619013277
0.0126596827863
0.000458309118602
0.0122050453332
0.000454597194073
0.0117545143409
0.000450569115316
0.0113082594284
0.000446213754383
0.0108666826775
0.000441609077787
0.0104298983309
0.000436742616959
0.00999823907892
0.000431686010308
0.00957177006084
0.000426427105762
0.0091507588615
0.000421032613772
0.0087352248859
0.000415492158521
0.00832537250839
0.000409868684569
0.00792117648791
0.000404154628851
0.00752277801193
0.000398409918503
0.0071301068471
0.000392630453276
0.00674324017463
0.000386873519507
0.00636206179865
0.000381138659714
0.00598658386251
0.000375480481068
0.00561664342782
0.000369901994985
0.0052521872182
0.000364454779373
0.00489300559996
0.000359144790528
0.00453898059642
0.000354019929698
0.00418985734097
0.000349088320887
0.00384545562906
0.000344393268169
0.00350547887495
0.000339943893618
0.00316968978987
0.00033577736835
0.00283775750651
0.000331901441593
0.00250939950035
0.000328342952109
0.00218427102016
0.000325099536663
0.00186208548115
0.000322167532063
0.00154257562777
0.000319483389879
0.00122567425685
0.000316881410501
0.000911777234615
0.000313874706585
0.000602986258825
0.000308769457138
0.00030824855707
0.00029471258522
0.000308235707651
0.00148864874158
-0.00283489074822
0.00315040196256
-0.00313559053153
0.00480304570659
-0.00312542800346
0.00643189356914
-0.0030828694772
0.00802950478018
-0.00302488492573
0.00958895493137
-0.00295319516296
0.0111036305358
-0.00286887057757
0.0125675013114
-0.00277301996324
0.0139750941565
-0.00266685361177
0.0153216617118
-0.00255161561442
0.0166030688841
-0.00242860692438
0.0178159427784
-0.00229910672419
0.018957506643
-0.00216440568981
0.0200257254292
-0.00202572368396
0.0210190979063
-0.00188425713773
0.0219368052512
-0.00174109597857
0.0227784707324
-0.00159728593029
0.0235443181897
-0.00145374541223
0.0242349082389
-0.00131134185729
0.0248513123671
-0.00117080799503
0.0253948332453
-0.00103283013562
0.025867198216
-0.000897962485923
0.0262702692051
-0.000766724741193
0.0266062568769
-0.00063951272439
0.0268774232968
-0.00051670253589
0.0270863157859
-0.000398556221777
0.0272354637204
-0.000285330408392
0.0273276296313
-0.000177176543203
0.0273655005637
-7.42528057214e-05
0.027351953053
2.33806826244e-05
0.0272897369415
0.000115647775278
0.0271817595333
0.00020256459818
0.0270307752115
0.000284119895526
0.02683966333
0.000360390583723
0.0266111071096
0.000431421652011
0.0263478912505
0.000497339584799
0.0260525827074
0.000558232146504
0.0257278318193
0.000614264489344
0.0253760529808
0.000665557686998
0.024999729383
0.000712305882159
0.0246010953935
0.000754654608748
0.0241824431858
0.000792818350723
0.0237458082426
0.000826959189802
0.0232932761146
0.000857304136914
0.0228266723636
0.000884024654241
0.0223478678389
0.000907353117086
0.0218584743988
0.000927463734103
0.0213601471472
0.000944587607532
0.0208542871204
0.000958895619358
0.0203423390153
0.000970611584694
0.0198255019582
0.000979897649629
0.0193050212457
0.000986965135487
0.0187819080787
0.000991963006928
0.0182572238806
0.000995086008151
0.0177318097723
0.000996466698832
0.0172065620261
0.000996280540259
0.0166821718372
0.000994641954594
0.0161593905615
0.000991705983818
0.0156387802942
0.000987568729721
0.0151209676225
0.000982365231237
0.0146064053933
0.000976174573267
0.0140956139013
0.000969113589187
0.0135889542786
0.000961246834761
0.0130868562137
0.000952675754404
0.0125896033494
0.000943453664686
0.0120975468765
0.000933670018832
0.0116109034186
0.000923370492205
0.011129954042
0.00091263604345
0.0106548550707
0.000901508176687
0.0101858222782
0.000890062533181
0.00972295513401
0.000878339390738
0.00926640608998
0.000866411603894
0.00881621867892
0.000854320402387
0.0083724819495
0.000842137549046
0.0079351828328
0.000829906499849
0.00750434584747
0.000817698724042
0.00707990002055
0.000805560285857
0.00666180404238
0.000793562310118
0.00624992798789
0.000781753043157
0.00584416409992
0.000770202490649
0.005444323427
0.000758959996542
0.00505023241426
0.000748093084358
0.00466164455308
0.000737650571922
0.00427832293982
0.000727695620283
0.00389996696193
0.000718274308909
0.00352628100074
0.000709442744927
0.00315691614499
0.000701240727144
0.00279152490818
0.000693712205691
0.00242971629691
0.000686882480345
0.0020710910599
0.000680769499483
0.00171518961417
0.000675360318074
0.00136143860614
0.000670609626351
0.00100887664192
0.000666412589088
0.000655101398959
0.000662521346635
0.00029388380593
0.000655906904639
0.000602107541328
0.00151495795667
-0.00434969790494
0.00319799355117
-0.00481846516405
0.00487438340666
-0.00480165724764
0.00652685656362
-0.00473518127397
0.00814724463391
-0.00464511416859
0.00972828414141
-0.0045340746758
0.0112632034792
-0.00440363338394
0.0127458296233
-0.00425548814127
0.0141706211605
-0.00409149145576
0.0155327479402
-0.00391358710136
0.0168280700851
-0.00372377883078
0.018053184948
-0.0035240695686
0.019205366982
-0.00331644147066
0.020282593899
-0.00310280241871
0.0212834581826
-0.00288497969203
0.0222071817421
-0.00266467570523
0.0230535085993
-0.00244347602368
0.0238227165227
-0.00222281433615
0.0245154996429
-0.00200399363831
0.0251329842363
-0.00178815885468
0.0256766082462
-0.00157632858323
0.0261481462589
-0.00136937242976
0.0265495905674
-0.00116804963331
0.0268831876047
-0.000972987696432
0.0271513223299
-0.00078472424232
0.0273565658773
-0.00060368400904
0.0275015631355
-0.000430221313576
0.027589089867
-0.000264594055452
0.0276219424302
-0.000107005827657
0.0276030024958
4.24230947669e-05
0.0275351286447
0.000183614186896
0.0274212267084
0.000316562132194
0.0272641439279
0.000441288202358
0.0270667443838
0.000557878735819
0.0268318031955
0.000666441261948
0.0265620870323
0.000767137332263
0.0262602502799
0.0008601402701
0.0259289193937
0.000945669935464
0.0255705910227
0.00102395040894
0.025187719118
0.00109524538482
0.0247826151382
0.00115981606494
0.0243575372081
0.00121795700779
0.0239145927339
0.00126995438345
0.0234558289327
0.00131612194225
0.0229831380765
0.00135675969657
0.0224983488433
0.00139218980155
0.0220031345793
0.00142271584201
0.0214991049095
0.00144865839483
0.0209877172289
0.00147031508719
0.0204703680513
0.00148799577928
0.019948308003
0.00150198367678
0.0194227322914
0.00151257003738
0.0188946992155
0.0015200165832
0.0183652191198
0.00152458974748
0.0178351764558
0.00152652467409
0.0173054164809
0.00152605892372
0.0167766706768
0.0015233982379
0.0162496404881
0.00151874965667
0.0157249259838
0.00151228919501
0.015203105923
0.00150419418403
0.0146846694349
0.00149461287045
0.0141700918426
0.00148369580442
0.0136597693135
0.00147156734048
0.0131540899695
0.00145835578541
0.0126533714479
0.00144416668547
0.0121579270335
0.00142911149909
0.0116680062802
0.00141328257214
0.0111838560234
0.0013967800593
0.010705664217
0.00137968846321
0.0102336158667
0.00136210162745
0.00976784039454
0.00134410077676
0.0093084626043
0.00132577741421
0.00885555384139
0.00130721281442
0.00840917820037
0.00128849876783
0.00796934781887
0.00126971854479
0.00753606453092
0.00125096544724
0.00710927953445
0.00123232527616
0.0066889307177
0.00121389273313
0.00627490694425
0.00119575546172
0.00586708122017
0.00117800833678
0.00546527972502
0.00116073914365
0.00506931096567
0.0011440408263
0.00467893965296
0.00112799886282
0.00429391189998
0.00111270149478
0.00391393390475
0.00109822879928
0.00353869311568
0.00108466086167
0.00316784137885
0.00107206842812
0.00280101114649
0.00106051884036
0.00243780086593
0.00105006819185
0.00207778088666
0.0010407653763
0.00172046842095
0.00103264813452
0.00136529933682
0.00102575536516
0.00101154937695
0.00102014016074
0.00065831386479
0.00101573222475
0.000306328380332
0.00100786758462
0.000908424686626
0.00153829923839
-0.00588784500006
0.00324436828573
-0.00652437089533
0.00494391573008
-0.00650104249024
0.00661886694959
-0.00640997011904
0.00826058748669
-0.00628667379396
0.00986148558713
-0.00613481220361
0.0114145712459
-0.00595656015923
0.0129135085492
-0.00575426715184
0.0143526603916
-0.00553048710093
0.0157271348676
-0.00528790617452
0.0170327892622
-0.00502928032019
0.0182662403355
-0.00475736872455
0.0194248332161
-0.00447488532698
0.020506625328
-0.00418444665605
0.0215103307007
-0.00388854043409
0.0224352878697
-0.00358948955442
0.0232813898652
-0.00328943828611
0.0240490457078
-0.00299033188966
0.024739105272
-0.00269391879576
0.0253528225395
-0.00240174329236
0.0258917826686
-0.0021151600495
0.0263578727514
-0.00183533552902
0.0267532154882
-0.00156326978576
0.0270801499152
-0.00129980131857
0.027341172793
-0.00104563093295
0.0275389287465
-0.000801325622715
0.0276761580324
-0.000567341040719
0.0277556939424
-0.000344022318564
0.0277804150156
-0.000131624183304
0.0277532477905
6.96910886044e-05
0.0276771224512
0.000259835269419
0.0275549786463
0.000438799696255
0.0273897249216
0.000606630572204
0.0271842486656
0.000763441648859
0.0269413775122
0.000909393932909
0.0266638932415
0.00104470113535
0.0263544951994
0.00116961269407
0.026015817427
0.00128442013637
0.0256503945348
0.00138944061952
0.0252606813282
0.00148502399021
0.0248490208834
0.00157153685097
0.0244176662404
0.00164937013239
0.0239687505651
0.00171892358215
0.0235043105823
0.00178061364937
0.0230262588186
0.00183485833502
0.0225364085586
0.0018820852199
0.0220364482006
0.00192271665779
0.0215279675247
0.00195717789315
0.0210124341835
0.0019858827052
0.0204912210606
0.00200924164209
0.0199655848408
0.00202764827925
0.019436694131
0.00204148768778
0.0189056099429
0.00205112354463
0.0183733141667
0.00205690696299
0.0178406916774
0.00205916465207
0.0173085586355
0.00205820822254
0.0167776458409
0.00205432355386
0.0162486263101
0.00204778058795
0.0157220994681
0.0020388239362
0.0151986174502
0.00202768308351
0.0146786697574
0.00201456417275
0.0141627078326
0.0019996604276
0.0136511299029
0.00198314493728
0.0131443034947
0.00196518104567
0.0126425503158
0.00194591591634
0.0121461665516
0.00192549059458
0.0116554077868
0.00190403410308
0.0111705070664
0.00188167290687
0.0106916599851
0.0018585253298
0.0102190406412
0.00183471019496
0.0097527871256
0.00181034139796
0.00929301557695
0.00178553557613
0.00883980634817
0.00176040675579
0.00839321643051
0.00173507297722
0.00795326659474
0.00170965099617
0.00751995244422
0.00168426186875
0.00709323279483
0.00165902575095
0.00667303959945
0.00163406649801
0.00625926778951
0.00160950664003
0.00585178425381
0.00158547108598
0.00545041928674
0.00156208237316
0.00505497474501
0.00153946357429
0.00466521717442
0.00151773391498
0.00428088517162
0.00149701097282
0.0039016841206
0.0014774067387
0.00352729260565
0.00145902918425
0.00315735839382
0.00144197886946
0.00279150318491
0.00142635010105
0.00242931835817
0.00141222854005
0.00207036566042
0.00139969347103
0.00171417022049
0.00138881979516
0.00136021555011
0.0013796867024
0.00100795140361
0.00137237982279
0.000656973814564
0.00136668620732
0.000308957678808
0.00135585997065
0.00121737000337
0.00156826631798
-0.00745595719241
0.00330620598607
-0.00826214718454
0.00503703220338
-0.00823170408216
0.0067420370757
-0.00811481129094
0.00841214435381
-0.00795661808295
0.0100393901396
-0.00776189593838
0.0116164981382
-0.00753350729994
0.0131369209379
-0.00727453022997
0.014594886948
-0.0069882949393
0.0159854330885
-0.00667829556458
0.0173044110813
-0.0063481034479
0.0185484812649
-0.00600128573744
0.019715083589
-0.00564133666456
0.0208024026238
-0.00527161666162
0.0218093146945
-0.00489530594591
0.0227353355972
-0.0045153660895
0.0235805551447
-0.00413451618922
0.0243455783294
-0.0037552158456
0.0250314574362
-0.00337966163856
0.0256396358552
-0.00300978805487
0.0261718858082
-0.0026472795155
0.0266302612501
-0.00229358327204
0.0270170458064
-0.00194993000281
0.0273347171516
-0.0016173512571
0.0275859054953
-0.00129670138019
0.0277733679442
-0.000988673239535
0.0278999549038
-0.000693816813455
0.0279685911771
-0.000412550562034
0.0279822472193
-0.000145175936711
0.027943924489
0.000108114864881
0.0278566301015
0.000347226878521
0.0277233642165
0.000572159508896
0.0275470996127
0.000782985229342
0.027330771935
0.000979856048817
0.0270772607773
0.00116298791402
0.0267893846283
0.00133265678304
0.0264698841358
0.00148918880085
0.0261214199584
0.00163295661908
0.0257465585839
0.00176437044282
0.0253477725584
0.00188387520773
0.0249274284475
0.0019919423607
0.0244877890841
0.00208906769758
0.0240310034786
0.00217576367091
0.0235591108775
0.00225255762905
0.0230740325256
0.00231998445306
0.02257757745
0.00237858505346
0.0220714360888
0.00242889927803
0.021557187732
0.00247146462515
0.0210362959741
0.00250680947924
0.0205101177085
0.00253545216436
0.0199799003214
0.00255789470736
0.0194467920119
0.00257462242578
0.0189118404666
0.00258609846654
0.0183760041543
0.00259276418291
0.0178401521177
0.00259503470856
0.0173050757491
0.00259330030249
0.0167714891975
0.00258792310851
0.0162400410751
0.00257923955894
0.0157113149784
0.00256755834948
0.0151858405759
0.00255316381437
0.0146640937517
0.00253631497883
0.0141465066272
0.0025172497022
0.0136334669883
0.00249618455842
0.0131253269269
0.00247331942027
0.0126224013408
0.00244883782923
0.0121249750698
0.00242291167266
0.0116333004609
0.00239570170349
0.0111476030307
0.00236736195925
0.0106680782136
0.00233804012266
0.0101948957347
0.00230788141674
0.0097281957985
0.00227702858986
0.0092680924357
0.00224562509994
0.00881466942647
0.00221381459959
0.00836798293497
0.00218174334109
0.00792805749493
0.00214955914326
0.00749488822627
0.00211741302567
0.00706843716131
0.00208545771171
0.00664863530539
0.00205384858069
0.00623537954364
0.00202274181973
0.00582853473186
0.00199229481125
0.00542793133237
0.00196266406939
0.00503336765227
0.00193400520451
0.00464460827937
0.00190647078948
0.00426138648004
0.00188021003544
0.00388340337603
0.0018553667337
0.00351033038711
0.00183207880781
0.00314180893795
0.0018104765451
0.00277745253554
0.00179068234812
0.00241684672894
0.00177280994559
0.00205955052278
0.00175696530858
0.00170509701168
0.00174324856192
0.00135300119659
0.00173175896519
0.00100278289435
0.00172257599674
0.000654120706916
0.00171532334739
0.000308627942127
0.00170132736351
0.00152598668404
0.00160615857639
-0.00906195996891
0.00338529771935
-0.0100411191012
0.0051563700519
-0.010002610172
0.00689989607251
-0.00985817121103
0.008606275944
-0.00966283295592
0.0102671013817
-0.00942255722145
0.0118747417821
-0.00914098474367
0.0134223895546
-0.00882201626155
0.0149041071246
-0.00846985226491
0.0163148521738
-0.00808888190436
0.0176504779634
-0.00768357234082
0.0189077151324
-0.00725836784127
0.020084134464
-0.00681760304882
0.0211780981117
-0.00636542946041
0.0221886982313
-0.00590575761081
0.0231156908055
-0.00544221255886
0.0239594227751
-0.00497810470953
0.0247207604678
-0.00451641266306
0.0254010165821
-0.00405977976374
0.0260018837038
-0.00361051996877
0.0265253703866
-0.00317063408984
0.0269737471518
-0.00274183088688
0.0273494966674
-0.00232555364633
0.0276552744225
-0.00192300625614
0.0278938723974
-0.00153518003685
0.028068191377
-0.00116287614275
0.0281812135371
-0.000806726458702
0.0282359813257
-0.000467209183067
0.0282355744475
-0.000144663556415
0.0281830919408
0.000160699445585
0.028081631964
0.000448785190132
0.0279342753287
0.000719610986912
0.0277440695514
0.000973282048707
0.027514015272
0.00120999785113
0.0272470518924
0.00143003500323
0.0269460484438
0.00163374041918
0.0266137918729
0.00182152175307
0.026252980744
0.00199384063402
0.0258662160464
0.00215120426062
0.0254559971711
0.00229415975235
0.0250247147778
0.00242328671502
0.0245746486712
0.00253919238596
0.0241079624854
0.00264250481774
0.0236267033063
0.00273386847629
0.0231327981345
0.00281393777387
0.0226280552466
0.00288337290648
0.022114162473
0.00294283362377
0.0215926903207
0.00299297528565
0.0210650920943
0.00303444295639
0.0205327087481
0.00306786783465
0.0199967707652
0.00309386191111
0.0194584045587
0.00311301507002
0.0189186358628
0.00312589065621
0.0183783973261
0.00313302358616
0.0178385329813
0.00313491714827
0.0172998065072
0.00313204240306
0.0167629062111
0.00312483643311
0.0162284533522
0.00311370314415
0.0156970070256
0.00309901298636
0.015169071939
0.00308110507472
0.0146451026482
0.00306028820698
0.0141255102898
0.00303684402939
0.0136106657574
0.00301102900591
0.0131009050599
0.00298307822753
0.0125965312214
0.00295320789983
0.0120978181453
0.00292161933605
0.0116050112216
0.00288850151037
0.0111183297673
0.00285403480412
0.010637966504
0.0028183932368
0.0101640888053
0.00278174762095
0.00969683733269
0.00274426718911
0.00923632641335
0.00270612194196
0.00878264218697
0.00266748352643
0.00833584247385
0.00262852669352
0.00789595478982
0.00258942940529
0.00746297604316
0.00255037343757
0.0070368707305
0.00251154379642
0.00661757074875
0.00247312858186
0.00620497401648
0.00243531785847
0.00579894460519
0.00239830294768
0.00539931194324
0.00236227492899
0.00500587138431
0.00232742354808
0.00461838405729
0.00229393553394
0.00423657789835
0.00226199331474
0.00386014811113
0.00223177334262
0.00348875860487
0.00220344482752
0.00312204298034
0.00217716831987
0.00275960634679
0.00215309480246
0.00240102683532
0.00213136488435
0.00204585827841
0.00211210906076
0.00169363479855
0.00209544834747
0.00134387747069
0.00208149289468
0.000996114387152
0.0020703141881
0.000650006888371
0.00206140724567
0.000307037387599
0.00204427308299
0.00183301151635
0.0016528059354
-0.0107146073559
0.00348292546663
-0.0118710708005
0.00530374521375
-0.0118232605607
0.00709478295059
-0.0116490406994
0.00884578523468
-0.0114136675987
0.0105478000179
-0.0111244054673
0.0121927678526
-0.0107857871432
0.0137735715247
-0.0104026558246
0.0152840822382
-0.00998020032224
0.0167191768196
-0.00952381547092
0.0180747280082
-0.00903896428841
0.0193475724871
-0.00853105503059
0.020535460479
-0.00800533581637
0.0216369915726
-0.00746680757297
0.0226515399676
-0.00692015536168
0.0235791732276
-0.00636969768481
0.0244205672539
-0.00581935318403
0.0251769213078
-0.00527262392155
0.0258498755322
-0.00473259400077
0.026441434397
-0.00420194182114
0.0269538977198
-0.00368296340495
0.0273898014065
-0.00317760373657
0.0277518677884
-0.00268749237114
0.0280429656593
-0.00221397980633
0.0282660779263
-0.00175817130742
0.0284242755402
-0.00132095623873
0.0285206949844
-0.000903031831266
0.028558518243
-0.000504921958149
0.0285409534672
-0.000126991836136
0.0284712164156
0.000230539759919
0.0283525124686
0.000567588784276
0.0281880208006
0.000884198551
0.0279808763531
0.00118051872548
0.0277341582436
0.00145680440388
0.0274508761994
0.00171340180888
0.0271339601768
0.00195073741826
0.0267862511112
0.0021693081291
0.0264104933106
0.00236967198393
0.0260093276701
0.00255243982057
0.0255852862077
0.00271826742632
0.0251407871639
0.00286784840466
0.0246781312686
0.00300190729297
0.0241994984954
0.00312119311904
0.0237069459736
0.00322647299174
0.023202406411
0.00331852595229
0.0226876877426
0.00339813677193
0.0221644733512
0.00346608995368
0.0216343235798
0.00352316371275
0.0210986778459
0.00357012422496
0.0205588580667
0.00360772001191
0.020016072642
0.00363667675872
0.0194714216577
0.00365769250136
0.0189259024822
0.00367143346222
0.0183804163789
0.00367853050984
0.0178357752384
0.00367957645555
0.0172927090128
0.00367512416057
0.0167518729211
0.0036656855742
0.0162138550021
0.00365173165441
0.0156791830828
0.00363369318601
0.0151483317519
0.00361196240953
0.0146217284422
0.00358689538513
0.0140997592551
0.00355881498772
0.0135827736914
0.00352801437714
0.0130710889659
0.00349476084301
0.0125649931428
0.00345929981958
0.0120647478254
0.00342185900551
0.0115705897033
0.00338265235377
0.0110827317297
0.00334188392356
0.0106013632852
0.00329975135414
0.010126650134
0.00325644903006
0.009658733561
0.00321217069762
0.00919772949816
0.00316711168351
0.00874372704721
0.00312147048304
0.00829678719876
0.00307544994736
0.00785694115374
0.00302925783417
0.00742418901905
0.00298310701931
0.00699849827826
0.00293721512371
0.0065798027748
0.00289180390708
0.00616800160184
0.00284709816488
0.00576295858704
0.00280332451424
0.00536450176832
0.00276070979008
0.00497242349777
0.00271947945634
0.00458648057441
0.00267985573965
0.00420639499461
0.0026420558952
0.00383185472755
0.00260629031309
0.00346251509759
0.0025727608751
0.00309800020839
0.0025416592781
0.00273790494006
0.00251316572537
0.00238179745809
0.00248744785459
0.00202922229347
0.00246465979527
0.00167970424393
0.00244494142201
0.0013327566051
0.00242841685644
0.000987893770137
0.00241515513976
0.00064473485656
0.00240454086793
0.000304666178235
0.00238431610806
0.00213766651418
0.00170902189091
-0.0124234685051
0.00360063653684
-0.0137625127754
0.00548139959091
-0.0137038520705
0.00732957166648
-0.0134970413502
0.00913408507995
-0.0132180107327
0.0108853277108
-0.01287547872
0.0125747290748
-0.0124750203543
0.0141948140284
-0.0120225739254
0.0157392441507
-0.0115244651179
0.0172028241074
-0.0109872317416
0.0185814768806
-0.0104174552286
0.0198721946067
-0.0098216128763
0.0210729700354
-0.00920595352894
0.0221827141674
-0.00857639622613
0.023201163541
-0.00793845170629
0.0241287817139
-0.0072971653284
0.0249666576678
-0.00665708132229
0.0257164056581
-0.00602222683241
0.0263800691583
-0.00539611537117
0.0269600334216
-0.00478176690431
0.0274589484834
-0.00418174244825
0.0278796656973
-0.00359818806693
0.028225187104
-0.00303288423855
0.0284986278731
-0.00248729433254
0.0287031880935
-0.00196260878727
0.0288421320927
-0.00145978092649
0.0289187706534
-0.00097955471069
0.0289364450726
-0.000522484233675
0.0288985101277
-8.89484805398e-05
0.0288083171346
0.000320837538102
0.0286691937823
0.000706813104877
0.0284844334495
0.00106905615574
0.0282572736086
0.00140777196174
0.0279908842245
0.00172328345861
0.0276883553632
0.00201601645053
0.0273526875544
0.00228648728352
0.0269867829868
0.00253529087575
0.0265934389032
0.00276309055136
0.0261753412152
0.00297060815742
0.0257350598456
0.0031586158017
0.0252750439811
0.0033279275064
0.0247976188863
0.00347939205965
0.0243049825959
0.00361388540591
0.0237992041972
0.00373230391917
0.023282222104
0.00383555701156
0.0227558440183
0.00392456047448
0.0222217470346
0.004000229125
0.0216814795273
0.00406347019142
0.0211364633056
0.0041151761356
0.0205879975746
0.00415621836324
0.0200372631885
0.0041874406435
0.0194853286001
0.00420965367631
0.0189331559792
0.00422362971646
0.0183816087546
0.00423009862106
0.0178314590512
0.00422974426955
0.0172833961459
0.00422320259984
0.0167380344515
0.00421106020712
0.0161959220521
0.00419385459043
0.015657548386
0.00417207497864
0.0151233520353
0.00414616466056
0.0145937273498
0.00411652374574
0.0140690308282
0.00408351313478
0.0135495861389
0.00404745865205
0.0130356886859
0.00400865600476
0.012527608772
0.0039673755835
0.012025594238
0.0039238676818
0.0115298718011
0.00387836725099
0.0110406479303
0.00383109870902
0.0105581086375
0.00378228004948
0.0100824189563
0.00373212672436
0.00961372162216
0.00368085469747
0.00915213563332
0.00362868310026
0.0086977543191
0.00357583603946
0.00825064348118
0.00352254394186
0.00781083932484
0.00346904412601
0.00737834662349
0.00341558092816
0.00695313690851
0.00336240519682
0.00653514700321
0.00330977341074
0.00612427775823
0.00325794634113
0.00572039318796
0.00320718743452
0.00532331992281
0.00315776092435
0.00493284707142
0.00310992976945
0.00454872645273
0.00306395349757
0.00417067321781
0.00302008598076
0.00379836684919
0.00297857327451
0.0034314525351
0.00293965148409
0.00306954293933
0.00290354483901
0.00271222044105
0.00287046388551
0.00235903972663
0.00284060384163
0.00200953113632
0.00281414340916
0.00166320555331
0.00279124335831
0.00131955777945
0.00277204117962
0.000978077145763
0.00275661048657
0.00063834890828
0.00274424559591
0.000301686161776
0.00272095519329
0.00243933999335
0.00177575940499
-0.0141990636745
0.00374034507549
-0.0157269247382
0.00569214019116
-0.0156554717876
0.00760785375989
-0.0154125807214
0.00947542240094
-0.0150854057927
0.0112844406421
-0.0146843245527
0.013025740595
-0.0142161490481
0.0146914443523
-0.0136881078266
0.0162749961347
-0.0131078485621
0.017771151414
-0.0124832204151
0.0191759313097
-0.0118220703699
0.0204865504014
-0.0111320692729
0.0217013254487
-0.0104205680364
0.022819570291
-0.00969448289284
0.0238414817286
-0.00896020740305
0.0247680197134
-0.00822355021518
0.0256007860094
-0.00748969720836
0.0263419047865
-0.00676319809578
0.0269939101074
-0.00604797609495
0.0275596442009
-0.00534735952232
0.02804217119
-0.00466413107936
0.0284447082873
-0.00400059012677
0.0287705758612
-0.00335862006834
0.0290231638578
-0.00273975407694
0.0292059114939
-0.00214523161305
0.0293222942611
-0.00157604252154
0.0293758141054
-0.00103295694889
0.0293699881705
-0.000516544446719
0.029308335268
-2.71853889794e-05
0.029194359103
0.000434920038468
0.0290315281723
0.000869746622241
0.0288232645697
0.00127741841074
0.0285729219689
0.0016582094134
0.0282837731217
0.00201252318839
0.027958998784
0.00234087785663
0.0276016782561
0.00264389091217
0.0272147823133
0.00292226612208
0.0268011668865
0.00317678134267
0.0263635682548
0.00340827839886
0.0259045983344
0.00361765345078
0.0254267411054
0.00380584877906
0.0249323490043
0.00397384440701
0.024423640479
0.00412265058503
0.0239026976463
0.00425329971744
0.0233714652769
0.00436683886906
0.0228317501019
0.00446432157869
0.0222852216343
0.00454680017622
0.0217334135311
0.00461531746689
0.021177726613
0.00467089902797
0.0206194325679
0.00471454513168
0.0200596793245
0.00474722357009
0.0194994970843
0.00476986252026
0.0189398058315
0.0047833447003
0.0183814232664
0.00478850201589
0.0178250738238
0.00478611184199
0.0172713977064
0.00477689413016
0.0167209604811
0.00476151032336
0.0161742622093
0.00474056322334
0.0156317465995
0.00471459860725
0.0150938092462
0.00468410769243
0.0145608054325
0.00464953107681
0.0140330566948
0.00461126323857
0.0135108566448
0.00456965808596
0.0129944754004
0.00452503466909
0.0124841631476
0.00447768345012
0.0119801523404
0.0044278723216
0.0114826590774
0.00437585271039
0.0109918833027
0.00432186507657
0.0105080083584
0.00426614411416
0.0100311996575
0.00420892311341
0.00956160295631
0.00415043777203
0.00909934208917
0.00409092907622
0.00864451656151
0.00403064551683
0.00819719893864
0.00396984441685
0.00775743231871
0.00390879259684
0.00732522788286
0.00384776628946
0.00690056269605
0.00378705047395
0.00648337779934
0.003726937653
0.00607357665401
0.00366772617345
0.00567102401829
0.00360971820145
0.00527554521533
0.00355321738095
0.00488692591007
0.00349852635381
0.00450491226314
0.00344594410029
0.00412921162434
0.0033957633253
0.00375949354938
0.00334826778796
0.00339539138802
0.00330372983044
0.00303650415754
0.003262407936
0.00268239894277
0.00322454456906
0.00233261392558
0.00319036421724
0.00198666155994
0.00316007128173
0.00164403169302
0.00313384801325
0.00130419765753
0.00311185141857
0.000966623253563
0.00309416325174
0.000630855330336
0.00307998804093
0.000298149762386
0.00305363492239
0.00273747868918
0.00185417648139
-0.0160530732471
0.00390442329719
-0.0177769921733
0.00593944742833
-0.0176903177799
0.00793407304886
-0.0174070283097
0.00987502767159
-0.0170261836