/*--------------------------------*- C++ -*----------------------------------*\
| =========                 |                                                 |
| \\      /  F ield         | OpenFOAM: The Open Source CFD Toolbox           |
|  \\    /   O peration     | Version:  v1906                                 |
|   \\  /    A nd           | Web:      www.OpenFOAM.com                      |
|    \\/     M anipulation  |                                                 |
\*---------------------------------------------------------------------------*/
FoamFile
{
    version     2.0;
    format      ascii;
    class       volVectorField;
    location    "850";
    object      U;
}
// * * * * * * * * * * * * * * * * * * * * * * * * * * * * * * * * * * * * * //

dimensions      [0 1 -1 0 0 0 0];


internalField   nonuniform List<vector> 
9216
(
(0.00270975078303 -0.00271210779063 0)
(0.00285702706005 -0.00875233615409 1.17188446492e-27)
(0.00284886319775 -0.0148866057234 1.84079719195e-31)
(0.00281158111936 -0.0210212505229 0)
(0.00275981981921 -0.0270530895104 0)
(0.00269504818687 -0.0329578515302 0)
(0.00261894227459 -0.038709700012 0)
(0.00253285650036 -0.0442856507022 0)
(0.00243808016159 -0.0496655156552 0)
(0.00233589788001 -0.0548318833924 0)
(0.0022275612925 -0.059770091948 0)
(0.00211428906025 -0.0644681586274 0)
(0.00199722399555 -0.0689166639939 0)
(0.00187743818361 -0.0731085904587 0)
(0.00175589917321 -0.0770391306348 0)
(0.00163348593607 -0.0807054772241 0)
(0.00151096583713 -0.0841066028409 0)
(0.00138901825894 -0.08724304551 0)
(0.00126822004882 -0.0901166977798 0)
(0.0011490719978 -0.0927306175892 0)
(0.00103199006596 -0.09508884831 0)
(0.000917330327094 -0.0971962686149 0)
(0.000805384039804 -0.0990584504653 0)
(0.000696397867328 -0.100681549098 0)
(0.000590571959699 -0.102072196122 0)
(0.000488073514567 -0.103237423341 0)
(0.000389037964354 -0.104184583211 0)
(0.000293575098584 -0.104921297499 0)
(0.000201774330669 -0.10545539679 0)
(0.000113704439295 -0.105794887204 0)
(2.94262182313e-05 -0.105947888991 0)
(-5.10378205413e-05 -0.105922681702 0)
(-0.000127682859072 -0.105727502041 0)
(-0.000200507292613 -0.105370619208 0)
(-0.000269507222741 -0.104860321523 0)
(-0.000334708895594 -0.104204866792 0)
(-0.000396138252851 -0.10341244968 0)
(-0.000453849199494 -0.102491183323 0)
(-0.000507889595681 -0.101449064785 0)
(-0.000558336368986 -0.100293960804 0)
(-0.000605255780266 -0.0990335776723 0)
(-0.000648744076571 -0.0976754499853 0)
(-0.00068888235856 -0.0962269154266 0)
(-0.000725782148423 -0.0946951068478 0)
(-0.000759535450987 -0.0930869324596 0)
(-0.000790264691494 -0.0914090713606 0)
(-0.000818068763471 -0.0896679594642 0)
(-0.000843076646711 -0.0878697884203 0)
(-0.000865390225133 -0.0860204971418 0)
(-0.000885140927115 -0.0841257736878 0)
(-0.000902430210639 -0.0821910520295 0)
(-0.000917388438771 -0.0802215163017 0)
(-0.000930113863877 -0.0782221020259 0)
(-0.00094073301231 -0.0761975018348 0)
(-0.000949339057753 -0.0741521702568 0)
(-0.000956052890379 -0.0720903299744 0)
(-0.000960961656936 -0.0700159790086 0)
(-0.000964179773485 -0.0679328964499 0)
(-0.000965788412562 -0.0658446509706 0)
(-0.000965895651173 -0.0637546051463 0)
(-0.00096457753884 -0.0616659242168 0)
(-0.000961936681099 -0.0595815782508 0)
(-0.000958045490126 -0.0575043504225 0)
(-0.000953002483559 -0.0554368366723 0)
(-0.000946878172611 -0.0533814529867 0)
(-0.000939768501795 -0.0513404325114 0)
(-0.000931743794596 -0.0493158317763 0)
(-0.000922898795805 -0.0473095256449 0)
(-0.000913304973937 -0.0453232126555 0)
(-0.000903056801984 -0.0433584084152 0)
(-0.000892227689229 -0.0414164505409 0)
(-0.000880912205259 -0.0394984913223 0)
(-0.000869185816418 -0.0376055027811 0)
(-0.000857142922302 -0.0357382694126 0)
(-0.00084486054229 -0.0338973939419 0)
(-0.000832432094895 -0.0320832909109 0)
(-0.000819935092686 -0.0302961935582 0)
(-0.000807460714051 -0.0285361488299 0)
(-0.000795085524496 -0.0268030257236 0)
(-0.000782896917455 -0.0250965121486 0)
(-0.000770968799221 -0.0234161249045 0)
(-0.00075938302762 -0.021761208662 0)
(-0.000748208927892 -0.0201309477411 0)
(-0.000737520793745 -0.0185243675503 0)
(-0.000727380890846 -0.0169403486048 0)
(-0.000717852760586 -0.0153776315172 0)
(-0.000708986451871 -0.013834835566 0)
(-0.000700825174575 -0.0123104727435 0)
(-0.000693385723827 -0.0108029841086 0)
(-0.000686640231563 -0.00931079643741 0)
(-0.00068044097432 -0.00783245698773 0)
(-0.000674343167404 -0.00636698226878 0)
(-0.000667094237152 -0.00491486593944 0)
(-0.000653194007651 -0.00348634096564 0)
(-0.00062804194715 -0.00200744393736 0)
(-0.000813925521423 -0.000813707282458 0)
(0.00877252145731 -0.00288712955846 0)
(0.0096999848111 -0.00977010039689 0)
(0.00967755973937 -0.0166402638301 -1.23061470322e-27)
(0.00954810617132 -0.0235158007499 0)
(0.00936895684872 -0.0302668204901 0)
(0.00914747769775 -0.0368715638823 0)
(0.00888805416536 -0.0433026014641 0)
(0.0085949138943 -0.0495346842315 0)
(0.0082723466426 -0.055545399785 0)
(0.00792469088426 -0.0613153979976 0)
(0.00755621611468 -0.0668284232578 0)
(0.00717106395073 -0.072071253752 0)
(0.00677313636445 -0.0770335654779 0)
(0.00636606970601 -0.0817077432943 0)
(0.0059531611149 -0.0860886538609 0)
(0.00553738217348 -0.0901734005257 0)
(0.00512134179869 -0.0939610680198 0)
(0.00470732859848 -0.0974524751148 0)
(0.00429729940696 -0.100649935127 0)
(0.00389293539792 -0.103557039968 0)
(0.0034956447956 -0.106178460053 0)
(0.00310661963465 -0.108519774019 0)
(0.00272684419719 -0.110587314534 0)
(0.00235714327338 -0.112388043699 0)
(0.0019981918601 -0.113929440145 0)
(0.00165054995162 -0.115219411998 0)
(0.00131467250459 -0.116266215379 0)
(0.000990929187761 -0.117078393921 0)
(0.000679616147482 -0.117664717615 0)
(0.000380961875488 -0.11803413697 0)
(9.51453647412e-05 -0.118195740592 0)
(-0.000177730856541 -0.118158662996 0)
(-0.000437614289302 -0.117932180474 0)
(-0.000684494789243 -0.117525600356 0)
(-0.000918389323179 -0.116948192594 0)
(-0.00113937987958 -0.116209190403 0)
(-0.0013475722236 -0.11531775296 0)
(-0.00154313432345 -0.114282942346 0)
(-0.00172624788867 -0.113113691939 0)
(-0.00189715578713 -0.111818784788 0)
(-0.0020561047889 -0.110406825741 0)
(-0.00220340076209 -0.108886223366 0)
(-0.00233934321404 -0.107265166999 0)
(-0.00246428751451 -0.10555161292 0)
(-0.0025785722508 -0.103753266929 0)
(-0.00268258778384 -0.101877575079 0)
(-0.00277669767723 -0.0999317120361 0)
(-0.00286131277142 -0.0979225763531 0)
(-0.00293680800511 -0.0958567844351 0)
(-0.00300360114901 -0.0937406699502 0)
(-0.00306206642213 -0.0915802829149 0)
(-0.00311261690139 -0.0893813925545 0)
(-0.00315561628512 -0.0871494906447 0)
(-0.00319146397524 -0.08488979685 0)
(-0.00322050632818 -0.0826072652633 0)
(-0.00324312330069 -0.0803065910999 0)
(-0.00325964037998 -0.0779922191745 0)
(-0.00327041567714 -0.0756683507378 0)
(-0.00327575361684 -0.0733389526678 0)
(-0.00327599127647 -0.0710077633484 0)
(-0.00327141469641 -0.0686783014369 0)
(-0.00326234329426 -0.0663538698888 0)
(-0.00324904950918 -0.0640375635013 0)
(-0.00323184011698 -0.0617322705783 0)
(-0.00321097972736 -0.0594406787868 0)
(-0.00318676796505 -0.0571652743536 0)
(-0.00315946724897 -0.0549083462431 0)
(-0.00312937493439 -0.0526719832183 0)
(-0.00309675569815 -0.050458076675 0)
(-0.00306190798359 -0.0482683162005 0)
(-0.00302510129586 -0.0461041917051 0)
(-0.00298663649875 -0.0439669883232 0)
(-0.00294678826988 -0.04185778856 0)
(-0.0029058590517 -0.0397774673927 0)
(-0.00286412689685 -0.0377266951651 0)
(-0.0028218930451 -0.035705933674 0)
(-0.00277943531523 -0.0337154403846 0)
(-0.00273704944156 -0.031755266094 0)
(-0.0026950081017 -0.0298252608913 0)
(-0.00265359621297 -0.0279250738034 0)
(-0.0026130755675 -0.0260541607204 0)
(-0.00257371431132 -0.0242117862397 0)
(-0.00253575699427 -0.0223970336795 0)
(-0.00249944829445 -0.0206088092679 0)
(-0.00246500784042 -0.0188458543416 0)
(-0.00243264750453 -0.0171067520449 0)
(-0.00240254859418 -0.0153899417681 0)
(-0.00237486823725 -0.0136937278215 0)
(-0.0023497076291 -0.012016292731 0)
(-0.00232708173075 -0.0103556940279 0)
(-0.00230681469844 -0.00870982510367 0)
(-0.00228832350954 -0.00707623392072 0)
(-0.00226999713577 -0.00545136218225 0)
(-0.00224704094712 -0.00382771326684 0)
(-0.00219160548279 -0.00218672093634 0)
(-0.00200609375669 -0.000625949196084 0)
(0.015017838878 -0.00293300576014 0)
(0.0166284527878 -0.00993089517099 0)
(0.0165677257008 -0.0168913169114 -1.22857558935e-27)
(0.0163367253712 -0.0238675039001 0)
(0.016024992278 -0.0307155085578 0)
(0.0156423029373 -0.0374120624944 0)
(0.0151951556667 -0.043928697382 0)
(0.0146904925957 -0.0502396130314 0)
(0.0141356314331 -0.0563220724667 0)
(0.0135380355739 -0.0621565894493 0)
(0.0129050911968 -0.0677269371627 0)
(0.0122439342563 -0.0730200642159 0)
(0.0115612978565 -0.0780259306076 0)
(0.0108634156937 -0.0827372889379 0)
(0.0101559474212 -0.0871494287959 0)
(0.00944395394656 -0.0912599050121 0)
(0.00873188786889 -0.0950682612083 0)
(0.0080236197708 -0.0985757640411 0)
(0.00732247066917 -0.101785152358 0)
(0.0066312642267 -0.104700411411 0)
(0.00595237865541 -0.107326570043 0)
(0.00528780374456 -0.109669527071 0)
(0.00463919570267 -0.11173590033 0)
(0.00400792514116 -0.113532902473 0)
(0.003395125683 -0.11506823446 0)
(0.00280172619974 -0.116350000202 0)
(0.00222849028547 -0.117386632389 0)
(0.00167603151843 -0.118186833341 0)
(0.001144845023 -0.118759521034 0)
(0.000635307386486 -0.119113784966 0)
(0.000147701651117 -0.119258845392 0)
(-0.000317784922914 -0.119204014558 0)
(-0.000761036638234 -0.118958661632 0)
(-0.00118203806346 -0.11853218141 0)
(-0.00158083994795 -0.117933957022 0)
(-0.00195758035869 -0.117173330844 0)
(-0.00231245330303 -0.116259571022 0)
(-0.00264573743354 -0.115201843778 0)
(-0.00295775827173 -0.114009183968 0)
(-0.00324891962701 -0.112690470147 0)
(-0.00351966095394 -0.111254398851 0)
(-0.00377049147295 -0.109709463595 0)
(-0.00400194329099 -0.108063933917 0)
(-0.00421460809543 -0.106325839109 0)
(-0.0044090868479 -0.104502952629 0)
(-0.00458602899821 -0.102602780949 0)
(-0.00474607969654 -0.100632553582 0)
(-0.00488992144213 -0.09859921705 0)
(-0.00501821977977 -0.0965094303159 0)
(-0.00513166726231 -0.0943695634708 0)
(-0.00523092859494 -0.09218569805 0)
(-0.00531668669909 -0.0899636297283 0)
(-0.00538958819648 -0.0877088726137 0)
(-0.00545029129695 -0.0854266649328 0)
(-0.00549941242822 -0.0831219761996 0)
(-0.00553757553934 -0.0807995146969 0)
(-0.0055653605126 -0.0784637362024 0)
(-0.00558335335612 -0.07611885196 0)
(-0.00559209684791 -0.0737688376873 0)
(-0.00559214091841 -0.0714174408306 0)
(-0.00558399574012 -0.0690681886715 0)
(-0.00556818148663 -0.066724393873 0)
(-0.0055451838962 -0.0643891608721 0)
(-0.00551550250184 -0.062065389135 0)
(-0.00547960854749 -0.0597557773963 0)
(-0.00543799082116 -0.0574628244791 0)
(-0.00539111576899 -0.0551888314564 0)
(-0.005339470167 -0.0529359003614 0)
(-0.00528352330747 -0.0507059347078 0)
(-0.00522376596149 -0.0485006367461 0)
(-0.00516067462524 -0.0463215071014 0)
(-0.00509474645127 -0.0441698414461 0)
(-0.00502646565057 -0.0420467300869 0)
(-0.00495633431439 -0.0399530549368 0)
(-0.00488484117314 -0.0378894898768 0)
(-0.00481248840004 -0.0358564988126 0)
(-0.00473976296428 -0.0338543374493 0)
(-0.00466715963064 -0.0318830530098 0)
(-0.00459515513767 -0.0299424878738 0)
(-0.00452422763488 -0.0280322813196 0)
(-0.00445483383645 -0.0261518752374 0)
(-0.00438742510039 -0.0243005180285 0)
(-0.00432242755646 -0.0224772724188 0)
(-0.004260254841 -0.0206810214411 0)
(-0.00420129082595 -0.0189104780881 0)
(-0.00414589847488 -0.0171641928122 0)
(-0.00409440380391 -0.0154405637376 0)
(-0.00404709875117 -0.0137378427482 0)
(-0.00400422273355 -0.0120541392477 0)
(-0.0039659556484 -0.0103874083832 0)
(-0.00393239812593 -0.00873541250577 0)
(-0.00390358764048 -0.0070956082382 0)
(-0.00387956916147 -0.00546484086561 0)
(-0.00386012312836 -0.00383767198355 0)
(-0.00382864079347 -0.00222950773167 0)
(-0.00347742479388 -0.000647383460773 0)
(0.021410979377 -0.00297835040917 0)
(0.0237254576898 -0.0100813279095 0)
(0.0236357176514 -0.0171372997929 1.22800509972e-27)
(0.0233011186478 -0.024209751196 0)
(0.0228504412402 -0.0311486699621 0)
(0.0222981388725 -0.0379292946902 0)
(0.0216536538262 -0.0445219791785 0)
(0.0209270782501 -0.0509002184764 0)
(0.0201290692294 -0.057040922888 0)
(0.0192704839512 -0.0629245526984 0)
(0.0183620482503 -0.0685350792987 0)
(0.0174140842864 -0.0738598529376 0)
(0.016436298191 -0.0788893891869 0)
(0.0154376313297 -0.0836171008386 0)
(0.0144261691333 -0.0880389974122 0)
(0.0134091020595 -0.0921533734737 0)
(0.0123927298624 -0.0959605006015 0)
(0.0113824980319 -0.0994623365198 0)
(0.0103830599687 -0.102662258081 0)
(0.00939835100302 -0.105564824551 0)
(0.00843167377806 -0.108175571359 0)
(0.00748577939986 -0.110500835853 0)
(0.00656295146622 -0.112547611126 0)
(0.00566507525311 -0.114323426895 0)
(0.0047937071617 -0.115836251602 0)
(0.00395012348497 -0.117094413984 0)
(0.00313537137255 -0.118106538019 0)
(0.00235029658274 -0.118881489981 0)
(0.00159557818462 -0.119428332265 0)
(0.000871739121375 -0.119756283909 0)
(0.000179169221214 -0.119874681799 0)
(-0.00048187194087 -0.119792959359 0)
(-0.00111123539538 -0.119520580817 0)
(-0.0017088978631 -0.119067038322 0)
(-0.00227494030863 -0.118441810394 0)
(-0.00280955645814 -0.117654330162 0)
(-0.00331303454643 -0.11671395363 0)
(-0.0037857678904 -0.115629930037 0)
(-0.00422823355688 -0.11441137271 0)
(-0.00464100266854 -0.113067232499 0)
(-0.00502471617845 -0.111606272386 0)
(-0.00538009496675 -0.110037045113 0)
(-0.00570791323288 -0.108367872621 0)
(-0.00600900869563 -0.106606828764 0)
(-0.00628425434812 -0.104761724251 0)
(-0.00653456921923 -0.102840094902 0)
(-0.00676088933842 -0.100849192312 0)
(-0.00696417950484 -0.0987959776458 0)
(-0.00714540429008 -0.0966871178218 0)
(-0.00730554122784 -0.0945289844272 0)
(-0.00744555263722 -0.0923276548413 0)
(-0.00756640054224 -0.0900889155142 0)
(-0.0076690199963 -0.0878182670939 0)
(-0.00775433594957 -0.0855209309999 0)
(-0.00782323862567 -0.0832018573642 0)
(-0.0078766023708 -0.0808657335999 0)
(-0.00791526341736 -0.0785169937694 0)
(-0.00794004054552 -0.0761598277399 0)
(-0.00795171531157 -0.0737981905779 0)
(-0.00795105407071 -0.0714358109479 0)
(-0.00793879044777 -0.0690761992731 0)
(-0.00791564804171 -0.0667226542905 0)
(-0.00788232467759 -0.0643782690833 0)
(-0.00783951492619 -0.0620459351318 0)
(-0.00778789552281 -0.0597283457902 0)
(-0.00772814681757 -0.05742799769 0)
(-0.00766093875299 -0.0551471917729 0)
(-0.0075869504562 -0.0528880324123 0)
(-0.00750685629453 -0.0506524265552 0)
(-0.00742134306819 -0.0484420813099 0)
(-0.00733109589652 -0.0462585020699 0)
(-0.0072368127461 -0.0441029895261 0)
(-0.00713919014287 -0.0419766377362 0)
(-0.00703893505965 -0.0398803315308 0)
(-0.00693675066161 -0.037814745435 0)
(-0.00683334577219 -0.0357803422949 0)
(-0.00672942097711 -0.0337773737501 0)
(-0.00662567600649 -0.0318058806687 0)
(-0.00652279655595 -0.0298656956249 0)
(-0.00642145992815 -0.0279564454717 0)
(-0.0063223228712 -0.0260775560069 0)
(-0.00622602576101 -0.0242282567494 0)
(-0.0061331816315 -0.022407587726 0)
(-0.00604437902163 -0.0206144062303 0)
(-0.00596017215829 -0.0188473952804 0)
(-0.00588108237243 -0.0171050715351 0)
(-0.00580758920238 -0.0153857939166 0)
(-0.0057401304195 -0.0136877699113 0)
(-0.00567909510821 -0.0120090592752 0)
(-0.00562482713959 -0.0103475699309 0)
(-0.00557763538777 -0.00870104590814 0)
(-0.0055378403775 -0.0070670351903 0)
(-0.00550582488125 -0.00544284845996 0)
(-0.0054809962625 -0.00382413878154 0)
(-0.00543703637745 -0.00223311846211 0)
(-0.00488816222994 -0.000655575797799 0)
(0.0279109578902 -0.00303789526251 0)
(0.0309311860825 -0.0102791236237 0)
(0.0308098245045 -0.0174676458218 0)
(0.0303662908669 -0.0246694857901 0)
(0.0297693880899 -0.0317297766898 0)
(0.0290386974578 -0.0386220462481 0)
(0.0281870946924 -0.0453152158375 0)
(0.0272282576992 -0.0517818657411 0)
(0.0261765626962 -0.0579984633086 0)
(0.0250465892603 -0.0639454453378 0)
(0.0238526706064 -0.0696071142664 0)
(0.0226085249569 -0.0749714338906 0)
(0.0213269768901 -0.0800297416161 0)
(0.0200197665313 -0.0847764083881 0)
(0.0186974417682 -0.0892084732886 0)
(0.0173693200804 -0.0933252762358 0)
(0.0160435095559 -0.0971281059635 0)
(0.0147269713096 -0.100619876243 0)
(0.0134256139343 -0.10380483738 0)
(0.012144402748 -0.106688327119 0)
(0.0108874793207 -0.109276560637 0)
(0.00965827651251 -0.111576458193 0)
(0.00845963044418 -0.113595506107 0)
(0.00729387694455 -0.115341647064 0)
(0.00616293942429 -0.116823194005 0)
(0.00506839699756 -0.118048763205 0)
(0.0040115443683 -0.1190272211 0)
(0.00299343232627 -0.119767641363 0)
(0.00201490384543 -0.120279268109 0)
(0.00107661344179 -0.12057148332 0)
(0.00017904727248 -0.120653772169 0)
(-0.000677471677452 -0.120535713673 0)
(-0.00149276431222 -0.12022689875 0)
(-0.00226680595703 -0.119736952201 0)
(-0.00299971090882 -0.119075476796 0)
(-0.00369173423697 -0.118252025382 0)
(-0.00434326117516 -0.117276068896 0)
(-0.00495480706554 -0.116156965565 0)
(-0.00552700437757 -0.114903931167 0)
(-0.00606060079941 -0.11352601121 0)
(-0.00655644362807 -0.112032054983 0)
(-0.00701547618959 -0.110430692179 0)
(-0.00743872017923 -0.108730312018 0)
(-0.00782727106867 -0.106939045358 0)
(-0.00818227927907 -0.105064749639 0)
(-0.00850494539611 -0.103114996961 0)
(-0.00879650112739 -0.101097065091 0)
(-0.00905820513392 -0.0990179314947 0)
(-0.00929132467906 -0.0968842701566 0)
(-0.00949713281395 -0.0947024511204 0)
(-0.00967689153722 -0.0924785425014 0)
(-0.0098318509647 -0.0902183147177 0)
(-0.00996323470292 -0.0879272466988 0)
(-0.0100722415011 -0.0856105336602 0)
(-0.010160033369 -0.0832730962208 0)
(-0.0102277399912 -0.0809195903089 0)
(-0.0102764498544 -0.0785544176685 0)
(-0.0103072174045 -0.0761817363329 0)
(-0.0103210570986 -0.0738054709615 0)
(-0.0103189529042 -0.0714293223738 0)
(-0.0103018548019 -0.0690567763065 0)
(-0.0102706898729 -0.0666911107763 0)
(-0.0102263604468 -0.0643354022565 0)
(-0.0101697557587 -0.0619925301321 0)
(-0.0101017507539 -0.059665179841 0)
(-0.0100232172308 -0.0573558442817 0)
(-0.00993502233387 -0.0550668240903 0)
(-0.00983803822853 -0.0528002264541 0)
(-0.00973313952798 -0.0505579632086 0)
(-0.00962121085488 -0.0483417479466 0)
(-0.00950314279305 -0.0461530929698 0)
(-0.00937983706826 -0.0439933058062 0)
(-0.00925220098469 -0.0418634861387 0)
(-0.009121150323 -0.039764522826 0)
(-0.00898760252789 -0.0376970918274 0)
(-0.00885247767589 -0.0356616546322 0)
(-0.00871669086107 -0.0336584579378 0)
(-0.00858115171478 -0.0316875340969 0)
(-0.00844675648926 -0.0297487030073 0)
(-0.00831438661105 -0.0278415748806 0)
(-0.00818490090941 -0.0259655544895 0)
(-0.00805913360788 -0.0241198462684 0)
(-0.0079378870356 -0.0223034607879 0)
(-0.00782192934798 -0.0205152218965 0)
(-0.00771198796575 -0.018753774943 0)
(-0.00760874732177 -0.0170175952029 0)
(-0.00751284351037 -0.0153049967033 0)
(-0.00742486316267 -0.0136141402965 0)
(-0.00734534185517 -0.0119430408934 0)
(-0.00727476995089 -0.0102895731109 0)
(-0.00721360681374 -0.00865148062208 0)
(-0.00716231168295 -0.00702638528548 0)
(-0.00712130502064 -0.00541182372414 0)
(-0.00708923782042 -0.00380375666481 0)
(-0.0070305350039 -0.00222540690378 0)
(-0.00630802889819 -0.000655142023766 0)
(0.0345556800895 -0.00311334457546 0)
(0.0382926213417 -0.0105323256001 0)
(0.0381350282283 -0.0178929092945 0)
(0.0375745397962 -0.0252614916773 0)
(0.0368210398644 -0.0324775072386 0)
(0.0358997351767 -0.0395123890484 0)
(0.0348274966482 -0.046333319189 0)
(0.0336221458975 -0.0529117763874 0)
(0.0323022927569 -0.0592237395772 0)
(0.0308866875282 -0.0652497100083 0)
(0.0293936372648 -0.0709745200266 0)
(0.0278405355678 -0.0763870282724 0)
(0.0262435167901 -0.0814797282409 0)
(0.0246172308061 -0.0862483092968 0)
(0.0229747279785 -0.0906912035444 0)
(0.0213274360343 -0.0948091453332 0)
(0.019685210696 -0.0986047626366 0)
(0.0180564383998 -0.102082212737 0)
(0.0164481744235 -0.105246868382 0)
(0.01486629812 -0.108105055981 0)
(0.0133156744559 -0.110663843567 0)
(0.011800309066 -0.112930874093 0)
(0.0103234925119 -0.114914237861 0)
(0.00888792591064 -0.116622377478 0)
(0.00749582900665 -0.118064018295 0)
(0.00614902633891 -0.119248117949 0)
(0.00484901644863 -0.120183828945 0)
(0.00359702167586 -0.120880469487 0)
(0.00239402583049 -0.121347498431 0)
(0.00124079761161 -0.12159449158 0)
(0.000137909266962 -0.121631113402 0)
(-0.000914262053729 -0.121467120897 0)
(-0.00191551038886 -0.121112259883 0)
(-0.00286581534114 -0.120576321199 0)
(-0.00376532843906 -0.119869063089 0)
(-0.00461437249584 -0.119000189792 0)
(-0.00541343428358 -0.117979317771 0)
(-0.00616315960294 -0.116815943679 0)
(-0.00686434289499 -0.115519413367 0)
(-0.00751791920677 -0.11409889269 0)
(-0.00812495060302 -0.112563340435 0)
(-0.00868661548797 -0.110921483913 0)
(-0.00920419265514 -0.109181797367 0)
(-0.00967904897247 -0.10735248354 0)
(-0.010112622218 -0.105441458404 0)
(-0.0105064082803 -0.103456339212 0)
(-0.0108619439555 -0.101404435775 0)
(-0.0111807947565 -0.099292744953 0)
(-0.0114645387502 -0.0971279481796 0)
(-0.0117147559607 -0.0949164119052 0)
(-0.01193301421 -0.0926641906896 0)
(-0.0121208609721 -0.0903770327067 0)
(-0.012279812046 -0.0880603873426 0)
(-0.01241134657 -0.0857194145253 0)
(-0.0125168991609 -0.0833589954158 0)
(-0.0125978585357 -0.0809837439996 0)
(-0.0126555634233 -0.0785980191841 0)
(-0.0126913048564 -0.0762059368921 0)
(-0.0127063257087 -0.0738113817863 0)
(-0.0127018262161 -0.071418018131 0)
(-0.0126789664765 -0.069029299529 0)
(-0.0126388742692 -0.0666484771335 0)
(-0.0125826494121 -0.0642786062396 0)
(-0.0125113725881 -0.0619225510025 0)
(-0.0124261102062 -0.0595829873896 0)
(-0.0123279228425 -0.0572624042827 0)
(-0.0122178692902 -0.0549631030329 0)
(-0.0120970133958 -0.0526871955254 0)
(-0.0119664262817 -0.0504366011993 0)
(-0.0118271907725 -0.0482130431686 0)
(-0.0116804012503 -0.0460180439569 0)
(-0.0115271653727 -0.0438529210026 0)
(-0.0113686015246 -0.0417187824374 0)
(-0.011205838009 -0.0396165232513 0)
(-0.0110400084687 -0.0375468222765 0)
(-0.0108722490552 -0.0355101400191 0)
(-0.0107036924278 -0.0335067176769 0)
(-0.0105354635568 -0.0315365772784 0)
(-0.0103686729669 -0.0295995231886 0)
(-0.0102044118187 -0.0276951448319 0)
(-0.0100437449962 -0.025822820791 0)
(-0.00988770601298 -0.0239817240714 0)
(-0.00973729042899 -0.0221708286127 0)
(-0.00959345102354 -0.0203889167793 0)
(-0.00945709197241 -0.0186345878416 0)
(-0.00932906479644 -0.0169062671044 0)
(-0.00921016402268 -0.0152022156575 0)
(-0.00910112512979 -0.0135205404384 0)
(-0.00900262385357 -0.0118592049231 0)
(-0.00891527983367 -0.0102160411785 0)
(-0.00883966487916 -0.00858876887918 0)
(-0.00877631174799 -0.00697501569078 0)
(-0.00872560307945 -0.00537235669499 0)
(-0.00868551362088 -0.00377673835797 0)
(-0.00861186896411 -0.00221115765673 0)
(-0.00772249852187 -0.000651580512033 0)
(0.0413822091067 -0.00320680165131 0)
(0.0458517531183 -0.0108466449623 0)
(0.0456514900772 -0.0184214077677 1.21843427984e-27)
(0.0449631892975 -0.0259968888958 0)
(0.0440392932801 -0.0334053778548 0)
(0.0429113052237 -0.0406156766424 0)
(0.0416008075548 -0.0475928587904 0)
(0.0401304869037 -0.0543071278727 0)
(0.0385238570789 -0.0607339863808 0)
(0.0368044196521 -0.0668541718506 0)
(0.0349949234806 -0.0726533433084 0)
(0.0331167840192 -0.0781216372388 0)
(0.0311896727231 -0.083253134763 0)
(0.0292312681828 -0.088045290801 0)
(0.0272571503023 -0.0924983665677 0)
(0.025280811185 -0.0966148966068 0)
(0.0233137551966 -0.100399210933 0)
(0.0213656600195 -0.103857023756 0)
(0.0194445748786 -0.106995092462 0)
(0.0175571344424 -0.109820945106 0)
(0.0157087731167 -0.112342670589 0)
(0.0139039267282 -0.114568763581 0)
(0.0121462145798 -0.116508014932 0)
(0.0104385958525 -0.11816943815 0)
(0.00878349955657 -0.119562222768 0)
(0.00718292682009 -0.120695706276 0)
(0.00563852883753 -0.121579357321 0)
(0.00415166204987 -0.122222764319 0)
(0.00272342599167 -0.122635625023 0)
(0.00135468602659 -0.122827732739 0)
(4.60924085194e-05 -0.122808959784 0)
(-0.00120193225529 -0.122589266324 0)
(-0.00238915997636 -0.122178584791 0)
(-0.00351557714104 -0.121586902457 0)
(-0.00458137685925 -0.12082416541 0)
(-0.00558695586736 -0.119900261759 0)
(-0.00653290870135 -0.118824985442 0)
(-0.00742002073503 -0.117608002362 0)
(-0.00824925769541 -0.116258817556 0)
(-0.00902175419218 -0.114786744167 0)
(-0.00973879904112 -0.113200874849 0)
(-0.0104018202243 -0.111510056036 0)
(-0.0110123672881 -0.10972286542 0)
(-0.0115720941685 -0.107847592853 0)
(-0.0120827401786 -0.105892224803 0)
(-0.0125461121986 -0.103864432399 0)
(-0.0129640657095 -0.101771563039 0)
(-0.0133384877131 -0.0996206354665 0)
(-0.0136712791028 -0.0974183381852 0)
(-0.0139643395136 -0.0951710310011 0)
(-0.0142195521678 -0.092884749485 0)
(-0.0144387717198 -0.0905652120393 0)
(-0.0146238125833 -0.0882178292627 0)
(-0.0147764406792 -0.085847715195 0)
(-0.0148983660428 -0.0834597000379 0)
(-0.0149912390968 -0.081058343838 0)
(-0.015056647952 -0.0786479506584 0)
(-0.0150961193418 -0.0762325826827 0)
(-0.0151111204525 -0.0738160737768 0)
(-0.015103064009 -0.0714020419889 0)
(-0.0150733137941 -0.0689939006022 0)
(-0.0150231927193 -0.0665948673576 0)
(-0.0149539905965 -0.0642079716344 0)
(-0.0148669735454 -0.0618360594127 0)
(-0.0147633922549 -0.0594817960255 0)
(-0.0146444909332 -0.0571476667589 0)
(-0.0145115143446 -0.054835975521 0)
(-0.014365714747 -0.0525488418315 0)
(-0.0142083563987 -0.0502881965053 0)
(-0.014040719477 -0.0480557763973 0)
(-0.0138641013867 -0.0458531186429 0)
(-0.0136798173313 -0.0436815547752 0)
(-0.0134891984267 -0.041542205123 0)
(-0.0132935892156 -0.0394359738042 0)
(-0.0130943431149 -0.0373635446267 0)
(-0.0128928175747 -0.0353253780975 0)
(-0.0126903676755 -0.0333217097322 0)
(-0.012488339797 -0.0313525497495 0)
(-0.0122880642324 -0.0294176842368 0)
(-0.0120908481953 -0.0275166777647 0)
(-0.0118979682163 -0.0256488774583 0)
(-0.0117106631779 -0.0238134184272 0)
(-0.0115301271069 -0.0220092305061 0)
(-0.011357502793 -0.0202350461586 0)
(-0.0111938755072 -0.0184894094733 0)
(-0.0110402677657 -0.0167706860755 0)
(-0.0108976346566 -0.0150770739484 0)
(-0.010766860666 -0.013406615153 0)
(-0.0106487578601 -0.0117572087869 0)
(-0.0105440662962 -0.0101266260172 0)
(-0.0104534557881 -0.00851253195918 0)
(-0.0103775198861 -0.00691250451134 0)
(-0.0103166199289 -0.00532405997435 0)
(-0.0102681885048 -0.00374303409894 0)
(-0.010179833467 -0.00219197874676 0)
(-0.00912680412258 -0.00064614211106 0)
(0.0484316678994 -0.00332037901055 0)
(0.0536537833412 -0.0112287148142 0)
(0.053402492834 -0.0190636494464 -1.21778556268e-27)
(0.0525722998659 -0.0268897173928 0)
(0.0514601958144 -0.0345303030847 0)
(0.0501049240583 -0.0419509281257 0)
(0.0485337363569 -0.0491141418768 0)
(0.0467751300698 -0.0559887281652 0)
(0.0448583888462 -0.0625498077209 0)
(0.0428125018486 -0.0687786443329 0)
(0.0406652383532 -0.0746621563478 0)
(0.0384424478443 -0.0801922798031 0)
(0.0361675916421 -0.0853652450473 0)
(0.0338614885478 -0.0901808329764 0)
(0.031542243137 -0.0946416621588 0)
(0.0292253180499 -0.0987525424589 0)
(0.0269237105581 -0.102519916251 0)
(0.0246481961815 -0.105951395941 0)
(0.022407607673 -0.109055397278 0)
(0.0202091236656 -0.111840861481 0)
(0.0180585479752 -0.11431705542 0)
(0.0159605659319 -0.116493437147 0)
(0.0139189694413 -0.118379573608 0)
(0.0119368460604 -0.119985097703 0)
(0.0100167311219 -0.121319692836 0)
(0.00816072401317 -0.122393094461 0)
(0.00637057227989 -0.123215099772 0)
(0.0046477280139 -0.123795578632 0)
(0.00299338236886 -0.124144480978 0)
(0.00140848318083 -0.124271832048 0)
(-0.00010625196297 -0.124187746728 0)
(-0.00155035251285 -0.123902379914 0)
(-0.00292357353746 -0.123425911471 0)
(-0.00422591067885 -0.122768544709 0)
(-0.00545760175348 -0.12194044835 0)
(-0.00661912296136 -0.120951728066 0)
(-0.00771118395312 -0.119812388958 0)
(-0.00873471975352 -0.118532298872 0)
(-0.00969087917855 -0.117121152896 0)
(-0.0105810106148 -0.115588439975 0)
(-0.0114066449824 -0.11394341227 0)
(-0.0121694769582 -0.112195057822 0)
(-0.0128713443336 -0.110352076831 0)
(-0.0135142066382 -0.108422861805 0)
(-0.0141001228585 -0.106415481662 0)
(-0.014631229353 -0.104337669825 0)
(-0.0151097177062 -0.102196816226 0)
(-0.0155378135688 -0.099999963136 0)
(-0.0159177561546 -0.0977538046245 0)
(-0.016251779404 -0.0954646894706 0)
(-0.0165420944454 -0.0931386272534 0)
(-0.0167908743444 -0.0907812973385 0)
(-0.0170002407408 -0.0883980603784 0)
(-0.0171722533184 -0.0859939719233 0)
(-0.0173089016367 -0.0835737976355 0)
(-0.0174121001543 -0.0811420295763 0)
(-0.0174836858319 -0.0787029029637 0)
(-0.0175254189553 -0.0762604127961 0)
(-0.0175389863627 -0.0738183297275 0)
(-0.0175260074794 -0.071380214619 0)
(-0.0174880421397 -0.0689494312597 0)
(-0.0174266003777 -0.0665291568321 0)
(-0.0173431530226 -0.0641223898394 0)
(-0.0172391431443 -0.0617319553139 0)
(-0.0171159971621 -0.0593605073113 0)
(-0.0169751356475 -0.0570105287893 0)
(-0.0168179827506 -0.0546843291485 0)
(-0.0166459743842 -0.0523840397684 0)
(-0.0164605643201 -0.0501116080072 0)
(-0.0162632285097 -0.0478687901257 0)
(-0.0160554670522 -0.0456571436738 0)
(-0.0158388043037 -0.0434780198009 0)
(-0.0156147867973 -0.0413325559779 0)
(-0.0153849795911 -0.0392216694958 0)
(-0.0151509608887 -0.0371460520944 0)
(-0.0149143155836 -0.0351061659432 0)
(-0.0146766276606 -0.0331022411694 0)
(-0.0144394720639 -0.0311342750141 0)
(-0.014204405986 -0.0292020326765 0)
(-0.0139729600974 -0.0273050498179 0)
(-0.013746629664 -0.02544263669 0)
(-0.0135268659715 -0.0236138837942 0)
(-0.0133150679971 -0.0218176689775 0)
(-0.013112574664 -0.020052665848 0)
(-0.0129206576341 -0.0183173534025 0)
(-0.0127405149284 -0.0166100267632 0)
(-0.0125732653743 -0.0149288089894 0)
(-0.0124199441372 -0.0132716639987 0)
(-0.0122814993198 -0.0116364108707 0)
(-0.0121587895597 -0.0100207399852 0)
(-0.0120525813988 -0.00842223434704 0)
(-0.011963535612 -0.00683838475096 0)