/*--------------------------------*- C++ -*----------------------------------*\
| =========                 |                                                 |
| \\      /  F ield         | OpenFOAM: The Open Source CFD Toolbox           |
|  \\    /   O peration     | Version:  v1906                                 |
|   \\  /    A nd           | Web:      www.OpenFOAM.com                      |
|    \\/     M anipulation  |                                                 |
\*---------------------------------------------------------------------------*/
FoamFile
{
    version     2.0;
    format      ascii;
    class       volScalarField;
    location    "626";
    object      pa;
}
// * * * * * * * * * * * * * * * * * * * * * * * * * * * * * * * * * * * * * //

dimensions      [0 2 -2 0 0 0 0];


internalField   nonuniform List<scalar> 
9216
(
978.090993592
977.728767679
976.992793469
975.879917005
974.393807786
972.538746989
970.320117208
967.74430143
964.818631586
961.551312196
957.951369518
954.02856814
949.793360968
945.256801215
940.430498426
935.326530624
929.957411866
924.336008841
918.475524407
912.389421665
906.091426329
899.595459494
892.915659636
886.066323389
879.061945976
871.917167506
864.646828887
857.26591986
849.789646239
842.233374887
834.612707882
826.943418826
819.241526963
811.523220843
803.804927751
796.103218018
788.434863976
780.816721222
773.265773201
765.798987279
758.433343171
751.185664443
744.072631181
737.110590179
730.31555313
723.702989696
717.287810541
711.084146552
705.105311593
699.363569795
693.870069599
688.634604018
683.665511915
678.969447702
674.551262124
670.413815329
666.557870073
662.981988811
659.68247859
656.653397843
653.886590773
651.371832768
649.097009414
647.048455946
645.21132763
643.570117268
642.109045643
640.812509194
639.665266177
638.65272186
637.760955175
636.976948716
636.288560668
635.684705455
635.15525279
634.691122491
634.284131194
633.927032516
633.613358682
633.337432596
633.094216963
632.879305743
632.68877705
632.519147096
632.366646251
632.234130823
632.124799094
632.037327735
631.970358126
631.921109525
631.886481087
631.862911281
631.847257934
631.83781802
631.833087008
631.831438093
978.452797839
978.089421335
977.352180626
976.236243564
974.74582703
972.885360883
970.660312042
968.077134085
965.143223518
961.866855205
958.257122579
954.323863817
950.077598939
945.529453412
940.691098603
935.574678437
930.192758761
924.558261793
918.684428789
912.584765629
906.273021481
899.76314699
893.069289581
886.205763643
879.187061051
872.027830855
864.742901902
857.34726818
849.856119249
842.284826554
834.648976435
826.964351607
819.246962129
811.51301694
803.778945354
796.061353198
788.377030329
780.742886431
773.175940424
765.693233465
758.311798737
751.048552022
743.920243075
736.943326803
730.133898878
723.507551289
717.079293405
710.863393476
704.873282087
699.121377641
693.618965454
688.376005915
683.400986798
678.700724216
674.280204104
670.142408249
666.288184414
662.716142553
659.422592699
656.401537351
653.644703862
651.141662646
648.88001227
646.84569803
645.023450475
643.397335347
641.951235561
640.669275597
639.536048851
638.536811719
637.65755311
636.885150235
636.207424666
635.613254297
635.092544014
634.63623892
634.236228104
633.885314668
633.577112814
633.306005742
633.067043031
632.855894289
632.66876454
632.502388467
632.35379412
632.223495196
632.115419489
632.03027054
631.964497874
631.915964906
631.88246158
631.859743888
631.844454049
631.835575357
631.831343058
631.829639533
979.190279417
978.823741594
978.082263394
976.959970666
975.46111556
973.590189725
971.352754427
968.755372184
965.805556463
962.511708089
958.883049216
954.92955128
950.661864577
946.091244588
941.229483964
936.088843379
930.68199174
925.021946735
919.122027852
912.995810282
906.657093551
900.119870419
893.398311688
886.506749461
879.459676501
872.271741172
864.957757939
857.532709941
850.011766123
842.410286507
834.743841039
827.028211505
819.279406358
811.513654571
803.747409572
795.99732844
788.280259722
780.613202674
773.013274528
765.497646815
758.083490572
750.787890139
743.627768284
736.619781166
729.78022765
723.12493007
716.669130742
710.427359938
704.413317004
698.639720458
693.118164847
687.858944618
682.870880352
678.161119519
673.734947939
669.595602894
665.744119928
662.179216475
658.897218694
655.89203182
653.155154414
650.675755085
648.4408355
646.435516768
644.643591297
643.048219029
641.632551652
640.380188205
639.275385884
638.303143131
637.449237906
636.700353051
636.044197103
635.469604764
634.966530335
634.526006757
634.140050037
633.801589459
633.50438374
633.242956198
633.012504545
632.808834355
632.628287245
632.467712744
632.324118289
632.198276073
632.096261593
632.015990846
631.952594749
631.906133011
631.874847533
631.853230424
631.839137831
631.831105999
631.826885137
631.824798757
980.310913
979.940706833
979.192706028
978.060629976
976.548816358
974.661860733
972.405463215
969.786348661
966.812209884
963.491640144
959.834061617
955.849650131
951.54925907
946.944342958
942.046883827
936.869320245
931.424482363
925.725532045
919.785911583
913.619298995
907.239573457
900.660787594
893.897150192
886.96301471
879.872877315
872.641378605
865.283313132
857.81363989
850.247498514
842.600223363
834.887361566
827.124684234
819.328200012
811.514159093
803.699055034
795.899613871
788.132778255
780.415675558
772.765579109
765.199851637
757.735881841
750.391003743
743.182411473
736.127059678
729.241562994
722.542084452
716.044225123
709.762903052
703.712230665
697.905376033
692.354413732
687.070150804
682.061933906
677.337432376
672.902413059
668.760522155
664.913098067
661.359040005
658.094719879
655.113928228
652.407851003
649.965081581
647.771719583
645.811523877
644.066689833
642.518862778
641.150022403
639.943014773
638.881665901
637.95065758
637.135441675
636.422386561
635.798999129
635.254065748
634.777634645
634.360909632
633.996110744
633.67637187
633.395668383
633.148746254
632.931022949
632.738505065
632.567713677
632.415625084
632.279163742
632.161239989
632.067238446
631.992630779
631.934861439
631.892385757
631.862726429
631.842857888
631.830208909
631.822704367
631.818525938
631.816476612
981.817694133
981.442774572
980.685951405
979.540614883
978.011240278
976.102575532
973.820511969
971.171996232
968.164966857
964.808280532
961.111634121
957.085483422
952.740960747
948.089792924
943.144221789
937.916928554
932.420964
926.669685469
920.676702336
914.455830272
908.021055454
901.386508169
894.566446334
887.575247442
880.427408988
873.137555146
865.720449634
858.191012118
850.564338254
842.855720381
835.080669985
827.254935783
819.394521878
811.515699267
803.635011645
795.76927136
787.935545954
780.151131116
772.433511434
764.80030557
757.269198868
749.857861437
742.583856624
735.464539327
728.516950109
721.757704595
715.20288278
708.867915135
702.767465533
696.915302856
691.324155512
686.005536156
680.969533018
676.2245578
671.777074969
667.631318836
663.789070156
660.249494285
657.009072327
654.061496957
651.397619687
649.005353567
646.869663769
644.972224999
643.292679317
641.810316936
640.505425427
639.359957664
638.357396639
637.482157577
636.719241182
636.054497924
635.475104347
634.969804674
634.52883972
634.143713014
633.806952971
633.51197544
633.25304605
633.025227434
632.824239749
632.646364033
632.488363329
632.347332116
632.220570687
632.113461551
632.029278524
631.962357058
631.909950533
631.87179272
631.845646926
631.828038203
631.816506525
631.809594459
631.805646021
631.803686859
983.715263907
983.334432604
982.566418654
981.404233596
979.852543025
977.916299664
975.601645222
972.915814322
969.867063853
966.464591364
962.718449056
958.639454569
954.239100595
949.529465298
944.523125505
939.233074527
933.672646448
927.855448423
921.795302475
915.506197704
909.002253677
902.297694992
895.406836864
888.344080704
881.123918806
873.760946447
866.269880239
858.665580909
850.963079488
843.177605034
835.324614088
827.419816118
819.479199297
811.519050205
803.555966808
795.606861834
787.688954691
779.819749087
772.016995319
764.298635581
756.68273307
749.187385483
741.830626208
734.630316307
727.604032272
720.768953511
714.141753098
707.73849235
701.574516304
695.664342636
690.021529159
684.658506416
679.58634802
674.814483432
670.350335282
666.198961324
662.36272925
658.841173523
655.630973393
652.725797353
650.116230778
647.789541993
645.729657963
643.915049874
642.321264925
640.923951326
639.701057152
638.633728904
637.705600766
636.901110808
636.204587905
635.600958205
635.076833775
634.620970309
634.224008894
633.877976462
633.575849462
633.311380868
633.07918708
632.874770355
632.694253907
632.534278546
632.391955389
632.264573841
632.150833036
632.05688459
631.982129443
631.92269473
631.877455907
631.84577012
631.822932039
631.807587793
631.797720904
631.79101053
631.787237332
631.785339031
986.009436512
985.621398595
984.839713666
983.656934399
982.077968192
980.108028393
977.753572355
975.022196246
971.922555661
968.464274421
964.657848663
960.514547632
956.046313422
951.265661805
946.185586307
940.819467638
935.180990534
929.284069931
923.142788122
916.771344212
910.184016628
903.395138881
896.419088088
889.270285215
881.963205507
874.512397333
866.932507654
859.238312414
851.44475042
843.566959299
835.620313701
827.620459526
819.583349633
811.52527367
803.462880876
795.413192932
787.39360373
779.421862965
771.516041257
763.694475062
755.975691417
748.378313811
740.920952955
733.622087545
726.499942128
719.572368974
712.856740449
706.369854487
700.127851757
694.146132893
688.439260248
683.020805918
677.903127768
673.097006329
668.611193224
664.451845576
660.622101664
657.121898521
653.948278072
651.094985189
648.552520591
646.307761269
644.344843882
642.63701143
641.152948026
639.862562155
638.740604551
637.768018461
636.930047246
636.211906457
635.59671089
635.067529556
634.609966041
634.212979148
633.868064753
633.568176667
633.30692037
633.07834961
632.87742951
632.700311915
632.543639018
632.404480113
632.280419318
632.169034998
632.070553972
631.990282416
631.926205695
631.876331254
631.839404802
631.812871386
631.79351157
631.780439945
631.772405062
631.766490513
631.763120596
631.761455683
988.707300444
988.310672525
987.512697869
986.305377275
984.69391577
982.683848314
980.282020828
977.496473326
974.336349961
970.811796078
966.933850253
962.71433295
958.165734215
953.301102779
948.133938913
942.67809341
936.947675113
930.95696927
924.720368834
918.252320341
911.567285428
904.679718179
897.604057698
890.354734401
882.946188021
875.392894875
867.709402207
859.910367537
852.010601676
844.025114061
835.969161318
827.858291811
819.708393705
811.535737362
803.357011049
795.189346184
787.050327989
778.957987331
770.93077024
762.987482454
755.147208301
747.429205411
739.852779786
732.437148766
725.201301921
718.16387172
711.343024519
704.75638049
698.420960884
692.353157494
686.568687703
681.08251132
675.908605896
671.059581937
666.546004653
662.375576156
658.552320436
655.076464952
651.945675757
649.153885312
646.691671961
644.545758015
642.70571485
641.134987208
639.790088044
638.631640904
637.629950306
636.767489483
636.034847846
635.419699102
634.902379101
634.461932442
634.082086583
633.752648781
633.466951575
633.219628332
633.005121835
632.817464404
632.651762052
632.505320503
632.375418523
632.259539696
632.155947349
632.062708056
631.981349084
631.915519835
631.863451106
631.823457582
631.794119647
631.772406447
631.757590616
631.747003126
631.740297618
631.736215837
631.733376401
631.732088282
991.817297382
991.410598697
990.593546331
989.357489264
987.70799198
985.650980104
983.193770463
980.344940071
977.114223038
973.512393448
969.551142911
965.242954695
960.600977032
955.638898133
950.370825432
944.811171756
938.97455123
932.875687774
926.5293389
919.950237031
913.153049779
906.152359537
898.962661488
891.598377997
884.073886429
876.40355715
868.601798596
860.683107144
852.6621203
844.553672504
836.372855219
828.135073497
819.856108813
811.552177171
803.239981352
794.936752656
786.660276431
778.428895685
770.261487425
762.177407512
754.19640204
746.33848633
738.623796981
731.072426905
723.704258297
716.538811062
709.595126624
702.891700259
696.446474233
690.276876631
684.399892284
678.832080386
673.589469019
668.687112223
664.138213
659.952669557
656.135493085
652.686402199
649.60441926
646.8837354
644.514578116
642.481826862
640.798786833
639.40664366
638.23921895
637.241982563
636.378655659
635.63715005
635.022999104
634.529734762
634.130349558
633.794796131
633.503235928
633.24837676
633.027498373
632.83829942
632.676268304
632.534294939
632.406788826
632.29372977
632.193050124
632.102284692
632.020801975
631.947262038
631.884041728
631.833279051
631.793720769
631.763861396
631.741948891
631.726070757
631.715007142
631.707770505
631.702891447
631.700623768
631.698454591
631.697642219
995.349313151
994.930947343
994.091826313
992.822536604
991.129073969
989.017833673
986.496697958
983.574887196
980.262840898
976.572083477
972.515084633
968.105116358
963.356109349
958.282511355
952.899150148
947.221104053
941.263583418
935.041826594
928.571014066
921.866203805
914.942290004
907.813985752
900.495828512
893.002205395
885.347394038
877.545614218
869.611086041
861.558091668
853.401039498
845.154530753
836.833431935
828.4529447
820.028686239
811.576766657
803.113862572
794.657280677
786.225003828
777.835711594
769.508767458
761.264165812
753.122434501
745.104492719
737.231469856
729.524498355
722.004500745
714.691998735
707.606973353
700.768807188
694.196324437
687.907942438
681.921899244
676.256515569
670.930302446
665.961683364
661.367815148
657.162174982
653.350711755
649.929742811
646.902088485
644.262682152
641.998092749
640.077575724
638.602274591
637.4510716
636.514405491
635.714094594
635.002562366
634.380021941
633.893004324
633.546496706
633.292843213
633.081894043
632.886786836
632.709830158
632.556472429
632.429911562
632.326873775
632.235868245
632.147592275
632.069805829
632.00051491
631.935773586
631.877356402
631.824389827
631.779480288
631.743872352
631.717196601
631.697959911
631.684227686
631.674517857
631.667262282
631.662785108
631.660711868
631.660008972
631.658961468
631.658588634
999.314784397
998.88301779
998.018592445
996.711212244
994.967386851
992.794073482
990.199829073
987.194639966
983.789783352
979.997672673
975.831697806
971.30606227
966.43562012
961.235714942
955.722023542
949.910407537
943.816776789
937.456969377
930.846653006
924.001252399
916.935905891
909.665452402
902.204447196
894.567202221
886.767844547
878.820385816
870.7387963
862.537079831
854.229348765
845.829900803
837.353303345
828.814477801
820.228800109
811.612201889
802.981271366
794.353346062
785.746587208
777.180025
768.673563148
760.247932045
751.924582355
743.725515848
735.673058217
727.789589111
720.097257319
712.617719864
705.371953629
698.380184319
691.661978377
685.236518448
679.123081687
673.341673121
667.913674253
662.86208533
658.210411745
653.978891842
650.174743363
646.780777013
643.811561701
641.268805613
639.125564362
637.262440436
636.091414672
635.283595371
634.65330726
634.090874685
633.514323385
632.941491496
632.560299071
632.413291596
632.375835952
632.33586343
632.247143146
632.148086046
632.061356958
632.000680651
631.965689468
631.932868277
631.879037519
631.837523578
631.802632292
631.763231801
631.728392346
631.696311339
631.669546686
631.649613574
631.635854119
631.626615702
631.620630668
631.617054992
631.614936552
631.61381028
631.613925247
631.614985237
631.615504154
631.615598408
1003.7268263
1003.27975915
1002.38650207
1001.0357403
999.234595725
996.990695738
994.313399899
991.213602758
987.703571647
983.796767781
979.507663095
974.851554939
969.844380984
964.502536175
958.842693919
952.881634736
946.636087113
940.122586606
933.357360201
926.356242595
919.134629665
911.707471208
904.08930123
896.294299394
888.336374016
880.229255246
871.986588851
863.622025035
855.149302655
846.582333571
837.935296607
829.222736515
820.459687336
811.661802503
802.845491039
794.028048873
785.22777252
776.464040187
767.757344146
759.12925774
750.602322688
742.199847694
733.945619476
725.86354271
717.97724403
710.30969654
702.882934378
695.717933036
688.834720738
682.252782988
675.991828996
670.072995156
664.520457502
659.363169732
654.635101142
650.371848888
646.585191424
643.209641809
640.29545251
637.882839672
635.86565296
633.495906459
632.895794434
632.682493846
632.523004731
632.345925596
632.135607985
631.992262946
631.945262952
631.930531675
631.879009122
631.758768195
631.623277294
631.528914351
631.48045289
631.494426519
631.567184269
631.635180884
631.60222242
631.600127645
631.607002057
631.587435633
631.576386745
631.564943966
631.555894643
631.551640989
631.550027998
631.55037825
631.552217675
631.555130151
631.558238422
631.56148343
631.564197783
631.566835937
631.569177837
631.569980932
1008.60038485
1008.1359189
1007.20995242
1005.8100008
1003.94391404
1001.62011876
998.848927781
995.642310117
992.013699592
987.977787242
983.550311443
978.747847747
973.587599812
968.087191979
962.264464614
956.137275143
949.723310262
943.039917474
936.103965831
928.931746262
921.538919809
913.940518156
906.150994388
898.18431507
890.05407834
881.773640197
873.356233055
864.815068526
856.163426231
847.414739804
838.582694579
829.681339966
820.725238381
811.729630683
802.710617705
793.685342928
784.672160014
775.690765911
766.762277042
757.909224013
749.155440696
740.525828534
732.045988879
723.741736829
715.638539872
707.760958192
700.132190869
692.773839401
685.705977499
678.947614614
672.517705005
666.4369729
660.73097287
655.434957713
650.599373075
646.298387789
642.571300243
639.170053346
636.155733935
633.811350995
632.519724202
632.375224072
632.4186587
632.432776414
632.397984702
632.327583425
632.231074109
632.136675046
632.063985035
632.002247867
631.928045893
631.83450939
631.739430925
631.663658231
631.624577655
631.632693516
631.639526312
631.50678741
631.277004283
631.322503046
631.419237055
631.407463313
631.423641615
631.432542151
631.439082349
631.449806034
631.459932305
631.470229823
631.480919093
631.490751311
631.499204649
631.506567466
631.512679052
631.517225664
631.521409653
631.522982389
1013.95241951
1013.4682157
1012.50524444
1011.04967655
1009.11023084
1006.69628768
1003.81929254
1000.49248432
996.730668047
992.549973226
987.967614043
983.001652811
977.670766125
971.99401168
965.990594692
959.679635752
953.079946475
946.209823693
939.086876804
931.727904003
924.14883151
916.364723835
908.389864
900.237890635
891.921968423
883.454962121
874.849587836
866.118527849
857.274514544
848.330405121
839.299272922
830.194528679
821.030097623
811.820629008
802.581735921
793.330245451
784.084439534
774.86426221
765.691463806
756.589646562
747.584173395
738.701903542
729.970730964
721.41892859
713.074345285
704.963562037
697.111161523
689.5392833
682.267551703
675.313441239
668.693248106
662.424181607
656.528692116
651.044636352
646.041088062
641.689032753
638.148046974
634.393749055
632.904783184
632.745325335
632.701554363
632.691755676
632.719229788
632.717325219
632.687246261
632.629848068
632.547700774
632.454371427
632.363491175
632.274156627
632.174947518
632.062284345
631.945427219
631.838123072
631.753569044
631.694376286
631.630354524
631.536272175
631.478884803
631.495888857
631.426053363
631.19522526
631.25455412
631.300279033
631.316995059
631.346048562
631.366979103
631.387693905
631.408159346
631.425203085
631.439246564
631.450938358
631.460375565
631.467473549
631.473221071
631.475688538
1019.80212124
1019.29555055
1018.29077659
1016.7724268
1014.75025874
1012.23479469
1009.23882803
1005.77709904
1001.86602216
997.523403913
992.768170322
987.620104288
982.099588462
976.227347047
970.02418104
963.51069665
956.707033572
949.632607883
942.3058906
934.744246692
926.963857612
918.979743081
910.80588331
902.455424091
893.940927366
885.27461797
876.46857994
867.534878701
858.485620645
849.332992697
840.089327772
830.767227453
821.379770188
811.940777268
802.465127563
792.969095566
783.470689742
773.989963711
764.549263136
755.17335979
745.88941427
736.726704268
727.716063398
718.8890058
710.276578156
701.908082478
693.809911557
686.004798253
678.511511887
671.34490136
664.516254472
658.034323427
651.908407512
646.155216297
640.779449914
635.861507479
633.333743799
633.13733417
633.17313928
633.185299659
633.183459148
633.160989687
633.140795487
633.117947567
633.083952264
633.028633514
632.948816631
632.851157957
632.746110025
632.635101376
632.512992379
632.379515724
632.241568775
632.109839242
631.994243157
631.895328093
631.795042501
631.68101201
631.583530981
631.514892766
631.435016594
631.396492139
631.36598897
631.199824288
631.166016891
631.242144429
631.272110359
631.303780369
631.335721503
631.359871452
631.379373189
631.395569939
631.408766818
631.418688204
631.425700291
631.429276065
1026.17117491
1025.63925371
1024.58727581
1022.99809065
1020.88270558
1018.25301549
1015.12342352
1011.51044776
1007.43239013
1002.90900541
997.961194316
992.610718243
986.879924961
980.791469935
974.368020414
967.631937306
960.604941814
953.307786258
945.759960273
937.979470355
929.982731496
921.78459979
913.398554587
904.837007201
896.111678556
887.233961455
878.215183848
869.066727434
859.800025687
850.426523456
840.957683144
831.405096273
821.780729643
812.09726614
802.368516879
792.609870643
782.838758341
773.075105365
763.341729604
753.664621308
744.073020321
734.599188131
725.277764859
716.144627989
707.235255982
698.582787851
690.216167545
682.159038637
674.429258502
667.038598363
659.992055597
653.287160579
646.908571693
640.7840219
634.425944385
633.937806742
633.808619052
633.766112979
633.810212596
633.794956596
633.744245334
633.696550056
633.657215937
633.620138064
633.574643958
633.510566447
633.423445032
633.316756822
633.196763449
633.064987913
632.920985536
632.766807131
632.60817847
632.453038904
632.308222956
632.173965791
632.040925403
631.903170103
631.773955214
631.66038171
631.54859045
631.45585443
631.371514273
631.321370338
631.288276995
631.185896036
631.166147681
631.216875091
631.266494635
631.297071593
631.320965217
631.341612186
631.35884535
631.371824829
631.380510987
631.385168177
1033.08407456
1032.5233863
1031.41807122
1029.7489268
1027.52847199
1024.7702622
1021.49063284
1017.70821401
1013.44352078
1008.71856225
1003.55650035
997.981351795
992.017710442
985.690460034
979.024451084
972.044129282
964.77312093
957.233801696
949.446893343
941.43114734
933.203178336
924.777501294
916.166796661
907.382379017
898.434780808
889.334307633
880.091408647
870.716769961
861.22117822
851.615318292
841.909662817
832.11455658
822.240517152
812.298682846
802.301352012
792.262568727
782.198742031
772.129283183
762.077218307
752.069698032
742.138289508
732.318895143
722.651100687
713.176747551
703.937616216
694.972437321
686.313828929
677.986904693
670.009011693
662.389669362
655.130229192
648.220320752
641.599602344
634.806040359
633.996872481
634.290207392
634.457809626
634.498795122
634.483900964
634.441179171
634.382281937
634.32512688
634.271965789
634.217445302
634.153296385
634.071772737
633.968994292
633.847608432
633.71058411
633.558585698
633.39351787
633.218297536
633.037709597
632.857565251
632.682574556
632.513408517
632.34639548
632.180209828
632.02129734
631.873308666
631.731619408
631.600948304
631.482612064
631.385509097
631.30775466
631.273021929
631.229323659
631.124997457
631.20597751
631.23929102
631.264679785
631.290085228
631.311812907
631.328400912
631.339212252
631.344891317
1040.56850592
1039.97509719
1038.8094216
1037.0498944
1034.71087822
1031.80795155
1028.35978709
1024.38753749
1019.91431517
1014.96472441
1009.5644899
1003.74016665
997.518886992
990.928088724
983.995176718
976.7470915
969.209787876
961.407657461
953.362959313
945.095346842
936.621593419
927.955612726
919.10883431
910.090918189
900.910680749
891.576985647
882.099302023
872.487729139
862.752582253
852.90387603
842.95100276
832.902773938
822.767818686
812.555199284
802.275118917
791.939661198
781.563584367
771.165187688
760.767217717
750.397723002
740.090715593
729.886426954
719.830831949
709.97401002
700.366914049
691.056675834
682.081041957
673.467016418
665.231703603
657.384340929
649.92277264
642.795634598
635.557245873
634.687157294
634.887891328
635.151133073
635.227228356
635.248157418
635.220450054
635.168166631
635.104314354
635.037932715
634.969580459
634.895230618
634.809052807
634.705597532
634.582290147
634.442034105
634.285718966
634.113021925
633.926483577
633.729047889
633.524679176
633.317783479
633.111946612
632.908509678
632.70696435
632.508175259
632.315942706
632.132766765
631.958481901
631.795853625
631.646987873
631.514505938
631.402327935
631.317395196
631.243618923
631.220314829
631.19904518
631.190062878
631.208787829
631.241145131
631.269185073
631.289917826
631.303153686
631.309829851
1048.65581116
1048.02506224
1046.79090657
1044.92898508
1042.45592304
1039.38978563
1035.75210231
1031.56706537
1026.86084293
1021.66100698
1015.99614258
1009.89560654
1003.3893509
996.50771177
989.281079969
981.739406713
973.911541243
965.824444556
957.502367412
948.966122513
940.232611256
931.314774721
922.222101118
912.96171476
903.539877162
893.963485408
884.240988084
874.382255805
864.397597395
854.296645487
844.087668644
833.777572648
823.372502633
812.878748128
802.303675325
791.656611186
780.949802933
770.199548699
759.427488117
748.661947515
737.939189419
727.304327854
716.811433301
706.52202321
696.500750168
686.807993699
677.48821816
668.569833471
660.069809885
651.996064665
644.303848369
636.535790425
635.65823465
635.892387106
636.076427765
636.140686205
636.133934496
636.106744314
636.053178136
635.984815069
635.908709419
635.828192862
635.741578513
635.645125013
635.534506994
635.406098382
635.259028166
635.096484181
634.917941051
634.722666127
634.513164042
634.29204349
634.062505958
633.827970798
633.591382542
633.35456369
633.118596394
632.885273595
632.657512316
632.437749148
632.227731168
632.030233234
631.847890338
631.68354193
631.540367551
631.419855558
631.319987805
631.256275696
631.223021284
631.180859026
631.134857207
631.192111071
631.232296874
631.258198744
631.27376941
631.281221438
1057.38155822
1056.70801472
1055.3958982
1053.41761513
1050.79258036
1047.54193979
1043.69076717
1039.26696885
1034.3003268
1028.82177536
1022.86301652
1016.45640441
1009.63493895
1002.43219403
994.882042911
987.01810254
978.872887129
970.476725082
961.856557325
953.034798222
944.02850339
934.849131374
925.503173452
915.993792724
906.323298866
896.495781526
886.518766762
876.402761606
866.159084835
855.797621792
845.325527975
834.747253679
824.065600293
813.283166592
802.403580064
791.432435657
780.37834057
769.254319697
758.079590311
746.881556272
735.697908087
724.578687146
713.587763854
702.802455939
692.308450756
682.18886541
672.495944559
663.257394478
654.483952552
646.140535633
637.763534935
636.870321454
637.188721176
637.366362048
637.320932809
637.239993112
637.154655511
637.069993966
636.979949625
636.887455808
636.791875638
636.691123189
636.581390449
636.458800079
636.319855013
636.162528557
635.988684021
635.799965069
635.594964759
635.374484294
635.140401774
634.894772097
634.639968342
634.378509752
634.112726381
633.844504178
633.575538601
633.307967753
633.044490338
632.787788705
632.54051392
632.30578866
632.086841351
631.887079833
631.709643743
631.556309455
631.427472849
631.327227484
631.253752168
631.192801553
631.159704191
631.1535717
631.206718644
631.236384707
631.252467562
631.260073519
1066.78623674
1066.06341404
1064.6621274
1062.55109598
1059.75314217
1056.29324981
1052.20098344
1047.50888947
1042.25106531
1036.46220294
1030.17726606
1023.43164671
1016.26149255
1008.70390749
1000.79680689
992.578311426
984.085661883
975.353722098
966.41321648
957.28894068
947.9982942
938.550601774
928.947755987
919.186609592
909.263085936
899.176990257
888.935316643
878.55111483
868.038773549
857.409649677
846.669806429
835.820293583
824.85922196
813.784284995
802.594372781
791.290259097
779.875500785
768.358097863
756.752874392
745.08424934
733.389391784
721.722045738
710.156739131
698.791968912
687.746307828
677.147163125
667.053570271
657.480400197
648.37409632
639.29921666
638.348456904
638.74674607
638.947267879
638.823259672
638.609686706
638.419693387
638.257545438
638.117217369
637.988866558
637.866992602
637.744936789
637.616748195
637.477134029
637.322067263
637.148738663
636.95672005
636.750160868
636.529924219
636.294775767
636.046690382
635.787091525
635.51735974
635.238896898
634.953186096
634.661723145
634.365984862
634.067604835
633.768660812
633.471722924
633.179652739
632.895592907
632.623086778
632.365925907
632.128052013
631.913131331
631.723949886
631.562262982
631.429838655
631.324828766
631.241386605
631.18526069
631.168945028
631.199240275
631.228264321
631.240080087
631.246744576
1076.91610099
1076.13630125
1074.63235759
1072.36920509
1069.37363179
1065.67538785
1061.30991229
1056.31575073
1050.73224002
1044.59817781
1037.95169028
1030.83093875
1023.27506402
1015.32487117
1007.02293116
998.412943244
989.53834515
980.440253118
971.154898215
961.710837432
952.126397036
942.408054343
932.550730711
922.541053298
912.364139734
902.012655636
891.494059621
880.828044775
870.036104986
859.133231048
848.124237695
837.004934023
825.766439825
814.399939852
802.898727669
791.25775615
779.473868671
767.547704857
755.486927065
743.309783875
731.04917807
718.758679959
706.521306254
694.46138337
682.747740569
671.609135202
661.094217402
651.134841472
641.207753768
640.123377198
640.563985546
640.781564283
640.59365749
640.256609522
639.925515963
639.648914586
639.422173223
639.232560577
639.065189189
638.908543131
638.752309269
638.58835087
638.410506908
638.214642839
637.998695944
637.76411104
637.517030384
637.258887086
636.989524346
636.711614812
636.426292938
636.13408309
635.835163972
635.529697354
635.218004393
634.90069568
634.578827722
634.254051126
633.928633253
633.605378569
633.287603478
632.979139021
632.684229438