/*--------------------------------*- C++ -*----------------------------------*\
| =========                 |                                                 |
| \\      /  F ield         | OpenFOAM: The Open Source CFD Toolbox           |
|  \\    /   O peration     | Version:  v1906                                 |
|   \\  /    A nd           | Web:      www.OpenFOAM.com                      |
|    \\/     M anipulation  |                                                 |
\*---------------------------------------------------------------------------*/
FoamFile
{
    version     2.0;
    format      ascii;
    class       volScalarField;
    location    "811";
    object      p;
}
// * * * * * * * * * * * * * * * * * * * * * * * * * * * * * * * * * * * * * //

dimensions      [0 2 -2 0 0 0 0];


internalField   nonuniform List<scalar> 
9216
(
268.574802372
268.660447951
268.834288763
269.096686364
269.446220186
269.881156415
270.399372571
270.99838779
271.675426239
272.427438277
273.251169605
274.143175876
275.099893615
276.117644168
277.19270322
278.321291445
279.499641344
280.723973712
281.990562089
283.295695498
284.635741808
286.007097862
287.406253384
288.829729873
290.27414675
291.736150278
293.212483402
294.699905897
296.195269168
297.695428728
299.197324948
300.697889008
302.194130827
303.683039866
305.161680809
306.627090757
308.076383765
309.50664599
310.91504943
312.298746538
313.654992918
314.981042279
316.274276691
317.532101931
318.752082835
319.931838188
321.069178203
322.161998258
323.20841678
324.206668754
325.15524538
326.052791192
326.8982502
327.690771367
328.429864525
329.11531346
329.747335239
330.326488877
330.853820587
331.330751859
331.759190076
332.141375127
332.479937948
332.777722313
333.037815414
333.263362825
333.457611668
333.623764267
333.765017397
333.884408983
333.984842036
334.06895094
334.139147379
334.197530739
334.245966259
334.286036687
334.319141922
334.34646732
334.369067573
334.387816213
334.403471791
334.416638836
334.427838183
334.43747492
334.445935767
334.453237053
334.459273328
334.464096243
334.467813585
334.470572817
334.472537603
334.473892352
334.474803264
334.475356137
334.475632244
334.475725659
268.489249757
268.575321058
268.749793789
269.013404958
269.364585967
269.801549562
270.322126162
270.923796066
271.603737832
272.35886408
273.185875556
274.081294302
275.041516086
276.062835924
277.141495248
278.273697178
279.455647059
280.68355688
281.953679499
283.262302933
284.605779551
285.980511606
287.382977041
288.809707795
290.257313815
291.722455547
293.201867557
294.692326419
296.190675142
297.693787543
299.198594566
300.702046306
302.201141159
303.692886632
305.174332648
306.642532495
308.094581243
309.527578274
310.938671736
312.325023796
313.683861421
315.012444786
316.308123634
317.568308192
318.790529134
319.972409289
321.111724549
322.206374616
323.254443189
324.254167963
325.204001778
326.102585937
326.948818106
327.741835417
328.481094293
329.16636412
329.797813005
330.375998286
330.901938646
331.377084611
331.803357853
332.183069383
332.518895335
332.813770154
333.070837195
333.293315016
333.484484046
333.647614528
333.785948251
333.902594714
334.000491432
334.082316731
334.150483387
334.207097868
334.253994812
334.29273858
334.324688917
334.351020119
334.372766713
334.390801661
334.405860702
334.418539348
334.429332515
334.438630473
334.44675589
334.45385476
334.459775513
334.464450131
334.468096401
334.47082211
334.472732929
334.474050612
334.474950405
334.475477042
334.475726714
334.475825549
268.31468569
268.401849337
268.578067576
268.844276323
269.198862003
269.639978473
270.165380506
270.772468337
271.458334181
272.219807059
273.053502834
273.955866904
274.923220347
275.951795339
277.037773621
278.177312184
279.366572853
280.601737967
281.879031656
283.194726623
284.545158631
285.926726052
287.335899337
288.769215039
290.223281924
291.694770931
293.180419297
294.677017679
296.181413434
297.690495951
299.201200074
300.710490718
302.215367525
303.712849872
305.199983944
306.673829474
308.131470559
309.570005556
310.986562847
312.37829507
313.742400533
315.076122163
316.376774131
317.641744563
318.868525419
320.05471648
321.198055326
322.296419655
323.347854901
324.350574133
325.302984848
326.203691269
327.051528285
327.845576251
328.585211765
329.270139806
329.900456133
330.476679492
330.999798152
331.471287513
331.893130888
332.267761616
332.597978889
332.886882571
333.137769042
333.35397261
333.538856135
333.695801582
333.828171281
333.939205954
334.031939916
334.109122206
334.173187004
334.226233339
334.270046692
334.306128198
334.335764789
334.360090983
334.380122942
334.396723239
334.410594916
334.422300923
334.432301431
334.44096094
334.448581405
334.455283789
334.460781252
334.465148166
334.46865668
334.47128448
334.473094975
334.474373082
334.475224704
334.475717613
334.475977991
334.476106307
268.048951728
268.137519273
268.31643661
268.586660059
268.946499097
269.394011362
269.926836357
270.542248556
271.237207937
272.008411665
272.852346401
273.765336745
274.743591598
275.783244044
276.880387966
278.031107156
279.231501348
280.477704808
281.765902893
283.092341749
284.45333735
285.845278362
287.264629718
288.707930564
290.171794106
291.652902185
293.148002756
294.653902263
296.16746181
297.685588303
299.20523021
300.723368433
302.237012746
303.743193504
305.238959897
306.721373866
308.187511764
309.634462087
311.059332063
312.459250662
313.831381221
315.172930353
316.481166461
317.753433481
318.987173057
320.179939812
321.329422894
322.433458124
323.490044686
324.497351648
325.453730588
326.357722014
327.208075178
328.003770895
328.744066829
329.428549975
330.057205245
330.630472569
331.149288601
331.61514392
332.030133465
332.396892069
332.718413524
332.998069863
333.239441638
333.446005696
333.621222497
333.768631405
333.891805639
333.994203056
334.079026039
334.14913028
334.2069859
334.254669174
334.293881953
334.326001604
334.35218268
334.373490617
334.39094337
334.405400449
334.417514123
334.427784252
334.436622849
334.444352709
334.451251637
334.45731391
334.462253957
334.466263101
334.469463523
334.471899233
334.473668075
334.474889442
334.475693186
334.47618585
334.476464909
334.47660183
267.690736348
267.781166828
267.96378057
268.239506124
268.606539506
269.062799957
269.605765234
270.232533425
270.939880772
271.724320909
272.582162698
273.50956415
274.502581739
275.55721335
276.669435356
277.835232805
279.050624076
280.311679344
281.614534716
282.95540137
284.330571763
285.736422029
287.169412698
288.626086511
290.103065535
291.597045993
293.104793085
294.623133935
296.148951059
297.67917425
299.210773432
300.740750329
302.266131743
303.78396205
305.291297996
306.785203501
308.262747816
309.721004533
311.157055045
312.567993723
313.950938342
315.303042576
316.621513662
317.903631234
319.14676969
320.348419069
321.506206133
322.617910092
323.681475082
324.695015169
325.656816589
326.565337803
327.419216705
328.217291714
328.95864796
329.642690681
330.269235972
330.838601004
331.351617153
331.809755374
332.215284162
332.571179496
332.880662586
333.147538798
333.375916283
333.569368143
333.731385265
333.86570849
333.976254536
334.066829952
334.140895217
334.201453119
334.251019886
334.291627594
334.324843941
334.351826225
334.373482553
334.390771267
334.404790633
334.416442641
334.426288103
334.434709336
334.442059252
334.448601989
334.454574055
334.459811686
334.464087393
334.467635062
334.470559126
334.472811035
334.474458844
334.475632717
334.476431194
334.476936228
334.477237206
334.47738691
267.23810164
267.330918163
267.51829887
267.801121765
268.177427933
268.644949291
269.200947345
269.842285712
270.565498134
271.366857274
272.242440438
273.188189969
274.199966929
275.273597023
276.404908747
277.589763775
278.824080405
280.10385061
281.425151826
282.784154106
284.177123717
285.600423647
287.050511928
288.523937948
290.017337524
291.527426641
293.050994512
294.584895708
296.126041958
297.671393287
299.217949085
300.762738909
302.302813731
303.835237334
305.357078812
306.865406139
308.357282017
309.829761938
311.279895881
312.704733518
314.101334273
315.466781686
316.798202845
318.092791361
319.347833491
320.560734345
321.729042471
322.850468456
323.922895857
324.94438086
325.913143311
326.827550416
327.686106585
328.48746097
329.230455473
329.914225558
330.538337952
331.102947139
331.608672264
332.056841648
332.449999649
332.791772045
333.085458068
333.33556391
333.54733318
333.72412978
333.869212101
333.986575657
334.080728822
334.156044387
334.216357043
334.264852758
334.304093696
334.336044397
334.362074906
334.382964986
334.399133282
334.411355817
334.421056435
334.429316283
334.436488712
334.442714867
334.448306921
334.453455012
334.458288777
334.462564103
334.466209632
334.469346348
334.471937045
334.473927771
334.475495214
334.476661769
334.477467546
334.478035531
334.478378546
334.478552612
266.688565278
266.784352161
266.977674036
267.269337841
267.657181049
268.13869041
268.710846364
269.37020987
270.113004015
270.935195156
271.832568893
272.800798374
273.835503329
274.932299098
276.086835776
277.294828076
278.552076984
279.85448432
281.198061544
282.578933846
283.993340683
285.437633493
286.908271406
288.401815355
289.914921106
291.444331338
292.9868671
294.539418609
296.098935615
297.662417253
299.226901529
300.789454605
302.347160131
303.89710871
305.436388035
306.962074231
308.471225185
309.960876554
311.428041498
312.869714986
314.28288364
315.664541678
317.01171319
318.321480186
319.591014926
320.817613821
321.998728901
323.131991915
324.215225405
325.246436852
326.223792525
327.145577541
328.010150471
328.815922541
329.561394378
330.245301573
330.866836501
331.426026588
331.923065153
332.358750634
332.736105676
333.060258176
333.333717994
333.562154141
333.753751059
333.910483563
334.034647702
334.130646629
334.204111502
334.260366915
334.303743932
334.337616002
334.364564304
334.386480724
334.404491263
334.418758849
334.428643846
334.434527227
334.438869824
334.443304719
334.447608649
334.451367
334.455005373
334.45862452
334.462184427
334.465494727
334.468492735
334.471174225
334.473445555
334.475316146
334.476852078
334.478042654
334.478898731
334.47953856
334.479933339
334.480132453
266.039035845
266.138449091
266.33902244
266.641465571
267.043353176
267.54185616
268.133595355
268.814747418
269.581144413
270.428370866
271.351852639
272.346934765
273.408946576
274.533253771
275.715297977
276.950625077
278.234903924
279.563937194
280.933666048
282.340170155
283.779664288
285.248492556
286.743120981
288.260128996
289.796200172
291.34811244
292.912727846
294.486981906
296.067872508
297.652448338
299.237796713
300.821031094
302.399278259
303.969665345
305.529307156
307.075294484
308.604684216
310.114492245
311.601690463
313.063209149
314.49594619
315.896784269
317.262616783
318.590382284
319.877105993
321.119945012
322.316231925
323.463509034
324.559544698
325.602321471
326.589991653
327.520796206
328.392964395
329.204624433
329.953797254
330.638600692
331.257614523
331.811100652
332.298444195
332.718659839
333.075708291
333.37892974
333.626620823
333.826375468
333.995190027
334.129234114
334.228139866
334.297353295
334.344916975
334.377776638
334.400804621
334.417444378
334.430204845
334.440968596
334.45070728
334.458702104
334.461859274
334.45940817
334.456863595
334.457449128
334.459154
334.460177423
334.461736385
334.463787815
334.465973199
334.468363652
334.470735766
334.473042178
334.475121614
334.476964773
334.478512331
334.4797913
334.480773374
334.481468735
334.48194274
334.482173595
265.285739682
265.389525978
265.598836591
265.914249404
266.333001593
266.851860045
267.466988901
268.174081113
268.968481618
269.845304752
270.799539093
271.826136465
272.920083629
274.076456823
275.290460572
276.557452877
277.872959302
279.232678406
280.632480826
282.068403891
283.536643349
285.033543285
286.555585079
288.099375866
289.661636826
291.239191356
292.828953176
294.427914192
296.033132022
297.64171697
299.250818196
300.857609283
302.459273042
304.052985639
305.635900515
307.205132814
308.757745266
310.29073676
311.801035253
313.285496912
314.740913558
316.164030492
317.551576279
318.900305215
320.207051296
321.468790255
322.682702523
323.846226699
324.957088871
326.013292591
327.013051771
327.954659083
328.836288233
329.655773355
330.410454299
331.097433748
331.714010693
332.262236645
332.740143476
333.14093526
333.470660664
333.751986982
333.966320886
334.123933594
334.270784198
334.381389699
334.449891881
334.484961649
334.500382651
334.505349813
334.504725781
334.501509477
334.498199142
334.496873776
334.499045425
334.503115894
334.499936786
334.484829894
334.47237851
334.470365287
334.470929754
334.468624291
334.468017425
334.468686717
334.469353064
334.470953754
334.472780437
334.474882131
334.476918277
334.478792587
334.480473065
334.481904357
334.483055598
334.483857463
334.484446659
334.484718727
264.424127588
264.533149548
264.752909721
265.083806242
265.522643184
266.065671057
266.708475465
267.446142903
268.273414927
269.184831439
270.174854972
271.237972407
272.368773108
273.56200465
274.812608779
276.115741074
277.466777935
278.86131438
280.295155596
281.764304668
283.264948227
284.793441304
286.34629211
287.920147205
289.511777181
291.118062856
292.73598176
294.362594722
295.99503214
297.630479682
299.266162849
300.899330593
302.527237521
304.147124741
305.756199692
307.351615752
308.930452596
310.489698832
312.026238957
313.536847177
315.018191159
316.466848934
317.879342096
319.252187415
320.581967125
321.865414611
323.099507564
324.281554043
325.409251662
326.480691861
327.494282403
328.448553577
329.341825298
330.171735249
330.934691511
331.626025206
332.239365704
332.784095875
333.257175474
333.631926987
333.918984773
334.186571829
334.357757723
334.446605252
334.607566475
334.705789164
334.734509498
334.71682088
334.680855831
334.644035004
334.612540739
334.586389575
334.564978506
334.550267747
334.547410827
334.556463097
334.548798794
334.509131099
334.479700175
334.480594173
334.484312543
334.476047925
334.473074016
334.473274784
334.47186647
334.4730704
334.474399314
334.476570664
334.478708417
334.48077037
334.482719576
334.484422066
334.485778653
334.486774872
334.487492644
334.487830866
263.44875509
263.564025547
263.79623946
264.145549797
264.608202303
265.179785994
265.855152733
266.628629227
267.494211763
268.445742178
269.477055408
270.582095022
271.754996761
272.990142912
274.282192109
275.626089856
277.01706505
278.450617153
279.92249786
281.428690107
282.965386442
284.528967968
286.11598455
287.723136486
289.34725765
290.985299812
292.634317834
294.291455226
295.953929574
297.619017228
299.284036577
300.946329765
302.603242289
304.25210015
305.890184981
307.514707726
309.122781974
310.711398602
312.277404228
313.817486762
315.328172249
316.805837944
318.246746906
319.647108885
321.003170274
322.311331868
323.568286167
324.771157226
325.91761423
327.005921039
328.03487488
329.003573392
329.910923795
330.754791105
331.530505452
332.23040163
332.835235904
333.379423159
333.866850394
334.203963654
334.423735063
334.766691515
334.872921726
334.672147799
334.598192493
334.645930253
334.687165288
334.693032754
334.678273566
334.656783916
334.636182363
334.620469038
334.611834224
334.613484167
334.629657747
334.653058164
334.636633483
334.526488597
334.452084449
334.483126493
334.504385197
334.480792266
334.475479408
334.478517108
334.472452439
334.474555988
334.47519056
334.478045475
334.480488097
334.482896179
334.485258616
334.48734763
334.489035726
334.490295637
334.49115738
334.491582737
262.353127854
262.475854651
262.722905556
263.094096438
263.584949021
264.190200402
264.903768754
265.71902756
266.629053547
267.626843605
268.705489513
269.858307457
271.078924315
272.361326296
273.6998774
275.089315672
276.524734601
278.001555906
279.515498387
281.062546253
282.638918886
284.241043239
285.865529148
287.509147588
289.168811437
290.841558347
292.524535032
294.214982394
295.9102206
297.607633391
299.304650469
300.998727728
302.687324271
304.367875718
306.037763966
307.694283872
309.334607792
310.955749772
312.554532207
314.127558948
315.671200413
317.181597689
318.654694073
320.086302754
321.472218319
322.808374912
324.09104582
325.317064453
326.484031743
327.590458049
328.635777849
329.620163328
330.543974653
331.40657386
332.203041206
332.92294992
333.499497001
334.054357869
334.690824443
334.940694073
334.663404854
334.680213189
334.767986406
334.745417969
334.696941352
334.691270922
334.696870897
334.689644993
334.672257832
334.651613608
334.633068357
334.619174488
334.610147227
334.606120326
334.606126697
334.603226176
334.581504989
334.552559167
334.55360834
334.592816968
334.593205874
334.47259014
334.463368651
334.487086372
334.467712405
334.475969343
334.474350422
334.479492784
334.482260779
334.485103727
334.488114996
334.490750548
334.492883628
334.494476757
334.49549685
334.496015443
261.12950069
261.26114802
261.525914069
261.923149017
262.447427058
263.092380579
263.85073349
264.714660105
265.676102638
266.727038869
267.859687526
269.06665008
270.340994519
271.676291016
273.066611317
274.506503426
275.990951777
277.515330829
279.075357822
280.667048227
282.286675838
283.930738123
285.59592675
287.279102667
288.977275049
290.687583232
292.407280856
294.133721246
295.864343064
297.596654993
299.32821812
301.056625211
302.779475611
304.494344629
306.198747561
307.890098256
309.565663078
311.222511808
312.857468449
314.467066395
316.047514807
317.594685595
319.104133322
320.571162882
321.990959985
323.35879678
324.670312789
325.921853869
327.110824508
328.235980626
329.297614878
330.297575147
331.238995292
332.125368504
332.955830448
333.732047704
334.208404299
334.693025327
334.725737355
334.804150037
334.797279577
334.751502622
334.761673347
334.740661656
334.707268481
334.693217488
334.686596348
334.674384446
334.656549179
334.63794882
334.62235258
334.610474648
334.602235076
334.596904464
334.592710633
334.586050636
334.572137845
334.557138097
334.554047674
334.562208263
334.552103904
334.547044168
334.572956175
334.551145526
334.439567567
334.478670921
334.468948456
334.481859191
334.484013804
334.48725063
334.491333987
334.494753797
334.497410224
334.499386784
334.500571406
334.501196074
259.768614299
259.910985797
260.196998684
260.625353396
261.189371615
261.881240821
262.692147911
263.612753293
264.6335992
265.745439196
266.939476125
268.207511134
269.542015442
270.936141651
272.383692646
273.879064741
275.417178626
276.993408102
278.603513012
280.243579904
281.909971634
283.599285808
285.308320963
287.034049275
288.773594418
290.524213484
292.283281821
294.048279792
295.816780057
297.58643396
299.354954989
301.120098211
302.879633698
304.631312419
306.372824279
308.101747843
309.815491966
311.511230497
313.185832561
314.835792979
316.457170444
318.04554511
319.596012541
321.103236686
322.561589352
323.965402985
325.309353376
326.588961133
327.801149372
328.944757215
330.020967137
331.033770518
331.990822915
332.906756244
333.815804107
334.90078614
334.718633895
334.701399362
334.772076419
334.795861413
334.787009967
334.757007243
334.744715521
334.720718002
334.692098857
334.672893705
334.658825905
334.643356951
334.625776074
334.609698897
334.597306318
334.587977459
334.581561774
334.577273689
334.573595845
334.56856806
334.560575594
334.552344421
334.549612846
334.551230055
334.546707732
334.543871612
334.547194311
334.539793066
334.550875529
334.545779685
334.445544212
334.487645815
334.484941248
334.488779517
334.495047908
334.499551425
334.502815302
334.505114216
334.506494626
334.507223499
258.25934667
258.414702225
258.726365494
259.192122313
259.803618342
260.551133165
261.423861645
262.410545716
263.500000408
264.681516672
265.945130301
267.281767236
268.683287272
270.142453417
271.652854023
273.208800878
274.805220997
276.437553911
278.101661193
279.793750864
281.510316646
283.248090313
285.004004859
286.77516603
288.558830332
290.352387952
292.15334949
293.959335302
295.76806604
297.577352333
299.385081131
301.189196735
302.987674047
304.778481654
306.559534295
308.328633339
310.083394919
311.821165756
313.53892823
315.233198226
316.899923229
318.534393493
320.131187589
321.684184551
323.186686654
324.63170696
326.01246878
327.323121591
328.559598868
329.720352322
330.806836603
331.823680101
332.778884499
333.688642487
334.605657095
334.788425686
334.857451303
334.78334864
334.784256257
334.782726767
334.761745963
334.732157447
334.707447085
334.679054544
334.649921775
334.626478772
334.607733036
334.590439062
334.574434187
334.561965057
334.553174734
334.547199651
334.543834035
334.542349524
334.541582704
334.540405381
334.538322478
334.536735697
334.537825726
334.540542705
334.540416898
334.538960414
334.539596817
334.536749869
334.538340149
334.531252848
334.540588041
334.542901209
334.483207159
334.488510855
334.499968568
334.505657434
334.509301903
334.51181439
334.513408017
334.514186172
256.588246106
256.759466608
257.102363727
257.613419541
258.282007633
259.095861752
260.041576171
261.105453047
262.274179309
263.535312562
264.877572191
266.290960194
267.766750526
269.297390158
270.876351469
272.497967724
274.157273682
275.849864589
277.571779333
279.319408512
281.089424772
282.878731395
284.684424646
286.503766176
288.334162611
290.17315077
292.018387412
293.867642776
295.718796209
297.569831589
299.418828839
301.263948832
303.103408148
304.935440771
306.758245795
308.569919233
310.368368302
312.151206846
313.915631175
315.658277701
317.37506743
319.061049073
320.710263931
322.315673402
323.869215511
325.362086138
326.785352977
328.130982697
329.393207116
330.569596504
331.661574778
332.674686212
333.623329737
334.558273929
334.690267535
334.770974886
334.809680488
334.777704987
334.760357662
334.74130394
334.710535932
334.674396442
334.640138702
334.606566129
334.575268932
334.549306721
334.528658501
334.511627957
334.4989922
334.491328658
334.48694758
334.485510347
334.486757816
334.4899699
334.49421823
334.498736652
334.503255653
334.508317954
334.514512626
334.521010756
334.525833853
334.529395432
334.532970233
334.533990279
334.534620743
334.533559175
334.539405199
334.547192615
334.53342524
334.480582782
334.506629316
334.513561022
334.517044753
334.519591979
334.52131152
334.522111144
254.738896449
254.929723382
255.311057561
255.877498023
256.615293017
257.508742044
258.541019653
259.695316895
260.955707413
262.307719948
263.738629525
265.237516855
266.795161638
268.403836456
270.05705811
271.7493382
273.475959155
275.232788614
277.016135226
278.822642568
280.649214509
282.492964182
284.351179316
286.22129817
288.10089255
289.987656295
291.879399165
293.774046037
295.669640235
297.564347713
299.456457289
301.344372294
303.226589351
305.10166042
306.968137467
308.824497034
310.669042127
312.499777529
314.314254842
316.109384122
317.881212197
319.624673314
321.333331331
322.999156233
324.61242271
326.161881866
327.635443097
329.021621787
330.311901855
331.50230516
332.594428584
333.601226091
334.576647993
334.687048178
334.730195121
334.766042418
334.772311235
334.741876093
334.706602738
334.668174375
334.624620383
334.579592357
334.53751788
334.499340415
334.466199591
334.439599457
334.419638504
334.405465592
334.397656544
334.395369738
334.396635247
334.401193237
334.408682059
334.418372747
334.429444572
334.441226901
334.453357287
334.465822031
334.478543956
334.490848697
334.501718945
334.511133951
334.519325759
334.525267765
334.529662847
334.532005005
334.533789768
334.534920987
334.525607679
334.5317578
334.531644813
334.526865908
334.526493531
334.528427974
334.530184315
334.530988195
252.691040635
252.906429513
253.335666472
253.97058621
254.793071839
255.78273829
256.918233539
258.178776923
259.545254112
261.000864823
262.531368235
264.125018134
265.772295476
267.46553928
269.198555224
270.966254761
272.764352993
274.589134774
276.43728584
278.30577889
280.191801412
282.09271219
284.006015148
285.929342519
287.860442834
289.797173177
291.73749732
293.679492115
295.621361469
297.561453961
299.498276533
301.430497134
303.35693029
305.276501816
307.188192413
309.090958015
310.983622708
312.864737759
314.732398254
316.584008281
318.415985719
320.223399458
321.999541835
323.735464542
325.419563163
327.037423528
328.572352859
330.007278529
331.329212241
332.532071202
333.624254757
334.662182584
334.746453806
334.747970242
334.74682797
334.741705896
334.715020825
334.666603171
334.611751839
334.555576872
334.499437527
334.445969239
334.398010412
334.356828862
334.323257218
334.297984339
334.280937265
334.271946691
334.270467972
334.274311271
334.282303864
334.294131785
334.309253523
334.326890181
334.346230643
334.36657164
334.387390522
334.408327416
334.42898517
334.448733358
334.466862468
334.483099114
334.49732034
334.509058392
334.518499231
334.525376878
334.530094922
334.53291159
334.531179277
334.53475663
334.541256193
334.537507361
334.533975985
334.537248549
334.53984613
334.540758663
250.419347804
250.66600553
251.155829627
251.87652305
252.803772529
253.910734191
255.170032346
256.55582299
258.045147989
259.618615836
261.260514891
262.95852076
264.703169956
266.487249378
268.305209091
270.152660665
272.025986353
273.922058958
275.838057749
277.771359194
279.719480075
281.680052495
283.65081433
285.629603918
287.614354086
289.603086631
291.593913177
293.585049249
295.574843115
297.561813369
299.544683765
301.522402178
303.494136201
305.459242315
307.417210461
309.367584161
311.309851191
313.243294312
315.166788507
317.07852825
318.975663906
320.853819628
322.70646298
324.524097162
326.293312087
327.995880873
329.608473985
331.104368425
332.463769432
333.68509297
334.826056804
334.88194636
334.829038441
334.778913622
334.734372631
334.683816163
334.621316289
334.548805758
334.474375888
334.402628112
334.335717592
334.275619692
334.224100579
334.182093557
334.150059032
334.128207672
334.116344736
334.113983182
334.119358446
334.1301675
334.145840914
334.165930288
334.189719885
334.216362738
334.245006057
334.274866887
334.30526934
334.335627068
334.365352738
334.393790007
334.420297649
334.444457206
334.465976972
334.484515362
334.50003739
334.512439786
334.521942173
334.528772126
334.532160137
334.535100925
334.538041371
334.535838334
334.535546262
334.54572521
334.550779387
334.551577095
247.891643149
248.178865902
248.746637897
249.576354804
250.634762724
251.886026564
253.294730208
254.828608761
256.460160188
258.167258893
259.932983289
261.744929443
263.594279826
265.474844645
267.382215088
269.313093585
271.264812364
273.235020297
275.221503718
277.22210367
279.234694342
281.257192871
283.287577323
285.32389802
287.364276571
289.406897587
291.450006212
293.491928946
295.531122717
297.566243827
299.59621518
301.620269662
303.637958441
305.649124194
307.653846851
309.652368842
311.644993395
313.631940725
315.61314248
317.587952014
319.554739394
321.510319698
323.449126834
325.36202074
327.234565685
329.044689621
330.759727406
332.335408471
333.750445736
335.061592871
335.098642364
334.980076287
334.869586648
334.773542216
334.679202045
334.583436547
334.486063732
334.389101688
334.296929629
334.212704867
334.138110744
334.074284648
334.022033915
333.981699485
333.953308515
333.93675985
333.931729007
333.936661434
333.948978326
333.96732891
333.991258748
334.020129498
334.053102332
334.089270886
334.127727788
334.167606928
334.208107026
334.248484659
334.288018223
334.325989589
334.361731662
334.394719116
334.424542461
334.450848492
334.473474577
334.492325857
334.507509582
334.519238942
334.527426908
334.533304479
334.537275634
334.537525151
334.535016016
334.560532814
334.56695076
334.564032954
245.066304449
245.40733221
246.077364869
247.047939301
248.272694922
249.703187958
251.293275674
253.002641956
254.798588193
256.656376985
258.558513523
260.493405327
262.453813363
264.435405359
266.435580933
268.452618393
270.485119564
272.531695704
274.590829722
276.660854503
278.73999629
280.826442054
282.918399845
285.014132014
287.111955019
289.210215827
291.307271511
293.401511972
295.491437515
297.575778977
299.653617092
301.724461442
303.788272381
305.845431915
307.896685935
309.94308012
311.985880712
314.026455338
316.066088262
318.105707439
320.145491834
322.184288118
324.218720095
326.241723343
328.240055262
330.189789231
332.047274283
333.743361081
335.324627993
335.375659056
335.193068431
335.018575915
334.864855766
334.716807372
334.573326494
334.43686844
334.308900992
334.19097048
334.085204076
333.9930443
333.915019264
333.851186501
333.801383209
333.765276129
333.742471932
333.73270277
333.735062433
333.747120047
333.766382373
333.792359547
333.824519613
333.862062965
333.904083366
333.949640303
333.997787161
334.047596771
334.0981781
334.148677575
334.198269663
334.246158975
334.291611457
334.334001536
334.372813918
334.407630458
334.438185301
334.464327407
334.486068857
334.503564171
334.51694281
334.526869534
334.533857119
334.538428216
334.54152995
334.538316592
334.594123337
334.575706773
241.888325909
242.302619077
243.109830764
244.265671142
245.704299888
247.35953306
249.171005891
251.088511092
253.073738052
255.09997453
257.150416711
259.215775148
261.291803973
263.377193217
265.472007999
267.576668194
269.691371569
271.815841118
273.949287854
276.090501044
278.237997526
280.390177559
282.545447012
284.702278671
286.859202544
289.014741921
291.167340973
293.31537783
295.457283136
297.591750215
299.717941595
301.835620601
303.945182075
306.047601709
308.144356734
310.237379603
312.329023411
314.421992797
316.51920484
318.623569123
320.73767759
322.86335876
325.000968626
327.148137904
329.297261294
331.43086545
333.515216126
335.505644764
335.640495984
335.425821919
335.204741297
335.000848705
334.798309849
334.600343214
334.414328319
334.244685249
334.09337682
333.961157541
333.848214643
333.754093453
333.677812225
333.618195217
333.5741126
333.544585866
333.528912164
333.52687718
333.536264483
333.554358958
333.580190829
333.613320037
333.653021479
333.69843133
333.748645676
333.802733394
333.85974677
333.918736305
333.978761762
334.038897752
334.098237743
334.15590604
334.211083773
334.263041563