/*--------------------------------*- C++ -*----------------------------------*\
| =========                 |                                                 |
| \\      /  F ield         | OpenFOAM: The Open Source CFD Toolbox           |
|  \\    /   O peration     | Version:  v1906                                 |
|   \\  /    A nd           | Web:      www.OpenFOAM.com                      |
|    \\/     M anipulation  |                                                 |
\*---------------------------------------------------------------------------*/
FoamFile
{
    version     2.0;
    format      ascii;
    class       volScalarField;
    location    "550";
    object      pa;
}
// * * * * * * * * * * * * * * * * * * * * * * * * * * * * * * * * * * * * * //

dimensions      [0 2 -2 0 0 0 0];


internalField   nonuniform List<scalar> 
9216
(
915.904363875
915.598674193
914.966277036
914.001678204
912.710285178
911.098160167
909.172844779
906.94325079
904.419507726
901.612852145
898.535470584
895.200388135
891.621304483
887.81248815
883.78861467
879.564674808
875.155822373
870.577302165
865.844312041
860.971953303
855.975108775
850.868415745
845.666159594
840.382267548
835.030216024
829.623042546
824.173264509
818.692906435
813.193427963
807.685763911
802.180259378
796.686722333
791.214364724
785.771860069
780.367290868
775.00821651
769.701623152
764.453996755
759.271276112
754.158930547
749.121915052
744.164751451
739.291484949
734.505767687
729.810816071
725.209495768
720.704279266
716.297331393
711.9904666
707.785234178
703.68287482
699.684404788
695.79057136
692.001935316
688.318825042
684.741416795
681.269687344
677.903491681
674.642514261
671.486343945
668.434424067
665.486124552
662.640691222
659.897315124
657.255081577
654.713036838
652.270137491
649.925314577
647.677423933
645.525307884
643.467747169
641.503520189
639.631357082
637.84999644
636.158142063
634.554516914
633.037822977
631.606792139
630.260149528
628.996660876
627.815099638
626.714290335
625.693079699
624.750375412
623.885121438
623.096331491
622.383068507
621.744471833
621.179739881
620.688148157
620.269028998
619.921766587
619.645736213
619.44012722
619.30175067
619.245569167
916.209063418
915.901645302
915.267601261
914.298645101
913.001047214
911.381152533
909.44667359
907.206662749
904.671393942
901.852244002
898.761549215
895.412476705
891.818874449
887.995145579
883.956103381
879.716857903
875.292683729
870.698924848
865.950879659
861.063726843
856.052429064
850.931679875
845.715825272
840.418829803
835.054213792
829.635035927
824.173843538
818.682668919
813.172990269
807.655739419
802.141271758
796.639382149
791.159282323
785.709626913
780.29849519
774.933421979
769.621385085
764.368841644
759.181718951
754.06545466
749.024990274
744.064814206
739.188957117
734.40103692
729.704255239
725.101443508
720.595059887
716.187235668
711.879772029
707.67418603
703.57170664
699.573319673
695.679762617
691.89156796
688.209056458
684.632378437
681.161505298
677.796268526
674.536349395
671.381315596
668.330609261
665.383581283
662.539477935
659.797473064
657.156653705
654.616050411
652.174622321
649.831285921
647.584900039
645.4342933
643.378249504
641.415533971
639.544879689
637.765012651
636.074639085
634.472469784
632.957208624
631.527575789
630.182297714
628.920129005
627.73984387
626.640256457
625.620213781
624.678614164
623.814401585
623.026581869
622.314218349
621.676445396
621.112465285
620.62155913
620.203086701
619.856501988
619.581379666
619.37753149
619.245425331
619.189342113
916.842928106
916.530780143
915.890975589
914.913317127
913.604174963
911.970029689
910.018789102
907.759724397
905.203348447
902.361285849
899.246130018
895.871303088
892.250908078
888.399591608
884.332403269
880.06467105
875.611875899
870.98954592
866.213150449
861.298015608
856.259238995
851.111626313
845.869625356
840.547281486
835.158188242
829.71545864
824.231689424
818.718945294
813.188734233
807.652002331
802.119118254
796.599876428
791.103489442
785.638598819
780.213272939
774.835023718
769.510809671
764.247057319
759.049668051
753.924043075
748.875093141
743.907266085
739.02455856
734.230545309
729.528392134
724.920886117
720.410449119
715.999168206
711.688809008
707.480845666
703.376473444
699.37663757
695.482044568
691.693189473
688.01036547
684.433689099
680.963107934
677.59842356
674.339297211
671.185270477
668.135768984
665.190120962
662.347559218
659.607237821
656.968232726
654.429556917
651.990160125
649.648942798
647.404755324
645.256411204
643.202686182
641.242330881
639.374070167
637.596615456
635.908664524
634.30891357
632.796057598
631.368802221
630.025864649
628.765985132
627.587928493
626.490495048
625.472522592
624.532896569
623.670552379
622.884484598
622.173749511
621.537473302
620.974855064
620.485174754
620.067799043
619.722194732
619.447949238
619.244827702
619.113058684
619.051072424
917.817394155
917.499800658
916.850994777
915.859741674
914.532606859
912.876302002
910.899029471
908.610397366
906.021287144
903.143710942
899.990661263
896.575959887
892.914104808
889.020123602
884.909430119
880.597692553
876.100708035
871.434291459
866.614172077
861.655905334
856.574792064
851.385812449
846.103565781
840.742223632
835.315486777
829.836553968
824.318092545
818.772219613
813.210483593
807.643855468
802.082719317
796.536871934
791.015521318
785.527292384
780.080231615
774.681819386
769.338979171
764.058094272
758.845020879
753.705108192
748.643214334
743.66372893
738.770591015
733.967313248
729.257001057
724.642377718
720.125804022
715.709303504
711.394581932
707.183052013
703.075852058
699.073869528
695.177758312
691.387960583
687.704722231
684.128112639
680.658037989
677.294258741
674.036400704
670.883970207
667.836363029
664.892877421
662.052721145
659.315022665
656.678836682
654.143153884
651.706905417
649.368971635
647.128185952
644.983342996
642.93320223
640.976495846
639.111932469
637.338205011
635.653994658
634.05797881
632.548835422
631.125251052
629.785925546
628.529580096
627.354962192
626.260853537
625.246075115
624.309494792
623.450032344
622.66666658
621.958440248
621.324466689
620.763934846
620.276116067
619.860370625
619.516156573
619.243040448
619.040715395
618.909256858
618.84607284
919.13649455
918.811897352
918.150787701
917.14091715
915.78915032
914.102535829
912.089685608
909.76067413
907.126891415
904.200884915
900.996196453
897.527198063
893.808929019
889.856939027
885.687138383
881.315659112
876.758726501
872.03254415
867.153190666
862.136530345
856.998134913
851.753218096
846.416579346
841.002558335
835.524996244
829.997205686
824.431945397
818.84140198
813.23717506
807.63026854
802.031084408
796.449422154
790.894480557
785.374862109
779.898581248
774.473075982
769.105220032
763.801338746
758.567224999
753.408158347
748.328923689
743.333832763
738.426744736
733.611089253
728.88988821
724.265779622
719.741039869
715.317607671
710.997106094
706.780865944
702.669946866
698.665159486
694.767084997
690.976095493
687.292371547
683.715920326
680.24659084
676.88408962
673.627993537
670.477763035
667.432752624
664.492221874
661.655343873
658.921214336
656.288858456
653.7572386
651.325260028
648.991777663
646.755601177
644.615501282
642.5702146
640.618449848
638.75889281
636.99021266
635.311067235
633.720109624
632.215993805
630.797381507
629.462948183
628.211390042
627.041430242
625.95182594
624.941374525
624.008920505
623.1533616
622.373655303
621.668824714
621.037964719
620.480247633
619.994929135
619.581353996
619.23896171
618.967290487
618.765981574
618.635044179
618.571710549
920.806876565
920.473418928
919.796550242
918.762795393
917.37942877
915.653953222
913.595521261
911.214818476
908.52389812
905.536003882
902.265389473
898.727138218
894.936986374
890.911154148
886.666186583
882.218806998
877.585783753
872.783811868
867.829409003
862.738826295
857.527972478
852.212350985
846.807007777
841.326489266
835.784807978
830.195415582
824.571181295
818.924375883
813.266659725
807.609075612
801.962044999
796.335368634
790.738230763
785.179203789
779.666259322
774.206780505
768.807576161
763.474897404
758.214455364
753.031440876
747.930544816
742.915979996
737.991503336
733.160439218
728.425702781
723.789824048
719.254971631
714.822976919
710.495357489
706.273340631
702.157885752
698.149706543
694.249291708
690.45692517
686.772704586
683.196559129
679.728265457
676.367462828
673.113666407
669.966279738
666.924605517
663.987855663
661.155159895
658.425573839
655.798085891
653.271623891
650.845060839
648.517220682
646.286883437
644.152790598
642.113650127
640.16814189
638.314922851
636.552632809
634.879899985
633.29534719
631.797597856
630.385282628
629.057045783
627.811552122
626.647493633
625.5635965
624.55862781
623.63140246
622.7807897
622.005719742
621.305189957
620.678271043
620.124112729
619.641949349
619.23110481
618.890996273
618.621136417
618.421135664
618.290975305
618.227916306
922.83697932
922.492603428
921.796280863
920.733028571
919.310647935
917.537225712
915.42260339
912.978241002
910.217028249
907.153083306
903.80155026
900.178398579
896.300229106
892.184090389
887.847307992
883.307329025
878.581583054
873.68736027
868.641706755
863.461336454
858.162558503
852.761218505
847.272651613
841.711645628
836.092411976
830.428563196
824.733095493
819.018375866
813.296133104
807.577452745
801.872775751
796.191900922
790.543991109
784.93757931
779.380582253
773.880314124
768.443502604
763.076306863
757.78433694
752.572674583
747.445895055
742.408090022
737.462891064
732.61349394
727.862683153
723.212856931
718.666052161
714.223969385
709.88799737
705.659237373
701.538526583
697.526460891
693.623416488
689.829570452
686.1449199
682.569299889
679.102399729
675.74377794
672.492875612
669.349028455
666.311477363
663.379377857
660.551808274
657.827777098
655.206229352
652.686052453
650.266081441
647.945104004
645.721865178
643.595072104
641.56339873
639.625490747
637.77997065
636.025443147
634.360500781
632.783729922
631.293716984
629.889054979
628.568350236
627.330229364
626.173346291
625.096389412
624.098088709
623.177222837
622.33262606
621.563195036
620.867895334
620.245767664
619.695933746
619.217601602
618.810070268
618.472733265
618.205080208
618.006700111
617.877560579
617.815003253
925.237190393
924.879637906
924.159860946
923.061050898
921.591668518
919.760532817
917.578344963
915.057526378
912.211999825
909.056958163
905.608634238
901.884075795
897.900930441
893.677244536
889.231278781
884.58134256
879.745648198
874.742185723
869.588617859
864.30219437
858.899684034
853.39732208
847.810770359
842.155087605
836.444707159
830.693420238
824.914363272
819.120008732
813.322159137
807.531944398
801.759823306
796.015587256
790.308368901
784.646650847
779.038281109
773.490489059
768.00990349
762.602572392
757.273984073
752.0290895
746.872325595
741.807639445
736.838513162
731.967989376
727.198697088
722.532877834
717.972411884
713.518844376
709.173411106
704.937063843
700.810494878
696.794160684
692.888304409
689.092977111
685.4080575
681.833270163
678.368202115
675.012317727
671.764971965
668.625422063
665.592837666
662.666309629
659.844857553
657.127436313
654.512941687
652.000215354
649.588049367
647.275190374
645.060343666
642.942177279
640.919326196
638.990396832
637.1539718
635.408615075
633.752877519
632.185302834
630.704433859
629.308819254
627.99702043
626.767618779
625.619223003
624.550476615
623.560065391
622.646724831
621.809247426
621.046489793
620.357379458
619.740921356
619.196203793
618.722403937
618.318792532
617.984737196
617.719705149
617.52326807
617.395380409
617.333480131
928.020025553
927.646804416
926.899191821
925.758202466
924.233112174
922.333646799
920.071567163
917.46047323
914.515546833
911.253282984
907.691226021
903.847715032
899.741643942
895.392240125
890.81886424
886.040833142
881.077266936
875.946960542
870.668279313
865.259077367
859.736636385
854.117621775
848.418052587
842.653281396
836.837980744
830.986133556
825.111025978
819.225242148
813.34066115
807.468456668
801.619101054
795.802370921
790.027358004
784.302480948
778.635503212
773.033551504
767.503136179
762.050173095
756.680006662
751.397433885
746.206729288
741.111670601
736.115565102
731.221276503
726.431252241
721.74755102
717.171870439
712.705574496
708.349720764
704.105087013
699.972197025
695.951345386
692.042621003
688.245929168
684.561011975
680.987466969
677.524763941
674.172259835
670.929211787
667.794788367
664.768079135
661.848102677
659.033813289
656.324106542
653.717823934
651.213756859
648.810650132
646.507205258
644.302083655
642.193909999
640.181275812
638.262743433
636.436850422
634.702114467
633.057038803
631.500118143
630.029845091
628.644716987
627.343243143
626.123952353
624.985400654
623.926179179
622.944922092
622.040314429
621.211099847
620.456088098
619.774162244
619.164285416
618.625507154
618.156968999
617.75790952
617.427668333
617.165688841
616.971524012
616.845113939
616.784001657
931.200338312
930.808671731
930.028370796
928.837884271
927.24749087
925.26803333
922.912570333
920.196136054
917.13543411
913.748522538
910.054509187
906.073262348
901.825142062
897.330755697
892.610740148
887.685572215
882.575408076
877.299952115
871.878354461
866.329135553
860.670134724
854.918478663
849.090564686
843.202053574
837.267867244
831.30218787
825.318456743
819.329372856
813.346892243
807.382229482
801.445863929
795.54754773
789.696318148
783.900513853
778.167795426
772.505166756
766.918998102
761.415050336
755.998500062
750.673965544
745.445533329
740.31678556
735.290827885
730.370317902
725.557494015
720.854204556
716.26193701
711.781847129
707.414787702
703.161336739
699.021824773
694.996361017
691.084858105
687.287055166
683.602539028
680.0307634
676.571065915
673.222683028
669.984762759
666.856375412
663.836522374
660.924143216
658.118121305
655.417288199
652.820427074
650.326275475
647.933527644
645.640836676
643.446816734
641.350045504
639.349067052
637.442395213
635.628517567
633.905900092
632.272992451
630.728233959
629.270060121
627.896909756
626.607232533
625.399496936
624.272198443
623.223867929
622.253080067
621.358461744
620.538700267
619.792551386
619.118846899
618.516501901
617.984521397
617.522006411
617.128159321
616.80228796
616.543809588
616.352257337
616.227552067
616.167350704
934.795574563
934.382333796
933.563908364
932.315746429
930.649360666
928.576967921
926.11321267
923.27486786
920.080467059
916.549932606
912.70422251
908.565000856
904.154336662
899.494433958
894.607394734
889.515015844
884.238620669
878.798925826
873.215942372
867.508909506
861.696257046
855.795591047
849.823695537
843.796542835
837.729305774
831.636367207
825.531325058
819.426993778
813.335404783
807.267808662
801.234682888
795.245742678
789.309954273
783.435557318
777.630088296
771.900405447
766.252714926
760.692597643
755.225036629
749.854444885
744.58469379
739.41914208
734.360665426
729.411686543
724.574205758
719.849831888
715.239813264
710.745068689
706.366218063
702.103612392
697.957362857
693.927368609
690.013342968
686.214837717
682.531265252
678.961918386
675.505987689
672.162576336
668.930712484
665.809359305
662.797422855
659.893758007
657.097172743
654.406431105
651.820255133
649.337326128
646.956285543
644.675735802
642.49424131
640.410329869
638.422494677
636.529197055
634.728869955
633.019922324
631.400744308
629.869713255
628.425200492
627.065578736
625.789230108
624.594554561
623.479978676
622.44396462
621.48501923
620.601702993
619.792638928
619.056521124
618.392122963
617.798304794
617.274021129
616.818327013
616.430383861
616.109464403
615.854956358
615.666369051
615.543601923
615.48443487
938.826086737
938.38770514
937.52499522
936.209916189
934.455504018
932.275669721
929.686996157
926.708361437
923.360493075
919.665527156
915.646598645
911.327466533
906.732177271
901.884767573
896.809006913
891.528180178
886.064911239
880.441028208
874.677470295
868.794234414
862.810357013
856.743923691
850.612096599
844.431148694
838.216494915
831.982713899
825.743558501
819.511957876
813.300016305
807.119014164
800.979415858
794.890883961
788.862293538
782.901762518
777.016678602
771.213728499
765.498927608
759.877649675
754.354656411
748.934127263
743.619689546
738.414449113
733.321021627
728.341564446
723.477809018
718.731093701
714.102396801
709.592369623
705.201369246
700.92949068
696.776598027
692.742354239
688.826249067
685.027624834
681.345699712
677.779588269
674.32831915
670.99084983
667.766078518
664.652853327
661.649978973
658.756221265
655.970309768
653.290938985
650.716768488
648.246422368
645.878488406
643.611517289
641.4440222
639.374479016
637.401327323
635.522972387
633.73778816
632.044121357
630.440296584
628.924622479
627.495398748
626.150924045
624.889504486
623.709462751
622.609147531
621.586943271
620.641279943
619.770642837
618.973582097
618.248722015
617.594769826
617.010524054
616.494882126
616.046847424
615.665535498
615.350179041
615.100132717
614.914880009
614.794293808
614.736286665
943.315523649
942.84788589
941.933828926
940.541271971
938.685143138
936.381451944
933.649156484
930.50968442
926.986389062
923.104026101
918.888279605
914.365338254
909.561521917
904.502956617
899.215296034
893.723489128
888.051595008
882.222646944
876.258566912
870.180129603
864.006970973
857.757631448
851.449619555
845.099479434
838.722847183
832.334486496
825.948302328
819.577338846
813.233771695
806.928904428
800.673175463
794.476174169
788.346660142
782.292602283
776.321210657
770.438971045
764.651678607
758.964470409
753.381857163
747.907754701
742.545515687
737.297961894
732.167417191
727.15574125
722.264363917
717.494320131
712.846285207
708.32061027
703.917357512
699.636334874
695.477129709
691.439140892
687.521608896
683.723643344
680.044247652
676.482340467
673.036773723
669.706347259
666.489820092
663.385918516
660.393341321
657.510762512
654.736831948
652.070174382
649.509387369
647.053038547
644.699662727
642.447759216
640.295789721
638.242177142
636.285305452
634.423520844
632.655134181
630.978424812
629.391645681
627.893029662
626.480797014
625.153163784
623.908351037
622.744594707
621.660155925
620.653331594
619.722465114
618.865956993
618.082275294
617.369965666
616.727660949
616.154090116
615.648086624
615.208595814
614.834681694
614.525532805
614.28046652
614.098935818
613.980785205
613.924069125
948.291317188
947.789614325
946.816013415
945.333771044
943.360186537
940.913886497
938.016751467
934.693300981
930.970027389
926.874776207
922.436202155
917.683295781
912.644974665
907.349732014
901.825337482
896.098588742
890.195115935
884.139243449
877.953913428
871.660672343
865.279715937
858.829979817
852.329255001
845.794302949
839.240946005
832.684118397
826.137877489
819.615388455
813.128900968
806.689737371
800.308293438
793.994058655
787.755648103
781.600848
775.536656723
769.569325731
763.704397516
757.946740775
752.300583766
746.769547035
741.356676381
736.064476595
730.89494612
725.849612654
720.929569611
716.135513306
711.467780728
706.92638767
702.511066853
698.221305611
694.056382533
690.015402445
686.097329062
682.301014714
678.625226656
675.068669555
671.630003982
668.307860822
665.100851733
662.007575873
659.026623293
656.156575444
653.39600334
650.743463951
648.197495445
645.756611819
643.419297513
641.184002473
639.049138093
637.013074365
635.074138494
633.230615116
631.480748199
629.82274462
628.254779328
626.775002015
625.381545079
624.072532777
622.846091273
621.70035948
620.633500366
619.643712646
618.7292425
617.888395289
617.119546921
616.421154883
615.791768618
615.230039322
614.734728829
614.30471782
613.939013018
613.636753021
613.39721381
613.219815624
613.104369305
613.049080513
953.785295314
953.243831287
952.20104862
950.61483955
948.505509403
945.894977362
942.808738711
939.275069429
935.324209667
930.987635657
926.297444976
921.285838657
915.984683432
910.425138608
904.637337598
898.650121468
892.490828964
886.185152228
879.757068551
873.228854543
866.621180146
859.953266565
853.243077909
846.507506161
839.762509564
833.023179434
826.303737399
819.617489593
812.97677265
806.392924334
799.876277978
793.436190264
787.081092214
780.818545735
774.655297164
768.59732587
762.649886495
756.817545911
751.104217146
745.513192482
740.047177184
734.708324468
729.498271836
724.418178646
719.468764764
714.650350198
709.962895588
705.406043375
700.979159269
696.681373485
692.511621012
688.468680092
684.551208051
680.757773703
677.08688567
673.53701616
670.106619933
666.794148407
663.598059053
660.516820403
657.548913143
654.692827877
651.947060241
649.310104075
646.780443388
644.356543823
642.036844293
639.819749369
637.703622916
635.686783374
633.767500929
631.943996759
630.214444365
628.576972989
627.029672954
625.570602802
624.197797982
622.909280898
621.703072043
620.577201977
619.52972391
618.5587266
617.662347392
616.838785076
616.086312481
615.403288493
614.788169472
614.23951981
613.756021711
613.336483799
612.979848949
612.685201074
612.451769949
612.278937956
612.166480571
612.112763089
959.834462696
959.246390256
958.122932842
956.415834197
954.149265308
951.349331814
948.046027411
944.272199763
940.062553998
935.452810439
930.479028337
925.177058615
919.582091524
913.728271202
907.648360381
901.373451861
894.932735574
888.353338973
881.66026162
874.876420457
868.022808894
861.118751348
854.182209071
847.230072036
840.278367885
833.342343055
826.436422445
819.574101313
812.767834504
806.02897527
799.367768503
792.793391788
786.31403822
779.936992667
773.668701313
767.514829209
761.480305912
755.569362241
749.785562705
744.131837567
738.610516642
733.22336535
727.971622783
722.856041387
717.876927927
713.034185688
708.327357902
703.755672321
699.318086573
695.013333663
690.839966683
686.79640162
682.880957141
679.091890307
675.427427383
671.885789149
668.465210408
665.163953638
661.980317012
658.912637211
655.959287643
653.118672801
650.389219616
647.769366677
645.257552233
642.85220181
640.551716302
638.354461178
636.258757447
634.262874772
632.365027073
630.56337072
628.856005363
627.240977279
625.716285065
624.279887451
622.929712926
621.663670952
620.479664389
619.375602928
618.34941711
617.399072786
616.522585567
615.718035182
614.983579314
614.317466923
613.718050659
613.183798469
612.713304026
612.30529625
611.958647581
611.672380675
611.445674529
611.277871261
611.168705353
611.116710049
966.48200924
965.838960908
964.620907398
962.772584236
960.323220125
957.304309381
953.751479882
949.703147874
945.199316365
940.280628334
934.987656548
929.360358734
923.43763723
917.256957134
910.853997627
904.262333049
897.513160486
890.635105502
883.654145039
876.593682275
869.474789978
862.316604605
855.136807856
847.952088711
840.778462779
833.631362021
826.525509841
819.474691322
812.491541351
805.587434242
798.772482735
792.055615696
785.444713477
778.946715508
772.567710545
766.313003285
760.18716071
754.194044474
748.336838167
742.618076202
737.039677022
731.602980339
726.308787302
721.157402555
716.148677619
711.282055685
706.556618112
701.971132759
697.524103877
693.213822794
689.038418128
684.995904047
681.084225011
677.30129564
673.645034585
670.113391694
666.704368105
663.416029239
660.246511024
657.194019918
654.256827505
651.433260632
648.721688115
646.120505121
643.628116332
641.242918947
638.963286491
636.787554291
634.714007303
632.740870798
630.86630421
629.088398297
627.405175527
625.814593561
624.31455151
622.90289869
621.577445487
620.33597601
619.176262142
618.096078667
617.093219109
616.165511922
615.310836745
614.527140342
613.81245206
613.164898436
612.58271693
612.064268453
611.608048842
611.212698813
610.877012914
610.599947207
610.380624572
610.218341306
610.112789184
610.062676555
973.778635245
973.07019464
971.740382336
969.726018417
967.063086548
963.790112645
959.949824156
955.587412516
950.749120984
945.481234386
939.829394414
933.838115044
927.550398263
921.007380428
914.247973572
907.308500371
900.222352121
893.019723413
885.727491537
878.369307842
870.96594522
863.535894322
856.096121754
848.662814572
841.251884952
833.879054837
826.559551336
819.307644325
812.136260009
805.056797114
798.079154317
791.21190267
784.462500937
777.837453862
771.342425815
764.982313692
758.761287898
752.682812405
746.74966048
740.963937574
735.327113824
729.840063361
724.503107534
719.316059861
714.278271825
709.388680043
704.645855756
700.048057216
695.593284891
691.279338527
687.103874342
683.064460222
679.158626792
675.383912494
671.737901272
668.218251953
664.822718935
661.549164235
658.395561353
655.359991715
652.440634737
649.635752681
646.943671639
644.362759977
641.891405617
639.527993438
637.270883987
635.118394516
633.068783185
631.12023698
629.270863715
627.518688159
625.861652186
624.297618617
622.824378394
621.439660606
620.141144946
618.926476171
617.793280105
616.739180863
615.761818773
614.858868732
614.028058441
613.267186356
612.574138818
611.94690633
611.383598531
610.882457991
610.441872399
610.060385536
609.736706616
609.46971782
609.258480917
609.102243813
609.000649553
608.952588623
981.784328138
980.997253739
979.534093864
977.322871178
974.408813506
970.839757602
966.667416967
961.945186968
956.726567826
951.064191374
945.009272708
938.611281832
931.917683375
924.973645975
917.821675277
910.501174534
903.047981559
895.493967714
887.86681163
880.190068977
872.483637117
864.764641294
857.04863638
849.350839299
841.686970039
834.073302134
826.525982074
819.060125713
811.689131481
804.424400395
797.275462073
790.250343583
783.355922163
776.598153498
769.982203094
763.512516806
757.192845288
751.026236841
745.015030961
739.160872164
733.46474366
727.927011324
722.547472032
717.325402373
712.259606487
707.348464853
702.589986256
697.981864351
693.521539128
689.206262008
685.033162055
680.999310199
677.101778438
673.337691547
669.704269454
666.19885926
662.818956476
659.562215689
656.426451302
653.40962941
650.509852126
647.725335876
645.0543853
642.495364426
640.046666776
637.706685997
635.473788451
633.346289012
631.322431041
629.400371241
627.578169687
625.853785082
624.225074915
622.6898001
621.245633442
619.890171429
618.620948677
617.435454626
616.331151922
615.305496102
614.355956064
613.480034885
612.675290519
611.939355922
611.269958293
610.664937029
610.122260302
609.640039935
609.21654476
608.850211982
608.539657191
608.283682825
608.081283783
607.931653675
607.834385075
607.788556311
990.570798469
989.687857391
988.063559815
985.616436787
982.404740032
978.488817027
973.931763954
968.796798901
963.145679743
957.037972187
950.530826348
943.678952818
936.534583369
929.147289077
921.563601447
913.826451517
905.974502335
898.041504086
890.055847989
882.040526678
874.013701767
865.989993908
857.982402338
850.004410288
842.071486511
834.201043862
826.410962977
818.717854309
811.135855978
803.676273412
796.34795526
789.158055284
782.112639613
775.216977473
768.475661459
761.89265848
755.471300561
749.214222876
743.123317107
737.199734916
731.44393
725.855712616
720.434306819
715.178404193
710.08621237
705.155503457
700.383667186
695.767771428
691.304631119
686.990883795
682.823067783
678.797698368
674.911337611
671.160654449
667.542472865
664.053806944
660.691882511
657.454145754
654.338259836
651.342090878
648.463685063
645.701238744
643.053063608
640.517548916
638.093122881
635.778215081
633.571221713
631.470475149
629.47421906
627.580589814
625.787604569
624.093155873
622.495012335
620.990824566
619.578135593
618.254394904
617.016975452
615.863193035
614.790327518
613.795645466
612.876423585
612.029972533
611.253660397
610.544935507
609.901347915
609.32056945
608.800411822
608.33884293
607.934000963
607.584206775
607.287974154
607.044017956
606.851260964
606.70883987
606.616290498
606.572884629
1000.2249016
999.223086394
997.400919633
994.667283329
991.099438462
986.774757847
981.770657025
976.161850751
970.019149768
963.409341506
956.395586175
949.037909233
941.393511025
933.516747708
925.458726702
917.266550032
908.982315118
900.642054075
892.274869765
883.902603849
875.54041818
867.198607801
858.885676859
850.612048495
842.39296592
834.248248121
826.199080731
818.264702807
810.460364085
802.796954324
795.281993524
787.921192355
780.719495703
773.681346956
766.81071022
760.111079312
753.58541755
747.235986606
741.064228335
735.070764225
729.255466481
723.617534002
718.155564737
712.867615942
707.751249393
702.803575128
698.021303119
693.400806908
688.938201645
684.629433768
680.470375605
676.456917702
672.585052548
668.850945326
665.25098908
661.781843153
658.440454844
655.224065049
652.13019934
649.15664638
646.301425898
643.562748612
640.938970604
638.428544623
636.029970799
633.741749116
631.562335793
629.490105466
627.52332062
625.660109259
623.898451097
622.236172037
620.670946005
619.200303078
617.821642562
616.532250065
615.329317577
614.209966103
613.171270196
612.210284067
611.324068556
610.509718439
609.764389279
609.085323245
608.469873345
607.915525624
607.419919162
606.980863583
606.596354327
606.264585264
605.983959481
605.753098123
605.570845931
605.436276712
605.34886789
605.308088895
1010.8535591
1009.70134157
1007.63127406
1004.54370937
1000.54491256
995.735576976
990.210726954
984.057953899
977.357357815
970.182648209
962.602575386
954.682216905
946.483786786
938.066835456
929.487787606
920.798881189
912.046654902
903.270215297
894.499628804
885.754942633
877.046511462
868.377373232
859.748136712
851.163683737
842.639250757
834.199775584
825.872755754
817.68200793
809.644299929
801.769257957
794.061743165
786.525036142
779.162615091
771.978027764
764.974602771
758.155424473
751.523231664
745.080017453
738.82678127
732.763555437
726.889558207
721.203306811
715.70271338
710.385153361
705.247497026
700.286139712
695.497047565
690.875822304
686.41779096
682.118115765
677.971912058
673.974362862
670.12082091
666.40689271
662.828501937
659.381931372
656.063843839
652.871283463
649.80165936
646.852714274
644.022481058
641.309229932
638.711409581
636.227585069
633.856375568
631.596394711
629.446196296
627.404227592
625.46879221
623.638023634
621.909869875
620.282088544
618.752251057
617.317754031
615.975836202
614.723599259
613.558031744
612.476035355
611.474453362
610.550100724
609.699795241