/*--------------------------------*- C++ -*----------------------------------*\
| =========                 |                                                 |
| \\      /  F ield         | OpenFOAM: The Open Source CFD Toolbox           |
|  \\    /   O peration     | Version:  v1906                                 |
|   \\  /    A nd           | Web:      www.OpenFOAM.com                      |
|    \\/     M anipulation  |                                                 |
\*---------------------------------------------------------------------------*/
FoamFile
{
    version     2.0;
    format      ascii;
    class       surfaceScalarField;
    location    "104";
    object      phi;
}
// * * * * * * * * * * * * * * * * * * * * * * * * * * * * * * * * * * * * * //

dimensions      [0 3 -1 0 0 0 0];
oriented        oriented;


internalField   nonuniform List<scalar> 
18240
(
-0.000352033322747
0.00035235946933
-0.000737458966532
0.000385806869536
-0.00112256556659
0.000385442084939
-0.00150265050388
0.000380478171347
-0.00187573511941
0.000373410089909
-0.00223995362748
0.000364623740433
-0.00259392036136
0.000354282781674
-0.00293612075685
0.000342618739734
-0.00326555573257
0.000329741937251
-0.00358101650184
0.000315893312374
-0.00388188651189
0.000301167715013
-0.00416724697356
0.000285808430925
-0.0044368337545
0.00026987529359
-0.00468998109321
0.00025361214466
-0.00492676064818
0.000237058463606
-0.00514672261473
0.000220445208896
-0.00535020049719
0.000203747076387
-0.00553687941159
0.00018718237195
-0.00570730918363
0.000170688505101
-0.00586127488289
0.000154491319125
-0.00599950901131
0.000138482006455
-0.00612184498974
0.000122885842796
-0.00622916683078
0.000107557604742
-0.00632131521396
9.27246486536e-05
-0.00639929542827
7.82029681317e-05
-0.00646293208626
6.42414549606e-05
-0.00651333284581
5.06084651026e-05
-0.00655027733435
3.75798324669e-05
-0.00657499685946
2.49105250311e-05
-0.00658721799223
1.28887196994e-05
-0.0065882846151
1.2377853323e-06
-0.00657781287094
-9.77069915362e-06
-0.0065571823636
-2.04818450843e-05
-0.00652597214407
-3.04753053307e-05
-0.0064857289448
-4.01213991157e-05
-0.00643591147756
-4.90491265851e-05
-0.00637813629159
-5.76838389988e-05
-0.00631174698498
-6.55892433916e-05
-0.00623846344046
-7.32280246959e-05
-0.00615752063785
-8.01140862336e-05
-0.00607075573286
-8.67494319375e-05
-0.00597726836463
-9.26348400929e-05
-0.00587896937263
-9.83295111166e-05
-0.00577484552054
-0.000103254054784
-0.00566690286455
-0.000108023408928
-0.00555399890729
-0.000112025281327
-0.00543821580981
-0.000115919739066
-0.00531826757132
-0.000119070355755
-0.00519629728595
-0.000122165949779
-0.00507089418129
-0.000124536716795
-0.00494423305885
-0.00012691966548
-0.00481479075164
-0.000128598172958
-0.00468476984349
-0.000130342830508
-0.00455253823635
-0.000131420232956
-0.00442030924829
-0.0001326150406
-0.00428636992515
-0.000133170146966
-0.00415292614018
-0.00013389114009
-0.0040182123669
-0.00013399527888
-0.00388443910995
-0.000134279508801
-0.00374981110906
-0.000133967326283
-0.00361650178896
-0.000133869008346
-0.0034827109605
-0.000133194225276
-0.00335058405445
-0.000132735479231
-0.00321834569538
-0.000131710932911
-0.00308808101613
-0.000130915203026
-0.00295804253768
-0.000129584683201
-0.00283027448529
-0.000128454871853
-0.00270310285241
-0.000126794908455
-0.0025784818979
-0.000125336609058
-0.00245479590162
-0.000123389068596
-0.00233387496273
-0.000121659254225
-0.00221418233812
-0.000119477080977
-0.00209743884969
-0.000117496790561
-0.00198219086387
-0.000115114202299
-0.00187000355554
-0.000112948695739
-0.00175952818724
-0.000110421863562
-0.00165218433459
-0.000108104618882
-0.00154672705799
-0.000105480473816
-0.00144441164192
-0.000103066517619
-0.00134409167614
-0.000100413626449
-0.00124685532337
-9.79670269995e-05
-0.00115169701518
-9.53147787385e-05
-0.00105954857545
-9.28493991165e-05
-0.00096957773155
-9.01828144428e-05
-0.000882629634963
-8.76126810389e-05
-0.000798129788813
-8.47607475161e-05
-0.000717067609708
-8.16871637722e-05
-0.000639629495418
-7.77389473774e-05
-0.000567620592735
-7.2586527426e-05
-0.0005012842052
-6.66629482106e-05
-0.000442334500329
-5.94699447626e-05
-0.000386457288865
-5.62760885149e-05
-0.000320535402628
-6.6465810878e-05
-0.000235000629554
-8.62069967217e-05
-0.000123528049215
-0.000112380652922
-0.000124011031106
-0.000389104224718
0.000741817604003
-0.00082349872928
0.000820588821065
-0.00125542777951
0.000817745983743
-0.00168102175927
0.000806463378333
-0.00209839244135
0.000791153938978
-0.00250570494342
0.000772331379152
-0.0029013513236
0.00075030130832
-0.00328376554659
0.000725433026704
-0.00365170712337
0.000698055073983
-0.00400397383945
0.000668565784844
-0.00433972629983
0.000637291683774
-0.00465812583044
0.000604620217888
-0.00495871423426
0.000570835516352
-0.00524098181669
0.000536299363774
-0.00550478090088
0.000501230269572
-0.00574983863298
0.000465930934197
-0.00597628380413
0.000430566214725
-0.00618407127627
0.000395407213895
-0.00637355849282
0.000360551514488
-0.00654481644571
0.000326197113156
-0.00669834288748
0.000292386291251
-0.00683429697205
0.000259299315534
-0.00695328676816
0.000226927726156
-0.00705553577781
0.000195445621159
-0.00714175777112
0.000164807637638
-0.00721219839514
0.000135167463825
-0.00726765604527
0.000106451135014
-0.0073083898051
7.88130256539e-05
-0.00733521981167
5.2127055826e-05
-0.00734839138453
2.65739474868e-05
-0.00734877402597
2.0075671212e-06
-0.0073366006107
-2.14165997656e-05
-0.00731283141125
-4.38653276509e-05
-0.00727762655745
-6.51399124869e-05
-0.00723196513799
-8.54006856466e-05
-0.00717600253808
-0.000104460625737
-0.00711075823249
-0.000122553093593
-0.00703634009524
-0.000139448355372
-0.00695382027872
-0.000155383574398
-0.00686324068403
-0.000170130704735
-0.00676567272377
-0.000183969098785
-0.0066611078936
-0.000196638042838
-0.00655068200949
-0.000208428490267
-0.00643432752864
-0.000219054746234
-0.00631319553608
-0.00022885668452
-0.00618713339857
-0.000237549181947
-0.00605727326251
-0.000245515926005
-0.00592340262572
-0.000252426693024
-0.00578668229679
-0.000258664329868
-0.00564680845033
-0.000263928860639
-0.00550490795415
-0.000268646261989
-0.00536060798766
-0.000272457134704
-0.00521501953331
-0.00027581103083
-0.00506768496338
-0.000278361713079
-0.00491969272731
-0.000280544226776
-0.00477053024813
-0.000281993220583
-0.00462125960968
-0.000283158484385
-0.00447132172202
-0.000283651892129
-0.00432173304226
-0.000283925233997
-0.00417190281713
-0.000283577468413
-0.00402285030547
-0.000283038759443
-0.00387397981924
-0.000281907851509
-0.00372627685676
-0.000280614275447
-0.0035791328869
-0.000278762258179
-0.00343353343796
-0.000276747102545
-0.00328890840801
-0.000274181640223
-0.00314618003789
-0.000271469478595
-0.00300478256852
-0.000268228491207
-0.00286559560584
-0.000264860605417
-0.00272808220835
-0.00026100180898
-0.00259307656207
-0.000257048997274
-0.00246003898391
-0.000252675460945
-0.00232974676365
-0.000248216010862
-0.00220168278894
-0.000243397708295
-0.0020765257766
-0.000238570364995
-0.00195379311589
-0.00023342866264
-0.00183409645783
-0.000228297241253
-0.00171696064022
-0.00022293905347
-0.0016029221837
-0.000217624095594
-0.00149153570561
-0.000212163328926
-0.00138319609816
-0.000206839198206
-0.0012775154003
-0.000201390086156
-0.00117485410346
-0.000196047429524
-0.00107487196574
-0.000190582947775
-0.00097790272429
-0.000185116091601
-0.000883697891588
-0.000179401366097
-0.000792637963418
-0.000173275205204
-0.00070467254403
-0.000166154227824
-0.000620210206242
-0.000157561355054
-0.00053924439089
-0.000148083304913
-0.00046044329362
-0.000138749530803
-0.000385736595453
-0.000131447710364
-0.000309155557273
-0.000143601289557
-0.000219830851971
-0.000176187071178
-0.000111623088368
-0.000221362809093
-0.000236050268673
-0.000396061764598
0.00113823651606
-0.00083611142215
0.00126102056434
-0.001274298494
0.00125631490381
-0.00170609344107
0.00123864391151
-0.00212937436062
0.00121481688193
-0.00254225063539
0.00118559529195
-0.00294303335029
0.00115146704175
-0.00333017541858
0.00111296550409
-0.00370237217728
0.00107063662215
-0.00405847567048
0.00102506311136
-0.00439758856194
0.000976791672208
-0.0047189480032
0.000926377599549
-0.00502204339611
0.000874321013468
-0.00530645820247
0.000821116961126
-0.00557200866124
0.000767174425472
-0.00581855633186
0.000712887051348
-0.00604616405751
0.000658572021939
-0.00625489407726
0.00060455217324
-0.00644498986469
0.0005510503685
-0.00661667705039
0.000498306591632
-0.00677035082581
0.000446468922453
-0.00690633276169
0.000395711722112
-0.00702511834856
0.000346128427273
-0.00712709642323
0.000297863083586
-0.00721283456073
0.000250967736911
-0.00728278330955
0.000205565055947
-0.00733754312471
0.000161639786608
-0.00737753860631
0.000119267077645
-0.00740342803729
7.84521914102e-05
-0.00741565508996
3.92690931795e-05
-0.00741489716182
1.69130236112e-06
-0.00740162868943
-3.42082058159e-05
-0.00737654754571
-6.84999883519e-05
-0.00734012438542
-0.00010107891344
-0.00729305054116
-0.00013202550464
-0.00723574772537
-0.000161274175309
-0.00716895102686
-0.000188900802621
-0.00709308841921
-0.000214819769992
-0.00700890257301
-0.000239124522624
-0.00691678861606
-0.000261755692793
-0.00681749126833
-0.00028283014027
-0.0067113785433
-0.000302269481031
-0.00659919367736
-0.000320191875971
-0.00648129982287
-0.000336481548032
-0.00635840062506
-0.00035135584152
-0.00623078376007
-0.000364720916801
-0.00609919866705
-0.000376730456807
-0.00596387914676
-0.000387331140843
-0.00582547886625
-0.000396731042634
-0.00568419420658
-0.000404836792506
-0.00554068573547
-0.000411865965877
-0.00539504441768
-0.000417767468427
-0.00524785954787
-0.000422757931753
-0.00509921209323
-0.000426730257281
-0.0049496764695
-0.000429897960108
-0.00479926679382
-0.000432180647881
-0.00464850085506
-0.00043380152865
-0.00449734784384
-0.000434642609761
-0.00434630536284
-0.000434906044392
-0.00419532495281
-0.000434457322898
-0.0040448762611
-0.000433487268301
-0.0038948960719
-0.00043185006702
-0.00374584267689
-0.000429728917363
-0.00359765478119
-0.000426974511413
-0.00345078195416
-0.000423741141962
-0.00330515376552
-0.00041989580484
-0.00316119606012
-0.000415607045086
-0.00301882599993
-0.00041074477265
-0.00287844935134
-0.000405473316753
-0.0027399686313
-0.000399687202777
-0.00260377845282
-0.00039352893395
-0.00246982626822
-0.000386888039065
-0.00233842049845
-0.000379961505296
-0.00220948992053
-0.000372640870014
-0.00208336236118
-0.00036508326794
-0.00195990899807
-0.000357241921274
-0.00183936106944
-0.000349270050491
-0.00172158795133
-0.000341112951699
-0.00160673450098
-0.000332934339848
-0.00149470752616
-0.000324623422925
-0.00138568239952
-0.000316343656269
-0.00127947983546
-0.00030804875354
-0.00117618900442
-0.000299831298544
-0.00107563443231
-0.000291608302486
-0.000977859272131
-0.000283391374207
-0.000882698883064
-0.000275042805427
-0.000790178613453
-0.000266300077509
-0.000700022481762
-0.00025680115408
-0.000611922226163
-0.000246167299079
-0.000526691764456
-0.000233803918874
-0.000443194837264
-0.000222756590806
-0.000358029743712
-0.000217113379313
-0.000267777622472
-0.000234377940459
-0.000173765401607
-0.000270813922914
-8.5231604887e-05
-0.000310553869285
-0.000321599984493
-0.000402274418634
0.0015408682754
-0.000848456295183
0.00170758541438
-0.00129275647202
0.00170099770964
-0.00173042557585
0.00167669752142
-0.00215920000329
0.00164397504479
-0.00257711080824
0.0016038918827
-0.00298239371377
0.00155713536191
-0.00337348658568
0.00150444640573
-0.00374905747681
0.00144659522199
-0.00410797451174
0.00138437110021
-0.00444934336807
0.00131855119902
-0.0047724580301
0.00124988681216
-0.00507682562066
0.00117908285484
-0.00536210043825
0.00110679064807
-0.00562809802636
0.00103357063168
-0.00587475104633
0.000959944038225
-0.00610214089422
0.000886365554018
-0.00631041154365
0.000813232695544
-0.0064998215825
0.00074087002338
-0.00667066081327
0.000669562436869
-0.00682331509999
0.000599539458037
-0.00695818323117
0.000531004002909
-0.00707572219612
0.000464091079608
-0.00717639585853
0.000398969130775
-0.00726074310188
0.000335746565147
-0.00732924286945
0.00027450593787
-0.00738244660237
0.00021528342753
-0.00742087952685
0.000158150049212
-0.00744513249247
0.000103153206002
-0.00745575319632
5.03485158401e-05
-0.00745333505701
-2.71093656978e-07
-0.00743841420583
-4.86624906072e-05
-0.00741162574978
-9.48263763858e-05
-0.00737351281754
-0.000138718941188
-0.00732470611186
-0.000180365537521
-0.00726574582805
-0.000219757405981
-0.00719727131309
-0.000256906891919
-0.00711979270207
-0.000291820309722
-0.00703392800403
-0.000324522541548
-0.00694021094428
-0.000354997840634
-0.00683927792857
-0.000383303250756
-0.00673167362092
-0.000409407513762
-0.00661797600088
-0.000433442326898
-0.00649861014715
-0.000455396505014
-0.0063741995095
-0.000475339600678
-0.0062451960187
-0.000493296811108
-0.00611213929047
-0.00050938860438
-0.00597545873383
-0.000523615878539
-0.00583570379061
-0.000536124363617
-0.00569321900128
-0.000546965991335
-0.00554848549831
-0.000556282552986
-0.00540180717568
-0.000564137933244
-0.00525362522148
-0.000570674542036
-0.00510413724073
-0.000575964216961
-0.00495370434021
-0.000580121947378
-0.00480254017815
-0.00058314893686
-0.00465097431493
-0.000585218456091
-0.00449914945482
-0.000586332563074
-0.00434737523814
-0.000586593085214
-0.0041957814453
-0.000585978569077
-0.004044648864
-0.000584595238962
-0.00389409363833
-0.000582395440858
-0.00374438827725
-0.000579471807744
-0.00359563896075
-0.000575776101444
-0.00344815203537
-0.000571326970081
-0.00330203334589
-0.000566127963551
-0.00315751647042
-0.000560282695399
-0.00301467607081
-0.000553758332321
-0.00287377465174
-0.000546591622234
-0.00273489006458
-0.000538802608183
-0.00259822804789
-0.000530463255114
-0.00246387104422
-0.000521530676374
-0.00233206984153
-0.000512087062813
-0.00220287400842
-0.000502173368174
-0.00207642402438
-0.000491905127367
-0.00195275244792
-0.000481296138208
-0.00183198960721
-0.000470446423726
-0.00171413570816
-0.000459388825911
-0.00159927309188
-0.000448244451421
-0.00148733298624
-0.000437016324022
-0.00137834039896
-0.000425808623955
-0.00127217059262
-0.000414692913198
-0.00116880981662
-0.000403680257144
-0.00106813752108
-0.000392768289988
-0.000970103529582
-0.000381922857452
-0.000874532701708
-0.000371110522857
-0.000781070293593
-0.000360268662013
-0.000689453623535
-0.000348924905861
-0.000599002150822
-0.000337136851485
-0.00050840276587
-0.000324922539814
-0.000416847939583
-0.000314827776871
-0.000322474382661
-0.000312000396924
-0.000227962498092
-0.000329435113293
-0.000140278004083
-0.000359027750239
-6.66602077825e-05
-0.000384710117671
-0.000388548419629
-0.00041028497693
0.00195151111288
-0.000864972780326
0.00216265377777
-0.00131755283646
0.00215396153334
-0.00176308916901
0.00212261773445
-0.00219917879157
0.00208044916035
-0.00262375090121
0.00202884938178
-0.00303497044211
0.00196874102163
-0.00343123092643
0.0019010944763
-0.00381117787427
0.00182693073382
-0.00417370239333
0.00174728605552
-0.00451793275131
0.00166317320537
-0.00484321711131
0.00157556512196
-0.00514911065611
0.00148537185951
-0.00543532145904
0.00139339965263
-0.00570172905959
0.0013003782244
-0.00594834997913
0.00120696818887
-0.00617531204234
0.00111373298139
-0.00638282802121
0.00102115777234
-0.00657120101146
0.000929654546912
-0.00674078598017
0.000839563214781
-0.00689198205414
0.000751154116971
-0.00702521790875
0.000664663207245
-0.00714099151782
0.000580291040615
-0.00723981205439
0.000498221263038
-0.00732220875152
0.000418578059757
-0.00738868043456
0.000341417986964
-0.00743978544704
0.000266831982482
-0.00747608890416
0.00019490284461
-0.00749815369115
0.000125670347407
-0.00750655016087
5.92030698056e-05
-0.00750187630222
-4.484391051e-06
-0.00748472422259
-6.53485658696e-05
-0.00745570757354
-0.000123375325202
-0.00741537868102
-0.000178575315965
-0.00736431929149
-0.000230951928131
-0.0073031150551
-0.00028048471762
-0.00723237562868
-0.000327170464707
-0.00715269161904
-0.000371025987905
-0.00706465770959
-0.000412081412402
-0.00696885007565
-0.000450329911651
-0.00686582046762
-0.000485863364367
-0.00675609054894
-0.000518670240187
-0.00664024842075
-0.000548826949485
-0.00651881824315
-0.000576374986114
-0.00639237559205
-0.000601344337849
-0.00626144848452
-0.000623796074834
-0.00612658253562
-0.000643845093411
-0.0059882164111
-0.000661587072415
-0.00584680735233
-0.000677161306574
-0.00570278454567
-0.000690635663586
-0.0055565878581
-0.000702152993322
-0.00540856777836
-0.000711854359864
-0.00525909313911
-0.000719875572607
-0.00510846126894
-0.000726347850808
-0.00495696265167
-0.000731404735245
-0.00480481801466
-0.000735104804172
-0.00465230080878
-0.000737580713073
-0.00449960365601
-0.000738902909858
-0.00434696570088
-0.000739138792891
-0.00419458012918
-0.00073830031127
-0.00404264601776
-0.000736500122795
-0.00389134920676
-0.000733691381069
-0.00374090606512
-0.000729948502
-0.00359149013196
-0.000725253670382
-0.00344340652512
-0.00071950598543
-0.00329672246757
-0.000712935208427
-0.00315156194606
-0.000705599343075
-0.00300808838883
-0.000697415133836
-0.00286653672247
-0.00068835830113
-0.00272703469463
-0.00067854585156
-0.00258975781994
-0.00066801160464
-0.0024548829772
-0.000656701688062
-0.00232259367123
-0.000644700871435
-0.00219296679913
-0.000632147473423
-0.00206610196197
-0.000619142973817
-0.00194209390439
-0.000605697235796
-0.00182106967374
-0.000591886191947
-0.00170306060188
-0.000577829878634
-0.00158807380639
-0.000563681576086
-0.00147608321574
-0.000549469359325
-0.00136708832246
-0.000535279528755
-0.00126103649541
-0.000521228383065
-0.00115784928398
-0.000507360253378
-0.00105739217453
-0.000493722147485
-0.000959448441479
-0.000480369452755
-0.00086377420984
-0.000467291241262
-0.000770083805365
-0.00045447147552
-0.000677797306959
-0.000441731901652
-0.000586345196527
-0.000429115356784
-0.000492660937562
-0.000419139024983
-0.000396593084545
-0.000411438163312
-0.000299043085271
-0.000410070857994
-0.000207313656048
-0.000421653847401
-0.000124009331551
-0.000442850628194
-5.37890863262e-05
-0.000455440464148
-0.000442574933922
-0.000420470596288
0.0023723394274
-0.000886202609372
0.0026287690549
-0.00134948230094
0.00261762455505
-0.00180513236108
0.00257865232038
-0.00225058718329
0.00252628864486
-0.00268365270679
0.00246230055493
-0.00310239637066
0.00238787119551
-0.00350516410289
0.00230424999563
-0.00389059789293
0.00221275354345
-0.00425760003279
0.00211467882761
-0.00460534377864
0.00201130915021
-0.00493325324826
0.00190386875768
-0.00524093953322
0.00179345421581
-0.00552820064048
0.00168105920617
-0.00579501471776
0.00156759304299
-0.00604147933684
0.00145383634478
-0.00626780171211
0.00134046157857
-0.00647428206687
0.00122804761608
-0.0066612720896
0.00111705718058
-0.00682917030968
0.0010078777657
-0.00697843843845
0.000900842092506
-0.00710956571745
0.000796214513037
-0.00722308984298
0.000694243096318
-0.00731954096205
0.000595104858609
-0.00739942559883
0.000498899329618
-0.00746330678259
0.000405740632981
-0.00751175243515
0.000315723412676
-0.00754532510399
0.000228926196656
-0.00756462974077
0.000145429899105
-0.0075702475886
6.52806120365e-05
-0.00756279031301
-1.14780440113e-05
-0.00754283682233
-8.4834123853e-05
-0.00751095885523
-0.000154782076555
-0.00746776840887
-0.000221290913784
-0.00741387111551
-0.000284371938446
-0.00734986848863
-0.00034400750458
-0.00727635008743
-0.000400207933613
-0.00719391654299
-0.00045297754551
-0.00710314083551
-0.00050237591628
-0.00700456475506
-0.000548425940008
-0.00689878182915
-0.000591169792928
-0.00678633877298
-0.000630640884632
-0.00666783813688
-0.000666862344139
-0.00654387660283
-0.000699879173916
-0.00641497634161
-0.000729798958362
-0.00628164413937
-0.000756694935702
-0.00614442481394
-0.000780647753619
-0.00600383931862
-0.000801772940388
-0.00586038488198
-0.000820237866886
-0.00571446153603
-0.000836202548261
-0.00556645583042
-0.000849828332011
-0.00541675456331
-0.000861250329769
-0.00526572193746
-0.00087063232518
-0.00511365562489
-0.000878165938272
-0.00496082407117
-0.000884019613845
-0.00480744993248
-0.000888291597343
-0.00465378013938
-0.000891095966521
-0.00450003426014
-0.000892524351715
-0.00434639486038
-0.000892687001145
-0.00419307962673
-0.000891554617136
-0.00404024836805
-0.000889303692392
-0.00388807407858
-0.000885868201836
-0.00373698709626
-0.000881070958822
-0.00358700462324
-0.000875301630683
-0.00343813727665
-0.000868471468526
-0.00329058368159
-0.000860616364533
-0.00314456512471
-0.000851777392452
-0.00300029306475
-0.000841875444618
-0.00285795408733
-0.000830916514971
-0.0027177068429
-0.000819040021425
-0.00257973239456
-0.000806262434013
-0.00244416194878
-0.00079257479101
-0.0023111429049
-0.000778050053493
-0.00218089196277
-0.00076275273908
-0.00205356605523
-0.000746848046881
-0.0019291504643
-0.000730513498116
-0.00180772077406
-0.000713737833849
-0.00168939363693
-0.000696596994732
-0.00157423862204
-0.000679293445832
-0.00146218156162
-0.000661997028982
-0.0013532303322
-0.000644713493109
-0.00124727974737
-0.000627670926728
-0.00114419383119
-0.000610945836565
-0.00104386498536
-0.000594555952222
-0.000946097521391
-0.000578646963164
-0.000850584573632
-0.000563318831628
-0.000757003462883
-0.000548573055482
-0.000664898308055
-0.000534364433759
-0.000573635423841
-0.000520915091186
-0.000481832781831
-0.000511487721863
-0.000387509720326
-0.000506290368038
-0.000293694328173
-0.000504408134643
-0.000206577249203
-0.000509301759298
-0.000126938976185
-0.000522982960737
-5.29389113083e-05
-0.000529917861541
-0.00049576407091
-0.000433093928935
0.00280579200865
-0.000912577962624
0.00310863402459
-0.00138915217067
0.00309458342485
-0.00185732745575
0.00304721206296
-0.00231433199605
0.00298367854671
-0.00275781193931
0.00290616648703
-0.00318572652487
0.00281617281465
-0.00359637507974
0.00271528674562
-0.00398838626983
0.00260515428206
-0.00436069945558
0.002487383086
-0.00471256351329
0.00236356595904
-0.00504347002256
0.00223516991333
-0.00535313283969
0.00210351373167
-0.00564148812237
0.00196981347837
-0.00590861680467
0.00183512316601
-0.00615472486826
0.00170034857878
-0.00638012970485
0.00156627348538
-0.00658520416686
0.00143353233659
-0.00677037905107
0.00130264567405
-0.00693614494448
0.00117406093191
-0.00708301598918
0.00104813422541
-0.00721154048858
0.000925164200425
-0.00732230202565
0.000805434038222
-0.007415824495
0.000689061211206
-0.00749264393924
0.000576157200517
-0.00755334990892
0.000466889743822
-0.00759854006882
0.000361361417668
-0.00762881490767
0.000259653685129
-0.00764478005961
0.000161852403345
-0.00764704510926
6.80076569819e-05
-0.00763618460027
-2.18721649261e-05
-0.00761278710584
-0.000107761004368
-0.00757747320054
-0.000189621495217
-0.00753085616798
-0.000267429849119
-0.00747356047683
-0.000341186468436
-0.00740617676916
-0.000410907334898
-0.00732929371578
-0.000476605245713
-0.00724348908708
-0.000538295126216
-0.00714933087946
-0.000596047106236
-0.00704738739207
-0.000649883237604
-0.00693828280517
-0.000699790932173
-0.00682263582122
-0.000745808412126
-0.00670098717971
-0.000788038007482
-0.00657387709061
-0.000826524512855
-0.00644191462281
-0.000861307731671
-0.00630569336347
-0.000892475865051
-0.00616571179877
-0.00092020518265
-0.00602246128843
-0.000944618191901
-0.00587645058971
-0.000965864440106
-0.00572814522905
-0.00098414783632
-0.00557798980712
-0.000999648978874
-0.00542631600806
-0.00101261736669
-0.0052734360466
-0.00102323387294
-0.0051196688406
-0.00103168535471
-0.0049652778242
-0.00103819319281
-0.00481048633179
-0.00104289755308
-0.00465549969509
-0.00104592840346
-0.00450047844516
-0.00104742385428
-0.00434562751893
-0.00104744774809
-0.00419118803974
-0.00104593640212
-0.00403758770869
-0.00104287781702
-0.00388485711714
-0.00103860498581
-0.00373284133826
-0.00103312428196
-0.00358174294901
-0.00102646985678
-0.00343170912226
-0.0010186059965
-0.00328308009518
-0.00100937797663
-0.00313607302654
-0.000998947306371
-0.00299074620823
-0.000987396284163
-0.00284737571285
-0.000974510466208
-0.0027061648533
-0.000960504408241
-0.00256728096668
-0.00094542795117
-0.00243095223989
-0.000929213603878
-0.00229726357063
-0.000912075030663
-0.00216630709271
-0.000894071681196
-0.00203830301311
-0.000875238288242
-0.00191342452964
-0.000855801068062
-0.00179171079634
-0.000835881209449
-0.00167316346645
-0.000815592773041
-0.00155780696925
-0.000795114822663
-0.00144570471768
-0.000774578366257
-0.00133679555348
-0.000754113545435
-0.00123100483356
-0.000733961974563
-0.00112819848757
-0.000714259912622
-0.00102816934012
-0.000695098356548
-0.00093071413234
-0.000676620218459
-0.000835607437258
-0.000658948215166
-0.000742422900558
-0.000642285838183
-0.000650712572345
-0.000626610602291
-0.000559729769363
-0.000612438031178
-0.000470271991507
-0.000601486452331
-0.000381325457104
-0.000595788009594
-0.000292465308761
-0.000593791389135
-0.000208284791675
-0.000593968015962
-0.000132046823332
-0.000599745461641
-5.85118200048e-05
-0.000603965676998
-0.000554507140074
-0.000448431675179
0.00325458229138
-0.000944629509016
0.00360521635008
-0.00143733062878
0.00358766881587
-0.00192064114216
0.00353090812999
-0.00239153384517
0.00345495693137
-0.00284745507199
0.00336247435651
-0.00328624783627
0.00325535314088
-0.00370615358595
0.00313558128723
-0.00410580583304
0.00300519665422
-0.00448420461874
0.00286617355306
-0.00484068428982
0.00272043900777
-0.0051748560974
0.00256973701854
-0.00548659356602
0.00241564857793
-0.00577597265834
0.00225959228221
-0.00604321714911
0.00210276988206
-0.00628867580204
0.0019462122399
-0.00651277191847
0.00179077758549
-0.00671599079748
0.00163716247113
-0.00689888004542
0.00148594964388
-0.00706200320034
0.00133760257075
-0.00720594219894
0.00119249564261
-0.00733133995163
0.00105098860499
-0.0074387438862
0.000913268991973
-0.00752871721269
0.000779470163556
-0.00760189421026
0.000649774500702
-0.00765886238751
0.000524303093697
-0.0077002378837
0.000403186944459
-0.00772665335925
0.000286524132952
-0.00773870180879
0.000174360681324
-0.00773696570261
6.67361759795e-05
-0.00772207289067
-3.62957467423e-05
-0.00769465016702
-0.00013471011638
-0.00765533079856
-0.00022846305686
-0.00760470974292
-0.000317569255013
-0.00754338968727
-0.000402021255385
-0.00747199493541
-0.000481813824015
-0.00739111391606
-0.000556995373655
-0.007301312401
-0.000627604111581
-0.00720318614374
-0.000693679885135
-0.00709736933037
-0.000755207105743
-0.00698443315163
-0.000812235976769
-0.00686493607339
-0.00086481810741
-0.0067395019643
-0.000912990604908
-0.00660874674407
-0.000956806384811
-0.00647323590604
-0.000996356371755
-0.00633351337568
-0.0010317497012
-0.00619017513138
-0.00106311183921
-0.00604377151725
-0.00109060932624
-0.00589484626921
-0.00111440016302
-0.00574383106489
-0.00113479758895
-0.00559113407421
-0.00115200815917
-0.00543713711885
-0.00116630440546
-0.00528214831864
-0.001177943546
-0.00512643261959
-0.00118715220601
-0.00497023832324
-0.00119417098229
-0.00481377707515
-0.0011991736934
-0.0046572094793
-0.00120234385314
-0.00450076869442
-0.00120374410217
-0.0043447788614
-0.00120335011362
-0.00418954061787
-0.00120111865568
-0.00403478330659
-0.00119761222556
-0.00388059683332
-0.00119279984055
-0.00372719073019
-0.00118657182196
-0.00357480075199
-0.00117893221718
-0.00342365354489
-0.00116985852427
-0.0032738253606
-0.00115934199424
-0.00312549132149
-0.00114744952857
-0.00297896255159
-0.00113412331128
-0.00283441951462
-0.00111928332848
-0.00269213861021
-0.00110304423084
-0.0025521918217
-0.00108566387824
-0.0024148281202
-0.00106689394035
-0.00228024966767
-0.00104699828345
-0.00214861319072
-0.00102607826584
-0.00202001912136
-0.00100422755708
-0.00189459341398
-0.000981644391841
-0.00177239165888
-0.000958521791831
-0.00165354432198
-0.000934897456812
-0.00153809855298
-0.000911034731874
-0.00142602003886
-0.000887144952569
-0.00131723216101
-0.000863401310825
-0.00121171303596
-0.000839990240811
-0.00110933822532
-0.000817151031535
-0.00100995684645
-0.000795001554425
-0.000913305993265
-0.000773797209605
-0.000819087875328
-0.000753697467623
-0.000726856342114
-0.00073505352915
-0.000636149996932
-0.000717858146191
-0.000546620567788
-0.000702515530746
-0.000458782310309
-0.000689875671669
-0.000373622419218
-0.00068147571103
-0.000290362588142
-0.000677572569999
-0.000208558074384
-0.000676311815493
-0.000133612164115
-0.000675190724958
-6.15764342167e-05
-0.000676492661902
-0.000616340061139
-0.000466819391973
0.0037217616671
-0.00098303903886
0.00412181797248
-0.00149500273353
0.00410001854186
-0.00199631541522
0.00403260649868
-0.00248362230572
0.00394265048259
-0.00295413718903
0.00383337648337
-0.00340556805817
0.00370717232995
-0.00383610361286
0.00356650630629
-0.00424440320782
0.00341388710473
-0.00462955893642
0.00325172166515
-0.00499103883955
0.00308231303932
-0.00532862995595
0.00290772418292
-0.00564239960257
0.00272981642159
-0.00593259522011
0.00255018845067
-0.0061996142715
0.00237019208128
-0.00644397341558
0.00219097736459
-0.00666625629629
0.00201346954075
-0.00686709545939
0.00183841405061
-0.00704713987007
0.00166641007895
-0.00720704591323
0.00149792849395
-0.00734750246163
0.00133337618703
-0.00746913867327
0.00117305314076
-0.00757256380396
0.00101712699924
-0.00765842491613
0.000865768853454
-0.00772734310376
0.000719135152715
-0.00777996543428
0.000577372818746
-0.00781693397657
0.000440607938812
-0.00783885194375
0.000308899549876
-0.00784632527483
0.000182296535106
-0.00783999437879
6.08726518053e-05
-0.00782048535246
-5.53325766794e-05
-0.00778844905516
-0.000166269698738
-0.00774448887872
-0.000271942005049
-0.00768922940317
-0.00037234335533
-0.00762330459133
-0.000467456654001
-0.00754730149181
-0.000557323942483