/*--------------------------------*- C++ -*----------------------------------*\
| =========                 |                                                 |
| \\      /  F ield         | OpenFOAM: The Open Source CFD Toolbox           |
|  \\    /   O peration     | Version:  v1906                                 |
|   \\  /    A nd           | Web:      www.OpenFOAM.com                      |
|    \\/     M anipulation  |                                                 |
\*---------------------------------------------------------------------------*/
FoamFile
{
    version     2.0;
    format      ascii;
    class       volVectorField;
    location    "870";
    object      U;
}
// * * * * * * * * * * * * * * * * * * * * * * * * * * * * * * * * * * * * * //

dimensions      [0 1 -1 0 0 0 0];


internalField   nonuniform List<vector> 
9216
(
(0.00150784002757 -0.00150924243714 0)
(0.00154557232132 -0.00470257125919 7.41494751087e-28)
(0.00153311382038 -0.00790128015768 1.04818596259e-31)
(0.00150849461371 -0.0110766586883 0)
(0.00147543027107 -0.0141898674805 0)
(0.00143471945781 -0.0172258619872 0)
(0.00138721477335 -0.0201696042392 0)
(0.00133371755783 -0.0230077777937 0)
(0.0012750370757 -0.0257287308166 0)
(0.00121198446797 -0.0283225048476 0)
(0.00114535700659 -0.0307808237801 0)
(0.00107592053243 -0.0330970467258 0)
(0.00100439530505 -0.0352660864351 0)
(0.000931444930376 -0.0372843014444 0)
(0.000857670232985 -0.0391493699921 0)
(0.000783605875001 -0.0408601545218 0)
(0.000709721185373 -0.0424165634036 0)
(0.000636422271021 -0.0438194163472 0)
(0.000564057145411 -0.0450703172243 0)
(0.00049292058297 -0.0461715379286 0)
(0.000423260989427 -0.0471259142168 0)
(0.000355285748228 -0.0479367548798 0)
(0.000289168024006 -0.0486077632206 0)
(0.000225051211065 -0.049142970814 0)
(0.000163054727188 -0.0495466814678 0)
(0.00010327701323 -0.0498234248843 0)
(4.58002432486e-05 -0.0499779172947 0)
(-9.30840972501e-06 -0.0500150294468 0)
(-6.19962665497e-05 -0.049939762641 0)
(-0.000112221445377 -0.0497572054467 0)
(-0.000159948866082 -0.049472535057 0)
(-0.000205153973859 -0.0490909879961 0)
(-0.000247819930829 -0.0486178435505 0)
(-0.000287938711651 -0.0480584068458 0)
(-0.000325508826742 -0.0474179925719 0)
(-0.000360536834316 -0.0467019101158 0)
(-0.000393034954874 -0.0459154489461 0)
(-0.000423022748187 -0.0450638653682 0)
(-0.000450524513613 -0.0441523696132 0)
(-0.000475571080321 -0.0431861143843 0)
(-0.000498196996688 -0.0421701838789 0)
(-0.000518442445116 -0.0411095843082 0)
(-0.000536350276806 -0.0400092349991 0)
(-0.000551968077262 -0.0388739609087 0)
(-0.000565345122092 -0.0377084857522 0)
(-0.000576534612488 -0.0365174263162 0)
(-0.000585590637015 -0.035305287362 0)
(-0.000592570571652 -0.034076457348 0)
(-0.000597532137543 -0.0328352046865 0)
(-0.00060053593749 -0.0315856743224 0)
(-0.000601642714268 -0.0303318847916 0)
(-0.000600915969387 -0.0290777249695 0)
(-0.000598419547662 -0.0278269512521 0)
(-0.000594220260649 -0.026583183653 0)
(-0.000588385945712 -0.0253499023155 0)
(-0.000580987979583 -0.0241304420235 0)
(-0.000572099971104 -0.0229279871605 0)
(-0.00056179999039 -0.0217455636665 0)
(-0.000550170028151 -0.0205860316127 0)
(-0.000537297664428 -0.0194520738194 0)
(-0.000523276353096 -0.0183461855708 0)
(-0.000508206104264 -0.0172706597338 0)
(-0.000492194516099 -0.0162275740155 0)
(-0.000475355883988 -0.0152187736598 0)
(-0.000457812771935 -0.0142458581577 0)
(-0.000439692880743 -0.0133101644214 0)
(-0.000421130931172 -0.012412756686 0)
(-0.00040226280799 -0.0115544148311 0)
(-0.000383227801032 -0.0107356324301 0)
(-0.000364160098333 -0.00995661536386 0)
(-0.000345191974269 -0.00921729210651 0)
(-0.000326443498057 -0.00851732559651 0)
(-0.000308027724314 -0.00785613622293 0)
(-0.000290039903524 -0.00723292541358 0)
(-0.000272565438954 -0.00664670698371 0)
(-0.000255669422045 -0.00609633691373 0)
(-0.000239406977578 -0.00558054657166 0)
(-0.000223812875983 -0.00509797327878 0)
(-0.000208912668727 -0.00464719162061 0)
(-0.00019471130915 -0.00422674403548 0)
(-0.000181202692724 -0.00383517295124 0)
(-0.000168355297251 -0.00347105848968 0)
(-0.000156116051107 -0.00313306452448 0)
(-0.00014438722576 -0.00282000558937 0)
(-0.000133011770439 -0.00253094531422 0)
(-0.000121713435283 -0.0022653680363 0)
(-0.000109993923559 -0.00202346278149 0)
(-9.66646557878e-05 -0.00180790332997 0)
(-7.8144778716e-05 -0.00161060191889 0)
(-6.90781654567e-05 -0.00142811940721 0)
(-7.77227469739e-05 -0.00132420516424 0)
(-8.41412672205e-05 -0.00115762395509 0)
(-9.45028474229e-05 -0.000977027007087 0)
(-0.00011309291887 -0.000776970846514 0)
(-0.000152856664943 -0.000530345870579 0)
(-0.000203362235947 -0.00020138655609 0)
(0.00471558708806 -0.00156438452172 0)
(0.00496581518971 -0.00500739608892 0)
(0.00492304403676 -0.00841763824218 -7.62443437042e-28)
(0.00484238973363 -0.0118053158604 0)
(0.00473512225361 -0.0151234513373 0)
(0.00460376960296 -0.0183577225719 0)
(0.00445072577698 -0.0214924267717 0)
(0.00427848919483 -0.0245134750032 0)
(0.00408964686978 -0.0274085041469 0)
(0.00388681117852 -0.0301669690963 0)
(0.00367255305255 -0.0327801441494 0)
(0.00344934106048 -0.0352410712959 0)
(0.00321949365452 -0.0375444667968 0)
(0.00298514408984 -0.0396865982375 0)
(0.00274822024948 -0.0416651425929 0)
(0.00251043527857 -0.0434790351084 0)
(0.00227328994965 -0.0451283167903 0)
(0.00203808121753 -0.0466139870987 0)
(0.00180591816243 -0.047937866162 0)
(0.00157773936827 -0.0491024697728 0)
(0.00135433406044 -0.0501108984181 0)
(0.00113636105041 -0.0509667410562 0)
(0.000924369210839 -0.051673992821 0)
(0.000718813548671 -0.0522369858797 0)
(0.000520071992879 -0.0526603315709 0)
(0.000328456777559 -0.0529488724435 0)
(0.000144226850437 -0.0531076421625 0)
(-3.24055619011e-05 -0.0531418317075 0)
(-0.000201268996841 -0.0530567571904 0)
(-0.00036222683142 -0.0528578515546 0)
(-0.000515170905542 -0.0525506233333 0)
(-0.00066002330796 -0.0521406441319 0)
(-0.000796731668002 -0.051633528911 0)
(-0.00092527006724 -0.0510349187489 0)
(-0.0010456350862 -0.0503504639998 0)
(-0.00115784735709 -0.0495858084291 0)
(-0.00126194745753 -0.0487465738887 0)
(-0.00135799763461 -0.0478383460569 0)
(-0.00144607728482 -0.0468666608667 0)
(-0.00152628472911 -0.0458369921467 0)
(-0.00159873229355 -0.044754740112 0)
(-0.00166354820145 -0.0436252211566 0)
(-0.00172087141267 -0.0424536585775 0)
(-0.00177085376171 -0.0412451745631 0)
(-0.00181365475991 -0.0400047830859 0)
(-0.00184944409592 -0.0387373838872 0)
(-0.00187839660521 -0.0374477572485 0)
(-0.00190069519801 -0.0361405595643 0)
(-0.0019165261911 -0.0348203195198 0)
(-0.0019260826788 -0.0334914346801 0)
(-0.00192956043277 -0.0321581684643 0)
(-0.00192716169087 -0.0308246470441 0)
(-0.00191909186081 -0.029494856369 0)
(-0.00190556366765 -0.0281726385282 0)
(-0.00188679492872 -0.0268616879488 0)
(-0.00186301293727 -0.0255655462397 0)
(-0.00183445356265 -0.0242875965644 0)
(-0.00180136560921 -0.023031055909 0)
(-0.00176401137368 -0.0217989666415 0)
(-0.00172267044123 -0.0205941852921 0)
(-0.0016776415403 -0.0194193706329 0)
(-0.00162924479219 -0.0182769686552 0)
(-0.00157782423517 -0.0171691974247 0)
(-0.00152374701406 -0.0160980292571 0)
(-0.00146740547566 -0.0150651742878 0)
(-0.00140921147897 -0.0140720629004 0)
(-0.00134959690963 -0.0131198321721 0)
(-0.00128900177702 -0.0122093138002 0)
(-0.00122787293701 -0.011341029272 0)
(-0.00116664636444 -0.0105151893307 0)
(-0.00110574588531 -0.00973170304732 0)
(-0.00104556250319 -0.00899019247322 0)
(-0.000986456801363 -0.00829001654904 0)
(-0.00092873946913 -0.00763029900618 0)
(-0.000872680429496 -0.00700996200832 0)
(-0.000818492846323 -0.00642776022588 0)
(-0.000766348393877 -0.0058823161793 0)
(-0.000716363172945 -0.00537215345895 0)
(-0.000668614699091 -0.00489572887154 0)
(-0.000623125463235 -0.00445146314806 0)
(-0.000579875099138 -0.00403777180199 0)
(-0.000538775157236 -0.0036530990177 0)
(-0.000499666181687 -0.00329595702787 0)
(-0.000462269823268 -0.00296497705626 0)
(-0.000426145642118 -0.00265897387353 0)
(-0.000390576216264 -0.00237702150115 0)
(-0.000354385610147 -0.00211851881653 0)
(-0.000315601700158 -0.00188308301862 0)
(-0.000269418525971 -0.00167204617647 0)
(-0.000229505434689 -0.00142361934217 0)
(-0.000241750934322 -0.00130950160461 0)
(-0.000262084582075 -0.00113020683005 0)
(-0.000291716533763 -0.000935109218037 0)
(-0.000361136088596 -0.000730076058275 0)
(-0.000476973604478 -0.000471480100375 0)
(-0.000519957994574 -0.000147630122471 0)
(0.00798290242282 -0.00158641907082 0)
(0.00841080532977 -0.00507511716595 0)
(0.00833115107865 -0.00852407890425 -7.61517643142e-28)
(0.00819151946624 -0.0119528431491 0)
(0.00800786955915 -0.0153098690731 0)
(0.00778376096165 -0.0185801725722 0)
(0.00752302174309 -0.0217475868569 0)
(0.00722985476155 -0.0247977696498 0)
(0.00690867451108 -0.0277182320864 0)
(0.00656395361866 -0.030498414362 0)
(0.00620009031568 -0.0331296717386 0)
(0.00582129860223 -0.035605205384 0)
(0.00543152437841 -0.0379199497773 0)
(0.0050343870251 -0.0400704304431 0)
(0.00463314591955 -0.0420546041939 0)
(0.00423068774455 -0.0438716925591 0)
(0.00382953195284 -0.0455220169129 0)
(0.00343184881649 -0.0470068418835 0)
(0.00303948742265 -0.0483282314053 0)
(0.00265400829862 -0.0494889201477 0)
(0.00227671924481 -0.0504922013202 0)
(0.00190871002128 -0.0513418308659 0)
(0.00155088605992 -0.0520419469539 0)
(0.00120399781247 -0.0525970033309 0)
(0.000868667348811 -0.0530117145195 0)
(0.00054540945302 -0.0532910109965 0)
(0.000234649853048 -0.0534400021218 0)
(-6.32614914904e-05 -0.0534639462434 0)
(-0.000348038765618 -0.0533682237627 0)
(-0.000619453195853 -0.0531583127508 0)
(-0.00087732799002 -0.0528397712414 0)
(-0.00112153378814 -0.0524182167798 0)
(-0.0013519850218 -0.0518993084384 0)
(-0.0015686386896 -0.0512887296304 0)
(-0.00177149128273 -0.0505921714759 0)
(-0.00196057803303 -0.0498153168606 0)
(-0.00213596973514 -0.0489638250912 0)
(-0.00229777185755 -0.0480433174144 0)
(-0.00244612090396 -0.0470593633619 0)
(-0.00258118324874 -0.0460174681856 0)
(-0.00270315108766 -0.0449230613226 0)
(-0.00281224116339 -0.0437814860847 0)
(-0.00290869056815 -0.0425979904608 0)
(-0.00299275563678 -0.0413777191307 0)
(-0.0030647079139 -0.0401257065351 0)
(-0.0031248334761 -0.0388468710055 0)
(-0.00317342934048 -0.0375460097841 0)
(-0.00321080340949 -0.036227794847 0)
(-0.00323727154781 -0.0348967693746 0)
(-0.00325315828557 -0.033557344693 0)
(-0.00325879477172 -0.0322137975684 0)
(-0.00325452034524 -0.0308702675664 0)
(-0.0032406815887 -0.0295307544153 0)
(-0.00321763487148 -0.0281991149445 0)
(-0.0031857467448 -0.0268790596112 0)
(-0.0031453975196 -0.0255741480113 0)
(-0.00309698318735 -0.0242877834927 0)
(-0.00304091993024 -0.0230232060873 0)
(-0.00297764751387 -0.0217834840501 0)
(-0.00290763421867 -0.0205715030863 0)
(-0.00283138111105 -0.0193899538618 0)
(-0.0027494261519 -0.0182413168864 0)
(-0.00266234789106 -0.0171278458902 0)
(-0.00257076654612 -0.0160515490351 0)
(-0.00247534474383 -0.0150141698788 0)
(-0.00237678268169 -0.0140171679384 0)
(-0.00227581333228 -0.0130617017026 0)
(-0.00217318942404 -0.0121486144511 0)
(-0.00206967216295 -0.0112784263097 0)
(-0.00196601068901 -0.0104513328092 0)
(-0.00186292726662 -0.00966721282707 0)
(-0.0017610944256 -0.00892564490173 0)
(-0.00166112355631 -0.008225932828 0)
(-0.00156354739641 -0.00756713747987 0)
(-0.00146881840222 -0.00694811358206 0)
(-0.00137730048691 -0.00636754751442 0)
(-0.00128927685616 -0.00582399450019 0)
(-0.0012049472835 -0.0053159127974 0)
(-0.00112443828832 -0.0048416945792 0)
(-0.0010477977345 -0.00439969357153 0)
(-0.00097499770542 -0.00398825035132 0)
(-0.000905916274248 -0.00360571720645 0)
(-0.000840320122163 -0.00325048425511 0)
(-0.000777816952376 -0.00292100992527 0)
(-0.000717794589025 -0.00261585789294 0)
(-0.000659314780699 -0.00233373921256 0)
(-0.000600980666067 -0.0020735884033 0)
(-0.000540811189154 -0.00183445483936 0)
(-0.000476170096187 -0.00162030500989 0)
(-0.000408920655351 -0.00137077951298 0)
(-0.000422867915868 -0.00125087348737 0)
(-0.000455351420207 -0.00105280824189 0)
(-0.00052231170008 -0.000849953366026 0)
(-0.000622937138843 -0.000606635794093 0)
(-0.000723346700356 -0.000346935292203 0)
(-0.000765754753733 -0.000109392161093 0)
(0.0113172136555 -0.00161411548054 0)
(0.0119285936881 -0.00516198718593 0)
(0.0118138515388 -0.00866662127549 7.61419834299e-28)
(0.0116131181766 -0.0121498364509 0)
(0.0113494039952 -0.0155578562922 0)
(0.0110279989632 -0.0188748973232 0)
(0.0106544810813 -0.0220841774133 0)
(0.0102349659408 -0.0251709838443 0)
(0.0097758673951 -0.0281226614634 0)
(0.00928366674586 -0.0309286627796 0)
(0.0087647142108 -0.0335805053185 0)
(0.00822506795223 -0.0360716711397 0)
(0.00767037366379 -0.0383974618318 0)
(0.00710578389596 -0.040554824964 0)
(0.00653591424991 -0.0425421661711 0)
(0.00596483085627 -0.0443591588201 0)
(0.00539606331903 -0.0460065604884 0)
(0.00483263610085 -0.0474860428624 0)
(0.0042771126382 -0.0488000391341 0)
(0.00373164611808 -0.0499516109364 0)
(0.00319803296777 -0.0509443351113 0)
(0.00267776486928 -0.0517822094365 0)
(0.00217207747077 -0.0524695755204 0)
(0.0016819934011 -0.053011056649 0)
(0.00120835953769 -0.0534115080717 0)
(0.000751877415716 -0.0536759773209 0)
(0.000313127908284 -0.0538096718381 0)
(-0.000107409852611 -0.0538179340205 0)
(-0.000509344694296 -0.0537062172707 0)
(-0.000892362326926 -0.0534800637604 0)
(-0.00125621908923 -0.0531450910317 0)
(-0.00160073661544 -0.0527069717071 0)
(-0.0019257979277 -0.0521714169779 0)
(-0.00223134500828 -0.0515441598986 0)
(-0.00251737595839 -0.0508309389883 0)
(-0.00278394295227 -0.0500374822346 0)
(-0.00303114916031 -0.0491694916051 0)
(-0.0032591462205 -0.0482326283021 0)
(-0.00346813047359 -0.0472324988908 0)
(-0.00365833983188 -0.0461746425092 0)
(-0.0038300494643 -0.0450645192279 0)
(-0.00398356837098 -0.0439074996775 0)
(-0.00411923493495 -0.0427088559239 0)
(-0.00423741365154 -0.041473753607 0)
(-0.00433849100126 -0.0402072452502 0)
(-0.00442287274062 -0.0389142646763 0)
(-0.00449098046743 -0.0375996223916 0)
(-0.00454324977225 -0.0362680018198 0)
(-0.00458012777198 -0.034923956231 0)
(-0.00460207234222 -0.0335719062015 0)
(-0.0046095508543 -0.0322161374501 0)
(-0.00460304069039 -0.0308607988315 0)
(-0.00458302943915 -0.0295099003277 0)
(-0.0045500169214 -0.0281673107453 0)
(-0.00450451713189 -0.0268367549409 0)
(-0.00444706199451 -0.0255218101816 0)
(-0.00437820527816 -0.0242259014396 0)
(-0.00429852812492 -0.022952295119 0)
(-0.00420864485178 -0.0217040910204 0)
(-0.00410920976432 -0.0204842119806 0)
(-0.00400092398723 -0.0192953911083 0)
(-0.00388454201987 -0.0181401561583 0)
(-0.00376087741716 -0.0170208113317 0)
(-0.00363080601765 -0.0159394164675 0)
(-0.00349526673432 -0.0148977646684 0)
(-0.00335525707216 -0.0138973591617 0)
(-0.00321182462454 -0.0129393915433 0)
(-0.00306605102812 -0.0120247232006 0)
(-0.00291903197323 -0.0111538729532 0)
(-0.00277185005149 -0.0103270129854 0)
(-0.00262554737684 -0.00954397562078 0)
(-0.00248109539527 -0.00880427140284 0)
(-0.00233937148094 -0.00810711839227 0)
(-0.00220113853031 -0.00745147988934 0)
(-0.00206703674226 -0.00683610738586 0)
(-0.00193757964669 -0.00625958415965 0)
(-0.00181316092073 -0.00572036621729 0)
(-0.00169406031234 -0.0052168179126 0)
(-0.00158045433179 -0.0047472414746 0)
(-0.00147241939771 -0.00430990046743 0)
(-0.0013699336116 -0.00390303787917 0)
(-0.00127286451434 -0.00352488981996 0)
(-0.00118094769934 -0.00317369562579 0)
(-0.00109374147132 -0.00284770539731 0)
(-0.00101055810011 -0.0025451861115 0)
(-0.000930352032186 -0.00226442590491 0)
(-0.000851559507009 -0.00200377873642 0)
(-0.000771865350881 -0.00176155235603 0)
(-0.00068800165207 -0.00154054013215 0)
(-0.000596672417788 -0.00128938071641 0)
(-0.000608890753683 -0.00113780188323 0)
(-0.000679850243467 -0.000952758169801 0)
(-0.000757128493457 -0.000712654791563 0)
(-0.000854724712816 -0.000478672390941 0)
(-0.000931086912424 -0.000268344141494 0)
(-0.000957955347534 -8.5812831568e-05 0)
(0.0147169852319 -0.00165122088131 0)
(0.0155119594617 -0.00527935145884 0)
(0.0153599015633 -0.00886108823013 0)
(0.0150945026907 -0.0124185562967 0)
(0.0147460985578 -0.0158958156847 0)
(0.0143219524806 -0.0192760768623 0)
(0.0138296640402 -0.0225417677363 0)
(0.0132775152822 -0.0256776919964 0)
(0.0126741477944 -0.02867099388 0)
(0.0120282478458 -0.031511176642 0)
(0.0113482767815 -0.0341900182239 0)
(0.010642256253 -0.0367014239562 0)
(0.00991761179509 -0.0390412336603 0)
(0.00918107289993 -0.0412070027684 0)
(0.00843862403814 -0.0431977744048 0)
(0.00769549829538 -0.0450138560564 0)
(0.00695620436788 -0.0466566107854 0)
(0.00622457727868 -0.048128269459 0)
(0.00550384423093 -0.0494317674021 0)
(0.00479669789295 -0.0505706064455 0)
(0.00410537126125 -0.0515487414861 0)
(0.00343170933904 -0.0523704894537 0)
(0.00277723471789 -0.0530404577992 0)
(0.00214320490384 -0.0535634892851 0)
(0.00153066076888 -0.0539446197863 0)
(0.000940465775678 -0.0541890460489 0)
(0.000373336772509 -0.0543020999593 0)
(-0.000170132641655 -0.0542892307044 0)
(-0.000689455969087 -0.0541559836188 0)
(-0.00118424083682 -0.0539079840817 0)
(-0.00165418208498 -0.0535509262914 0)
(-0.0020990562351 -0.0530905547701 0)
(-0.00251871770827 -0.0525326492356 0)
(-0.00291309611794 -0.0518830084787 0)
(-0.00328219354941 -0.0511474341106 0)
(-0.00362608190926 -0.050331714385 0)
(-0.00394489956816 -0.0494416083695 0)
(-0.00423884773689 -0.0484828307768 0)
(-0.00450818600482 -0.0474610377054 0)
(-0.00475322772009 -0.0463818135251 0)
(-0.00497433473021 -0.045250659046 0)
(-0.00517191228614 -0.0440729810753 0)
(-0.00534640361993 -0.0428540833729 0)
(-0.00549828503465 -0.041599158987 0)
(-0.00562806095251 -0.0403132838844 0)
(-0.00573625974974 -0.0390014117728 0)
(-0.00582342975261 -0.037668369981 0)
(-0.00589013620396 -0.0363188562503 0)
(-0.00593695853232 -0.0349574362856 0)
(-0.00596448872227 -0.0335885418995 0)
(-0.00597333012168 -0.0322164695903 0)
(-0.00596409747902 -0.0308453793586 0)
(-0.00593741759479 -0.029479293582 0)
(-0.0058939313588 -0.0281220956989 0)
(-0.00583429663296 -0.0267775284644 0)
(-0.00575919267189 -0.0254491914353 0)
(-0.00566932560842 -0.0241405373562 0)
(-0.00556543549597 -0.0228548669762 0)
(-0.00544830443134 -0.021595321874 0)
(-0.00531876584081 -0.0203648747125 0)
(-0.00517771430721 -0.0191663164906 0)
(-0.00502611532554 -0.0180022402764 0)
(-0.00486501405145 -0.0168750212551 0)
(-0.00469554149218 -0.0157867930491 0)
(-0.00451891690369 -0.0147394209715 0)
(-0.00433644403118 -0.013734473294 0)
(-0.00414950026306 -0.0127731926954 0)
(-0.00395951648262 -0.0118564705958 0)
(-0.00376794854064 -0.0109848281025 0)
(-0.00357624009007 -0.0101584071814 0)
(-0.00338578136059 -0.00937697556016 0)
(-0.00319786659178 -0.00863994701901 0)
(-0.00301365774391 -0.00794641677173 0)
(-0.00283415734412 -0.00729520847385 0)
(-0.00266019602677 -0.00668492743053 0)
(-0.0024924320921 -0.00611401343841 0)
(-0.00233136271156 -0.0055807878707 0)
(-0.00217733907153 -0.00508349174483 0)
(-0.00203058345205 -0.0046203138266 0)
(-0.0018912013415 -0.00418940935143 0)
(-0.00175918831709 -0.00378890993421 0)
(-0.00163442555602 -0.00341692526889 0)
(-0.00151666301227 -0.00307153615262 0)
(-0.00140548216517 -0.00275077760939 0)
(-0.00130023320483 -0.00245260938648 0)
(-0.00119993006603 -0.0021748663867 0)
(-0.00110308036378 -0.00191521087747 0)
(-0.00100737584458 -0.00167090052485 0)
(-0.000909306298581 -0.00144200963298 0)
(-0.000803562628192 -0.00118652403981 0)
(-0.000815037506867 -0.00100950054222 0)
(-0.000889197245912 -0.00080201384902 0)
(-0.000992537687677 -0.00059670368196 0)
(-0.00104922821399 -0.000386785976426 0)
(-0.00109247114969 -0.000218324620607 0)
(-0.00110775796402 -7.06136127266e-05 0)
(0.01820449229 -0.00169868650125 0)
(0.0191858510384 -0.00543015205272 0)
(0.0189931071974 -0.00911150898065 0)
(0.0186579434203 -0.0127644839893 0)
(0.018218389631 -0.0163304562741 0)
(0.017683990441 -0.0197913627385 0)
(0.0170647126867 -0.0231286498015 0)
(0.0163713457555 -0.0263265400751 0)
(0.0156150713124 -0.0293719734872 0)
(0.0148070484812 -0.0322545827564 0)
(0.013958063837 -0.0349665500142 0)
(0.0130782592771 -0.0375023931208 0)
(0.0121769411451 -0.0398587058166 0)
(0.011262466422 -0.042033876729 0)
(0.0103421965711 -0.0440278078952 0)
(0.00942250647274 -0.0458416484544 0)
(0.00850883485079 -0.0474775540467 0)
(0.00760576291796 -0.0489384778528 0)
(0.0067171095034 -0.0502279954229 0)
(0.00584603282115 -0.0513501626008 0)
(0.00499513134526 -0.0523094038993 0)
(0.0041665382476 -0.0531104275076 0)
(0.00336200588402 -0.0537581625387 0)
(0.00258297826551 -0.0542577140058 0)
(0.00183065089931 -0.0546143312099 0)
(0.00110601821639 -0.0548333857051 0)
(0.000409909643048 -0.0549203544824 0)
(-0.000256984005165 -0.0548808116675 0)
(-0.000894092530525 -0.0547204100157 0)
(-0.00150095370968 -0.0544448741036 0)
(-0.00207720640483 -0.0540599901686 0)
(-0.00262258589053 -0.0535715904171 0)
(-0.00313692088764 -0.0529855391408 0)
(-0.00362013135857 -0.0523077170676 0)
(-0.00407222615805 -0.0515440050188 0)
(-0.00449330021434 -0.0507002672763 0)
(-0.00488353081733 -0.0497823351211 0)
(-0.00524317310077 -0.048795990983 0)
(-0.00557255459982 -0.0477469535736 0)
(-0.00587206922461 -0.0466408642977 0)
(-0.00614217067526 -0.0454832751374 0)
(-0.00638336573702 -0.0442796381165 0)
(-0.00659620749059 -0.0430352963612 0)
(-0.0067812888627 -0.0417554767099 0)
(-0.00693923648494 -0.0404452837672 0)
(-0.00707070522552 -0.0391096952678 0)
(-0.00717637328317 -0.0377535585922 0)
(-0.00725693815476 -0.0363815882739 0)
(-0.00731311332019 -0.0349983643319 0)
(-0.00734562593781 -0.033608331269 0)
(-0.00735521539671 -0.0322157975747 0)
(-0.0073426330357 -0.0308249355627 0)
(-0.00730864291969 -0.0294397813628 0)
(-0.00725402401409 -0.028064234849 0)
(-0.00717957370752 -0.0267020592483 0)
(-0.00708611302497 -0.0253568801044 0)
(-0.00697449350662 -0.0240321831933 0)
(-0.00684560599378 -0.0227313108877 0)
(-0.0067003911958 -0.0214574563656 0)
(-0.00653985195797 -0.0202136549534 0)
(-0.00636506674897 -0.0190027718322 0)
(-0.00617720360496 -0.0178274853321 0)
(-0.00597753333434 -0.0166902651693 0)
(-0.00576744014903 -0.0155933452847 0)
(-0.00554842759309 -0.0145386915202 0)
(-0.00532211688844 -0.0135279652363 0)
(-0.00509023520747 -0.0125624851676 0)
(-0.00485459122585 -0.0116431911637 0)
(-0.00461703729775 -0.0107706148137 0)
(-0.00437941884553 -0.00994486268039 0)
(-0.0041435154317 -0.00916561767381 0)
(-0.00391097985292 -0.00843216206805 0)
(-0.00368328485507 -0.00774342221186 0)
(-0.00346168551023 -0.0070980300807 0)
(-0.00324720343594 -0.00649439294123 0)
(-0.00304063184107 -0.0059307606108 0)
(-0.0028425566764 -0.00540528198496 0)
(-0.00265338472432 -0.00491604652884 0)
(-0.00247337207187 -0.00446111077519 0)
(-0.00230264749388 -0.00403851158487 0)
(-0.00214122883144 -0.00364626763094 0)
(-0.00198902920264 -0.0032823693919 0)
(-0.0018458513751 -0.00294475649247 0)
(-0.00171136618232 -0.00263127925161 0)
(-0.00158507217684 -0.00233963707899 0)
(-0.00146622816165 -0.00206727543169 0)
(-0.00135374330562 -0.0018112232187 0)
(-0.00124595754167 -0.00156767513716 0)
(-0.00114038435818 -0.00133323964592 0)
(-0.00103224446489 -0.00107841094149 0)
(-0.00102793797363 -0.00086821613707 0)
(-0.00109566914707 -0.000670254038823 0)
(-0.00117043172409 -0.000488336405684 0)
(-0.00121137992921 -0.000326062052532 0)
(-0.00123191361456 -0.000184731537295 0)
(-0.00123909679435 -5.9767785274e-05 0)
(0.0218024765353 -0.00175766626886 0)
(0.0229742019566 -0.00561766318667 0)
(0.0227362166982 -0.00942290874648 7.56791252456e-28)
(0.0223244791093 -0.0131942952742 0)
(0.0217852350142 -0.0168698005371 0)
(0.0211307323856 -0.0204297559955 0)
(0.020373763139 -0.023854413786 0)
(0.0195280753378 -0.0271273347698 0)
(0.0186078017333 -0.0302352926132 0)
(0.017626921886 -0.0331681856406 0)
(0.0165988190051 -0.0359188090218 0)
(0.0155359468088 -0.0384825483193 0)
(0.014449607961 -0.0408570282696 0)
(0.0133498354009 -0.0430417491828 0)
(0.0122453611843 -0.0450377362812 0)
(0.0111436540485 -0.0468472197888 0)
(0.0100510063186 -0.048473356433 0)
(0.00897265213722 -0.049919996974 0)
(0.00791290163345 -0.0511914997343 0)
(0.00687527875611 -0.0522925868989 0)
(0.00586265370379 -0.0532282384066 0)
(0.00487736373366 -0.0540036173055 0)
(0.00392131862692 -0.0546240202073 0)
(0.00299608902453 -0.0550948467236 0)
(0.00210297744186 -0.0554215823091 0)
(0.00124307287823 -0.0556097897717 0)
(0.000417290734136 -0.0556651040111 0)
(-0.000373599754819 -0.0555932358726 0)
(-0.00112895663292 -0.0553999559244 0)
(-0.00184825578491 -0.0550911005362 0)
(-0.00253108490294 -0.0546725610376 0)
(-0.00317714112669 -0.0541502717988 0)
(-0.00378622984498 -0.0535301972252 0)
(-0.00435826378749 -0.052818316242 0)
(-0.00489326147273 -0.0520206054265 0)
(-0.00539134455352 -0.0511430214678 0)
(-0.005852733774 -0.0501914836396 0)
(-0.0062777435762 -0.0491718568998 0)
(-0.00666677545653 -0.0480899361241 0)
(-0.00702031039637 -0.0469514318473 0)
(-0.00733890063925 -0.0457619577552 0)
(-0.00762316122117 -0.0445270200358 0)
(-0.00787376151854 -0.0432520085909 0)
(-0.00809141716095 -0.0419421900199 0)
(-0.00827688246962 -0.0406027022313 0)
(-0.00843094365897 -0.0392385505004 0)
(-0.00855441285291 -0.037854604785 0)
(-0.00864812306912 -0.0364555981079 0)
(-0.00871292416353 -0.0350461258355 0)
(-0.0087496798645 -0.0336306456903 0)
(-0.00875926589565 -0.0322134783508 0)
(-0.00874256935224 -0.030798808494 0)
(-0.00870048939137 -0.0293906861243 0)
(-0.00863393947364 -0.0279930280037 0)
(-0.00854385130007 -0.0266096189472 0)
(-0.00843118074855 -0.025244112663 0)
(-0.00829691600118 -0.0239000317117 0)
(-0.00814208814213 -0.0225807660117 0)
(-0.00796778431561 -0.0212895691448 0)
(-0.00777516344829 -0.0200295515328 0)
(-0.00756547417644 -0.0188036693647 0)
(-0.00734007421982 -0.017614708047 0)
(-0.00710044980604 -0.0164652589394 0)
(-0.00684823295546 -0.0153576883985 0)
(-0.00658521360899 -0.0142940987455 0)
(-0.00631334266121 -0.0132762818786 0)
(-0.00603472161732 -0.0123056679286 0)
(-0.00575157462255 -0.0113832734952 0)
(-0.00546620031248 -0.0105096564313 0)
(-0.00518090361788 -0.00968488590969 0)
(-0.0048979126259 -0.00890853703214 0)
(-0.00461929051975 -0.00817971676253 0)
(-0.00434685739562 -0.0074971225918 0)
(-0.00408213679969 -0.00685912705012 0)
(-0.00382633715219 -0.00626387358385 0)
(-0.00358036700106 -0.00570936632887 0)
(-0.00334487422881 -0.00519354023912 0)
(-0.00312029373877 -0.00471430647617 0)
(-0.00290689249874 -0.00426957580551 0)
(-0.0027048067742 -0.00385726522143 0)
(-0.00251407079242 -0.00347529068251 0)
(-0.00233463604143 -0.0031215468033 0)
(-0.00216638033467 -0.00279387208289 0)
(-0.00200910618318 -0.0024899973092 0)
(-0.00186253225439 -0.00220747016932 0)
(-0.00172628673451 -0.00194353608176 0)
(-0.00159992033373 -0.00169493623536 0)
(-0.0014829539372 -0.00145746027236 0)
(-0.00137514976492 -0.00122563882488 0)
(-0.00127566490175 -0.000984818881833 0)
(-0.00122069114507 -0.000745187141655 0)
(-0.00126528292298 -0.000561584596296 0)
(-0.00130546843527 -0.000401810976059 0)
(-0.00134648300878 -0.00027421453654 0)
(-0.00135467976275 -0.000154722416794 0)
(-0.00135116656359 -4.92907193882e-05 0)
(0.0255362376295 -0.0018294984352 0)
(0.0269032469142 -0.00584599399878 0)
(0.026614106072 -0.00980184408906 -7.56677109632e-28)
(0.0261169601604 -0.013716688203 0)
(0.0254669953187 -0.0175242403074 0)
(0.0246797494507 -0.0212028361675 0)
(0.023771455345 -0.0247313072151 0)
(0.022759415856 -0.0280925016991 0)
(0.0216612477929 -0.0312731270531 0)
(0.0204941914751 -0.0342635655145 0)
(0.0192745594685 -0.0370575250591 0)
(0.0180173403916 -0.039651604092 0)
(0.0167359547049 -0.0420448171296 0)
(0.0154421459433 -0.0442381234036 0)
(0.014145982815 -0.046233989149 0)
(0.0128559444023 -0.0480360032319 0)
(0.0115790613205 -0.0496485558838 0)
(0.0103210888165 -0.0510765824791 0)
(0.00908669223091 -0.0523253687601 0)
(0.00787963002221 -0.0534004105003 0)
(0.00670292403606 -0.0543073189035 0)
(0.0055590105088 -0.0550517625762 0)
(0.00444986836525 -0.0556394372477 0)
(0.00337712370068 -0.0560760551974 0)
(0.00234213110209 -0.056367347367 0)
(0.00134603372323 -0.0565190723918 0)
(0.000389804863811 -0.0565370259716 0)
(-0.000525726439232 -0.056427059654 0)
(-0.0013998570028 -0.0561950661847 0)
(-0.00223200695213 -0.0558470024985 0)
(-0.00302171564438 -0.0553888756348 0)
(-0.00376864345091 -0.0548267354832 0)
(-0.0044725735055 -0.0541666619253 0)
(-0.00513341294794 -0.0534147488183 0)
(-0.00575119266928 -0.0525770859069 0)
(-0.00632606508616 -0.0516597396988 0)
(-0.00685829977103 -0.0506687342642 0)
(-0.0073482770597 -0.0496100327853 0)
(-0.00779647992639 -0.0484895205132 0)
(-0.00820348457246 -0.0473129895999 0)
(-0.00856995020248 -0.0460861260823 0)
(-0.00889660849161 -0.0448144991173 0)
(-0.00918425316609 -0.0435035524247 0)
(-0.00943373007666 -0.0421585977878 0)
(-0.00964592801967 -0.0407848103962 0)
(-0.00982177051203 -0.0393872257874 0)
(-0.00996220861691 -0.0379707381453 0)
(-0.0100682149054 -0.0365400997355 0)
(-0.0101407785726 -0.0350999212878 0)
(-0.0101809017647 -0.0336546731727 0)
(-0.0101895971496 -0.0322086872468 0)
(-0.0101678868458 -0.0307661592573 0)
(-0.0101168028323 -0.0293311516994 0)
(-0.0100373890722 -0.0279075969909 0)
(-0.00993070560705 -0.0264993007763 0)
(-0.00979783498943 -0.0251099450797 0)
(-0.00963989143185 -0.0237430908835 0)
(-0.00945803310602 -0.0224021795219 0)
(-0.00925347794306 -0.0210905320147 0)
(-0.00902752317117 -0.0198113451795 0)
(-0.00878156849266 -0.0185676829894 0)
(-0.00851714230085 -0.0173624613644 0)
(-0.00823592953081 -0.0161984243194 0)
(-0.00793979861258 -0.0150781095065 0)
(-0.00763082364095 -0.0140038016397 0)
(-0.00731129628489 -0.0129774736413 0)
(-0.00698372078844 -0.0120007174938 0)
(-0.00665078483657 -0.0110746701747 0)
(-0.00631530055599 -0.0101999440564 0)
(-0.00598011366816 -0.00937657515151 0)
(-0.00564798616699 -0.00860400462152 0)
(-0.00532146718181 -0.00788110674969 0)
(-0.00500277586163 -0.00720626824941 0)