/*--------------------------------*- C++ -*----------------------------------*\
| =========                 |                                                 |
| \\      /  F ield         | OpenFOAM: The Open Source CFD Toolbox           |
|  \\    /   O peration     | Version:  v1906                                 |
|   \\  /    A nd           | Web:      www.OpenFOAM.com                      |
|    \\/     M anipulation  |                                                 |
\*---------------------------------------------------------------------------*/
FoamFile
{
    version     2.0;
    format      ascii;
    class       surfaceScalarField;
    location    "772";
    object      phia;
}
// * * * * * * * * * * * * * * * * * * * * * * * * * * * * * * * * * * * * * //

dimensions      [0 3 -1 0 0 0 0];
oriented        oriented;


internalField   nonuniform List<scalar> 
18240
(
0.000850766444705
-0.000850650823789
0.00174370516457
-0.000892793555059
0.00263455372013
-0.000890735821859
0.00351823633274
-0.000883531292232
0.0043918292788
-0.000873488692281
0.00525286619246
-0.000860880768579
0.00609888681494
-0.000845925040418
0.0069277871552
-0.00082874048925
0.00773738729178
-0.000809513482179
0.00852590631195
-0.000788356659496
0.00929145459895
-0.000765470883676
0.0100325865914
-0.000740968254448
0.010747711594
-0.000715056846133
0.0114357134297
-0.000687837795562
0.012095285823
-0.000659513519243
0.0127256118515
-0.000630162683548
0.0133256319893
-0.000599970281298
0.0138947770698
-0.000568983371401
0.0144321787461
-0.000537360671769
0.0149374500953
-0.000505112118996
0.0154098483655
-0.000472365659945
0.015849097658
-0.000439093297458
0.0162545145025
-0.000405392287578
0.0166258670287
-0.00037120038763
0.0169624729421
-0.000336588768646
0.0172640894478
-0.000301468724959
0.0175299930468
-0.000265893344987
0.0177598942636
-0.000229758139876
0.0179530074126
-0.000193108974641
0.0181089845251
-0.000155838970921
0.0182269829231
-0.000117999646489
0.0183066105619
-7.94945538698e-05
0.018346999016
-4.03942449258e-05
0.0183477590304
-6.32070791669e-07
0.0183080636524
3.96856947012e-05
0.0182276038265
8.05825606761e-05
0.0181056871796
0.000121903853786
0.0179421876335
0.000163616963444
0.017736662286
0.000205509961353
0.0174892863047
0.000247487966961
0.0171999886077
0.000289280377895
0.0168693631931
0.000330731889082
0.0164978249187
0.000371519505868
0.0160864904343
0.00041143548552
0.0156363572686
0.00045011360382
0.0151491522887
0.000487300709547
0.0146265412732
0.000522591146147
0.0140709476408
0.00055568457639
0.0134847990186
0.00058612910346
0.0128713178148
0.00061356818844
0.0122338005208
0.000637498483005
0.0115763682759
0.000657516175653
0.0109032505337
0.000673099627313
0.010219464861
0.000683867269844
0.00953006123062
0.000689385350177
0.00884071082075
0.000689430168356
0.00815690211903
0.000683789396577
0.00748448413261
0.000672496087269
0.00682886775268
0.000655595363559
0.00619556947061
0.000633373104631
0.00558939984018
0.000606144943891
0.00501492189949
0.000574545066357
0.00447555413368
0.000539335766644
0.00397394211885
0.000501667700575
0.00351122325815
0.000462679723426
0.00308782432673
0.000423442762726
0.0027031901583
0.000384589906859
0.00235661373936
0.000346606879409
0.00204672472008
0.000309840582895
0.00177197243664
0.000274771794953
0.00153014689623
0.000241776707692
0.00131892176754
0.000211237986184
0.00113551793766
0.000183357909705
0.000977213802759
0.000158312086759
0.000841068478909
0.000136102857006
0.000724396715965
0.000116675519579
0.000624558407841
9.97996814007e-05
0.000539326749347
8.52332653576e-05
0.000466619049031
7.26739179957e-05
0.000404736468838
6.18837457023e-05
0.000352108593745
5.25989460662e-05
0.000307514677598
4.45951849209e-05
0.000269897545628
3.75924093143e-05
0.000238678172747
3.12214063145e-05
0.000214189520303
2.44678770697e-05
0.000193290277008
2.08997095474e-05
0.000173787778998
1.94841706756e-05
0.000156802968806
1.69830318154e-05
0.000140367194159
1.64183267799e-05
0.00012312581163
1.72365664689e-05
0.000105891238196
1.7216446791e-05
8.87155709526e-05
1.71663350851e-05
6.98635202518e-05
1.88379034175e-05
4.79829844204e-05
2.18599120118e-05
2.32052460794e-05
2.47446419999e-05
2.31899839154e-05
0.000898264330255
-0.00174878788152
0.0018520887246
-0.00184647693214
0.00280067671167
-0.00183919232738
0.00374070413758
-0.00182341743219
0.00466965060814
-0.00180230681692
0.00558503167417
-0.00177612100989
0.006484352995
-0.00174512182614
0.00736532041629
-0.00170956828784
0.00822569999511
-0.00166977309377
0.00906351335348
-0.00162603247532
0.0098768484241
-0.00157869114565
0.0106640741509
-0.00152805931044
0.0114236141508
-0.00147448772351
0.0121541812837
-0.00141827382732
0.0128545181547
-0.00135974729234
0.0135236497968
-0.00129916738949
0.0141605951039
-0.00123681882604
0.0147646362913
-0.0011729023043
0.0153350061571
-0.00110764025553
0.0158711735162
-0.00104116231779
0.0163725117502
-0.000973620210829
0.0168385998032
-0.000905069602752
0.0172688776547
-0.000835592998947
0.0176629623658
-0.000765178955066
0.018020295687
-0.000693851393499
0.0183404742739
-0.000621546848124
0.0186228940066
-0.000548248545192
0.0188670929867
-0.000473862277398
0.0190723964267
-0.000398353725291
0.0192382705499
-0.000321623715916
0.0193639725965
-0.000243648389317
0.0194489159097
-0.000164353715521
0.019492325722
-8.37557032012e-05
0.0194936105952
-1.83776420417e-06
0.0194520298716
8.13103012511e-05
0.0193670715219
0.000165615361513
0.0192381302005
0.000250884963143
0.0190648864623
0.000336930610424
0.0188469948404
0.000423437642679
0.0185844586004
0.000510089735792
0.018277325051
0.000596446556812
0.0179260492023
0.000682069062369
0.0175311936371
0.000766404634324
0.0170937762655
0.000848910212493
0.0166149751567
0.00092894156067
0.0160964608223
0.00100586874528
0.0155401119679
0.00107896459693
0.0149483387262
0.00114750837992
0.0143238178105
0.00121067291069
0.0136698123435
0.00126762178955
0.0129899249534
0.00131740770363
0.0122884022772
0.00135908522869
0.011569876094
0.0013916468782
0.0108396095178
0.00141417854446
0.0101031708583
0.00142584417189
0.00936657924165
0.00142606459595
0.00863590122209
0.001414486287
0.0079173516249
0.00139108712286
0.00721691325328
0.00135605052231
0.00654047386666
0.001309851447
0.00589345011256
0.00125318042822
0.00528081062418
0.0011872157042
0.00470653679912
0.00111361264807
0.00417340807043
0.00103481647653
0.00368257186715
0.000953510405369
0.00323407842428
0.000871947555711
0.0028272043062
0.000791450853162
0.00246104781945
0.000712763943637
0.00213426116348
0.00063660599831
0.00184509604266
0.000563929700687
0.00159121586791
0.000495632539409
0.00136998174489
0.000432461933342
0.00117841560364
0.000374899837519
0.00101346008779
0.0003232554124
0.000871939652649
0.000277598996931
0.000750839526493
0.000237761520545
0.000647345863078
0.0002032696194
0.000559034570931
0.000173530832722
0.00048375555898
0.000147931806577
0.000419680538969
0.000125946936331
0.000365179006956
0.000107082405451
0.000318881786194
9.08822805119e-05
0.00027953650251
7.69225857538e-05
0.000245899964832
6.48497800175e-05
0.000215852132982
5.45033435088e-05
0.000190005232584
4.67385207537e-05
0.000169103663725
4.03740699306e-05
0.000151709964408
3.43683167195e-05
0.000135958795625
3.21581628846e-05
0.000120396898741
3.27877376609e-05
0.000103799666323
3.38011156556e-05
8.66850119866e-05
3.42695225732e-05
6.87751677383e-05
3.67314907245e-05
4.82976977956e-05
4.23180612971e-05
2.36315721852e-05
4.93850694306e-05
4.68059825106e-05
0.000906495357585
-0.00265515335013
0.00186599050529
-0.0028058343948
0.00282130584957
-0.00279437100947
0.00376811920989
-0.00277009276089
0.00470369114522
-0.00273774428064
0.00562542860955
-0.00269772200985
0.00653082297282
-0.00265038451529
0.00741752323666
-0.00259613450755
0.00828330574711
-0.00253542741613
0.00912614277432
-0.00246873870181
0.00994415089351
-0.00239657529812
0.0107356584516
-0.00231944001786
0.0114991365927
-0.00223784667863
0.0122332666685
-0.0021522816064
0.0129368560371
-0.00206322277661
0.0136089057231
-0.0019710998215
0.0142485131332
-0.00187631800075
0.0148549407765
-0.00177921814379
0.0154275089002
-0.00168010612011
0.0159656667249
-0.0015792140809
0.0164688784769
-0.00147673582405
0.016936699067
-0.00137279007358
0.0173686573362
-0.00126746136227
0.0177643379393
-0.00116076544571
0.0181232650154
-0.00105269470706
0.0184449914687
-0.00094318515386
0.0187289856768
-0.000832165006094
0.0189747286374
-0.000719522876017
0.0191816055816
-0.000605158619053
0.0193490113158
-0.000488952614681
0.0194762487027
-0.000370819110353
0.0195626421376
-0.000250675505878
0.0196074446632
-0.000128496519441
0.0196099604548
-4.28677075422e-06
0.0195694616931
0.000121866151354
0.0194853190063
0.000249820291978
0.0193569279977
0.000379328802037
0.0191838450896
0.000510071467002
0.0189657210914
0.000641610448836
0.0187024373617
0.000773427344725
0.0183940414
0.000904887591752
0.0180408767512
0.00103528372927
0.0176435153542
0.00116380758577
0.0172028760902
0.00128959586091
0.0167201521441
0.0014117038256
0.01619691949
0.00152914440906
0.0156350658061
0.00164085366251
0.0150368994056
0.0017457148158
0.0144050934572
0.00184251187323
0.0137428086069
0.00192994441288
0.0130536590141
0.00200658855868
0.0123418415872
0.00207093883861
0.0116120919642
0.00212142603935
0.0108697623455
0.00215654299047
0.010120681016
0.00217495246464
0.00937109779082
0.00217568140695
0.00862740989375
0.00215819929404
0.00789605623452
0.00212247307339
0.00718332207288
0.00206880927742
0.00649534751108
0.00199785440851
0.00583802900039
0.00191051888696
0.00521683348144
0.00180843110867
0.00463643663623
0.001694018885
0.00409981330834
0.00157145043683
0.00360772542342
0.00144559958024
0.00315940927901
0.00132026771647
0.00275362271112
0.00119723177977
0.00238939207427
0.00107698813105
0.00206552485428
0.000960458706788
0.00178021491193
0.00084922679981
0.00153097979895
0.000744849879306
0.00131492887356
0.00064849898608
0.00112889714987
0.00056091319722
0.000969585736847
0.000482551256935
0.000833581009293
0.000413583401033
0.000717586275985
0.000353738055723
0.000618659040575
0.00030217605238
0.000534340925233
0.000257831448136
0.000462549050423
0.00021970532906
0.000401485247623
0.000186995420018
0.000349559550257
0.000158992607814
0.000305436095079
0.00013499283769
0.000267947392466
0.000114398303037
0.000236036615113
9.67505096762e-05
0.000208480320896
8.20487198981e-05
0.000184435159546
7.07737714088e-05
0.000162338297302
6.24596541385e-05
0.000142039830265
5.46564091832e-05
0.000125519914552
4.86668722324e-05
0.000112000066372
4.62957824809e-05
9.58402027161e-05
4.99470655217e-05
7.72715964894e-05
5.28258041198e-05
5.85085125949e-05
5.54836562737e-05
3.86051219408e-05
6.22022903884e-05
1.95647834086e-05
6.84009895556e-05
6.63603133007e-05
0.000914934491552
-0.0035699567669
0.00188242815663
-0.00377318840351
0.00284583419069
-0.00375763898687
0.00380060194797
-0.00372472217809
0.00474387179446
-0.00368087767687
0.00567295809115
-0.0036266721171
0.00658530086813
-0.00356259332032
0.00747849652986
-0.00348919675977
0.00835030008163
-0.00340710031754
0.00919865320711
-0.00331696197238
0.0100216752655
-0.00321947075564
0.0108176846107
-0.00311532375583
0.0115851783169
-0.00300521847926
0.0123228471508
-0.00288982966563
0.0130295450402
-0.00276980394707
0.0137042984876
-0.00264573779958
0.0143462673845
-0.00251817579347
0.0149547503496
-0.00238759132153
0.015529139296
-0.00225438986039
0.0160689230174
-0.00211889395986
0.016573638743
-0.00198135245524
0.0170428768984
-0.00184193048569
0.0174762330929
-0.00170072462759
0.0178733167822
-0.00155775751422
0.0182337065674
-0.00141299769639
0.0185569646196
-0.00126635761135
0.0188425970932
-0.00111771662354
0.0190900751959
-0.000966921189784
0.0192988018579
-0.00081381010284
0.0194681401203
-0.000658216590111
0.0195973873293
-0.000499996453344
0.0196858115458
-0.000339030579194
0.0197326349595
-0.000175255022514
0.0197370802108
-8.66766757557e-06
0.0196983641555
0.00016064253085
0.0196157540698
0.000332490266348
0.0194885716997
0.000506567193764
0.0193162574605
0.000682441388129
0.019098381458
0.000859538429433
0.0188347103214
0.00103715017804
0.0185252185093
0.00121442753098
0.018170149638
0.0013904004905
0.017770019875
0.00156398179905
0.0173256664103
0.00173399353682
0.0168382387656
0.00189917235828
0.0163092350594
0.00205818876768
0.0157404890567
0.00220963718397
0.0151342099759
0.00235203140507
0.0144929881186
0.00248376846051
0.0138198649293
0.00260310262145
0.0131183795086
0.00270810672788
0.012392673935
0.00279667695762
0.0116475533572
0.00286657785976
0.0108885433516
0.00291558172959
0.0101218284254
0.00294169757459
0.00935408451879
0.00294345065321
0.00859218693564
0.00292012623993
0.00784292493063
0.00287176121298
0.00711292993266
0.00279883117475
0.00640867056761
0.00270213887524
0.00573672733427
0.0025824817702
0.005103449477
0.00244172363542
0.0045149933756
0.00228248454114
0.00397489325453
0.00211155556127
0.0034829611743
0.00193753569096
0.00303666890528
0.00176656240906
0.00263367118265
0.00160022745903
0.00227323970108
0.00143741233236
0.00195467505079
0.00127901225119
0.00167615820656
0.00112773121335
0.00143486967037
0.00098612536779
0.0012275146147
0.000855841468573
0.00105063088945
0.00073778315518
0.000900612410625
0.000632553832671
0.000773625100883
0.00054055250999
0.000665868217692
0.000461475106024
0.000574164583171
0.000393859445363
0.000496091034595
0.000335885945804
0.00042972825392
0.000286049893688
0.000373373014015
0.000243334426478
0.00032546729308
0.000206883044451
0.000284772792618
0.00017567359575
0.000250266746577
0.000148892170778
0.000221076453444
0.000125930029664
0.000196525083429
0.000106590083434
0.000172560980284
9.47268060899e-05
0.000150785203352
8.42236708454e-05
0.000131725802401
7.37038191122e-05
0.000113278478318
6.71015546743e-05
9.49952198994e-05
6.45657244235e-05
8.13382641101e-05
6.35923066324e-05
6.40208241978e-05
7.01316453929e-05
4.47837015524e-05
7.47062577182e-05
2.90167639739e-05
7.79565179944e-05
1.48826287366e-05
8.2518224801e-05
8.12312030992e-05
0.000925847843117
-0.00449567216766
0.00190448517858
-0.00475168695978
0.00287888381771
-0.00473189757074
0.0038443666241
-0.00469006604247
0.00479797057837
-0.00463434359186
0.00573691338977
-0.00456547800663
0.00665856113146
-0.00448410563697
0.00756044786501
-0.00439094946235
0.00844028805551
-0.00428680842343
0.00929599259868
-0.00417253618852
0.0101256722618
-0.00404902243187
0.0109276452011
-0.00391717077855
0.011700430552
-0.00377788056817
0.0124427473274
-0.0036320255186
0.0131534987333
-0.00348043735397
0.0138317632316
-0.00332388683943
0.0144767708619
-0.00316307108826
0.0150878881516
-0.00299859897685
0.0156645888259
-0.00283098417914
0.0162064353962
-0.00266063696373
0.0167130476955
-0.00248786454685
0.0171840848213
-0.0023128702343
0.0176192153534
-0.0021357611693
0.0180181030895
-0.00195655405265
0.0183803819104
-0.00177518865299
0.0187056474191
-0.00159153796504
0.0189934379186
-0.00140542519957
0.019243232643
-0.00121663654888
0.0194544393325
-0.00102494049357
0.0196263995172
-0.000830102865799
0.0197583837556
-0.000631909674413
0.0198496051114
-0.000430183113316
0.0198992240184
-0.000224807806101
0.0199063726762
-1.57522313414e-05
0.0198701715586
0.000196905206798
0.0197897658927
0.000412955613789
0.0196643543236
0.000632036054378
0.0194932361067
0.000853615122518
0.0192758484613
0.00107697930761
0.0190118183872
0.00130123179264
0.0187010000956
0.00152529516012
0.0183435205465
0.00174792769977
0.017939804865
0.00196774295462
0.0174906038977
0.00218323828046
0.0169969990952
0.00239281872836
0.0164604101976
0.00259481754677
0.0158825880136
0.0027874972654
0.0152656238239
0.00296903202041
0.0146119664086
0.00313746079741
0.0139244809828
0.00329062189405
0.0132065402468
0.00342607949001
0.0124621695617
0.00354107964449
0.0116961976469
0.0036325772186
0.0109143954861
0.00369741469369
0.0101234522555
0.00373266272246
0.0093307669034
0.0037361668007
0.00854391697317
0.00370699772398
0.00777015766768
0.00364555080895
0.00701643445865
0.00355257878287
0.00628939662455
0.00342920110464
0.00559654951471
0.00327534591418
0.00494541863182
0.00309286617927
0.00434559193854
0.00288231448568
0.00380203436369
0.00265511900695
0.00331240158814
0.00242717129076
0.00287022857516
0.00220874080858
0.00247094715595
0.00199951025476
0.0021152416272
0.00179311358318
0.00180384017524
0.00159040867378
0.00153488617725
0.00139667805993
0.00130480264748
0.00121620401573
0.00110960380164
0.00105103399934
0.000945476344905
0.000901902979269
0.00080853240129
0.000769485868876
0.000694276364047
0.000654792758177
0.000597926956724
0.000557805882529
0.000515918017875
0.00047584824962
0.000446058905195
0.000405725796736
0.000386843103995
0.000345247095511
0.000336735718867
0.000293424069927
0.000294105089179
0.000249497950308
0.000257873637423
0.000211891156236
0.00022720213378
0.000179550873423
0.00020129832026
0.000151823513361
0.000179873546654
0.000128004326016
0.00015893780754
0.000115651082978
0.00013850068833
0.000104648122773
0.000116380894134
9.58099985815e-05
9.61896796263e-05
8.72789838731e-05
7.77505827243e-05
8.29915907308e-05
6.302281991e-05
7.83069706421e-05
5.07326368544e-05
8.24115706915e-05
3.48895785223e-05
9.05424377721e-05
2.10351395763e-05
9.17971913872e-05
1.05337944565e-05
9.30021501334e-05
9.17585930148e-05
0.000939544576343
-0.00543508319174
0.00193245251227
-0.00574445264442
0.00292086849318
-0.00572017269631
0.00389997467674
-0.00566903158978
0.00486668770921
-0.00560091735306
0.0058181148842
-0.00551676693662
0.00675152869952
-0.00541738272515
0.0076643873971
-0.00530367293065
0.00855435063107
-0.00517663834874
0.00941929332454
-0.00503734746131
0.0102573120027
-0.00488691199755
0.0110667289824
-0.00472646086283
0.011846088551
-0.00455711588502
0.012594151444
-0.00437996663695
0.0133098811773
-0.00419604821893
0.0139924294383
-0.00400631891965
0.0146411136822
-0.00381164226602
0.0152553950858
-0.00361277014876
0.0158348498587
-0.00341033196905
0.0163791429963
-0.003204826046
0.0168879973715
-0.00299661819002
0.0173611678163
-0.00278594289629
0.0177984126762
-0.00257291156406
0.0181994724769
-0.00235752229986
0.018564047404
-0.0021396752787
0.0188917827906
-0.00191918785498
0.019182253567
-0.0016958135965
0.0194349566201
-0.0014692598772
0.0196493018895
-0.00123920898402
0.0198246114347
-0.00100533810281
0.0199601179457
-0.000767344628376
0.020054971922
-0.000524967820408
0.0201082502679
-0.000278019449306
0.0201189755643
-2.64129395727e-05
0.0200861381156
0.000229804845195
0.0200087300042
0.000490423938041
0.0198857824173
0.000755041578719
0.0197164140348
0.00102303957072
0.0194998803242
0.00129356689208
0.0192356294305
0.00156553473863
0.0189233526371
0.00183762181984
0.0185630330529
0.00210829530854
0.0181549794487
0.00237584232395
0.017699848987
0.00263841254088
0.0171986484401
0.0028940607541
0.0166527227923
0.00314078286223
0.0160637298701
0.00337652766501
0.0154336222814
0.00359917596342
0.0147646475248
0.00380646970983
0.0140594024572
0.00399590040039
0.0133209560367
0.00416455763499
0.012553067943
0.00430899640396
0.0117604864263
0.0044251891879
0.0109492359432
0.00450868678541
0.0101267692778
0.0045551604783
0.00930163432336
0.00456132021105
0.00848259877084
0.00452606509859
0.00767737256517
0.00445080144236
0.00689312413479
0.00433685570016
0.00613589450319
0.00418645321518
0.00541444203041
0.00399681466331
0.00473679055976
0.00377051924656
0.00412113211261
0.00349797622816
0.0035760082978
0.00320024060839
0.00309419832025
0.0029089845043
0.00266008575274
0.00264286038072
0.00226446881534
0.00239512688071
0.00191327715275
0.0021443082984
0.00161086101906
0.00189281993388
0.00135486501523
0.00165267957934
0.00113986970496
0.0014311991473
0.000960666082655
0.0012302450297
0.000813229670981
0.00104933816643
0.000693760585739
0.000888951617148
0.000596791225224
0.000751751883738
0.000515411272527
0.000639169477282
0.000445403811238
0.000545838081215
0.000385376100482
0.000465732192384
0.000334848003614
0.000395754799877
0.000292535669562
0.000335717396757
0.000256296113429
0.000285720579386
0.00022538086329
0.00024279104618
0.000199213173687
0.000205705648256
0.000176993887523
0.000174031857648
0.000156103551196
0.000148883910161
0.000135931959923
0.000135810832558
0.000117545229582
0.000123021234595
0.000100605452971
0.000112735246158
8.17433463149e-05
0.000106125616999
6.36208140777e-05
0.000101099580346
4.59640851755e-05
9.59536526367e-05
3.4749371437e-05
9.36174408474e-05
2.60549171501e-05
9.92251952112e-05
1.54546726876e-05
0.000102389074854
7.61853072585e-06
0.00010082789452
9.9368592992e-05
0.00095623705703
-0.00639118486261
0.0019666174954
-0.00675469149851
0.00297218818186
-0.00672560014329
0.0039679427588
-0.00666464432372
0.00495065037189
-0.00658348388603
0.00591728381952
-0.00648326068305
0.00686500146102
-0.00636496204527
0.00779116911424
-0.00622970396116
0.00869337878691
-0.00607871322501
0.00956946210486
-0.00591329809359
0.0104174981724
-0.00573481758297
0.0112358161101
-0.00554465079448
0.012022992015
-0.00534416629036
0.0127778406333
-0.00513469253365
0.0134994016393
-0.00491748925347
0.0141869208044
-0.0046937211216
0.0148398263381
-0.00446443376425
0.0154577010309
-0.00423053397873
0.0160402511471
-0.00399277426857
0.016587273271
-0.00375174361375
0.0170986206373
-0.00350786409163
0.0175741704546
-0.00326139452718
0.0180137937038
-0.0030124396981
0.0184173284643
-0.00276096516433
0.0187845573987
-0.00250681529563
0.0191151894685
-0.00224973410728
0.0194088455403
-0.00198938668518
0.0196650473805
-0.00172538166219
0.0198832096207
-0.00145729381624
0.020062634702
-0.00118468851327
0.0202025114408
-0.00090714915558
0.0203019175713
-0.000624304281409
0.0203598286184
-0.000335863100845
0.0203751338519
-4.1653148315e-05
0.0203466609055
0.000258340693873
0.0202732100389
0.000563935475724
0.0201535984173
0.000874711860729
0.0199867138717
0.00118998062815
0.019771576407
0.00150875890214
0.0195074042268
0.00182975932115
0.0191936793933
0.00215139704636
0.0188302065989
0.00247181623321
0.0184171574502
0.00278893741876
0.0179550925522
0.00310052096763
0.0174449556829
0.00340423911912
0.016888038185
0.0036977394077
0.0162859216755
0.00397868209317
0.0156404116768
0.00424472088872
0.0149535004393
0.00449341624236
0.0142273859136
0.0047220465304
0.0134646208562
0.00492735388548
0.0126684221223
0.00510522509675
0.0118431796138
0.00525045604715
0.0109951052498
0.00535679128248
0.0101327020779
0.00541758255091
0.00926656135796
0.00542749356717
0.00840756675853
0.00538508335685
0.00756374080588
0.00529466038421
0.00674241083597
0.00515821499898
0.00594657957166
0.00498230594054
0.00518729278146
0.00475610577599
0.00446753258747
0.00449027792278
0.00382869741092
0.00413679517068
0.00328819118301
0.00374073960338
0.00282752889731
0.00336964507858
0.00240904051606
0.00306134142374
0.00201331707559
0.00279084286695
0.00166348490794
0.00249413084448
0.00137209761051
0.00218420107681
0.00113394939993
0.0018908304808
0.000939073761641
0.0016260820583
0.000780021213145
0.00138931169837
0.000653319995971
0.00117604521879
0.000556637932311
0.000985642984264
0.000483238788704
0.000825144881831
0.000421081048769
0.000701320135129
0.000364761128079
0.000602138610811
0.000315308812076
0.000515165983831
0.000274737214973
0.000436304148353
0.000242066355328
0.00036836820105
0.000213120550976
0.000314648626953
0.000188151034739
0.000267745484497
0.000167152693986
0.00022669074033
0.000149252143401
0.000191921204671
0.000130461171231
0.000167663600618
0.000113257761888
0.00015300101234
9.52710128617e-05
0.000140993323201
7.8133239991e-05
0.000129856860007
6.14494707061e-05
0.000122793552754
4.77074689294e-05
0.000114827504237
3.3547530192e-05
0.000110100748363
2.15286295739e-05
0.000105627442183
1.65602899058e-05
0.000104189490512
1.01442302242e-05
0.000108794647383
4.93785148622e-06
0.000106021425994
0.000104302308445
0.000976117733605
-0.00736716578628
0.00200733231835
-0.00778576010333
0.00303334666336
-0.00775147014203
0.00404892165663
-0.00768007516894
0.00505064169505
-0.00758506121645
0.0060353172631
-0.00746779466393
0.0069999681927
-0.00732947296393
0.00794184962106
-0.00717144701701
0.00885847214099
-0.00699519936607
0.00974761650234
-0.00680230814011
0.0106073414455
-0.00659441061555
0.0114359862641
-0.00637316611795
0.012232166668
-0.00614021994918
0.0129947655651
-0.00589716737912
0.0137229169583
-0.00564551961343
0.0144159848073
-0.00538667084312
0.0150735351052
-0.00512186914951
0.0156953037779
-0.00485219078564
0.0162811593381
-0.00457852129419
0.0168310640246
-0.00430154288353
0.0173450331408
-0.00402173116237
0.0178230969851
-0.00373935943815
0.018265265024
-0.00345451213464
0.0186714960953
-0.00316710367
0.0190416729685
-0.00287690282635
0.0193755834294
-0.00258355812301
0.0196729046458
-0.00228662451384
0.0199331919964
-0.00198558834224
0.0201558690571
-0.00167989306618
0.0203402207654
-0.00136896493097
0.020485388248
-0.00105224400685
0.0205903682055
-0.000729213939049
0.0206540178737
-0.000399444941505
0.0206750690954
-6.26387067889e-05
0.0206521518362
0.000281321297819
0.0205838310293
0.000632317585976
0.0204686557363
0.000989946231532
0.0203052227078
0.00135347075047
0.020092250731
0.00172178574976
0.0198286642813
0.0020933986183
0.0195136781559
0.00246643364767
0.0191468764473
0.00283866620635
0.0187282718871
0.003207587643
0.0182583354142
0.00357050103214
0.0177379807137
0.00392463469455
0.0171685020669
0.00426725783797
0.0165514607702
0.0045957596541
0.0158885532211
0.00490766603417
0.0151814751498
0.00520052608459
0.0144318829827
0.00547167340591
0.0136414896582
0.00571777637943
0.0128124774289
0.0059342663386
0.0119483000576
0.00611466278783
0.0110549440157
0.0062501708239
0.0101423412775
0.00633021834032
0.00922474436383
0.00634511481619
0.00831756363249
0.00629230070924
0.0074281321721
0.0061841236671
0.00656513337444
0.00602123670591
0.00572124589062
0.00582619894815
0.00491556295799
0.00556179870844
0.00412030516921
0.00528551495464
0.0034438264614
0.00481323542977
0.00292408957257
0.0042604674421
0.00251688640332
0.00377682715194
0.00212916540576
0.0034490289954
0.00171708965168
0.00320293436063
0.00135840990783
0.00285275119447
0.0010816634561
0.0024609869474
0.000869959756548
0.00210248428495
0.0007022692003
0.00179383128197
0.000567196433593
0.00152434836346
0.000464220260447
0.00127907369871
0.000396740150541
0.00105309548373
0.000357167630025
0.000864731009746
0.000319933585279
0.000738535686506
0.000277114076022
0.000644941874711
0.000236848631791
0.000555414930155
0.000207157069779
0.000465972401295
0.000187285881364
0.000388225169838
0.00016596413138
0.000335957757685
0.000147027014095
0.00028666987386
0.000131719586949
0.000241987247884
0.000117575846669
0.000206054393216
0.00010197893498
0.000183249118373
8.71711388102e-05
0.000167794573636
7.21841218788e-05
0.000155964027798
5.61949891504e-05
0.00014582871152
4.24636185323e-05
0.000136507712028
2.9204194033e-05
0.00012807203876
2.07032783243e-05
0.000118590920066
1.24700193038e-05
0.000113852049938
7.36053979182e-06
0.000109288269584
5.25079171445e-06
0.000110898738864
2.36940911115e-06
0.000108895438581
0.000106664310317
0.000999404747225
-0.00836643128144
0.00205501962307
-0.00884122951278
0.00310496531407
-0.00880126846079
0.00414371328694
-0.00871867731484
0.00516762569478
-0.00860882857323
0.0061733165408
-0.00847334194748
0.00715764070841
-0.00831365502741
0.00811772174609
-0.00813138778119
0.00905097463826
-0.00792831392567
0.00995512077197
-0.00770631821806
0.0108281964775
-0.00746735260675
0.0116685546243
-0.0072133932246
0.0124748604168
-0.00694639736283
0.0132460801845
-0.00666826176203
0.0139814641358
-0.00638078108807
0.0146805213284
-0.00608560878907
0.0153429883261
-0.00578421998013
0.0159687902928
-0.00547787996738
0.0165579974434
-0.00516761883695
0.0171107769644
-0.00485421624315
0.0176273449307
-0.00453819616222
0.0181079192917
-0.00421983426114
0.0185526786775
-0.00389917511964
0.0189617271535
-0.0035760590785
0.0193350676742
-0.00325015328902
0.0196725816856
-0.00292098525454
0.0199740149961
-0.00258797377676
0.0202389656695
-0.00225045795012
0.0204668739291
-0.00190772288571
0.0206570113396
-0.00155902667702
0.0208084721407
-0.00120363157107
0.0209201659203
-0.000840837059525
0.0209908180448
-0.000470028649888
0.0210189781649
-9.0732819782e-05
0.0210030424437
0.000297320924662
0.0209412904449
0.000694131196466
0.0208319407689
0.00109935548873
0.0206732245296
0.00151224429904
0.0204634777435
0.00193158778206
0.0202012472248
0.00235568198141
0.0198854047319
0.00278232670796
0.0195152557069
0.00320886315919
0.0190906279922
0.00363226111708
0.0186119173345
0.00404925471108
0.0180800720493
0.00445652177054
0.0174964929462
0.00485087528552
0.0168628567273
0.00522943554619
0.0161808553435
0.00558970042383
0.0154519379127
0.0059294813352
0.0146770689123
0.00624657170855
0.0138567202524
0.0065381588568
0.0129912207646
0.00679979581525
0.0120818959334
0.00702401889382
0.0111333337485
0.00719876766732
0.0101568448261
0.00730673832459
0.00917364549065
0.00732834964799
0.00820993856685
0.00725603487186
0.00726799270008
0.0071260926231
0.00636537911823
0.00692386637965
0.00546296153713
0.00672866806691
0.00461752846263
0.00640722639571
0.00366322949448
0.0062397437648
0.002916058192
0.00556043921269
0.00245552284605
0.00472094188707
0.00218188290393
0.00405047532621
0.00185785316229
0.0037730874628
0.00137731971858
0.00368342147271
0.000990936010584
0.00323920737413
0.000743217022299
0.00270862778337
0.00057676148415
0.00226902961779
0.000446129250065
0.00192438570173
0.000335107987843
0.00163543568383
0.000251773821026
0.00136234779718
0.000217579177962
0.00108728782731
0.000228410239763
0.000853886460505
0.000223500187818
0.000743389404263
0.000187518271702
0.000680942568723
0.000149468383581
0.00059340805099
0.000131069273193
0.00048437563132
0.000131852139324
0.000387421681189
0.000116679062245
0.000351121335056
0.000102760749147
0.000300583099152
9.4655470639e-05
0.000250085542731
8.32564348035e-05