/*--------------------------------*- C++ -*----------------------------------*\
| =========                 |                                                 |
| \\      /  F ield         | OpenFOAM: The Open Source CFD Toolbox           |
|  \\    /   O peration     | Version:  v1906                                 |
|   \\  /    A nd           | Web:      www.OpenFOAM.com                      |
|    \\/     M anipulation  |                                                 |
\*---------------------------------------------------------------------------*/
FoamFile
{
    version     2.0;
    format      ascii;
    class       volVectorField;
    location    "498";
    object      Ua;
}
// * * * * * * * * * * * * * * * * * * * * * * * * * * * * * * * * * * * * * //

dimensions      [0 1 -1 0 0 0 0];


internalField   nonuniform List<vector> 
9216
(
(-0.0103595972846 0.0103653609208 0)
(-0.0109327554131 0.033452301598 3.91938935005e-27)
(-0.0109291246086 0.0568958197249 -7.07351833733e-31)
(-0.0108272336704 0.0803474338825 0)
(-0.0106818301811 0.103410879057 0)
(-0.0104973456395 0.125992094575 0)
(-0.0102779856959 0.147990203126 0)
(-0.0100273800398 0.169313303185 0)
(-0.00974798745965 0.189879040091 0)
(-0.00944325419647 0.209614155714 0)
(-0.0091155743457 0.228455212948 0)
(-0.00876852299461 0.246348167785 0)
(-0.0084044005793 0.263248820012 0)
(-0.0080267617881 0.279122127062 0)
(-0.00763766270555 0.293942301933 0)
(-0.00724048171886 0.307691922237 0)
(-0.00683691533088 0.320361761829 0)
(-0.00643006105095 0.331949804668 0)
(-0.00602120220582 0.342460908043 0)
(-0.00561311130951 0.351905821866 0)
(-0.00520665884274 0.360300776521 0)
(-0.00480429483375 0.367666591596 0)
(-0.00440651872418 0.374028248421 0)
(-0.00401549140719 0.379414133917 0)
(-0.00363139955354 0.383855634662 0)
(-0.00325615494645 0.387386535437 0)
(-0.00288969082487 0.39004263814 0)
(-0.00253370542498 0.391861305659 0)
(-0.00218792660573 0.392881103665 0)
(-0.00185386845772 0.393141483529 0)
(-0.00153111107125 0.39268238807 0)
(-0.00122092815507 0.391544287982 0)
(-0.000922665909477 0.389767291421 0)
(-0.000637497681029 0.38739132643 0)
(-0.000364728455054 0.384455938175 0)
(-0.000105356180793 0.381000128983 0)
(0.000141445275636 0.377062037256 0)
(0.000374842702112 0.372678975482 0)
(0.000595752114714 0.367887092553 0)
(0.000803487910466 0.362721482502 0)
(0.000999035821305 0.357215857199 0)
(0.00118184632409 0.351402712492 0)
(0.00135295496726 0.345313009188 0)
(0.00151193405291 0.338976385203 0)
(0.00165984978673 0.332420850363 0)
(0.00179638061816 0.325673038866 0)
(0.00192260228399 0.31875791819 0)
(0.0020382806127 0.311699073267 0)
(0.00214448041635 0.304518434389 0)
(0.00224103572231 0.29723658832 0)
(0.00232897961877 0.289872524199 0)
(0.00240819457902 0.28244396338 0)
(0.00247966412298 0.274967125165 0)
(0.00254330199408 0.267457069608 0)
(0.00260002706119 0.259927479217 0)
(0.00264977000773 0.25239100577 0)
(0.00269337552128 0.244859066465 0)
(0.00273078205549 0.237342188064 0)
(0.00276275541815 0.229849811835 0)
(0.00278923720831 0.222390626554 0)
(0.00281091567865 0.214972379642 0)
(0.00282773609601 0.207602193495 0)
(0.00284031462621 0.200286378236 0)
(0.00284860405402 0.193030725674 0)
(0.0028531577262 0.185840322822 0)
(0.00285394238936 0.178719821115 0)
(0.00285145918114 0.171673249302 0)
(0.00284569563224 0.164704256109 0)
(0.00283711175554 0.157815924553 0)
(0.00282572211045 0.151010989019 0)
(0.00281195515377 0.144291652713 0)
(0.00279585655501 0.137659780412 0)
(0.00277783084291 0.13111672301 0)
(0.00275795638645 0.124663488845 0)
(0.00273661852033 0.118300578405 0)
(0.0027139268675 0.112028136858 0)
(0.00269024967668 0.105845802818 0)
(0.00266572372467 0.0997528453653 0)
(0.0026406995429 0.0937480293868 0)
(0.00261533447312 0.0878297398675 0)
(0.00258995846944 0.0819958663101 0)
(0.00256474081043 0.0762439175316 0)
(0.00253998551384 0.0705709266684 0)
(0.00251586246503 0.0649735603955 0)
(0.00249264000204 0.0594480478331 0)
(0.00247046969777 0.0539902929481 0)
(0.00244955774042 0.0485958405306 0)
(0.00242998086239 0.0432600256852 0)
(0.00241176411771 0.0379780531762 0)
(0.00239461516834 0.0327453788615 0)
(0.00237762469521 0.0275583615233 0)
(0.00235814139365 0.0224163282972 0)
(0.00232898010138 0.0173272903912 0)
(0.00225748339635 0.0123601150645 0)
(0.00212400175345 0.00703498873614 0)
(0.00333091573073 0.00333092065274 0)
(-0.0335352357694 0.0110240441752 0)
(-0.0370707619497 0.0373519367482 0)
(-0.0369845060086 0.0636076935875 -4.11442255723e-27)
(-0.0364841550999 0.0898967164612 0)
(-0.0357886217418 0.115716083411 0)
(-0.0349250191343 0.140981282579 0)
(-0.0339075873431 0.165585038812 0)
(-0.0327511764898 0.189426294228 0)
(-0.0314698345055 0.212413269539 0)
(-0.0300796394886 0.234464302073 0)
(-0.0285953917684 0.255508557835 0)
(-0.0270336819328 0.275486000635 0)
(-0.0254090301526 0.294347564886 0)
(-0.0237374438158 0.312054700385 0)
(-0.0220321794399 0.328579150842 0)
(-0.020307796196 0.343902219569 0)
(-0.0185756156195 0.358014284584 0)
(-0.0168482248713 0.370913916729 0)
(-0.0151346869964 0.382607254653 0)
(-0.0134454231569 0.393107094134 0)
(-0.0117872124247 0.402432228526 0)
(-0.0101683724133 0.410606600884 0)
(-0.00859358401595 0.417658682056 0)
(-0.00706928266414 0.423620739602 0)
(-0.00559834099732 0.428528289336 0)
(-0.00418559021217 0.43241949776 0)
(-0.00283240267991 0.435334709364 0)
(-0.00154227239547 0.437315972395 0)
(-0.000315346376716 0.438406627706 0)
(0.000845989160863 0.438650931796 0)
(0.00194256361535 0.438093722056 0)
(0.00297294408067 0.436779913722 0)
(0.00393885913362 0.434754654684 0)
(0.00483963862472 0.432062896226 0)
(0.00567756184366 0.428748939244 0)
(0.00645257798487 0.424856407593 0)
(0.00716747255506 0.420427979109 0)
(0.00782270830878 0.415505316885 0)
(0.00842142632103 0.41012883554 0)
(0.00896448418705 0.404337679491 0)
(0.00945525871667 0.398169513989 0)
(0.00989490202331 0.391660548832 0)
(0.0102869216342 0.384845353474 0)
(0.0106326734835 0.377756920312 0)
(0.0109357029862 0.370426504281 0)
(0.0111974875058 0.362883721234 0)
(0.0114215256184 0.35515641138 0)
(0.0116093392354 0.347270768279 0)
(0.0117643046429 0.339251226641 0)
(0.0118879192013 0.331120617958 0)
(0.0119833706074 0.322900080979 0)
(0.012052071388 0.314609238772 0)
(0.0120969676235 0.306266129967 0)
(0.0121193401441 0.297887401546 0)
(0.0121218555175 0.289488256243 0)
(0.0121056314318 0.281082653866 0)
(0.0120730357718 0.272683270046 0)
(0.0120250100315 0.264301698802 0)
(0.0119636227214 0.25594841626 0)
(0.011889643487 0.247632976892 0)
(0.0118048588912 0.239363976964 0)
(0.0117098870946 0.231149238243 0)
(0.0116062640676 0.222995766168 0)
(0.0114944880367 0.214909916048 0)
(0.0113758855741 0.206897343349 0)
(0.0112508731679 0.198963149766 0)
(0.0111206128651 0.191111824289 0)
(0.0109854782329 0.183347368262 0)
(0.0108465106324 0.175673228378 0)
(0.0107040758058 0.168092401955 0)
(0.0105591324069 0.160607364013 0)
(0.0104120656622 0.1532201551 0)
(0.0102637811131 0.145932306074 0)
(0.0101147012271 0.138744911893 0)
(0.00996569785218 0.131658557738 0)
(0.0098172379354 0.124673382282 0)
(0.00967016905895 0.117789009056 0)
(0.00952500014125 0.111004602793 0)
(0.00938255450689 0.10431880917 0)
(0.00924337179632 0.0977298073294 0)
(0.00910824298655 0.0912352607128 0)
(0.00897771969798 0.0848323686598 0)
(0.00885254446053 0.0785178302362 0)
(0.00873325347178 0.0722878976231 0)
(0.00862051247815 0.0661383548488 0)
(0.00851479554095 0.0600645759824 0)
(0.00841662588667 0.0540615198102 0)
(0.00832629257146 0.0481237914298 0)
(0.00824394347714 0.0422456343812 0)
(0.00816917985895 0.0364209175619 0)
(0.00810064577538 0.030642822487 0)
(0.00803463408506 0.0249028208891 0)
(0.00796170323458 0.0191862767967 0)
(0.00785545125532 0.0134598357179 0)
(0.00758017506105 0.00756332879172 0)
(0.00703084211461 0.00211830529686 0)
(-0.0574111418876 0.0111707270672 0)
(-0.0635589847258 0.0379669459853 0)
(-0.0633426700947 0.0645536541269 -4.118162387e-27)
(-0.0624749855774 0.0912248987975 0)
(-0.0612978454124 0.11741533083 0)
(-0.0598453922044 0.143035130001 0)
(-0.0581379758396 0.167973150934 0)
(-0.0561981423014 0.192126090855 0)
(-0.0540497107902 0.215400442267 0)
(-0.0517183906988 0.237713396001 0)
(-0.0492298681584 0.25899336744 0)
(-0.0466106909877 0.279180097306 0)
(-0.0438862405572 0.29822464287 0)
(-0.0410819278208 0.316089011608 0)
(-0.0382211157306 0.332745752248 0)
(-0.0353266373813 0.348177281086 0)
(-0.032418707286 0.362375223176 0)
(-0.0295167404043 0.375339576346 0)
(-0.0266372648073 0.387077937323 0)
(-0.0237959948465 0.397604629781 0)
(-0.0210057381898 0.406939929772 0)
(-0.018278659184 0.415109255157 0)
(-0.0156241614497 0.422142465128 0)
(-0.0130512694559 0.428073164715 0)
(-0.0105664670978 0.432938112378 0)
(-0.00817613351706 0.43677665231 0)
(-0.00588433183674 0.439630224349 0)
(-0.00369525374162 0.441541906871 0)
(-0.00161097076346 0.442556008804 0)
(0.000366139052168 0.442717698827 0)
(0.00223565965224 0.442072672967 0)
(0.00399673326162 0.440666827369 0)
(0.00565024751821 0.438545975953 0)
(0.00719656432701 0.435755640227 0)
(0.00863771076139 0.432340772345 0)
(0.009975064485 0.428345577267 0)
(0.011211508521 0.423813301662 0)
(0.0123492158299 0.418786104178 0)
(0.013391728716 0.413304884167 0)
(0.0143418294639 0.407409194721 0)
(0.0152035376569 0.401137104948 0)
(0.0159800772994 0.39452515169 0)
(0.0166757817953 0.38760823134 0)
(0.0172941646682 0.380419585641 0)
(0.0178397243722 0.372990722403 0)
(0.0183161233522 0.365351432915 0)
(0.018727887155 0.357529739309 0)
(0.019078695943 0.349551940657 0)
(0.0193729754659 0.341442586849 0)
(0.0196143037479 0.333224551072 0)
(0.0198068935076 0.324919027252 0)
(0.0199541163086 0.316545624763 0)
(0.0200598781665 0.308122386913 0)
(0.0201272619171 0.299665903112 0)
(0.0201597985339 0.29119134256 0)
(0.0201602274685 0.282712577061 0)
(0.0201316668974 0.274242224366 0)
(0.0200764897828 0.265791774626 0)
(0.019997395886 0.257371635845 0)
(0.0198963999433 0.248991256402 0)
(0.0197758081812 0.240659166747 0)
(0.0196373131751 0.232383091844 0)
(0.019482877058 0.224169983298 0)
(0.0193139267493 0.216026116806 0)
(0.0191321461788 0.207957111836 0)
(0.0189387646209 0.199968011673 0)
(0.0187352603337 0.192063288984 0)
(0.0185227347117 0.184246907892 0)
(0.0183025304976 0.176522316634 0)
(0.0180756843997 0.168892493303 0)
(0.0178434637133 0.161359927733 0)
(0.0176068905855 0.153926653697 0)
(0.0173672019251 0.146594223844 0)
(0.0171254388042 0.139363732141 0)
(0.0168828352727 0.132235785599 0)
(0.0166404669413 0.125210520794 0)
(0.0163995750575 0.118287576455 0)
(0.0161612685509 0.111466107799 0)
(0.0159267899941 0.10474476319 0)
(0.0156972656974 0.0981216993656 0)
(0.0154739201974 0.091594564929 0)
(0.0152578689238 0.0851605189243 0)
(0.0150502871109 0.0788162227701 0)
(0.0148522390329 0.0725578635566 0)
(0.0146648051643 0.0663811546228 0)
(0.0144889393148 0.0602813621398 0)
(0.0143255518822 0.0542533080677 0)
(0.0141753778038 0.048291384642 0)
(0.0140390003949 0.0423895202503 0)
(0.0139167031217 0.0365410883142 0)
(0.0138084460988 0.0307386251124 0)
(0.0137138946645 0.0249731707505 0)
(0.0136330096393 0.0192324948194 0)
(0.0135666957067 0.0134952557377 0)
(0.013463651065 0.00779801500624 0)
(0.0123314366683 0.00224272151539 0)
(-0.0818440862755 0.0112997922839 0)
(-0.0906789745815 0.0385448207412 0)
(-0.0903615160053 0.0654764868098 4.11624937614e-27)
(-0.0891083278983 0.0925135810061 0)
(-0.0874111077607 0.119053832541 0)
(-0.0853198242585 0.145002446951 0)
(-0.0828639780349 0.170243953611 0)
(-0.0800757338121 0.194672089832 0)
(-0.0769898535832 0.218191283808 0)
(-0.0736431883237 0.240717499551 0)
(-0.0700733093883 0.262178625518 0)
(-0.0663181708751 0.282514556424 0)
(-0.0624148467638 0.301677054817 0)
(-0.0583994587448 0.319629344597 0)
(-0.054306067474 0.336345565008 0)
(-0.050166885282 0.351810044902 0)
(-0.0460113398849 0.366016512734 0)
(-0.0418665594832 0.378967209511 0)
(-0.0377565968756 0.390672004496 0)
(-0.0337031435683 0.40114748592 0)
(-0.029724874699 0.410416105915 0)
(-0.025838325069 0.418505353009 0)
(-0.022057296514 0.425447007095 0)
(-0.0183938160296 0.431276448768 0)
(-0.0148575457335 0.436032052422 0)
(-0.0114567555408 0.439754635499 0)
(-0.00819769848934 0.44248697357 0)
(-0.00508555957309 0.44427336104 0)
(-0.00212379070908 0.445159215064 0)
(0.000684972225533 0.44519071546 0)
(0.00333960114299 0.444414475751 0)
(0.00583959337731 0.44287726657 0)
(0.00818569936682 0.440625632704 0)
(0.0103791391421 0.437705769184 0)
(0.0124222615078 0.434163243142 0)
(0.0143176952957 0.430042798322 0)
(0.0160690240176 0.425388168898 0)
(0.0176799783134 0.420241931559 0)
(0.0191550914323 0.414645358751 0)
(0.0204989278785 0.408638312092 0)
(0.0217167162752 0.4022591312 0)
(0.0228136162277 0.395544562448 0)
(0.0237953235233 0.388529679235 0)
(0.0246673764398 0.381247842649 0)
(0.0254357293848 0.373730651181 0)
(0.0261060989223 0.366007931141 0)
(0.0266845033081 0.358107714489 0)
(0.0271766498297 0.350056257634 0)
(0.0275884399779 0.341878046462 0)
(0.0279253996658 0.333595841603 0)
(0.0281931511928 0.325230708473 0)
(0.0283968889945 0.316802085961 0)
(0.0285418209609 0.308327837997 0)
(0.028632691598 0.299824340736 0)
(0.0286741953014 0.291306549989 0)
(0.0286705485066 0.282788100375 0)
(0.028625877234 0.274281381749 0)
(0.0285438378339 0.265797642638 0)
(0.0284279798174 0.257347067872 0)
(0.0282814135487 0.248938878588 0)
(0.0281071482928 0.240581403959 0)
(0.0279078031791 0.232282171003 0)
(0.027685919161 0.224047964472 0)
(0.0274437087684 0.21588490158 0)
(0.027183340228 0.207798476497 0)
(0.0269067206107 0.199793617431 0)
(0.0266157502181 0.191874714363 0)
(0.0263121340715 0.184045658335 0)
(0.0259976053147 0.17630985353 0)
(0.0256737602859 0.168670240678 0)
(0.0253422505072 0.161129296181 0)
(0.0250046376576 0.15368904302 0)
(0.0246625548847 0.146351040895 0)
(0.0243175787406 0.139116388775 0)
(0.0239713615059 0.131985710302 0)
(0.0236255181353 0.12495915223 0)
(0.0232817321415 0.118036369271 0)
(0.0229416560656 0.111216522297 0)
(0.0226069939072 0.104498266105 0)
(0.0222794140804 0.0978797504992 0)
(0.0219606115328 0.0913586136576 0)
(0.0216522320937 0.0849319882614 0)
(0.0213559170661 0.0785965018616 0)
(0.0210732375703 0.0723482887028 0)
(0.0208057235022 0.0661829963775 0)
(0.0205548055889 0.0600958004046 0)
(0.0203218296318 0.0540814098872 0)
(0.0201080052279 0.0481340702519 0)
(0.0199144137419 0.0422475399266 0)
(0.0197419903578 0.0364150322332 0)
(0.0195916160388 0.0306290939826 0)
(0.0194643727311 0.0248814053173 0)
(0.0193620397959 0.0191625430622 0)
(0.0192843302566 0.0134575709308 0)
(0.019142465015 0.00784195986149 0)
(0.0172424116375 0.00230008447154 0)
(-0.106675985433 0.011465724318 0)
(-0.118205422751 0.0393025282654 0)
(-0.117780508392 0.0667114311003 0)
(-0.116126618409 0.0942390753793 0)
(-0.113887716213 0.12124574241 0)
(-0.111130879067 0.147631164822 0)
(-0.107895958682 0.173274639332 0)
(-0.104225973462 0.198065971385 0)
(-0.100167493513 0.2219068371 0)
(-0.0957695487643 0.244711578066 0)
(-0.0910822548613 0.266407474387 0)
(-0.0861558480383 0.286934736186 0)
(-0.0810395341405 0.306246229136 0)
(-0.0757808271574 0.324306954996 0)
(-0.0704246827079 0.341093357397 0)
(-0.065013167224 0.356592476217 0)
(-0.059584885406 0.370801015578 0)
(-0.0541749653205 0.383724347575 0)
(-0.0488147518137 0.395375508383 0)
(-0.0435320567352 0.405774205391 0)
(-0.0383510551439 0.414945879749 0)
(-0.0332927158733 0.422920833212 0)
(-0.0283748083098 0.429733444784 0)
(-0.023612409841 0.435421472552 0)
(-0.0190179283625 0.440025446163 0)
(-0.0146015993709 0.44358813372 0)
(-0.0103714631799 0.44615407519 0)
(-0.00633381093185 0.44776916559 0)
(-0.00249310590088 0.448480278556 0)
(0.00114761749412 0.448334920997 0)
(0.00458686847684 0.447380914837 0)
(0.00782435808085 0.445666144178 0)
(0.0108610174501 0.443238120719 0)
(0.0136987639713 0.440143951787 0)
(0.0163405844081 0.436430007227 0)
(0.0187901958331 0.432141740767 0)
(0.0210521804335 0.427323515333 0)
(0.0231316630008 0.422018453228 0)
(0.0250344494821 0.416268301527 0)
(0.0267667246922 0.410113321896 0)
(0.0283351916009 0.403592191628 0)
(0.0297467878398 0.396741927062 0)
(0.0310088218202 0.38959781543 0)
(0.0321287060008 0.382193368453 0)
(0.0331140864653 0.374560283372 0)
(0.03397259158 0.366728425631 0)
(0.0347119534568 0.358725818156 0)
(0.0353397723657 0.350578652471 0)
(0.03586363056 0.342311306066 0)
(0.0362908742993 0.333946381075 0)
(0.0366287223755 0.325504747845 0)
(0.0368840689234 0.317005608434 0)
(0.0370635900418 0.308466563091 0)
(0.037173570713 0.299903693847 0)
(0.0372200129234 0.291331647741 0)
(0.0372084893205 0.282763733418 0)
(0.0371442551259 0.274212013579 0)
(0.0370321293188 0.265687406267 0)
(0.0368766108144 0.25719977775 0)
(0.0366817859156 0.248758039844 0)
(0.0364514472165 0.240370235311 0)
(0.0361890239397 0.23204362385 0)
(0.0358977003593 0.223784753397 0)
(0.0355803642829 0.21559952941 0)
(0.0352397208352 0.20749326828 0)
(0.0348782536287 0.199470747357 0)
(0.0344983296265 0.191536239148 0)
(0.0341021678372 0.183693542161 0)
(0.0336919316335 0.17594599739 0)
(0.0332697006297 0.168296502433 0)
(0.0328375480151 0.160747513486 0)
(0.0323975126183 0.153301046684 0)
(0.0319516602335 0.145958670168 0)
(0.0315020541853 0.138721497397 0)
(0.0310508009474 0.131590174015 0)
(0.030600018739 0.124564867819 0)
(0.0301518687782 0.117645254974 0)
(0.0297085222414 0.11083051081 0)
(0.0292721791322 0.104119299043 0)
(0.0288450344395 0.097509766622 0)
(0.0284292868823 0.0909995386856 0)
(0.0280271052259 0.0845857195518 0)
(0.0276406291232 0.0782648947027 0)
(0.0272719365549 0.072033138412 0)
(0.0269230389726 0.0658860220779 0)
(0.0265958513298 0.059818626073 0)
(0.0262921854376 0.053825549408 0)
(0.0260137290929 0.0479009179565 0)
(0.025762053646 0.0420383837807 0)
(0.0255386362054 0.0362311190035 0)
(0.0253449529407 0.0304718231732 0)
(0.0251826623578 0.0247527536241 0)
(0.0250536299987 0.0190659350333 0)
(0.0249541203672 0.013398334152 0)
(0.024760369094 0.00783087729062 0)
(0.0222293417822 0.0023102362819 0)
(-0.132046407054 0.0116728465465 0)
(-0.146312702038 0.040267677942 0)
(-0.145767910421 0.0682931892768 0)
(-0.143689922886 0.096450601269 0)
(-0.140878352116 0.124054114724 0)
(-0.137418560983 0.150996931656 0)
(-0.133362047644 0.177152004791 0)
(-0.128764091746 0.202404269251 0)
(-0.123684338777 0.22665201114 0)
(-0.118185279491 0.24980763145 0)
(-0.112330631567 0.271797800663 0)
(-0.106183956725 0.292563312283 0)
(-0.0998073626904 0.312058641087 0)
(-0.0932605060461 0.330251253047 0)
(-0.0865996909738 0.347120728902 0)
(-0.0798772865144 0.36265774477 0)
(-0.0731412237229 0.376862965969 0)
(-0.0664348058784 0.389745893878 0)
(-0.0597965640487 0.401323715986 0)
(-0.0532603971694 0.411620193496 0)
(-0.0468557012022 0.420664625379 0)
(-0.0406077292304 0.42849091003 0)
(-0.0345378661497 0.435136722966 0)
(-0.0286640682948 0.440642810292 0)
(-0.0230011480561 0.44505239196 0)
(-0.0175611748966 0.448410656268 0)
(-0.0123536854031 0.450764325964 0)
(-0.00738599866735 0.452161274869 0)
(-0.00266334428352 0.452650178721 0)
(0.00181088808401 0.45228018941 0)
(0.00603506438785 0.451100631681 0)
(0.0100091342276 0.449160779171 0)
(0.013734410257 0.446509344541 0)
(0.0172135284126 0.443194576629 0)
(0.0204503089228 0.439263841204 0)
(0.0234495680792 0.434763477635 0)
(0.026217065955 0.429738628128 0)
(0.0287593236176 0.424233093345 0)
(0.0310835842751 0.418289206037 0)
(0.0331976484323 0.411947725039 0)
(0.0351098455267 0.405247743078 0)
(0.0368288832347 0.39822661218 0)
(0.0383638246703 0.390919880888 0)
(0.0397239477919 0.383361248202 0)
(0.0409187242401 0.375582528868 0)
(0.0419576861815 0.3676136355 0)
(0.0428504050908 0.359482572343 0)
(0.0436063660851 0.351215446264 0)
(0.0442349477175 0.342836489559 0)
(0.0447453060658 0.33436809976 0)
(0.0451463588347 0.325830890621 0)
(0.0454466834955 0.317243758745 0)
(0.0456545104191 0.308623959414 0)
(0.0457776397153 0.299987195118 0)
(0.0458234479139 0.291347709864 0)
(0.0457988273607 0.282718391981 0)
(0.0457102094143 0.274110878196 0)
(0.0455635278378 0.265535661208 0)
(0.0453642588336 0.257002193698 0)
(0.0451174071931 0.24851899094 0)
(0.0448275607628 0.24009372552 0)
(0.0444988953294 0.231733316546 0)
(0.0441352387901 0.223444007791 0)
(0.0437400890304 0.215231437668 0)
(0.0433166818232 0.207100696509 0)
(0.042868015096 0.199056374633 0)
(0.042396914396 0.191102597687 0)
(0.0419060574186 0.183243053315 0)
(0.0413980317861 0.175481006482 0)
(0.0408753548804 0.167819307844 0)
(0.0403405202321 0.16026039311 0)
(0.0397960095383 0.152806277896 0)
(0.0392443258363 0.145458546419 0)
(0.0386879963395 0.138218338291 0)
(0.0381295922708 0.131086332006 0)
(0.0375717227397 0.124062728976 0)
(0.037017042437 0.117147236779 0)
(0.0364682377944 0.11033905495 0)
(0.0359280245466 0.103636861972 0)
(0.0353991280469 0.0970388062204 0)
(0.0348842731086 0.0905424995016 0)
(0.0343861605681 0.0841450152701 0)
(0.03390745197 0.0778428901339 0)
(0.0334507446946 0.071632129968 0)
(0.0330185544412 0.0655082191737 0)
(0.032613292186 0.0594661334591 0)
(0.0322372495818 0.0535003546057 0)
(0.0318925855454 0.047604887417 0)
(0.0315813282584 0.0417732795513 0)
(0.0313053936068 0.035998650337 0)
(0.031066636515 0.0302737513471 0)
(0.0308669163427 0.0245910649697 0)
(0.0307077530298 0.0189430338656 0)
(0.0305824198981 0.0133167041163 0)
(0.0303358445774 0.00779123264639 0)
(0.0272101588189 0.00230581788554 0)
(-0.158088920857 0.0119263110096 0)
(-0.175153102662 0.0414580940871 0)
(-0.174471047355 0.0702462546394 4.13975084182e-27)
(-0.171937568582 0.0991812521078 0)
(-0.168512645101 0.127519957323 0)
(-0.164301414759 0.155147475867 0)
(-0.159368603022 0.181929057474 0)
(-0.153783452871 0.207743780046 0)
(-0.147620337152 0.232485948094 0)
(-0.140956794753 0.256065810144 0)
(-0.133871548771 0.278409561442 0)
(-0.126442750326 0.299459008686 0)
(-0.11874643664 0.319170910537 0)
(-0.110855275492 0.337516062341 0)
(-0.102837539527 0.354478188006 0)
(-0.0947563701193 0.37005269619 0)
(-0.0866692569182 0.384245355172 0)
(-0.0786277895536 0.397070937822 0)
(-0.0706775921156 0.408551887277 0)
(-0.0628584879737 0.418717049939 0)
(-0.055204784003 0.427600517421 0)
(-0.0477457079347 0.43524060741 0)
(-0.0405058703139 0.441679000396 0)
(-0.0335057826088 0.446960031341 0)
(-0.0267623073092 0.451130120607 0)
(-0.0202890936431 0.45423731534 0)
(-0.0140969021773 0.456330908503 0)
(-0.00819390499469 0.457461104119 0)
(-0.00258589012938 0.457678706575 0)
(0.00272352812027 0.457034816658 0)
(0.00773274357167 0.45558054791 0)
(0.0124420651731 0.453366835955 0)
(0.0168533553743 0.450443828377 0)
(0.0209700654926 0.446861132583 0)
(0.0247970088952 0.442667301802 0)
(0.0283401948235 0.437909729256 0)
(0.0316067032881 0.43263448205 0)
(0.0346045303177 0.426886164965 0)
(0.0373424824826 0.420707803886 0)
(0.039830042542 0.414140746071 0)
(0.0420772801567 0.407224575409 0)
(0.0440947319517 0.399997041352 0)
(0.0458933214634 0.392494000926 0)
(0.047484247252 0.384749373909 0)
(0.0488789067141 0.376795111369 0)
(0.0500887885849 0.368661178227 0)
(0.0511253985879 0.360375550091 0)
(0.0520001561454 0.351964225331 0)
(0.0527243232973 0.343451252261 0)
(0.0533089087325 0.334858772065 0)
(0.0537646044957 0.326207076476 0)
(0.0541017029952 0.317514680256 0)
(0.0543300477954 0.30879840641 0)
(0.0544589700703 0.300073483285 0)
(0.0544972596133 0.291353650384 0)
(0.0544531259612 0.282651271435 0)
(0.0543341935314 0.273977450865 0)
(0.0541474896174 0.265342151879 0)
(0.0538994640925 0.256754312123 0)
(0.0535960027597 0.248221955399 0)
(0.0532424683439 0.239752295821 0)
(0.0528437342119 0.23135183347 0)
(0.0524042404253 0.223026438706 0)
(0.0519280405091 0.21478142515 0)
(0.0514188646947 0.206621609503 0)
(0.0508801715029 0.198551359112 0)
(0.0503152101829 0.190574626443 0)
(0.0497270694647 0.182694972224 0)
(0.0491187323994 0.174915577246 0)
(0.0484931163246 0.167239245077 0)
(0.0478531154087 0.15966839626 0)
(0.0472016282118 0.152205056426 0)
(0.0465415856498 0.144850839197 0)
(0.0458759648735 0.137606926147 0)
(0.0452078025535 0.130474044729 0)
(0.0445401957468 0.123452446096 0)
(0.0438763020196 0.116541883617 0)
(0.0432193292459 0.109741593531 0)
(0.0425725250542 0.103050278342 0)
(0.0419391582041 0.0964660939397 0)
(0.0413225002979 0.0899866408109 0)
(0.0407258016776 0.0836089598736 0)
(0.0401522685455 0.0773295330309 0)
(0.0396050365677 0.0711442885949 0)
(0.0390871469395 0.0650486114543 0)
(0.0386015216526 0.0590373578379 0)
(0.0381509435066 0.0531048746118 0)
(0.0377380395046 0.0472450241065 0)
(0.0373652733725 0.0414512153803 0)
(0.0370349473237 0.0357164488763 0)
(0.0367492138464 0.0300333963229 0)
(0.036510058964 0.0243944856336 0)
(0.0363187533865 0.0187920440441 0)
(0.0361663434604 0.0132126896491 0)
(0.0358684589857 0.0077324671834 0)
(0.0321632535249 0.00229402406436 0)
(-0.18494926304 0.0122303431107 0)
(-0.204887829309 0.0428935613875 0)
(-0.204046485973 0.0726007586317 -4.1375461234e-27)
(-0.201017587685 0.102471819153 0)
(-0.196927762142 0.131693406544 0)
(-0.191904008654 0.160140653921 0)
(-0.186026350956 0.187669542104 0)
(-0.179380149088 0.214152265053 0)
(-0.172056601944 0.239478619221 0)
(-0.164150265374 0.263556628699 0)
(-0.155756623186 0.286312333324 0)
(-0.14696994657 0.307689194709 0)
(-0.137881465833 0.327647154929 0)
(-0.128577879259 0.346161431425 0)
(-0.119140176645 0.363221121869 0)
(-0.109642787668 0.378827679755 0)
(-0.100153024364 0.392993320143 0)
(-0.0907308256745 0.405739411064 0)
(-0.0814287631005 0.417094909718 0)
(-0.0722923002247 0.427094899561 0)
(-0.0633602393531 0.435779281094 0)
(-0.0546653208332 0.443191655168 0)
(-0.0462348830166 0.449378419473 0)
(-0.0380915374804 0.454388073549 0)
(-0.0302537751602 0.458270704269 0)
(-0.022736488394 0.461077605766 0)
(-0.0155513700986 0.46286098108 0)
(-0.00870722539687 0.463673678954 0)
(-0.0022101971127 0.463568934484 0)
(0.00393604064636 0.462600080782 0)
(0.00973011238138 0.460820357018 0)
(0.0151727770016 0.458282475512 0)
(0.0202666690545 0.455038395433 0)
(0.0250161929433 0.451139244587 0)
(0.0294273173314 0.446634954281 0)
(0.033507380636 0.441574130299 0)
(0.0372649267069 0.4360039009 0)
(0.0407095429878 0.429969792498 0)
(0.0438517235672 0.423515623784 0)
(0.0467027334394 0.416683415901 0)
(0.0492744926985 0.409513314709 0)
(0.0515794571503 0.402043525412 0)
(0.0536305132098 0.394310257855 0)
(0.0554408656723 0.386347684313 0)
(0.0570239361137 0.378187909194 0)
(0.0583932529199 0.369860952986 0)
(0.0595623506283 0.361394750248 0)
(0.0605446619945 0.35281516386 0)
(0.061353420252 0.344146015168 0)
(0.0620015572653 0.335409131566 0)
(0.0625016146847 0.326624410477 0)
(0.0628656557108 0.317809900045 0)
(0.0631051936196 0.308981894425 0)
(0.063231125822 0.30015504251 0)
(0.063253687992 0.291342466914 0)
(0.0631824174807 0.282555890885 0)
(0.0630261383334 0.273805769252 0)
(0.0627929570758 0.265101420544 0)
(0.0624902792359 0.256451156353 0)
(0.062124835633 0.247862405211 0)
(0.0617027261886 0.239341827678 0)
(0.0612294703615 0.230895420593 0)
(0.0607100702236 0.222528608262 0)
(0.0601490757529 0.214246319612 0)
(0.0595506571413 0.206053050279 0)
(0.0589186745896 0.197952909862 0)
(0.0582567497375 0.189949654438 0)
(0.0575683304784 0.182046705619 0)
(0.056856753052 0.174247157101 0)
(0.0561252946567 0.166553770724 0)
(0.0553772204903 0.158968963451 0)
(0.0546158199947 0.151494787625 0)
(0.053844436244 0.144132905996 0)
(0.0530664846425 0.136884563846 0)
(0.0522854647969 0.129750559456 0)
(0.0515049628833 0.122731214996 0)
(0.0507286480879 0.11582634871 0)
(0.0499602613445 0.10903525003 0)
(0.0492035995107 0.102356658158 0)
(0.048462493922 0.095788745273 0)
(0.0477407859316 0.0893291046015 0)
(0.0470422989786 0.08297474404 0)
(0.046370809272 0.0767220853733 0)
(0.045730015196 0.0705669693331 0)
(0.0451235071039 0.0645046665219 0)
(0.0445547381801 0.0585298941419 0)
(0.0440269978214 0.0526368388885 0)
(0.0435433886565 0.0468191864126 0)
(0.0431068081392 0.0410701596193 0)
(0.0427199343942 0.03538256847 0)
(0.0423852110494 0.0297488822871 0)
(0.0421047901295 0.024161299321 0)
(0.0418798642514 0.0186118298526 0)
(0.0416997303679 0.0130865771052 0)
(0.041351690922 0.00765822732806 0)
(0.0370757895446 0.00227746620351 0)
(-0.212787050188 0.0125895348975 0)
(-0.23569148835 0.0445980443056 0)
(-0.234663274078 0.0753943507635 0)
(-0.231089131753 0.10637335059 0)
(-0.226270246159 0.136636996467 0)
(-0.220358290509 0.166048273142 0)
(-0.213451302811 0.194452172344 0)
(-0.205653505297 0.221712970323 0)
(-0.19707555732 0.247715546455 0)
(-0.187831452462 0.272365830416 0)
(-0.178035570418 0.29559027764 0)
(-0.167800126178 0.31733492471 0)
(-0.157233039048 0.337564081989 0)
(-0.146436215251 0.356258768116 0)
(-0.135504221421 0.373414963264 0)
(-0.124523335345 0.389041746624 0)
(-0.113570957165 0.403159374741 0)
(-0.102715374654 0.415797362557 0)
(-0.0920158619751 0.426992633115 0)
(-0.0815230862719 0.436787808522 0)
(-0.0712797649771 0.445229711133 0)
(-0.0613215025989 0.452368130291 0)
(-0.0516777066209 0.458254882584 0)
(-0.0423724872591 0.462943156972 0)
(-0.0334254485111 0.466487098719 0)
(-0.0248523206434 0.468941557678 0)
(-0.0166654152418 0.470361917766 0)
(-0.00887393427972 0.470803935885 0)
(-0.00148417723395 0.47032354818 0)
(0.00550029646775 0.468976600881 0)
(0.0120785368222 0.466818724734 0)
(0.0182519274277 0.463904701574 0)
(0.0240240467807 0.460288499017 0)
(0.0294004537868 0.456022990819 0)
(0.0343884550287 0.451159661646 0)
(0.0389968850725 0.445748479021 0)
(0.0432359103018 0.439837758206 0)
(0.0471168498886 0.433474053316 0)
(0.0506520188237 0.426702066886 0)
(0.0538545835394 0.419564571297 0)
(0.0567384317327 0.412102340409 0)
(0.0593180464645 0.4043540892 0)
(0.0616083870336 0.396356422949 0)
(0.0636247685892 0.388143795925 0)
(0.0653827445502 0.379748482183 0)
(0.066897985647 0.371200559077 0)
(0.068186160838 0.362527906145 0)
(0.06926281558 0.353756220094 0)
(0.0701432537867 0.344909048084 0)
(0.0708424206278 0.33600783955 0)