/*--------------------------------*- C++ -*----------------------------------*\
| =========                 |                                                 |
| \\      /  F ield         | OpenFOAM: The Open Source CFD Toolbox           |
|  \\    /   O peration     | Version:  v1906                                 |
|   \\  /    A nd           | Web:      www.OpenFOAM.com                      |
|    \\/     M anipulation  |                                                 |
\*---------------------------------------------------------------------------*/
FoamFile
{
    version     2.0;
    format      ascii;
    class       volVectorField;
    location    "110";
    object      U;
}
// * * * * * * * * * * * * * * * * * * * * * * * * * * * * * * * * * * * * * //

dimensions      [0 1 -1 0 0 0 0];


internalField   nonuniform List<vector> 
9216
(
(0.00271457641728 -0.00271425965724 0)
(0.0028623015653 -0.00875933661983 1.21025678523e-27)
(0.00285411107659 -0.0148985397078 1.84082171486e-31)
(0.00281687480999 -0.0210380837999 0)
(0.00276500754495 -0.0270748720242 0)
(0.00270025696813 -0.0329843356382 0)
(0.00262398282343 -0.0387408449276 0)
(0.00253793082362 -0.0443211825946 0)
(0.00244293930956 -0.0497053029962 0)
(0.00234077894389 -0.0548755481168 0)
(0.00223216022097 -0.0598174092111 0)
(0.00211887622464 -0.0645186300344 0)
(0.00200138523067 -0.0689699218771 0)
(0.00188147375089 -0.073163807933 0)
(0.00175942530225 -0.0770957698878 0)
(0.00163696640108 -0.0807627248399 0)
(0.0015139077495 -0.0841638711173 0)
(0.00139186598266 -0.0872993968821 0)
(0.00127036354549 -0.0901713528794 0)
(0.00115108851616 -0.0927824623294 0)
(0.00103323354321 -0.0951370046952 0)
(0.000918474762563 -0.0972395517061 0)
(0.000805730763772 -0.0990959646708 0)
(0.000696694065347 -0.100712083375 0)
(0.000589992146236 -0.102094829155 0)
(0.000487473573667 -0.10325075747 0)
(0.000387424428968 -0.104187832474 0)
(0.000291891951348 -0.104912857792 0)
(0.000199044720803 -0.105434215809 0)
(0.000111025719768 -0.105759576914 0)
(2.57516435653e-05 -0.105897218118 0)
(-5.46864443693e-05 -0.105855850687 0)
(-0.000132831299732 -0.105642648278 0)
(-0.000205691378828 -0.105265704438 0)
(-0.000276019985072 -0.104734308786 0)
(-0.000341060017727 -0.10405608447 0)
(-0.000403934857151 -0.103239560699 0)
(-0.000461477961896 -0.102292562373 0)
(-0.000517088805486 -0.101223351939 0)
(-0.000567253413003 -0.100039526622 0)
(-0.000615645334082 -0.0987492791862 0)
(-0.000658657701759 -0.0973601738079 0)
(-0.000700353730141 -0.095879582284 0)
(-0.000736614457011 -0.0943146768097 0)
(-0.000771857042742 -0.0926728968082 0)
(-0.000801711260147 -0.0909606989152 0)
(-0.000830892549804 -0.0891851604604 0)
(-0.000854881233822 -0.0873521771552 0)
(-0.000878592486246 -0.0854681848896 0)
(-0.000897246358203 -0.0835385752245 0)
(-0.000916054140101 -0.0815690850534 0)
(-0.000929952476961 -0.0795645241849 0)
(-0.000944362193816 -0.0775300121164 0)
(-0.000954082468729 -0.0754698029021 0)
(-0.000964642275909 -0.0733883257538 0)
(-0.000970685700167 -0.0712893750969 0)
(-0.000977868454682 -0.0691768427295 0)
(-0.000980669266221 -0.0670539420403 0)
(-0.000984694055579 -0.0649243682847 0)
(-0.000984463998432 -0.0627912142622 0)
(-0.000985680478965 -0.0606575206349 0)
(-0.00098276815267 -0.0585262895475 0)
(-0.000981310941413 -0.0564002806312 0)
(-0.000975787774305 -0.0542824344235 0)
(-0.000971823953162 -0.0521752799827 0)
(-0.000963992668852 -0.0500817297892 0)
(-0.000957528462685 -0.0480039986245 0)
(-0.000947249748058 -0.045945108815 0)
(-0.000938341353611 -0.0439074574154 0)
(-0.000925887853226 -0.0418936467084 0)
(-0.000914892790761 -0.0399055563478 0)
(-0.000900585212036 -0.0379456422787 0)
(-0.000887656693372 -0.0360154679804 0)
(-0.000871754232567 -0.0341173097226 0)
(-0.000857314854858 -0.0322521801541 0)
(-0.000840215083777 -0.0304219800062 0)
(-0.0008245609638 -0.0286273460042 0)
(-0.000806630663014 -0.0268698528001 0)
(-0.000790179465924 -0.025149608707 0)
(-0.000771917950647 -0.0234676894206 0)
(-0.00075509117239 -0.0218236364701 0)
(-0.000736779072358 -0.0202182559941 0)
(-0.000719813293376 -0.0186508398566 0)
(-0.00070145453851 -0.0171221667086 0)
(-0.000683896890385 -0.015631922847 0)
(-0.000664460459386 -0.0141821197923 0)
(-0.000643797697966 -0.0127742795458 0)
(-0.000617308317916 -0.0114157044072 0)
(-0.000583008890345 -0.0101075129769 0)
(-0.000540809611859 -0.00888289757874 0)
(-0.000479899376428 -0.00770018234564 0)
(-0.000430351153969 -0.00650132752033 0)
(-0.000500875448009 -0.00566317286528 0)
(-0.000670261591008 -0.00460307321075 0)
(-0.000920500048516 -0.00313133754758 0)
(-0.0011688754015 -0.00116216815354 0)
(0.00878745560805 -0.00288925229764 0)
(0.00971658971635 -0.00977787113715 0)
(0.00969413223557 -0.0166534517254 -1.27090205895e-27)
(0.00956470742917 -0.0235344588657 0)
(0.00938533062771 -0.0302909123153 0)
(0.0091637999426 -0.0369009385943 0)
(0.00890401333702 -0.0433371866288 0)
(0.00861074956135 -0.0495742330968 0)
(0.00828763932471 -0.0555896588904 0)
(0.00793973241858 -0.0613639949863 0)
(0.0075704982457 -0.0668809705512 0)
(0.00718493481048 -0.0721272068569 0)
(0.00678592387044 -0.0770924280545 0)
(0.0063782074608 -0.0817687705554 0)
(0.00596398126421 -0.0861515256012 0)
(0.00554741135428 -0.0902368991234 0)
(0.00512978145447 -0.0940244963333 0)
(0.00471485435256 -0.0975144093268 0)
(0.00430309112978 -0.100709831289 0)
(0.00389776594039 -0.103613711643 0)
(0.00349852228076 -0.10623098148 0)
(0.00310845868869 -0.1085669906 0)
(0.00272653250603 -0.110628043815 0)
(0.002355760255 -0.112420867389 0)
(0.00199451293301 -0.113953184104 0)
(0.00164579629455 -0.115232661168 0)
(0.00130743209679 -0.116267641048 0)
(0.000982618415825 -0.117067011903 0)
(0.00066866312769 -0.117639046059 0)
(0.000368982568351 -0.117992658939 0)
(8.04973746247e-05 -0.118137253049 0)
(-0.000193599233755 -0.118080979137 0)
(-0.000457008501522 -0.117834282467 0)
(-0.000705396190881 -0.117405500831 0)
(-0.000942659985294 -0.116804295534 0)
(-0.00116478856722 -0.116039536263 0)
(-0.00137652293925 -0.115120650233 0)
(-0.00157320793095 -0.114056520208 0)
(-0.00175991084031 -0.112856343962 0)
(-0.00193164536908 -0.111529036448 0)
(-0.0020940171847 -0.110083211893 0)
(-0.00224176246997 -0.108527040199 0)
(-0.00238097702645 -0.106869352074 0)
(-0.00250576425695 -0.105118112588 0)
(-0.00262280683325 -0.103281384902 0)
(-0.00272599020461 -0.101367067971 0)
(-0.00282259251146 -0.0993819725073 0)
(-0.00290600787251 -0.0973333786089 0)
(-0.00298369704855 -0.0952281601964 0)
(-0.00304902980124 -0.0930726155288 0)
(-0.00310998401068 -0.090872897989 0)
(-0.00315923166737 -0.088634571312 0)
(-0.00320512558456 -0.0863631459224 0)
(-0.00324029884735 -0.0840635155764 0)
(-0.00327308602556 -0.0817404478284 0)
(-0.0032958173326 -0.0793983108615 0)
(-0.00331702767824 -0.0770412802393 0)
(-0.00332875591534 -0.0746732490575 0)
(-0.00333949728822 -0.0722980224938 0)
(-0.00334122943417 -0.0699186498601 0)
(-0.0033424037531 -0.0675388478996 0)
(-0.00333491013248 -0.0651618577387 0)
(-0.00332707715819 -0.0627908072403 0)
(-0.00331087354657 -0.0604289481282 0)
(-0.00329442916333 -0.0580785878653 0)
(-0.00326989619103 -0.0557442194968 0)
(-0.0032450858339 -0.0534275528609 0)
(-0.00321237964702 -0.0511321229217 0)
(-0.00317955293813 -0.0488605016686 0)
(-0.00313935246584 -0.0466152390723 0)
(-0.00309941566416 -0.04439911584 0)
(-0.00305283612594 -0.0422144216576 0)
(-0.00300650775835 -0.0400632203841 0)
(-0.00295439835555 -0.0379477363565 0)
(-0.00290318951844 -0.0358694738333 0)
(-0.00284683048329 -0.0338301561769 0)
(-0.00279160814411 -0.0318308900089 0)
(-0.00273230827082 -0.0298731401345 0)
(-0.00267449849264 -0.027957075452 0)
(-0.00261386286161 -0.0260840164544 0)
(-0.00255537971124 -0.0242536278851 0)
(-0.00249451457795 -0.022465603771 0)
(-0.002435682078 -0.0207205413135 0)
(-0.00237466050236 -0.0190177083255 0)
(-0.00231448005441 -0.0173574372787 0)
(-0.00225080992305 -0.0157399161502 0)
(-0.00218307851354 -0.0141655715333 0)
(-0.00210275269861 -0.012637433767 0)
(-0.00200365083485 -0.0111518838483 0)
(-0.00188750905339 -0.00971264940879 0)
(-0.00174044126752 -0.00831379699618 0)
(-0.00157372852181 -0.00682076491038 0)
(-0.0016577973484 -0.00554638906485 0)
(-0.00214359765396 -0.00436778054421 0)
(-0.00288142888827 -0.00285376474575 0)
(-0.00315051114903 -0.000912848787941 0)
(0.0150431037793 -0.00293511940545 0)
(0.0166564941008 -0.00993873947863 0)
(0.0165958181778 -0.0169046420106 -1.26884094006e-27)
(0.0163647685229 -0.0238864147036 0)
(0.0160527969011 -0.0307399349203 0)
(0.0156698838545 -0.0374418951335 0)
(0.0152222945384 -0.0439637864001 0)
(0.0147172192658 -0.0502798174965 0)
(0.0141616309763 -0.0563671075683 0)
(0.0135633313811 -0.0622061248798 0)
(0.0129293310392 -0.0677806483266 0)
(0.0122671088653 -0.0730773568482 0)
(0.011582982855 -0.0780862511891 0)
(0.0108837072717 -0.0827999476117 0)
(0.0101743799344 -0.087213698764 0)
(0.00946058205187 -0.0913251115347 0)
(0.00874620053083 -0.0951334585172 0)
(0.00803589298894 -0.0986401974704 0)
(0.00733228615062 -0.101847606498 0)
(0.00663885771216 -0.104759762753 0)
(0.0059572341707 -0.107381668953 0)
(0.00529018228315 -0.109719143124 0)
(0.00463851169234 -0.111778848966 0)
(0.00400461737057 -0.113567920142 0)
(0.0033886606978 -0.115094149946 0)
(0.00279270840409 -0.116365453348 0)
(0.00221629566626 -0.117390907601 0)
(0.00166110880089 -0.118178433269 0)
(0.00112635336146 -0.118736830603 0)
(0.000613816673491 -0.119075655893 0)
(0.000122342661174 -0.119203266016 0)
(-0.000346441811065 -0.119129639996 0)
(-0.000794141402155 -0.118863692913 0)
(-0.0012188453289 -0.118414918507 0)
(-0.00162225075295 -0.117793118213 0)
(-0.00200269972663 -0.117006586662 0)
(-0.00236234859272 -0.116065130103 0)
(-0.00269923913457 -0.11497776637 0)
(-0.00301572591757 -0.11375370673 0)
(-0.0033100809337 -0.112401873442 0)
(-0.00358506584375 -0.11093114839 0)
(-0.00383868249475 -0.109350084701 0)
(-0.00407371572936 -0.107667269302 0)
(-0.00428788019411 -0.10589082283 0)
(-0.00448490260679 -0.10402934674 0)
(-0.00466254351273 -0.102089659664 0)
(-0.00482441430807 -0.100079696921 0)
(-0.0049682891144 -0.0980070284958 0)
(-0.00509800168793 -0.0958779765521 0)
(-0.00521121504056 -0.0936985581265 0)
(-0.0053120642068 -0.0914757114796 0)
(-0.00539809426784 -0.0892148315145 0)
(-0.00547349528442 -0.0869206562632 0)
(-0.00553552030372 -0.0845987220334 0)
(-0.00558830127753 -0.0822536474538 0)
(-0.00562913453092 -0.079889924686 0)
(-0.00566217242817 -0.0775116303053 0)
(-0.00568435149218 -0.0751225577963 0)
(-0.00569973579352 -0.0727263778095 0)
(-0.00570507850941 -0.0703266204398 0)
(-0.00570420459453 -0.0679266459836 0)
(-0.00569378906542 -0.0655297076212 0)
(-0.00567761364611 -0.0631389840568 0)
(-0.00565235389289 -0.060757566585 0)
(-0.00562146699275 -0.0583885539619 0)
(-0.00558167800666 -0.0560352263221 0)
(-0.00553657285148 -0.0537002651542 0)
(-0.00548301132301 -0.0513865781877 0)
(-0.00542454874507 -0.049096992735 0)
(-0.00535828134965 -0.046834289552 0)
(-0.00528757521713 -0.0446002024123 0)
(-0.00520986305867 -0.0423985312776 0)
(-0.00512855169378 -0.040230989894 0)
(-0.00504120130085 -0.0380988966067 0)
(-0.0049511927138 -0.0360056231696 0)
(-0.00485641345624 -0.0339520296805 0)
(-0.00475999343125 -0.0319393436403 0)
(-0.00466022307131 -0.0299686940148 0)
(-0.00455998740853 -0.0280409756709 0)
(-0.00445744232172 -0.0261550722617 0)
(-0.00435573946489 -0.0243140072059 0)
(-0.00425299392246 -0.0225156519225 0)
(-0.00415152111412 -0.0207606424841 0)
(-0.00404934964905 -0.0190479605436 0)
(-0.00394762197553 -0.017376774687 0)
(-0.00384349270174 -0.0157456455719 0)
(-0.00373450849472 -0.0141542814573 0)
(-0.00361496665745 -0.0126010926253 0)
(-0.00347698808467 -0.0110803988511 0)
(-0.00331539131283 -0.00957127076536 0)
(-0.00314412527566 -0.00810307767673 0)
(-0.00297533733933 -0.00654723106532 0)
(-0.00306673540646 -0.00502579229665 0)
(-0.00368120990593 -0.00363386484094 0)
(-0.00436424229214 -0.00211064133452 0)
(-0.00456963841369 -0.000660138818982 0)
(0.0214466508345 -0.00298046483524 0)
(0.0237650980662 -0.0100892415121 0)
(0.0236754812743 -0.0171507590035 1.26825251288e-27)
(0.0233407572727 -0.024228858803 0)
(0.0228898126052 -0.0311733876743 0)
(0.022337162218 -0.0379595388059 0)
(0.0216921670601 -0.0445576855563 0)
(0.0209649158525 -0.0509411444734 0)
(0.0201660090147 -0.0570869307049 0)
(0.0193063277736 -0.0629752758719 0)
(0.0183964547463 -0.0685901300809 0)
(0.0174468301126 -0.0739187301121 0)
(0.0164670556212 -0.0789515230862 0)
(0.0154662869914 -0.0836819281626 0)
(0.0144523695475 -0.088105854082 0)
(0.0134325949683 -0.0922212863731 0)
(0.0124131638655 -0.0960285946502 0)
(0.0113997871192 -0.0995296177942 0)
(0.0103969065608 -0.102727677367 0)
(0.00940872265927 -0.105627267393 0)
(0.00843830678488 -0.108233911707 0)
(0.007488697712 -0.110553850211 0)
(0.00656180101512 -0.112594351192 0)
(0.00565997629811 -0.114362353398 0)
(0.00478455553835 -0.115866504229 0)
(0.00393717947277 -0.117114760337 0)
(0.00311820131915 -0.118115596658 0)
(0.00232875683572 -0.118877970645 0)
(0.00156929106914 -0.119410677568 0)
(0.00084072374223 -0.119722999318 0)
(0.000142899633677 -0.119824581723 0)
(-0.000523396849305 -0.11972397047 0)
(-0.00115863974515 -0.119431135195 0)
(-0.00176192970337 -0.118955382678 0)
(-0.00233404761083 -0.118306159071 0)
(-0.00287462675746 -0.117492858752 0)
(-0.00338440175323 -0.116524709767 0)
(-0.00386305563138 -0.115411432628 0)
(-0.00431155168317 -0.11416128971 0)
(-0.00472968745528 -0.112783824211 0)
(-0.00511874405188 -0.111288001651 0)
(-0.00547842746224 -0.109682267021 0)
(-0.00581053757737 -0.107976454996 0)
(-0.00611465463493 -0.106177119137 0)
(-0.00639282455206 -0.104292489541 0)
(-0.00664499080089 -0.102331488704 0)
(-0.00687303331653 -0.100300248225 0)
(-0.00707692339965 -0.0982067513027 0)
(-0.00725907722649 -0.0960578054479 0)
(-0.0074195077783 -0.0938599849629 0)
(-0.00756051159162 -0.0916193551279 0)
(-0.00768237387242 -0.0893416962959 0)
(-0.00778738177201 -0.0870322425004 0)
(-0.00787547988353 -0.0846965365266 0)
(-0.00794865580575 -0.0823379280943 0)
(-0.00800666936422 -0.0799614911173 0)
(-0.00805188507217 -0.0775711482715 0)
(-0.00808373119164 -0.0751705799536 0)
(-0.0081040521316 -0.0727633565873 0)
(-0.00811203460109 -0.0703529573583 0)
(-0.00810942793019 -0.0679426585972 0)
(-0.00809519808007 -0.0655356520187 0)
(-0.00807096918857 -0.0631350909199 0)
(-0.00803568394154 -0.0607439398487 0)
(-0.00799035277483 -0.0583653058405 0)
(-0.00793413030801 -0.0560029575161 0)
(-0.00786873528745 -0.0536592441183 0)
(-0.00779328985828 -0.0513369305451 0)
(-0.00770905723387 -0.0490390449057 0)
(-0.00761557787685 -0.0467682745746 0)
(-0.00751420514351 -0.044527039057 0)
(-0.0074041397797 -0.0423180223561 0)
(-0.0072871462705 -0.0401432299924 0)
(-0.00716305085331 -0.0380059429945 0)
(-0.00703350450342 -0.0359072535992 0)
(-0.0068986324186 -0.0338489267753 0)
(-0.00676011851079 -0.0318324149799 0)
(-0.00661805565425 -0.0298589177298 0)
(-0.00647441141787 -0.0279292004852 0)
(-0.00632891620726 -0.0260436218884 0)
(-0.00618323699456 -0.02420211233 0)
(-0.00603793624721 -0.0224043641568 0)
(-0.00589356058162 -0.0206486585636 0)
(-0.00575017591213 -0.0189359801903 0)
(-0.00560750491236 -0.017262020054 0)
(-0.00546504641467 -0.0156279768379 0)
(-0.00532055380961 -0.0140301094741 0)
(-0.0051685908548 -0.0124601160554 0)
(-0.00500754779597 -0.0109161766527 0)
(-0.00482545198191 -0.00936421176167 0)
(-0.00465670100082 -0.00781621215777 0)
(-0.00453326193467 -0.00618278918603 0)
(-0.00464536310866 -0.00454461408719 0)
(-0.00504260761854 -0.00297597386042 0)
(-0.00556360652602 -0.0016348412841 0)
(-0.00568532884846 -0.000501274024168 0)
(0.0279571015711 -0.00304001875694 0)
(0.0309824701705 -0.0102870964442 0)
(0.0308613019891 -0.0174812272046 0)
(0.0304176280388 -0.024688805361 0)
(0.0298204460679 -0.0317548241854 0)
(0.0290893441765 -0.0386527879464 0)
(0.0282371168493 -0.0453515533282 0)
(0.0272774934709 -0.051823778572 0)
(0.0262246469589 -0.0580456370717 0)
(0.0250932268615 -0.0639976302772 0)
(0.0238974902684 -0.0696639381534 0)
(0.0226511892479 -0.0750324001522 0)
(0.0213671815967 -0.080094387114 0)
(0.0200572174512 -0.084844143499 0)
(0.0187316244611 -0.0892783876785 0)
(0.0173998856032 -0.0933965374606 0)
(0.0160701263291 -0.0971997817097 0)
(0.0147494105118 -0.100690941755 0)
(0.0134436412484 -0.103874258621 0)
(0.0121578883652 -0.10675496209 0)
(0.0108961941702 -0.109339504612 0)
(0.00966207766849 -0.11163427454 0)
(0.00845825281099 -0.113646921911 0)
(0.00728744083701 -0.115385701385 0)
(0.00615154570214 -0.116858683391 0)
(0.00505186168713 -0.118074791206 0)
(0.00398946076556 -0.119041873787 0)
(0.00296558625418 -0.119770125776 0)
(0.00198090574902 -0.120267780187 0)
(0.00103633287774 -0.120544607889 0)
(0.000131993909178 -0.120609887323 0)
(-0.000731514272263 -0.1204732645 0)
(-0.00155411968827 -0.120144207216 0)
(-0.00233569636474 -0.119632791235 0)
(-0.00307651726481 -0.118947480847 0)
(-0.00377656350103 -0.118098297547 0)
(-0.0044361199933 -0.117094599021 0)
(-0.00505558705249 -0.115945622094 0)
(-0.00563557400918 -0.11466145329 0)
(-0.00617630002323 -0.113249814534 0)
(-0.00667901176155 -0.111721798749 0)
(-0.00714386661673 -0.110083244401 0)
(-0.00757255582236 -0.108345118486 0)
(-0.00796573316642 -0.10651412532 0)
(-0.00832436893849 -0.104599408189 0)
(-0.0086494498856 -0.102608785937 0)
(-0.0089428270805 -0.100549822759 0)
(-0.00920545686547 -0.0984306057102 0)
(-0.00943928946625 -0.0962566044821 0)
(-0.00964535900901 -0.0940351842658 0)
(-0.00982568431154 -0.0917722913083 0)
(-0.00998170800718 -0.0894737549556 0)
(-0.0101152681424 -0.0871448624729 0)
(-0.0102277368154 -0.0847902984395 0)
(-0.0103207579443 -0.0824153074004 0)
(-0.01039485087 -0.0800227988498 0)
(-0.0104519107208 -0.0776174475542 0)
(-0.0104924875567 -0.0752025765251 0)
(-0.0105175965737 -0.0727816663808 0)
(-0.0105274189166 -0.0703580900186 0)
(-0.0105231342467 -0.0679350634406 0)
(-0.0105044884385 -0.0655156422149 0)
(-0.0104724878677 -0.0631030228449 0)
(-0.0104262222492 -0.0607000144935 0)
(-0.0103658482519 -0.0583104997428 0)
(-0.01029267681 -0.0559382266771 0)
(-0.010207609691 -0.0535836682681 0)
(-0.0101099436448 -0.0512508062389 0)
(-0.00999999962071 -0.0489423976091 0)
(-0.00987859361482 -0.0466612432217 0)
(-0.00974638487372 -0.0444100850196 0)
(-0.00960303946472 -0.04219165435 0)
(-0.00944990743964 -0.040008812429 0)
(-0.00928808998165 -0.0378637419771 0)
(-0.00911886900597 -0.035758278432 0)
(-0.0089427438781 -0.0336937355502 0)
(-0.00876123133269 -0.0316723995658 0)
(-0.00857564239123 -0.0296953783057 0)
(-0.00838758751838 -0.0277631967632 0)
(-0.0081977185475 -0.0258762247277 0)
(-0.0080077086372 -0.0240343018971 0)
(-0.00781871551785 -0.022236759154 0)
(-0.00763187423079 -0.0204838493364 0)
(-0.00744754597039 -0.0187730094494 0)
(-0.00726629481396 -0.0171024307321 0)
(-0.00708761861322 -0.0154688789916 0)
(-0.00691192628606 -0.0138692267826 0)
(-0.00673553642256 -0.0122971687451 0)
(-0.00655808572959 -0.0107364764008 0)
(-0.00639243843123 -0.00918480922237 0)
(-0.00624329097921 -0.00758867601293 0)
(-0.00617549218063 -0.00596346647244 0)
(-0.0062753958949 -0.0043456018297 0)
(-0.00654627765211 -0.00282972160693 0)
(-0.00675828216236 -0.00148438951772 0)
(-0.00648882222371 -0.000411632290742 0)
(0.0346122853315 -0.00311547420231 0)
(0.0383556146977 -0.0105403513044 0)
(0.0381983032754 -0.017906606689 0)
(0.0376376925883 -0.0252810288794 0)
(0.0368839253036 -0.0325029110328 0)
(0.0359621960751 -0.0395436769287 0)
(0.0348893436694 -0.0463705285915 0)
(0.033682996645 -0.052954721172 0)
(0.0323618346945 -0.0592723511775 0)
(0.0309444822258 -0.0653036936199 0)
(0.029449230361 -0.0710335404903 0)
(0.0278935464317 -0.0764506046673 0)
(0.0262935985942 -0.081547578326 0)
(0.0246637566878 -0.086319489139 0)
(0.0230171871396 -0.0907649745275 0)
(0.0213654038072 -0.0948846261298 0)
(0.0197182937625 -0.0986809860674 0)
(0.0180843618881 -0.102158112895 0)
(0.016470711379 -0.105321594807 0)
(0.014883171762 -0.108177221574 0)
(0.0133266114948 -0.110732283509 0)
(0.0118050895003 -0.112994358367 0)
(0.010322094737 -0.114971396364 0)
(0.00888053025856 -0.116672646704 0)
(0.00748237143508 -0.118106126776 0)
(0.00612910294794 -0.119280367156 0)
(0.00482225635381 -0.120205462448 0)
(0.00356308340878 -0.120889695599 0)
(0.00235253399756 -0.121343064686 0)
(0.00119147298832 -0.121574994355 0)
(8.04032013998e-05 -0.12159496067 0)
(-0.000980281191538 -0.121413256405 0)
(-0.00199049761022 -0.121038497209 0)
(-0.00295020288072 -0.120480940781 0)
(-0.00385962092365 -0.1197501519 0)
(-0.00471869648464 -0.118855652368 0)
(-0.00552776617339 -0.117807667793 0)
(-0.00628724356175 -0.116614287472 0)
(-0.00699803968808 -0.115287108616 0)
(-0.00766069541749 -0.113832388797 0)
(-0.00827650818504 -0.112261594231 0)
(-0.00884616968475 -0.110581730836 0)
(-0.00937069017037 -0.108802619437 0)
(-0.00985126476232 -0.106932439235 0)
(-0.0102893055306 -0.104980541362 0)
(-0.0106861070832 -0.102953351654 0)
(-0.0110432935958 -0.100859507932 0)
(-0.0113626887933 -0.0987063482456 0)
(-0.0116465646946 -0.0965008650692 0)
(-0.0118966588994 -0.0942504764349 0)
(-0.0121150416294 -0.0919597273864 0)
(-0.0123036006005 -0.0896352130131 0)
(-0.0124644597741 -0.087282042134 0)
(-0.012599699814 -0.0849048124617 0)
(-0.0127112232479 -0.0825087526608 0)
(-0.0128002664686 -0.0800964239284 0)
(-0.0128682848775 -0.0776725216933 0)
(-0.0129164742356 -0.075239943072 0)
(-0.0129459565022 -0.0728028911927 0)
(-0.0129569141087 -0.0703630861828 0)
(-0.0129511268136 -0.0679252580044 0)
(-0.0129270817465 -0.0654909932563 0)
(-0.0128851924804 -0.0630632266219 0)
(-0.0128276839455 -0.0606503130674 0)
(-0.0127531634468 -0.0582476981925 0)
(-0.0126634378709 -0.0558611352834 0)
(-0.0125586973197 -0.0534920751559 0)
(-0.0124384250796 -0.0511462304388 0)
(-0.0123027634212 -0.0488244636184 0)
(-0.0121530227536 -0.0465303784373 0)
(-0.011989649083 -0.0442672019144 0)
(-0.011812521079 -0.0420377573707 0)
(-0.0116226969693 -0.0398433347739 0)
(-0.0114216216782 -0.0376872817332 0)
(-0.0112116530456 -0.03557328655 0)
(-0.010993552013 -0.0335017474605 0)
(-0.0107681718143 -0.0314741049769 0)
(-0.0105370368458 -0.0294911136661 0)
(-0.010303215528 -0.0275554746364 0)
(-0.0100678492666 -0.0256669580501 0)
(-0.0098321015419 -0.0238242298329 0)
(-0.00959854559271 -0.0220285592439 0)
(-0.0093679555966 -0.0202774376155 0)
(-0.00914167498622 -0.0185690485218 0)
(-0.00892131441408 -0.0169018912534 0)
(-0.0087079669784 -0.0152728048978 0)
(-0.00850122120002 -0.013675949773 0)
(-0.00830145333433 -0.0121083585287 0)
(-0.00811046998596 -0.0105515774235 0)
(-0.00796236056783 -0.00901703177335 0)
(-0.00784879446657 -0.00745876549191 0)
(-0.00778871989883 -0.00588014834236 0)
(-0.00785839541643 -0.00434616137217 0)
(-0.00805259862044 -0.00291761687174 0)
(-0.00817711967717 -0.00158544858031 0)
(-0.00759028967717 -0.00043168695526 0)
(0.041449340858 -0.00320893684019 0)
(0.0459265036882 -0.0108547053164 0)
(0.0457266410332 -0.0184351900213 1.2586061691e-27)
(0.0450382871817 -0.0260166116034 0)
(0.0441142013133 -0.0334311228686 0)
(0.0429858832955 -0.0406475871562 0)
(0.0416747132322 -0.0476309403028 0)
(0.0402033366312 -0.0543513170847 0)
(0.0385952734325 -0.0607842762022 0)
(0.0368738171265 -0.0669103013792 0)
(0.0350617950738 -0.0727149903544 0)
(0.0331807574579 -0.0781886321369 0)
(0.0312499992186 -0.0833246544155 0)
(0.0292873023466 -0.0881206729936 0)
(0.0273083243018 -0.0925768270525 0)
(0.0253265828249 -0.0966955219152 0)
(0.0233537047287 -0.100480960679 0)
(0.0213995009826 -0.103939033449 0)
(0.0194718530172 -0.107075979127 0)
(0.0175775309796 -0.109899532809 0)
(0.015722060551 -0.112417737572 0)
(0.0139099344979 -0.11463898338 0)
(0.0121452445043 -0.116572394575 0)
(0.0104306870568 -0.118227340739 0)
(0.00876808568976 -0.119612016361 0)
(0.00715973525125 -0.120735907595 0)
(0.0056071996194 -0.121608775855 0)
(0.00411179074432 -0.122240063787 0)
(0.00267477956523 -0.122639610894 0)
(0.00129696102272 -0.122817000832 0)
(-2.12137375968e-05 -0.122782565508 0)
(-0.00127946100885 -0.122545104346 0)
(-0.002477555385 -0.122115028256 0)
(-0.00361521298131 -0.121502167283 0)
(-0.00469268005028 -0.120716245243 0)
(-0.00571019662133 -0.119767543398 0)
(-0.00666819939922 -0.118665220292 0)
(-0.0075671908608 -0.117418880928 0)
(-0.00840837401066 -0.116038173042 0)
(-0.00919261292571 -0.114531451841 0)
(-0.00992058082451 -0.112908781205 0)
(-0.0105934613218 -0.111178882797 0)
(-0.0112126602432 -0.109351663248 0)
(-0.0117793687045 -0.107434035094 0)
(-0.0122951420277 -0.105435563973 0)
(-0.0127617664807 -0.103364162551 0)
(-0.0131813719475 -0.101228790274 0)
(-0.0135558893104 -0.0990353070059 0)
(-0.0138877550721 -0.0967917997718 0)
(-0.0141794723225 -0.0945049087111 0)
(-0.0144336678354 -0.0921806366814 0)
(-0.0146528162553 -0.0898256844875 0)
(-0.0148392758878 -0.0874434704588 0)
(-0.014995436813 -0.0850393692624 0)
(-0.0151239490799 -0.082618333117 0)
(-0.0152262805948 -0.0801825445338 0)
(-0.0153042359359 -0.0777374225564 0)
(-0.0153591901684 -0.0752838704034 0)
(-0.0153924630993 -0.0728269600033 0)
(-0.0154032499537 -0.0703684595719 0)
(-0.0153924432119 -0.0679112529673 0)
(-0.0153628949964 -0.0654659762324 0)
(-0.0153125436719 -0.0630232306536 0)
(-0.0152438263986 -0.0605919983656 0)
(-0.0151564889417 -0.0581719751022 0)
(-0.0150495652928 -0.0557662738099 0)
(-0.0149250994726 -0.0533815467617 0)
(-0.0147821153475 -0.0510189126122 0)
(-0.0146202026077 -0.0486798632814 0)
(-0.0144413531953 -0.046369859027 0)
(-0.0142456277463 -0.0440914589982 0)
(-0.0140336826879 -0.0418478976878 0)
(-0.0138070154033 -0.0396410012456 0)
(-0.0135666073273 -0.0374744172941 0)
(-0.0133135124963 -0.0353479165297 0)
(-0.0130512249965 -0.0332675675775 0)
(-0.0127806618271 -0.0312329384017 0)
(-0.0125038701107 -0.0292460252811 0)
(-0.0122223787854 -0.0273058187386 0)
(-0.0119393900741 -0.0254155457091 0)
(-0.0116564935861 -0.023572942746 0)
(-0.0113763821884 -0.0217786405142 0)
(-0.0111015630993 -0.0200315084312 0)
(-0.0108327857432 -0.0183281710435 0)
(-0.0105724369968 -0.0166671879995 0)
(-0.0103223244855 -0.0150443603056 0)
(-0.0100846698665 -0.0134565534417 0)
(-0.0098604717767 -0.0118969925481 0)
(-0.00965387948267 -0.0103553860714 0)
(-0.00948866052039 -0.00883110276395 0)
(-0.00938952954826 -0.00733225177719 0)
(-0.00933259166131 -0.00583284762841 0)
(-0.00933095717283 -0.00435557473523 0)
(-0.00943944932954 -0.00298204659858 0)
(-0.00949066267171 -0.00168593467701 0)
(-0.00867272714917 -0.000478618328816 0)
(0.0485093157368 -0.00332250032903 0)
(0.053740311981 -0.0112367475903 0)
(0.0534895852168 -0.0190774288427 -1.25793507353e-27)
(0.0526594687927 -0.0269095188645 0)
(0.0515473306995 -0.0345563066351 0)
(0.050191863731 -0.0419833624713 0)
(0.0486200727977 -0.0491530906307 0)
(0.0468604214553 -0.05603423842 0)
(0.0449421877178 -0.0626019555571 0)
(0.0428940959806 -0.0688371964 0)
(0.0407440937387 -0.074726999671 0)
(0.0385178355906 -0.080262949759 0)
(0.0362386768908 -0.0854410737473 0)
(0.03392756451 -0.0902611715383 0)
(0.0316026514234 -0.0947257006097 0)
(0.0292794250985 -0.0988392797457 0)
(0.0269710531687 -0.102608479898 0)
(0.024688210167 -0.106040377368 0)
(0.0224398569617 -0.10914359581 0)
(0.0202332976486 -0.111927022659 0)
(0.0180743949883 -0.114399894985 0)
(0.0159682534234 -0.116571457027 0)
(0.0139188613373 -0.118452913849 0)
(0.0119284139745 -0.120051124989 0)
(0.00999952746045 -0.121377942682 0)
(0.00813440896479 -0.122441955314 0)
(0.00633490005537 -0.123253488532 0)
(0.00460246240754 -0.123822213116 0)
(0.00293821372458 -0.124158704313 0)
(0.00134289102852 -0.124271832679 0)
(-0.00018296562878 -0.1241721808 0)
(-0.00163897787624 -0.123869681962 0)
(-0.00302465369209 -0.12337437964 0)
(-0.00434005787201 -0.122696950881 0)
(-0.00558531458477 -0.121846120142 0)
(-0.00676076509358 -0.120833021904 0)
(-0.00786711375974 -0.119666803674 0)
(-0.00890518524635 -0.118357482056 0)
(-0.0098761277497 -0.116913859025 0)
(-0.0107806006018 -0.115345930979 0)
(-0.0116196313985 -0.11366378658 0)
(-0.0123944909049 -0.111875023165 0)
(-0.0131068488686 -0.109989658122 0)
(-0.0137581301562 -0.10801617778 0)
(-0.0143500608993 -0.105964293901 0)
(-0.0148845737981 -0.103840782159 0)
(-0.0153642460571 -0.101654795251 0)
(-0.0157914866731 -0.0994140125318 0)
(-0.0161688437828 -0.0971256969195 0)
(-0.0164998731047 -0.0947977224032 0)
(-0.0167871115106 -0.0924343430945 0)
(-0.017034224915 -0.0900432675813 0)
(-0.0172439618527 -0.0876274022977 0)
(-0.0174192412677 -0.0851931618665 0)
(-0.0175626581655 -0.0827423247187 0)
(-0.0176767468615 -0.0802806164714 0)
(-0.0177631555331 -0.0778093836729 0)
(-0.0178238647124 -0.0753321243357 0)
(-0.017857625388 -0.0728523703796 0)
(-0.0178662262433 -0.0703757489151 0)
(-0.0178520476784 -0.0679032592492 0)
(-0.0178157330081 -0.0654331012183 0)
(-0.0177580964467 -0.0629697206799 0)
(-0.0176788595191 -0.0605163989467 0)
(-0.0175779717673 -0.0580762312709 0)
(-0.017455101891 -0.0556530678004 0)
(-0.0173097715475 -0.0532456681809 0)
(-0.0171435650193 -0.0508637387725 0)
(-0.016955124649 -0.0485050897991 0)
(-0.0167460594224 -0.0461758295965 0)
(-0.0165178571103 -0.0438811452134 0)
(-0.0162693993377 -0.0416190428787 0)
(-0.0160038507441 -0.0393967962182 0)
(-0.015722326905 -0.0372160251623 0)
(-0.0154262391134 -0.0350790165351 0)
(-0.01511790155 -0.0329879281555 0)
(-0.0148000274063 -0.0309452033335 0)
(-0.0144738326773 -0.0289501936083 0)
(-0.0141434768579 -0.0270074309039 0)
(-0.0138112759317 -0.0251155912111 0)
(-0.0134788998376 -0.0232733924133 0)
(-0.0131507689783 -0.0214825504173 0)
(-0.012828668643 -0.0197401081666 0)
(-0.0125158883775 -0.0180453388239 0)
(-0.0122145527591 -0.0163951835215 0)
(-0.011927375168 -0.0147853415295 0)
(-0.0116584090515 -0.0132132079399 0)
(-0.011407093934 -0.0116693208892 0)
(-0.011180581672 -0.0101502108163 0)
(-0.0109926822057 -0.00865206451976 0)
(-0.0108640750022 -0.00718673646327 0)