/*--------------------------------*- C++ -*----------------------------------*\
| =========                 |                                                 |
| \\      /  F ield         | OpenFOAM: The Open Source CFD Toolbox           |
|  \\    /   O peration     | Version:  v1906                                 |
|   \\  /    A nd           | Web:      www.OpenFOAM.com                      |
|    \\/     M anipulation  |                                                 |
\*---------------------------------------------------------------------------*/
FoamFile
{
    version     2.0;
    format      ascii;
    class       volScalarField;
    location    "93";
    object      p;
}
// * * * * * * * * * * * * * * * * * * * * * * * * * * * * * * * * * * * * * //

dimensions      [0 2 -2 0 0 0 0];


internalField   nonuniform List<scalar> 
9216
(
18777.450429
18772.3270634
18761.8824266
18746.0821218
18724.9956422
18698.7065407
18667.318601
18630.9542711
18589.7530281
18543.8697207
18493.4728573
18438.7428317
18379.8701448
18317.0536235
18250.4987001
18180.4157421
18107.01849
18030.522581
17951.1442106
17869.0988971
17784.6003953
17697.8597154
17609.0842903
17518.4772391
17426.2367691
17332.5556585
17237.620863
17141.6131854
17044.7070517
16947.0703325
16848.8642529
16750.2433282
16651.3553683
16552.3414347
16453.3363117
16354.4683499
16255.859269
16157.6246591
16059.8741391
15962.7114942
15866.2348702
15770.5369517
15675.7051719
15581.8218991
15488.9646501
15397.2062766
15306.6151766
15217.2554761
15129.1872341
15042.4666169
14957.1460941
14873.274604
14790.8977393
14710.0579025
14630.7944803
14553.1439889
14477.1402374
14402.8144624
14330.1954805
14259.3098134
14190.181829
14122.8338573
14057.286321
13993.5578429
13931.6653668
13871.6242555
13813.4484032
13757.1503261
13702.7412648
13650.2312681
13599.6292875
13550.9432532
13504.1801611
13459.3461422
13416.4465419
13375.4859833
13336.4684387
13299.3972872
13264.2753792
13231.1050882
13199.8883678
13170.6267985
13143.3216376
13117.9738605
13094.5842039
13073.1532011
13053.6812189
13036.1684866
13020.6151253
13007.0211687
12995.3865791
12985.7112452
12977.9949552
12972.2371776
12968.4397374
12966.5755474
18782.4947778
18777.352223
18766.8811911
18751.0249005
18729.8610966
18703.4758641
18671.9746248
18635.4813063
18594.1368776
18548.0977324
18497.5339642
18442.6275727
18383.5706542
18320.5635998
18253.8133473
18183.5316968
18109.9337287
18033.2363226
17953.6568048
17871.4117163
17786.7157181
17699.7806192
17610.8145402
17520.0211886
17427.5992602
17333.7419358
17238.6364878
17142.4639655
17045.3989705
16947.6094951
16849.2568327
16750.4955369
16651.4734445
16552.3317821
16453.2049979
16354.2210333
16255.5016626
16157.1624121
16059.3127593
15962.0563283
15865.4910875
15769.7095415
15674.7989361
15580.8414546
15487.914425
15396.0905158
15305.4379397
15216.0206447
15127.8985108
15041.1275339
14955.7600134
14871.8447259
14789.4271034
14708.5493964
14629.2508408
14551.5678106
14475.533974
14401.1804355
14328.5358805
14257.6267078
14188.4771636
14121.1094642
14055.5439197
13991.7990477
13929.8916877
13869.8371056
13811.6490997
13755.3400964
13700.9212483
13648.4025219
13597.7927875
13549.0999002
13502.3307816
13457.4914942
13414.5873159
13373.6228072
13334.6018795
13297.5278556
13262.4035312
13229.2312291
13198.0128546
13168.7499433
13141.4437102
13116.0950917
13092.7047878
13071.2732992
13051.8009625
13034.2879813
13018.7344556
13005.140407
12993.5058037
12983.8305849
12976.114718
12970.3582122
12966.5655422
12964.7013739
18792.808195
18787.6139674
18777.0631127
18761.0869954
18739.7645122
18713.1835008
18681.4517672
18644.695958
18603.0600038
18556.703436
18505.7995958
18450.5337775
18391.1013559
18327.705932
18260.5575351
18189.8709021
18115.863862
18038.7558358
17958.7664665
17876.1143823
17791.016098
17703.6850488
17614.3307588
17523.15813
17430.3668531
17336.1509225
17240.6982544
17144.190391
17046.8022892
16948.7021764
16850.0514729
16751.0047667
16651.7098376
16552.3077245
16452.9327864
16353.7128615
16254.7693948
16156.2175912
16058.1665975
15960.7196921
15863.9744825
15768.0231043
15672.9524268
15578.8442563
15485.7755418
15393.8185771
15303.0412029
15213.5070026
15125.2754975
15038.4023338
14952.9394687
14868.9353474
14786.4350784
14705.4806002
14626.1108452
14548.3618954
14472.2671356
14397.8573979
14325.1611041
14254.2044
14185.011287
14117.6037469
14052.0018632
13988.2239365
13926.2865969
13866.20491
13807.992481
13751.6615517
13697.223097
13644.6869138
13594.0617094
13545.3551833
13498.5741083
13453.7244049
13410.8112152
13369.8389712
13330.8114613
13293.7318923
13258.6029495
13225.4268522
13194.2054074
13164.9400593
13137.6319365
13112.2818958
13088.8905635
13067.4583725
13047.9855979
13030.4723887
13014.9187979
13001.324809
12989.6903635
12980.0153863
12972.2998373
12966.5436241
12962.7510413
12960.8821587
18808.5022064
18803.2449562
18792.5712179
18776.4106648
18754.8443967
18727.9630522
18695.8780272
18658.7201054
18616.6377617
18569.7953595
18518.3712456
18462.5557885
18402.5494081
18338.5606366
18270.8042459
18199.4994686
18124.8683359
18047.1341442
17966.5200648
17883.2478963
17797.5369645
17709.6031641
17619.6581377
17527.908584
17434.5556875
17339.7946573
17243.814368
17146.7970898
17048.9182995
16950.3465611
16851.2434694
16751.763645
16652.0547752
16552.2576974
16452.5065346
16352.9288225
16253.6455686
16154.7715073
16056.4152836
15958.6796466
15861.6616535
15765.4528763
15670.1396118
15575.8030908
15482.5196872
15390.3611242
15299.3946782
15209.6833779
15121.2862003
15034.2582602
14948.650996
14864.512349
14781.8869378
14700.8162266
14621.3386882
14543.4899606
14467.3029995
14392.8082231
14320.0336539
14249.0050532
14179.7460518
14112.2782749
14046.621463
13982.793587
13920.8109597
13860.6883423
13802.4390473
13746.0750363
13691.6070146
13639.0445214
13588.396017
13539.6689647
13492.8699111
13448.0045613
13405.0778516
13364.0940182
13325.0566635
13287.9688178
13252.832999
13219.6512687
13188.4252851
13159.156353
13131.8454706
13106.4933735
13083.1005752
13061.6674057
13042.1940459
13024.6805602
13009.1269264
12995.5330626
12983.8988538
12974.2241742
12966.5089283
12960.7529155
12956.9603068
12955.0902841
18829.6331317
18824.2935199
18813.4528134
18797.0412953
18775.14342
18747.8538293
18715.2888739
18677.5850229
18634.8969929
18587.3957792
18535.2665909
18478.7067411
18417.9235405
18353.132241
18284.5540626
18212.4143347
18136.9407722
18058.3619
17976.9056358
17892.798031
17806.2621715
17717.5172302
17626.7776649
17534.2525517
17440.1450435
17344.6519411
17247.9633674
17150.2625306
17051.7255685
16952.5214612
16852.8120042
16752.7518319
16652.4884814
16552.1625256
16451.907714
16351.8511118
16252.1131498
16152.8079228
16054.0433907
15955.9215817
15858.5388065
15761.9858737
15666.3483065
15571.7065592
15478.1362308
15385.7082758
15294.489212
15204.5413225
15115.9228531
15028.688205
14942.8881209
14858.5698658
14775.7774018
14694.551557
14614.9301886
14536.9483396
14460.6383909
14386.0302065
14313.1512741
14242.02684
14172.6800389
14105.1320188
14039.4020606
13975.5076937
13913.4648065
13853.2877524
13794.9894522
13738.5814919
13684.0742165
13631.4768197
13580.797431
13532.0431974
13485.2203628
13440.3343435
13397.3898004
13356.3907074
13317.3404175
13280.2417244
13245.0969222
13211.9078608
13180.6759993
13151.4024555
13124.0880527
13098.7333636
13075.3387512
13053.9044065
13034.4303836
13016.9166322
13001.3630267
12987.7693936
12976.135536
12966.4612527
12958.7463737
12952.9906041
12949.1980431
12947.3277813
18856.2857633
18850.841943
18839.7883467
18823.0564613
18800.7352749
18772.924763
18739.747763
18701.3481433
18657.8887204
18609.5490753
18556.5232801
18499.017593
18437.2481767
18371.4388886
18301.8191812
18228.6221422
18152.0826955
18072.4359741
17989.9158733
17904.7537807
17817.1774818
17727.4102295
17635.6699698
17542.1687098
17447.112015
17350.6986233
17253.1201626
17154.5609578
17055.197918
16955.2004894
16854.7306674
16753.9430559
16652.9849614
16551.9965923
16451.1111856
16350.4551623
16250.148204
16150.3035829
16051.0283794
15952.4237003
15854.5849048
15757.6018307
15661.5590207
15566.5359458
15472.6072256
15379.8428451
15288.3083656
15198.0651308
15109.1704676
15021.6778796
14935.6372357
14851.0949516
14768.0941658
14686.6749085
14606.8742648
14528.726532
14452.2633709
14377.5139508
14304.5050897
14233.261389
14163.8053622
14096.1575593
14030.3366864
13966.3597198
13904.2420163
13843.9974191
13785.6383586
13729.1759503
13674.620088
13621.9795331
13571.2620008
13522.4742416
13475.6221207
13430.7106926
13387.744273
13346.7265076
13307.6604366
13270.5485576
13235.392884
13202.1950005
13170.9561167
13141.6771159
13114.3586022
13089.0009441
13065.6043154
13044.1687329
13024.6940911
13007.1801947
12991.6267879
12978.0335804
12966.4002716
12956.7265674
12949.0122144
12943.2568352
12939.4644888
12937.5943361
18888.5671986
18882.9954673
18871.6802792
18854.554603
18831.7131843
18803.262794
18769.3344693
18730.0813947
18685.6765508
18636.3102588
18582.1876422
18523.5260755
18460.5526822
18393.5019353
18322.6134033
18248.1296683
18170.2944392
18089.3508677
18005.5400699
17919.0998499
17830.2636162
17739.2594784
17646.3095111
17551.6291677
17455.4268298
17357.9034756
17259.2524522
17159.6593385
17059.3018844
16958.3500151
16856.9658896
16755.3040045
16653.5113239
16551.7275634
16450.0852912
16348.7100864
16247.7206881
16147.2293453
16047.3420501
15948.1587744
15849.7737104
15752.275509
15655.7475171
15560.2680096
15465.9104174
15372.7435498
15280.8318108
15190.235409
15101.0105611
15013.2096884
14926.8816064
14842.0717083
14758.8221409
14677.1719747
14597.1573667
14518.8117177
14442.1658231
14367.2480181
14294.0843166
14222.6985452
14153.1124718
14085.345929
14019.4169326
13955.3417952
13893.1352359
13832.8104851
13774.379385
13717.8524864
13663.2391416
13610.5475928
13559.7850581
13510.9578122
13464.0712655
13419.1300379
13376.1380311
13335.0984958
13296.0140976
13258.8869776
13223.7188123
13190.510868
13159.2640541
13129.9789724
13102.6559634
13077.2951503
13053.8964792
13032.4597571
13012.9846867
12995.4708981
12979.9179781
12966.3254962
12954.6930275
12945.0201698
12937.3065771
12931.5517905
12927.7598343
12925.889964
18926.6088005
18920.8835939
18909.2546139
18891.6565944
18868.1913963
18838.9742336
18804.1462881
18763.8722317
18718.3375348
18667.7456676
18612.3152315
18552.2771014
18487.8716539
18419.34614
18346.9522458
18270.9438713
18191.5751449
18109.0986783
18023.7640613
17935.8165849
17845.4961798
17753.0365531
17658.664504
17562.5993986
17465.0527854
17366.2281318
17266.3206658
17165.5173052
17063.9966615
16961.9291048
16859.4768788
16756.7942562
16654.0277114
16551.3163043
16448.791756
16346.5785744
16244.7943414
16143.5500612
16042.950412
15943.094003
15844.0736307
15745.9765328
15648.8846364
15552.8747999
15458.0190499
15364.3848095
15272.0351203
15181.0288567
15091.4209322
15003.2624988
14916.6011385
14831.4810473
14747.9432125
14666.0255826
14585.7632304
14507.1885101
14430.3312072
14355.2186834
14281.8760147
14210.3261244
14140.589911
14072.6863706
14006.6327142
13942.4444813
13880.1356474
13819.7187286
13761.2048816
13704.6039989
13649.9248016
13597.1749267
13546.3610127
13497.4887797
13450.5631073
13405.5881092
13362.5672037
13321.5031813
13282.3982698
13245.2541952
13210.0722404
13176.8533001
13145.5979336
13116.3064139
13088.9787738
13063.6148499
13040.2143225
13018.7767537
12999.3016217
12981.7883527
12966.23635
12952.6450192
12941.013792
12931.3421419
12923.6296197
12917.8756786
12914.0843029
12912.2148386
18970.5679935
18964.6615948
18952.6623162
18934.507036
18910.3062952
18880.1856529
18844.2986801
18802.8240307
18755.9623192
18703.9328924
18646.9705499
18585.3223124
18519.2443246
18448.9989568
18374.852153
18297.0710519
18215.9218966
18131.6682306
18044.5693718
17954.879149
17862.8448777
17768.706554
17672.6962397
17575.0376165
17475.9456841
17375.6265824
17274.2775155
17172.0867626
17069.2337579
16965.8892275
16862.2153696
16758.3660707
16654.4871278
16550.7167409
16447.1855783
16344.0168113
16241.3266245
16139.2245344
16037.8136601
15937.1910031
15837.4477226
15738.6694042
15640.9363213
15544.3236877
15448.901903
15354.7367884
15261.8898138
15170.4183168
15080.3757126
14991.8116952
14904.7724313
14819.3007447
14735.4362949
14653.2157463
14572.672932
14493.8390096
14416.7426108
14341.4099854
14267.8651384
14196.1299624
14126.2243635
14058.1663831
13991.9723146
13927.6568146
13865.2330107
13804.7126044
13746.1059698
13689.4222487
13634.6694418
13581.8544959
13530.9833876
13482.0612039
13435.0922193
13390.0799689
13347.0273192
13305.9365354
13266.8093454
13229.6470007
13194.4503348
13161.219818
13129.9556092
13100.6576058
13073.325489
13047.9587676
13024.5568182
13003.1189227
12983.6443026
12966.1321512
12950.5816618
12936.9920535
12925.3625944
12915.692618
12907.9815588
12902.2287732
12898.4381959
12896.5692558
19020.6303972
19014.5125078
19002.0811685
18983.2759185
18958.2178229
18927.0450226
18889.9261058
18847.056613
18798.6553696
18744.9607205
18686.2267444
18622.7195684
18554.7138827
18482.489727
18406.3295976
18326.5158984
18243.3287428
18157.0440992
18067.9322595
17976.2566068
17882.272651
17786.2273015
17688.3583458
17588.8941035
17488.0532288
17386.0446348
17283.0675195
17179.3114707
17074.9566367
16970.1739453
16865.1253605
16759.9641669
16654.8352547
16549.8757137
16445.214913
16340.9743842
16237.2686497
16134.2054707
16031.8861406
15930.4057904
15829.8536843
15730.3135047
15631.8636266
15534.5773821
15438.5233145
15343.7654213
15250.3633873
15158.3728075
15067.8454009
14978.8292133
14891.3688132
14805.5054769
14721.2773674
14638.7197035
14557.8649229
14478.7428378
14401.3807831
14325.8037593
14252.0345688
14180.0939462
14110.0006838
14041.7717518
13975.4224131
13910.9663341
13848.4156906
13787.7812698
13729.0725678
13672.2978838
13617.4644099
13564.5783177
13513.6448414
13464.668357
13417.6524591
13372.6000333
13329.5133263
13288.394013
13249.2432596
13212.0617844
13176.8499159
13143.6076469
13112.3346867
13083.03051
13055.6944027
13030.3255048
13006.9228513
12985.4854088
12966.0121103
12948.5018868
12932.9536958
12919.3665467
12907.7395244
12898.0718054
12890.3626948
12884.6114406
12880.8219184
12878.9536334
19077.0123831
19070.6495814
19057.7180334
19038.160632
19012.1111707
18979.7230413
18941.1829676
18896.7067987
18846.5351522
18790.9289785
18730.1651536
18664.5322466
18594.3265767
18519.8486393
18441.3999463
18359.2802994
18273.7854921
18185.2054193
18093.8225655
17999.9108297
17903.7346506
17805.5483876
17705.5959201
17604.1104282
17501.314323
17397.4192952
17292.6264599
17187.1265741
17081.1003098
16974.7185679
16868.1428215
16761.5254757
16655.0102468
16548.7328245
16442.8209474
16337.3941869
16232.5651103
16128.4394292
16025.1163209
15922.688764
15821.243854
15720.8631046
15621.6227372
15523.5939561
15426.8432113
15331.4324496
15237.4193526
15144.857564
15053.796906
14964.283585
14876.3603873
14790.0668661
14705.4395194
14622.5119592
14541.3150736
14461.8771809
14384.2241776
14308.3796787
14234.3651531
14162.2000525
14091.9019352
14023.4865843
13956.9681214
13892.3591161
13829.6706899
13768.9126173
13710.093422
13653.2204696
13598.3000564
13545.3374953
13494.3371974
13445.3027509
13398.2369965
13353.1420998
13310.0196204
13268.8705782
13229.6955164
13192.4945619
13157.2674825
13124.0137413
13092.7325485
13063.4229093
13036.0836707
13010.7135635
12987.3112429
12965.8753255
12946.4044238
12928.8971776
12913.3522822
12899.7685147
12888.1447567
12878.4800106
12870.773438
12865.0241672
12861.2360045
12859.3685264
19139.9641627
19133.3192442
19119.8115931
19099.3883762
19072.198782
19038.4146769
18998.2446646
18951.9289781
18899.7342492
18841.9482373
18778.8746608
18710.8283083
18638.1305633
18561.1054236
18480.0760566
18395.3618967
18307.2762645
18216.1244711
18122.2023576
18025.7952186
17927.1770528
17826.6100904
17724.3445473
17620.6185638
17515.6582894
17409.6780807
17302.8807848
17195.4580864
17087.5908985
16979.4497819
16871.1953832
16762.9788634
16654.9425312
16547.2203067
16439.937781
16333.2123248
16227.1542128
16121.866777
16017.4467644
15913.9846985
15811.5652147
15710.2673799
15610.1649946
15511.3268798
15413.8171489
15317.695465
15223.0172845
15129.8340878
15038.1935985
14948.1399902
14859.7140835
14772.9535324
14687.8930023
14604.5643378
14522.9967239
14443.2168387
14365.2489993
14289.1153009
14214.8357502
14142.428392
14071.9094317
14003.2933515
13936.5930225
13871.8198121
13808.9836866
13748.0933107
13689.1561422
13632.1785235
13577.165769
13524.12225
13473.0514751
13423.9561684
13376.8383439
13331.6993771
13288.5400733
13247.3607338
13208.1612178
13170.9410026
13135.6992406
13102.434813
13071.1463811
13041.8324351
13014.491339
12989.1213739
12965.7207778
12944.2877824
12924.8206476
12907.3176931
12891.7773263
12878.1980688
12866.5785785
12856.917667
12849.2143377
12843.4675875
12839.6811439
12837.8146513
19209.773514
19202.8046882
19188.6356434
19167.2190326
19138.722702
19103.3409308
19061.308746
19012.8956646
18958.3993537
18898.1393149
18832.4507844
18761.6790638
18686.1744316
18606.2877152
18522.3665532
18434.7523331
18343.7777621
18249.7650093
18153.0243486
18053.8532294
17952.5357033
17849.3421434
17744.5291947
17638.3399073
17531.004007
17422.7382681
17313.746959
17204.2223361
17094.3451663
16984.2852644
16874.2020335
16764.2449477
16654.5546549
16545.2628121
16436.492285
16328.3580204
16220.967613
16114.4216519
16008.8141141
15904.2327442
15800.7594101
15698.4704387
15597.4369319
15497.7250636
15399.3963599
15302.5079624
15207.1128765
15113.2602052
15020.9953696
14930.3603171
14841.3937184
14754.1311534
14668.6052876
14584.8460395
14502.8807389
14422.7342788
14344.4292581
14267.9861196
14193.4232804
14120.757257
14050.0027849
13981.1729333
13914.2792151
13849.3316919
13786.3390754
13725.308825
13666.2472404
13609.1595525
13554.0500088
13500.9219572
13449.7779256
13400.6196983
13353.4483904
13308.2645179
13265.0680658
13223.8585532
13184.635095
13147.3964614
13112.1411344
13078.8673615
13047.5732065
13018.2565978
12990.9153737
12965.547325
12942.1502346
12920.7219148
12901.2602414
12883.7631847
12868.2288385
12854.6554453
12843.0414198
12833.3853652
12825.6861122
12819.9425148
12816.1582117
12814.2929131
19286.7702814
19279.4301894
19264.5030413
19241.9485721
19211.9573174
19174.7508324
19130.5961361
19079.7979765
19022.691073
18959.6324931
18890.9944167
18817.1575459
18738.5053214
18655.4190175
18568.2737207
18477.4351466
18383.2572179
18286.080311
18186.2300697
18084.0166903
17979.734588
17873.6623619
17766.0629918
17657.1842064
17547.2589757
17436.5060869
17325.1307751
17213.3253826
17101.2700294
16989.1332797
16877.0727973
16765.235923
16653.7610052
16542.7770991
16432.4039435
16322.7535213
16213.930362
16106.0319359
15999.1490877
15893.3664405
15788.7627707
15685.4113598
15583.3803223
15482.732913
15383.5278142
15285.8194038
15189.6580075
15095.0901346
15002.1586996
14910.90323
14821.3600633
14733.562531
14647.5411335
14563.3237055
14480.9355722
14400.3996981
14321.7368278
14244.9656212
14170.102781
14097.1631754
14026.1599559
13957.1046683
13890.0073615
13824.8766898
13761.7200128
13700.54349
13641.3521733
13584.1500945
13528.9403508
13475.7251859
13424.5060695
13375.283772
13328.0584379
13282.8296555
13239.5965235
13198.3577162
13159.111544
13121.856013
13086.5888805
13053.3077087
13022.0099152
12992.6928207
12965.3536946
12939.9897969
12916.5984185
12895.1769173
12875.7227532
12858.2335184
12842.706967
12829.1410395
12817.5338869
12807.8838867
12800.1896825
12794.4499738
12790.6683012
12788.8044384
19371.3318118
19363.5663159
19347.7704368
19323.9130889
19292.2125314
19252.9236627
19206.3523889
19152.8459691
19092.7834357
19026.5663314
18954.6100921
18877.3363808
18795.1665352
18708.5161762
18617.7909419
18523.3832529
18425.6699847
18325.0109106
18221.7477793
18116.2039005
18008.6841256
17899.4751273
17788.8458982
17677.0484008
17564.3183188
17450.8758676
17336.9266324
17222.6624122
17108.2620509
16993.8922457
16879.7083234
16765.8549565
16652.4675995
16539.6722171
16427.5848526
16316.3140638
16205.9608827
16096.6192497
15988.3764908
15881.3137448
15775.5063571
15671.0242455
15567.9322395
15466.2903957
15366.1542905
15267.5752929
15170.6008182
15075.2745649
14981.6367364
14889.7242478
14799.5709209
14711.2076668
14624.6626575
14539.961489
14457.1273344
14376.1810895
14297.141511
14220.0253477
14144.8474659
14071.6209689
14000.357311
13931.0664077
13863.7567399
13798.4354555
13735.1084656
13673.7805383
13614.4553882
13557.1357631
13501.823527
13448.5197408
13397.224739
13347.938205
13300.6592422
13255.386443
13212.1179555
13170.8515464
13131.5846627
13094.3144893
13059.038005
13025.7520353
12994.4533032
12965.1384761
12937.8042113
12912.4471982
12889.0641978
12867.6520796
12848.2078555
12830.7287111
12815.2120344
12801.6554411
12790.0567981
12780.4142399
12772.7262086
12766.9912374
12763.212759
12761.3506106
19463.8895369
19455.6362233
19438.8439514
19413.4935747
19379.8374242
19338.1713947
19288.8489014
19232.2687032
19168.8629635
19099.0859267
19023.4036328
18942.2850134
18856.1945171
18765.5862604
18670.8995992
18572.5559565
18470.9567171
18366.4819951
18259.4900949
18150.3175045
18039.279284
17926.6697366
17812.7632727
17697.8153925
17582.0637367
17465.7291603
17349.0168032
17232.1171335
17115.2069521
16998.4503493
16881.9995927
16765.9961349
16650.5720414
16535.8492097
16421.9395872
16308.9478159
16196.9709513
16086.0989628
15976.4152478
15867.99708
15760.9160197
15655.238292
15551.0251357
15448.3331242
15347.214463
15247.7172641
15149.8858009
15053.7607445
14959.3793837
14866.7758302
14775.9812105
14687.0238452
14599.9294178
14514.7211336
14431.4198694
14350.0443154
14270.6111094
14193.1349648
14117.6287921
14044.1038153
13972.5696828
13903.0345738
13835.5053009
13769.9874078
13706.4852638
13645.0021552
13585.5403725
13528.1012953
13472.6854739
13419.2927079
13367.9221221
13318.5722401
13271.2410547
13225.9260957
13182.6244958
13141.3330531
13102.0482919
13064.7665197
13029.4838832
12996.1964206
12964.9001114
12935.5909246
12908.2648627
12882.9180041
12859.546543
12838.1468256
12818.7153844
12801.2489693
12785.7445765
12772.1994736
12760.6112231
12750.9776992
12743.2971279
12737.5678647
12733.7932248
12731.9331086
19564.9369614
19556.1232833
19538.1860072
19511.1215667
19475.2244492
19430.841311
19378.3839721
19318.3138824
19251.1271058
19177.3404081
19097.4789729
19012.0661104
18921.6150522
18826.6227331
18727.5653493
18624.8954247
18519.0401082
18410.4004374
18299.3513361
18186.2421457
18071.3975312
17955.1186318
17837.6843584
17719.3527637
17600.3624312
17480.9338426
17361.2707009
17241.5611875
17121.9791468
17002.6851883
16883.8275949
16765.5445581
16647.9635598
16531.2010976
16415.3651726
16300.5558684
16186.8657131
16074.3802309
15963.1784577
15853.3334042
15744.9124795
15637.9778782
15532.5869362
15428.7924553
15326.6430023
15226.1831842
15127.4539015
15030.4925825
14935.3334007
14842.0074761
14750.543063
14660.9657257
14573.2985024
14487.5620595
14403.7748373
14321.9531868
14242.1115004
14164.2623347
14088.416529
14014.583317
13942.7704345
13872.9842229
13805.2297275
13739.5107933
13675.8301567
13614.1895338
13554.5897061
13497.030603
13441.5113815
13388.0305035
13336.5858102
13287.1745943
13239.793669
13194.4394356
13151.1079481
13109.7949747
13070.4960586
13033.2065743
12997.921783
12964.6368847
12933.3470681
12904.0475578
12876.7336588
12851.4007991
12828.0445683
12806.6607551
12787.2453809
12769.7947312
12754.3053841
12740.774236
12729.1985249
12719.575847
12711.9041979
12706.1817438
12702.4116723
12700.5539484
19675.0393807
19665.5803685
19646.323575
19617.2858397
19578.8142101
19531.3187231
19475.2835265
19411.2468128
19339.7817629
19261.4793908
19176.9339042
19086.7309205
18991.4385052
18891.6007726
18787.7336741
18680.322563
18569.8211432
18456.6514516
18341.2045814
18223.8419085
18104.8966383
17984.6755319
17863.4607107
17741.511466
17619.066025
17496.3432384
17373.5441722
17250.8535922
17128.4413373
17006.4635843
16885.0639242
16764.3758776
16644.5217963
16525.6125016
16407.7509794
16291.032221
16175.5437162
16061.3660585
15948.5734757
15837.2343064
15727.4114332
15619.1626771
15512.5411551
15407.595607
15304.3706938
15202.9072703
15103.2426355
15005.410763
14909.4425133
14815.3658307
14723.2059253
14632.9854433
14544.7246254
14458.441456
14374.1518029
14291.8695492
14211.6067189
14133.3735953
14057.1788343
13983.0295723
13910.9315298
13840.8891109
13772.9054988
13706.9827478
13643.1218721
13581.3229322
13521.5851174
13463.9068266
13408.2857462
13354.7189252
13303.2028485
13253.7335077
13206.306469
13160.9169399
13117.5598326
13076.2298255
13036.9214225
12999.6290097
12964.34691
12931.0694348
12899.7909339
12870.5058426
12843.2087261
12817.8943213
12794.5575767
12773.1936889
12753.7981364
12736.3667114
12720.895548
12707.381148
12695.8204047
12686.2106187
12678.5495408
12672.8351359
12669.0704549
12667.2155286
19794.8457231
19784.6412115
19763.8581806
19732.540346
19691.1008452
19640.0296458
19579.9012311
19511.3483266
19435.037509
19351.6480171
19261.8544169
19166.3133214
19065.6538926
18960.4715986
18851.3246106
18738.7322355
18623.1748476
18505.0948704
18384.8984543
18262.9575767
18139.6123654
18015.1735012
17889.9246005
17764.1245149
17638.0095062
17511.7952739
17385.678828
17259.8402026
17134.4440212
17009.6409024
16885.5688489
16762.3559522
16640.1182035
16518.9600809
16398.9788768
16280.2638878
16162.8970123
16046.953407
15932.5020307
15819.6061314
15708.3236848
15598.7077909
15490.8070318
15384.6657961
15280.3245736
15177.8202235
15077.186219
14978.4528715
14881.6475369
14786.7948046
14693.9166743
14603.032718
14514.1602326
14427.3143824
14342.5083322
14259.7533737
14179.0590448
14100.4332431
14023.8823335
13949.4112522
13877.0236053
13806.7217643
13738.5069578
13672.3793605
13608.3381787
13546.3817335
13486.5075414
13428.7123926
13372.9924266
13319.3432062
13267.7597889
13218.236796
13170.7684802
13125.3487908
13081.9714361
13040.6299448
13001.3177244
12964.0281173
12928.7544556
12895.4901119
12864.2285497
12834.9633697
12807.6883545
12782.3975107
12759.0851081
12737.7457166
12718.3742403
12700.9659491
12685.5165069
12672.0219978
12660.4789498
12650.8843506
12643.2356912
12637.5307243
12633.7723533
12631.920678
19925.1029741
19914.034391
19891.4781296
19857.5136575
19812.6380082
19757.4431689
19692.6175597
19618.911143
19537.1039759
19447.9800902
19352.3072198
19250.8222327
19144.2215561
19033.1556493
18918.2265721
18799.9877921
18678.9455264
18555.5610667
18430.2536743
18303.403751
18175.3560798
18046.423001
17916.8874391
17787.0057317
17657.0102371
17527.1117124
17397.5014683
17268.3533057
17139.8252521
17012.0609535
16885.1928861
16759.3418963
16634.6155359
16511.1124209
16388.9232795
16268.1309931
16148.8112799
16031.0333346
15914.8603761
15800.3501378
15687.5553057
15576.5239128
15467.2996923
15359.9223963
15254.4280835
15150.8493798
15049.2157146
14949.5535367
14851.8865118
14756.2357036
14662.6197411
14571.0549734
14481.5556139
14394.1338751
14308.8000947
14225.562855
14144.4290958
14065.4042216
13988.4922043
13913.6956808
13841.0160479
13770.453553
13702.0073817
13635.675743
13571.455952
13509.3445098
13449.3371815
13391.4290723
13335.614701
13281.8880719
13230.2427452
13180.6719045
13133.1684232
13087.7249286
13044.333864
13002.9875491
12963.6782379
12926.3981748
12891.1396483
12857.8950427
12826.6568874
12797.4179035
12770.1710487
12744.9095592
12721.6269889
12700.3172467
12680.9746303
12663.5938582
12648.1700981
12634.6989929
12623.1766846
12613.5998307
12605.9656479
12600.2716644
12596.5206265
12594.6727065
20066.6736585
20054.6007054
20029.9735676
19992.9202239
19944.0453499
19884.0730746
19813.8371283
19734.233891
19646.1816516
19550.5886542
19448.3299271
19340.23202
19227.0641892
19109.5344661
18988.2891966
18863.9148945
18736.9415246
18607.8465703
18477.059437
18344.9658946
18211.9123712
18078.2099883
17944.1382811
17809.9485824
17675.8670714
17542.0975011
17408.8236262
17276.2113596
17144.4106776
17013.5572169
16883.7762049
16755.1799944
16627.8674111
16501.9300114
16377.4512389
16254.5069165
16133.165995
16013.4911803
15895.5394801
15779.3626899
15665.0078271
15552.5175163
15441.9303345
15333.2811193
15226.6012463
15121.9188789
15019.2591934
14918.6445845
14820.0948515
14723.6273691
14629.2572448
14536.9974638
14446.8590241
14358.8510623
14272.9809717
14189.2545141
14107.675925
14028.2480148
13950.9722646
13875.848919
13802.8770748
13732.0547677
13663.3790554
13596.846099
13532.451242
13470.1890874
13410.053573
13352.0380445
13296.1353279
13242.3377989
13190.6374516
13141.0259654
13093.4947696
13048.0351069
13004.6380949
12963.2947857
12923.9962232
12886.7334992
12851.4978069
12818.2804922
12787.0731029
12757.8674357
12730.6555808
12705.4299641
12682.1833863
12660.9090605
12641.6006463
12624.2522814
12608.8586111
12595.4148136
12583.9166245
12574.3603531
12566.7429269
12561.0616384
12557.3190662
12555.4754594
20220.5567268
20207.3150098
20180.2552454
20139.5738233
20086.0152386
20020.4779145
19943.9832264
19857.6116628
19762.4500596
19659.5531796
19549.9182934
19434.4704784
19314.0559785
19189.4411779
19061.3152054
18930.294685
18796.9295867
18661.7094762
18525.0697227
18387.3974019
18249.0367546
18110.2941401
17971.4424749
17832.7251735
17694.3596265
17556.5402567
17419.4411977
17283.2186415
17148.0128306
17013.9504518
16881.1481895
16749.7077669
16619.7190941
16491.2656033
16364.4227127
16239.2585366
16115.8346686
15994.2067999
15874.4252592
15756.5354886
15640.5784655
15526.591075
15414.6064406
15304.6542186
15196.7608609
15090.9498503
14987.2419126
14885.6552074
14786.2055021
14688.9063301
14593.7691361
14500.80341
14410.0168112
14321.4152849
14235.0031709
14150.7833063
14068.7571234
13988.9247434
13911.2850653
13835.8358526
13762.5738171
13691.4946993
13622.5933483
13555.8637982
13491.299344
13428.8926154
13368.6356489
13310.5199592
13254.5366088
13200.6762761
13148.9293221
13099.2858563
13051.7358003
13006.2689504
12962.8750382
12921.5437899
12882.2649834
12845.0285037
12809.8243965
12776.6429197
12745.4745921