/*--------------------------------*- C++ -*----------------------------------*\
| =========                 |                                                 |
| \\      /  F ield         | OpenFOAM: The Open Source CFD Toolbox           |
|  \\    /   O peration     | Version:  v1906                                 |
|   \\  /    A nd           | Web:      www.OpenFOAM.com                      |
|    \\/     M anipulation  |                                                 |
\*---------------------------------------------------------------------------*/
FoamFile
{
    version     2.0;
    format      ascii;
    class       volVectorField;
    location    "93";
    object      U;
}
// * * * * * * * * * * * * * * * * * * * * * * * * * * * * * * * * * * * * * //

dimensions      [0 1 -1 0 0 0 0];


internalField   nonuniform List<vector> 
9216
(
(-0.0937697359389 0.0938337883371 0)
(-0.0964326949708 0.291972037034 4.51338901211e-26)
(-0.0959817024068 0.491538820172 -6.50428459836e-30)
(-0.0948942577654 0.690487129121 0)
(-0.0934078043331 0.886682685016 0)
(-0.0915593755835 1.07943377408 0)
(-0.0893815305388 1.26802710481 0)
(-0.0869029875157 1.45180554138 0)
(-0.0841526137163 1.63017056258 0)
(-0.0811602609894 1.80258399491 0)
(-0.0779565345545 1.96857016349 0)
(-0.074572406699 2.12771722993 0)
(-0.0710386311877 2.2796774863 0)
(-0.0673853260681 2.4241665404 0)
(-0.0636414607376 2.5609615532 0)
(-0.0598345771107 2.68989860828 0)
(-0.0559904203122 2.81086942787 0)
(-0.0521328203065 2.92381754283 0)
(-0.0482834646263 3.02873412039 0)
(-0.0444619218326 3.12565354588 0)
(-0.040685529629 3.21464892678 0)
(-0.0369695259526 3.29582758797 0)
(-0.0333270179413 3.36932668299 0)
(-0.0297691842643 3.43530896018 0)
(-0.02630529155 3.49395876655 0)
(-0.0229429361982 3.54547830226 0)
(-0.0196880817059 3.59008417366 0)
(-0.0165453166914 3.62800424007 0)
(-0.0135178974475 3.65947477834 0)
(-0.0106080162413 3.68473795679 0)
(-0.00781686855822 3.70403964891 0)
(-0.0051450174574 3.71762762472 0)
(-0.00259283221189 3.72575082045 0)
(-0.000162364141052 3.72865265211 0)
(0.00215213975036 3.72660048269 0)
(0.00435847324808 3.71981090457 0)
(0.00645708297698 3.70851597613 0)
(0.00844908602158 3.69294240109 0)
(0.0103369065127 3.67331163215 0)
(0.0121234708445 3.64983925595 0)
(0.0138120327798 3.62273424865 0)
(0.0154059380421 3.59219859876 0)
(0.0169086695265 3.55842709526 0)
(0.0183236920615 3.52160721813 0)
(0.0196545331842 3.48191909346 0)
(0.020904648653 3.4395355105 0)
(0.0220775136115 3.39462197439 0)
(0.0231764985531 3.3473368026 0)
(0.0242049653652 3.29783124009 0)
(0.0251661510696 3.24624960682 0)
(0.0260632662613 3.19272945165 0)
(0.0268993853942 3.13740173081 0)
(0.0276775459551 3.08039098377 0)
(0.0284006444121 3.02181552841 0)
(0.02907153475 2.96178764693 0)
(0.0296929295466 2.90041378749 0)
(0.0302674968349 2.83779475205 0)
(0.0307977658823 2.77402589782 0)
(0.0312862214919 2.70919732151 0)
(0.031735214286 2.64339405618 0)
(0.0321470518006 2.57669624871 0)
(0.0325239131113 2.5091793496 0)
(0.0328679361553 2.44091428174 0)
(0.0331811366968 2.3719676219 0)
(0.0334654914788 2.30240176026 0)
(0.0337228615185 2.23227507315 0)
(0.0339550707314 2.16164207347 0)
(0.0341638336536 2.09055357487 0)
(0.0343508292962 2.01905683357 0)
(0.0345176333658 1.94719570476 0)
(0.0346657871174 1.87501077659 0)
(0.0347967342184 1.80253951953 0)
(0.0349118844456 1.7298164136 0)
(0.0350125553007 1.65687309173 0)
(0.0351000303983 1.58373846114 0)
(0.035175505982 1.51043884157 0)
(0.0352401439073 1.43699808201 0)
(0.0352950231555 1.36343769472 0)
(0.0353411873172 1.28977696815 0)
(0.0353796012005 1.21603309768 0)
(0.0354111927508 1.14222129578 0)
(0.0354368147465 1.06835492034 0)
(0.0354572810212 0.994445583213 0)
(0.035473333056 0.920503277503 0)
(0.0354856699854 0.846536486489 0)
(0.0354949189808 0.77255231341 0)
(0.0355016563176 0.698556597457 0)
(0.0355063750425 0.624554060578 0)
(0.0355094800114 0.550548464657 0)
(0.0355112072497 0.476542857187 0)
(0.0355114603884 0.40254001755 0)
(0.0355093219005 0.328543237482 0)
(0.0355010888362 0.254560297298 0)
(0.035481889857 0.180569243462 0)
(0.0353790760737 0.107052848131 0)
(0.0343255727414 0.0343257301213 0)
(-0.292334179005 0.0970761859385 0)
(-0.308632083248 0.310099971496 0)
(-0.307119110381 0.522289476107 -4.56917964096e-26)
(-0.303602572104 0.733963826449 0)
(-0.298847636079 0.942547069435 0)
(-0.292966590832 1.14740970488 0)
(-0.2860416537 1.34781953396 0)
(-0.278157201874 1.54308567588 0)
(-0.269402639703 1.73257438075 0)
(-0.259871947429 1.91571472104 0)
(-0.24966212534 2.0920021006 0)
(-0.238871540752 2.26100007428 0)
(-0.227598083569 2.42234072849 0)
(-0.215937666677 2.57572379222 0)
(-0.203982714717 2.72091467891 0)
(-0.191821119514 2.85774161235 0)
(-0.179535205489 2.98609204075 0)
(-0.16720118565 3.10590849447 0)
(-0.154888589188 3.21718407554 0)
(-0.142660157126 3.31995771223 0)
(-0.130571646112 3.41430933078 0)
(-0.118672059068 3.50035504192 0)
(-0.107003714309 3.57824245108 0)
(-0.0956026977428 3.6481461525 0)
(-0.084499091177 3.71026347543 0)
(-0.0737175465768 3.76481051027 0)
(-0.063277587357 3.81201844958 0)
(-0.0531942297609 3.85213024727 0)
(-0.043478299074 3.88539760477 0)
(-0.0341370574632 3.91207826541 0)
(-0.0251745246687 3.93243358575 0)
(-0.0165921585549 3.9467262878 0)
(-0.00838933350951 3.95521774567 0)
(-0.000565029193417 3.95816978278 0)
(0.00688921577507 3.95581771086 0)
(0.0139841185474 3.94843444123 0)
(0.0207260468561 3.93627177004 0)
(0.0271225771978 3.91957402981 0)
(0.0331828845841 3.89857810256 0)
(0.0389169752849 3.87351343366 0)
(0.0443355079307 3.84460201852 0)
(0.0494494243008 3.81205825492 0)
(0.0542699602202 3.77608880611 0)
(0.0588083732501 3.73689252226 0)
(0.0630760110435 3.69466041237 0)
(0.0670840818235 3.64957567188 0)
(0.0708437514195 3.6018137474 0)
(0.0743659413577 3.55154244274 0)
(0.0776614440662 3.49892204745 0)
(0.08074074173 3.44410549459 0)
(0.083614133274 3.38723852947 0)
(0.0862915695829 3.32845989867 0)
(0.0887827875544 3.26790154157 0)
(0.0910971583972 3.20568879577 0)
(0.0932438250294 3.14194059896 0)
(0.095231561078 3.07676970028 0)
(0.0970689087555 3.01028286407 0)
(0.0987640467804 2.94258108015 0)
(0.100324926463 2.8737597638 0)
(0.101759147346 2.80390896053 0)
(0.103074089801 2.73311353889 0)
(0.104276797535 2.66145338717 0)
(0.105374105372 2.58900359723 0)
(0.106372528137 2.51583465188 0)
(0.10727838266 2.44201259909 0)
(0.108097682742 2.36759922974 0)
(0.108836254625 2.29265224231 0)
(0.109499637964 2.21722541136 0)
(0.11009319425 2.14136874322 0)
(0.110622013785 2.06512863599 0)
(0.11109101665 1.98854802713 0)
(0.111504865823 1.9116665459 0)
(0.111868060415 1.83452065384 0)
(0.112184855084 1.75714379071 0)
(0.112459345328 1.67956650899 0)
(0.11269539341 1.60181661433 0)
(0.112896705565 1.52391929513 0)
(0.113066764619 1.44589725845 0)
(0.113208898998 1.36777085574 0)
(0.113326222188 1.28955821519 0)
(0.113421693447 1.21127536444 0)
(0.113498064081 1.13293636037 0)
(0.113557929573 1.05455340979 0)
(0.113603682203 0.976136997584 0)
(0.113637553442 0.89769600667 0)
(0.113661570594 0.819237845859 0)
(0.113677584163 0.740768570196 0)
(0.113687217031 0.662293008578 0)
(0.113691849992 0.583814878124 0)
(0.113692500217 0.50533687572 0)
(0.113689608687 0.426860699073 0)
(0.113682474604 0.348386363767 0)
(0.113667555835 0.269912525639 0)
(0.113631212217 0.19137370038 0)
(0.113354883831 0.11339949203 0)
(0.107077612914 0.0354023010958 0)
(-0.494475257648 0.098096753943 0)
(-0.522275918863 0.313229862846 0)
(-0.519324833568 0.527172134452 -4.539968499e-26)
(-0.513248237454 0.740770931788 0)
(-0.505150171712 0.95121941658 0)
(-0.495169375717 1.15785886196 0)
(-0.483427725465 1.35993712658 0)
(-0.470062472117 1.55675069567 0)
(-0.455223747127 1.74765646806 0)
(-0.439070972758 1.93207689578 0)
(-0.421769288823 2.10950342048 0)
(-0.403486209726 2.27949820703 0)
(-0.384388448393 2.44169433426 0)
(-0.364639158342 2.59579464782 0)
(-0.344395483238 2.74156948716 0)
(-0.323806627855 2.8788534825 0)
(-0.303012268219 3.00754163088 0)
(-0.282141482599 3.12758483759 0)
(-0.261311970299 3.23898510793 0)
(-0.24062972682 3.34179054322 0)
(-0.220188912835 3.43609028467 0)
(-0.200072088025 3.52200951545 0)
(-0.180350535251 3.59970461856 0)
(-0.16108485815 3.66935855783 0)
(-0.142325576018 3.73117653834 0)
(-0.124113915863 3.78538197796 0)
(-0.106482528996 3.83221281356 0)
(-0.089456349127 3.87191814735 0)
(-0.0730533241985 3.90475523334 0)
(-0.0572852524058 3.93098679005 0)
(-0.0421584529884 3.95087862066 0)
(-0.0276744884178 3.96469752094 0)
(-0.0138305775685 3.97270939906 0)
(-0.000619394218747 3.97517838536 0)
(0.0119674190155 3.97236654725 0)
(0.0239390490174 3.96452748449 0)
(0.035309907491 3.95191172561 0)
(0.0460956374113 3.93476382691 0)
(0.0563128090021 3.91332148025 0)
(0.0659788536395 3.88781509531 0)
(0.0751119497926 3.85846753603 0)
(0.0837307498122 3.82549392194 0)
(0.0918542512765 3.78910149808 0)
(0.0995015660663 3.74948957059 0)
(0.106691842245 3.70684949845 0)
(0.11344408348 3.66136473502 0)
(0.11977711473 3.61321090925 0)
(0.125709441808 3.56255594161 0)
(0.13125924994 3.50956018574 0)
(0.136444293771 3.45437659274 0)
(0.141281919704 3.39715089038 0)
(0.145788978657 3.33802177598 0)
(0.149981864995 3.27712111643 0)
(0.153876446046 3.21457415545 0)
(0.157488112034 3.15049972232 0)
(0.16083171777 3.08501044364 0)
(0.163921639269 3.01821295266 0)
(0.166771724189 2.95020809886 0)
(0.169395351842 2.88109115258 0)
(0.171805389862 2.81095200822 0)
(0.174014255193 2.73987538113 0)
(0.176033875156 2.66794100208 0)
(0.177875747639 2.59522380467 0)
(0.179550905325 2.52179411011 0)
(0.181069973822 2.44771780468 0)
(0.182443138227 2.3730565146 0)
(0.183680198306 2.29786777373 0)
(0.184790536922 2.22220518903 0)
(0.185783171687 2.14611859913 0)
(0.186666724975 2.06965423123 0)
(0.187449471697 1.99285485146 0)
(0.18813931082 1.91575991419 0)
(0.18874380905 1.83840570533 0)
(0.189270173899 1.76082548509 0)
(0.189725293181 1.68304962526 0)
(0.190115709724 1.6051057466 0)
(0.190447656669 1.52701885113 0)
(0.190727033964 1.44881145509 0)
(0.19095943946 1.37050371733 0)
(0.191150147313 1.29211356873 0)
(0.19130413486 1.21365683752 0)
(0.191426062895 1.13514737601 0)
(0.191520298107 1.05659718359 0)
(0.191590894815 0.978016531342 0)
(0.191641612005 0.899414082925 0)
(0.191675894769 0.820797016662 0)
(0.191696882611 0.742171142202 0)
(0.191707384832 0.663541013633 0)
(0.191709870821 0.584910025572 0)
(0.191706428393 0.506280472602 0)
(0.191698736675 0.427653574575 0)
(0.19168809147 0.349028938488 0)
(0.191675459741 0.270406763677 0)
(0.1916557681 0.191725119148 0)
(0.191332494903 0.113692910597 0)
(0.180643217398 0.0355084438361 0)
(-0.699848008756 0.0992953244923 0)
(-0.739470443245 0.316996302462 0)
(-0.735244215028 0.533389406238 4.50575226819e-26)
(-0.72655616505 0.749422412367 0)
(-0.714989085926 0.962206371731 0)
(-0.700746357153 1.17105307127 0)
(-0.684002216183 1.37518407531 0)
(-0.664953067984 1.57387674545 0)
(-0.643814364845 1.76647404704 0)
(-0.620815106553 1.95238914403 0)
(-0.59619244584 2.13110853315 0)
(-0.570186653789 2.30219346237 0)
(-0.543036503822 2.46527972692 0)
(-0.514975228116 2.6200760577 0)
(-0.486227056101 2.76636133325 0)
(-0.457004429466 2.90398084606 0)
(-0.427505828888 3.03284185356 0)
(-0.39791425009 3.15290862603 0)
(-0.368396211074 3.26419718761 0)
(-0.339101297208 3.36676991796 0)
(-0.310162100523 3.46073015957 0)
(-0.281694553157 3.54621694536 0)
(-0.253798507291 3.6233999389 0)
(-0.226558570584 3.69247465338 0)
(-0.200045058066 3.75365799702 0)
(-0.174315086026 3.80718417284 0)
(-0.149413682393 3.85330094762 0)
(-0.125374956882 3.8922662913 0)
(-0.10222321862 3.92434537981 0)
(-0.0799740989139 3.94980794626 0)
(-0.0586355745722 3.9689259615 0)
(-0.0382089561037 3.98197164022 0)
(-0.0186896994523 3.98921564416 0)
(-6.85718069672e-05 3.99092569574 0)
(0.0176683425798 3.98736959743 0)
(0.0345365934059 3.97880093604 0)
(0.0505559459471 3.96547299513 0)
(0.0657483983408 3.94763182309 0)
(0.0801375954433 3.92551633475 0)
(0.0937484816132 3.89935794152 0)
(0.106606985817 3.8693802445 0)
(0.118739692409 3.83579885405 0)
(0.13017359411 3.79882129154 0)
(0.14093584142 3.75864695633 0)
(0.151053570036 3.71546714724 0)
(0.160553718889 3.66946513004 0)
(0.169462918421 3.62081624227 0)
(0.177807362665 3.56968802881 0)
(0.185612743957 3.51624040137 0)
(0.192904165795 3.46062581714 0)
(0.199706111796 3.40298947121 0)
(0.206042388532 3.34346949969 0)
(0.211936119005 3.28219718923 0)
(0.217409706945 3.21929719125 0)
(0.22248484718 3.15488773745 0)
(0.227182504866 3.08908085597 0)
(0.231522936947 3.02198258542 0)
(0.235525681335 2.95369318693 0)
(0.239209585082 2.88430735201 0)
(0.242592799868 2.81391440677 0)
(0.245692813657 2.74259851092 0)
(0.24852644984 2.67043885224 0)
(0.251109900057 2.59750983534 0)
(0.253458725143 2.52388126577 0)
(0.255587887507 2.4496185282 0)
(0.257511752627 2.37478276025 0)
(0.259244119898 2.29943102054 0)
(0.260798223896 2.22361645277 0)
(0.262186763016 2.14738844454 0)
(0.263421900051 2.07079278261 0)
(0.264515288228 1.99387180345 0)
(0.265478070904 1.91666454088 0)
(0.266320904832 1.83920686947 0)
(0.267053958934 1.76153164566 0)
(0.267686934757 1.6836688452 0)
(0.268229064422 1.60564569882 0)
(0.268689128328 1.52748682483 0)
(0.269075452402 1.44921436042 0)
(0.269395923161 1.37084809027 0)
(0.26965798441 1.29240557447 0)
(0.269868649741 1.21390227402 0)
(0.270034498746 1.13535167597 0)
(0.270161686901 1.05676541642 0)
(0.270255941144 0.978153403199 0)
(0.270322566783 0.899523936239 0)
(0.27036644187 0.820883826695 0)
(0.270392020439 0.742238511934 0)
(0.270403325579 0.663592165198 0)
(0.270403951658 0.584947793623 0)
(0.270397068347 0.506307313004 0)
(0.270385461025 0.427671644886 0)
(0.270371652541 0.34904037018 0)
(0.27035787751 0.270414789806 0)
(0.270335445924 0.191734523124 0)
(0.269881656891 0.113723591272 0)
(0.254690091521 0.0355258001633 0)
(-0.908027759225 0.10087985434 0)
(-0.959458387906 0.322029945058 0)
(-0.953906576677 0.541806206306 0)
(-0.94250850401 0.761140438741 0)
(-0.927335885738 0.977079747341 0)
(-0.908663306891 1.18890224209 0)
(-0.886724064283 1.39579646667 0)
(-0.86177979429 1.59701415983 0)
(-0.834116908797 1.79187939039 0)
(-0.804039306381 1.97979287551 0)
(-0.771861109905 2.16023476594 0)
(-0.737899866519 2.3327655887 0)
(-0.702470383397 2.49702544519 0)
(-0.665879351415 2.65273171004 0)
(-0.628420821203 2.79967549895 0)
(-0.590372582832 2.93771717812 0)
(-0.551993415766 3.06678117894 0)
(-0.51352118018 3.18685035951 0)
(-0.475171652295 3.29796012704 0)
(-0.437138032968 3.40019250234 0)
(-0.399591006109 3.49367027499 0)
(-0.362679267586 3.57855136519 0)
(-0.326530402887 3.65502347919 0)
(-0.291252046503 3.72329911865 0)
(-0.256933218049 3.78361098222 0)
(-0.223645789552 3.83620777869 0)
(-0.191446000552 3.88135045665 0)
(-0.16037599787 3.91930884361 0)
(-0.130465336767 3.9503586795 0)
(-0.101732439033 3.97477902373 0)
(-0.0741859595697 3.9928500096 0)
(-0.0478260751264 4.00485096316 0)
(-0.0226455920596 4.01105832448 0)
(0.00136821430054 4.01174580508 0)
(0.0242349115586 4.00718425715 0)
(0.045976234158 3.99763100098 0)
(0.066618260498 3.98334248348 0)
(0.0861900115067 3.96456704993 0)
(0.104722674244 3.94154532541 0)
(0.122249064591 3.91451000685 0)
(0.138803177775 3.88368560579 0)
(0.154419786495 3.84928831519 0)
(0.169134108519 3.81152595743 0)
(0.182981512407 3.77059799394 0)
(0.195997282224 3.72669558552 0)
(0.208216410477 3.68000169427 0)
(0.219673440028 3.63069121895 0)
(0.23040232494 3.57893115693 0)
(0.240436331267 3.5248807867 0)
(0.249807948906 3.46869186604 0)
(0.258548835907 3.41050884133 0)
(0.266689767565 3.35046906462 0)
(0.274260611943 3.28870301524 0)
(0.281290305351 3.22533452366 0)
(0.287806849496 3.16048099535 0)
(0.29383730499 3.09425363327 0)
(0.299407802798 3.02675765741 0)
(0.304543549481 2.95809252075 0)
(0.309268847459 2.88835212044 0)
(0.313607107309 2.81762500425 0)
(0.317580872849 2.74599457126 0)
(0.321211837122 2.67353926729 0)
(0.324520869432 2.60033277437 0)
(0.327528032651 2.52644419478 0)
(0.330252610237 2.45193822933 0)
(0.332713123279 2.37687535045 0)
(0.33492735618 2.30131196991 0)
(0.336912372442 2.22530060182 0)
(0.338684538219 2.14889002081 0)
(0.340259536254 2.07212541601 0)
(0.341652386874 1.9950485409 0)
(0.342877459822 1.91769785953 0)
(0.343948492524 1.84010868917 0)
(0.344878599759 1.76231334006 0)
(0.345680289219 1.68434125212 0)
(0.34636546912 1.60621912932 0)
(0.346945461172 1.52797107157 0)
(0.347431006319 1.44961870484 0)
(0.347832275303 1.37118130918 0)
(0.348158872744 1.29267594544 0)
(0.348419845504 1.21411758026 0)
(0.348623685298 1.1355192101 0)
(0.348778335019 1.05689198374 0)
(0.348891190066 0.978245323746 0)
(0.348969102843 0.899587046412 0)
(0.349018383229 0.820923479982 0)
(0.349044802316 0.742259580179 0)
(0.349053594743 0.663599042228 0)
(0.349049468278 0.584944408034 0)
(0.34903662325 0.506297164121 0)
(0.349018799721 0.427657895343 0)
(0.348999365319 0.349026034475 0)
(0.348981020449 0.270403237871 0)
(0.348950915322 0.191729106453 0)
(0.348360604207 0.113727901158 0)
(0.328723395685 0.0355307583684 0)
(-1.11995751802 0.102884725595 0)
(-1.18334337463 0.328432409209 0)
(-1.17638415238 0.552544497089 0)
(-1.16213503589 0.776097022511 0)
(-1.14317011565 0.996059054432 0)
(-1.11984132863 1.21166739626 0)
(-1.092448133 1.42206998544 0)
(-1.06132487197 1.62648647003 0)
(-1.02683637257 1.8242172782 0)
(-0.98936863167 2.01464784971 0)
(-0.949319479286 2.19725103683 0)
(-0.907089847344 2.37158740784 0)
(-0.86307591941 2.53730361773 0)
(-0.817662345989 2.69412915627 0)
(-0.771216617786 2.84187180381 0)
(-0.724084628617 2.98041212406 0)
(-0.676587387637 3.10969730348 0)
(-0.629018807042 3.22973461423 0)
(-0.581644447223 3.34058473795 0)
(-0.534701095923 3.44235514471 0)
(-0.488397037418 3.53519368 0)
(-0.442912882648 3.61928247334 0)
(-0.39840282525 3.69483224799 0)
(-0.354996214347 3.76207708159 0)
(-0.312799335086 3.82126964361 0)
(-0.271897317466 3.87267691622 0)
(-0.232356094604 3.9165763907 0)
(-0.194224360319 3.95325272079 0)
(-0.157535473967 3.98299480713 0)
(-0.122309286482 4.00609328305 0)
(-0.0885538555276 4.02283836434 0)
(-0.0562670476571 4.0335181101 0)
(-0.0254379094316 4.03841592743 0)
(0.00395121824972 4.03781323448 0)
(0.0319259045361 4.03198427774 0)
(0.0585146281871 4.02119106336 0)
(0.0837507681075 4.00569373281 0)
(0.107671054683 3.98574337537 0)
(0.130314754549 3.96158268966 0)
(0.151723009754 3.93344589322 0)
(0.171938279892 3.90155854352 0)
(0.191003863591 3.86613747336 0)
(0.208963495636 3.82739080004 0)
(0.225861003734 3.78551798935 0)
(0.241740025363 3.74070996432 0)
(0.256643770483 3.69314924982 0)
(0.270614831509 3.64301014536 0)
(0.283695027327 3.59045891945 0)
(0.295925283699 3.53565402015 0)
(0.307345537952 3.47874629719 0)
(0.317994671175 3.41987923165 0)
(0.327910456935 3.35918917023 0)
(0.33712953046 3.29680556128 0)
(0.345687368298 3.23285119046 0)
(0.353618283016 3.16744241445 0)
(0.360955423768 3.10068939128 0)
(0.367730787761 3.03269630619 0)
(0.373975234201 2.96356159238 0)
(0.379718506013 2.89337814603 0)
(0.384989251603 2.82223353526 0)
(0.389815052105 2.75021020285 0)
(0.394222446949 2.67738566264 0)
(0.398236963265 2.60383268966 0)
(0.401883142485 2.52961950413 0)
(0.405184569602 2.45480994949 0)
(0.408163898927 2.37946366476 0)
(0.410842881708 2.30363625148 0)
(0.413242389878 2.22737943552 0)
(0.415382441128 2.15074122416 0)
(0.417282219989 2.07376605871 0)
(0.418960099892 1.99649496302 0)
(0.420433661298 1.91896568835 0)
(0.421719710595 1.84121285464 0)
(0.422834295242 1.76326808888 0)
(0.423792719563 1.68516016052 0)
(0.424609557052 1.60691511456 0)
(0.425298663253 1.52855640228 0)
(0.425873185478 1.45010501008 0)
(0.42634557305 1.37157958654 0)
(0.426727584734 1.29299656801 0)
(0.427030296657 1.21437030273 0)
(0.427264107786 1.13571317392 0)
(0.427438745897 1.05703572147 0)
(0.427563271532 0.978346762832 0)
(0.427646082598 0.899653512489 0)
(0.427694917757 0.820961700354 0)
(0.427716861323 0.742275688625 0)
(0.427718349166 0.663598587276 0)
(0.427705179564 0.584932369223 0)
(0.427682531459 0.506277983083 0)
(0.427654995669 0.427635532163 0)
(0.427626608205 0.349004042094 0)
(0.42760032676 0.270384940884 0)
(0.427559377997 0.191716962546 0)
(0.426830633475 0.113721613409 0)
(0.402762013156 0.0355287704833 0)
(-1.33655136595 0.105347090445 0)
(-1.41210850821 0.336299389854 0)
(-1.40363076194 0.565745145031 4.42579769554e-26)
(-1.38634384291 0.79448283582 0)
(-1.36334367968 1.01938123611 0)
(-1.33506726838 1.23962538107 0)
(-1.30188874558 1.45431358162 0)
(-1.26422445539 1.66262643834 0)
(-1.22252713486 1.8638360209 0)
(-1.17727412247 2.05731002836 0)
(-1.1289555966 2.24251368289 0)
(-1.0780636544 2.41900916449 0)
(-1.02508259536 2.58645286083 0)
(-0.970480631315 2.74459084231 0)
(-0.914703126081 2.89325298257 0)
(-0.85816737477 3.03234612918 0)
(-0.801258851986 3.16184669389 0)
(-0.74432880635 3.28179298161 0)
(-0.687693039377 3.39227752163 0)
(-0.631631692416 3.49343960836 0)
(-0.57638985742 3.58545820575 0)
(-0.522178837679 3.66854532234 0)
(-0.469177894426 3.7429399242 0)
(-0.417536337264 3.80890241976 0)
(-0.367375832535 3.8667097254 0)
(-0.318792828357 3.91665090085 0)
(-0.271861010649 3.95902333004 0)
(-0.226633726649 3.99412941361 0)
(-0.183146324212 4.02227373398 0)
(-0.141418373097 4.04376065197 0)
(-0.101455740439 4.05889228478 0)
(-0.063252512606 4.06796695667 0)
(-0.0267926096346 4.07127615519 0)
(0.00794814092636 4.06911083448 0)
(0.0410017665259 4.06174808996 0)
(0.0724046111606 4.04945616389 0)
(0.102198256011 4.03249918959 0)
(0.130427919287 4.01113131231 0)
(0.157141607356 3.98559755512 0)
(0.182389348658 3.95613380572 0)
(0.206222546238 3.92296673193 0)
(0.228693430014 3.88631380188 0)
(0.249854595044 3.84638336706 0)
(0.269758613435 3.80337479156 0)
(0.288457713212 3.75747861845 0)
(0.306003513811 3.70887676474 0)
(0.322446812902 3.65774273813 0)
(0.337837415643 3.6042418693 0)
(0.35222400241 3.54853155517 0)
(0.365654027436 3.49076150883 0)
(0.378173645625 3.43107401289 0)
(0.389827661136 3.36960417352 0)
(0.400659496079 3.30648017305 0)
(0.410711173928 3.24182351926 0)
(0.420023316815 3.17574929024 0)
(0.428635152229 3.10836637357 0)
(0.4365845289 3.03977769931 0)
(0.443907938092 2.97008046614 0)
(0.450640540672 2.89936636046 0)
(0.456816196674 2.82772176821 0)
(0.462467498146 2.75522797953 0)
(0.467625802459 2.68196138623 0)
(0.472321267148 2.60799367238 0)
(0.476582883827 2.53339199811 0)
(0.480438512445 2.45821917712 0)
(0.483914913742 2.38253384812 0)
(0.487037781261 2.3063906405 0)
(0.489831771056 2.22984033484 0)
(0.492320530505 2.15293001836 0)
(0.49452672457 2.07570323597 0)
(0.496472060928 1.99820013708 0)
(0.498177312509 1.92045761869 0)
(0.499662338837 1.8425094651 0)
(0.500946104852 1.76438648449 0)
(0.502046698573 1.68611664281 0)
(0.502981346427 1.60772519528 0)
(0.503766427507 1.52923481562 0)
(0.504417485727 1.4506657236 0)
(0.504949241052 1.37203581072 0)
(0.505375598885 1.29336076463 0)
(0.505709658692 1.2146541922 0)
(0.505963721079 1.13592774153 0)
(0.506149294328 1.05719122296 0)
(0.506277099766 0.978452729235 0)
(0.506357076967 0.899718754743 0)
(0.50639838847 0.820994314146 0)
(0.506409425204 0.742283060383 0)
(0.506397812886 0.663587402654 0)
(0.506370421011 0.584908625971 0)
(0.506333375146 0.506247009946 0)
(0.506292072029 0.427602014012 0)
(0.506251176549 0.348972030722 0)
(0.506213941301 0.270357926442 0)
(0.50616002019 0.191697261204 0)
(0.505292377032 0.113708323878 0)
(0.476797130851 0.0355234910959 0)
(-1.55879922211 0.108303751631 0)
(-1.64679930112 0.345741719597 0)
(-1.63666466454 0.581585963359 -4.38956733442e-26)
(-1.61610513707 0.816539481775 0)
(-1.58876494908 1.04734512595 0)
(-1.55517674552 1.27312370279 0)
(-1.51580030444 1.49291352887 0)
(-1.47114576261 1.70584861215 0)
(-1.42176577347 1.91116796163 0)
(-1.36824065556 2.10821955813 0)
(-1.31116374033 2.29646150392 0)
(-1.25112792115 2.47546025437 0)
(-1.18871385102 2.6448863554 0)
(-1.12448003975 2.80450823537 0)
(-1.05895494678 2.95418459198 0)
(-0.992631040951 3.09385587698 0)
(-0.925960702865 3.22353532088 0)
(-0.859353781955 3.34329986575 0)
(-0.793176582076 3.45328129696 0)
(-0.727752035828 3.55365779063 0)
(-0.663360829239 3.644646027 0)
(-0.600243254313 3.72649396337 0)
(-0.538601588244 3.7994743142 0)
(-0.478602825737 3.86387875 0)
(-0.420381617503 3.92001280013 0)
(-0.364043296275 3.96819142598 0)
(-0.309666895627 4.00873521887 0)
(-0.257308090536 4.04196717001 0)
(-0.207002006806 4.0682099572 0)
(-0.158765863981 4.08778369429 0)
(-0.112601427303 4.10100407967 0)
(-0.068497258419 4.10818109047 0)
(-0.026430582534 4.10961530336 0)
(0.013631235697 4.10560896343 0)
(0.0517271010257 4.09644102881 0)
(0.0879026841549 4.08238765679 0)
(0.122208789619 4.06371710728 0)
(0.154699993536 4.04068677759 0)
(0.185433795179 4.01354415831 0)
(0.214469753785 3.98252686081 0)
(0.241868764914 3.94786264365 0)
(0.267692453638 3.90976953164 0)
(0.292002664753 3.8684559843 0)
(0.31486103779 3.82412110038 0)
(0.336328657033 3.77695485024 0)
(0.356465766261 3.72713832841 0)
(0.375331540139 3.67484402008 0)
(0.392983903828 3.62023607645 0)
(0.409479394454 3.56347059463 0)
(0.424873057597 3.50469589881 0)
(0.439218373935 3.44405282 0)
(0.452567210582 3.38167497208 0)
(0.464969793491 3.31768902263 0)
(0.476474696618 3.25221495734 0)
(0.487128845218 3.18536633687 0)
(0.496977529928 3.1172505458 0)
(0.506064429803 3.04796903313 0)
(0.514431641708 2.97761754417 0)
(0.522119714877 2.90628634383 0)
(0.529167688629 2.83406043141 0)
(0.535613132535 2.76101974698 0)
(0.541492187496 2.68723936988 0)
(0.546839607395 2.61278970933 0)
(0.551688800131 2.53773668797 0)
(0.556071867991 2.46214191833 0)
(0.560019646423 2.38606287304 0)
(0.563561741372 2.30955304891 0)
(0.566726564457 2.23266212566 0)
(0.569541366284 2.15543611944 0)
(0.572032267327 2.07791753186 0)
(0.574224286772 2.00014549476 0)
(0.57614136887 1.92215591119 0)
(0.577806407254 1.84398159311 0)
(0.579241266846 1.765652396 0)
(0.580466803847 1.6871953508 0)
(0.581502883495 1.60863479357 0)
(0.582368396095 1.52999249308 0)
(0.583081271061 1.45128777658 0)
(0.583658489444 1.37253765415 0)
(0.584116094765 1.29375694162 0)
(0.584469202588 1.21495838247 0)
(0.584732008705 1.13615276868 0)
(0.584917796366 1.05734906091 0)
(0.585038942508 0.97855450786 0)
(0.585106923435 0.899774765248 0)
(0.585132320064 0.821014014339 0)
(0.585124823245 0.742275080508 0)
(0.585093239428 0.663559552304 0)
(0.585045497091 0.58486790251 0)
(0.584988653599 0.506199607601 0)
(0.584928900059 0.427553330901 0)
(0.584871540186 0.348926655582 0)
(0.584820192749 0.270319692777 0)
(0.584751147255 0.191668710181 0)
(0.583743779016 0.113688747149 0)
(0.550823539945 0.0355158655173 0)
(-1.78777215032 0.111797605258 0)
(-1.88853919865 0.356893409801 0)
(-1.87657755469 0.600287176439 0)
(-1.85245578156 0.842566986092 0)
(-1.82039994551 1.08032109719 0)
(-1.78105235458 1.31259171597 0)
(-1.73497257801 1.53834544915 0)
(-1.68277952859 1.75666158821 0)
(-1.62514087774 1.96674150705 0)
(-1.56275442026 2.16791220662 0)
(-1.49632994789 2.35962634567 0)
(-1.42657285268 2.54145879275 0)
(-1.35416998788 2.7131003253 0)
(-1.27977805085 2.8743492098 0)
(-1.20401455045 3.02510136035 0)
(-1.12745126349 3.16533970062 0)
(-1.0506099717 3.29512325761 0)
(-0.973960200391 3.41457640808 0)
(-0.897918645341 3.52387859312 0)
(-0.822849968325 3.62325472021 0)
(-0.749068655576 3.71296638955 0)
(-0.676841661189 3.79330401486 0)
(-0.60639159185 3.8645798565 0)
(-0.537900227368 3.92712194707 0)
(-0.471512208487 3.98126886318 0)
(-0.40733875874 4.02736528044 0)
(-0.345461338184 4.06575823974 0)
(-0.285935154326 4.09679404904 0)
(-0.228792478365 4.12081574595 0)
(-0.174045734385 4.13816105179 0)
(-0.121690345505 4.1491607403 0)
(-0.0717073250582 4.15413761929 0)
(-0.0240654835941 4.15340224569 0)
(0.0212786108139 4.14726984501 0)
(0.0643711966615 4.13601981104 0)
(0.105269003649 4.11993794931 0)
(0.144033177692 4.09929655721 0)
(0.180728615021 4.07435635958 0)
(0.215423146068 4.04536734451 0)
(0.248186578346 4.01256879316 0)
(0.279089908817 3.9761894388 0)
(0.30820466979 3.93644769878 0)
(0.3356023827 3.89355193905 0)
(0.361354106492 3.84770076322 0)
(0.385530068663 3.79908331858 0)
(0.408199367674 3.74787961253 0)
(0.429429736988 3.69426083409 0)
(0.449287361758 3.63838967638 0)
(0.4678367405 3.58042065672 0)
(0.485140584681 3.5205004317 0)
(0.501259750302 3.45876810543 0)
(0.516253195976 3.39535552933 0)
(0.530177963009 3.3303875925 0)
(0.543089173278 3.26398250203 0)
(0.555040041573 3.19625205262 0)
(0.566081899213 3.12730188563 0)
(0.576264226535 3.05723173733 0)
(0.585634691877 2.98613567654 0)
(0.594239195362 2.91410233207 0)
(0.602121915746 2.8412151102 0)
(0.609325359193 2.76755240261 0)
(0.615890408718 2.69318778542 0)
(0.621856373591 2.61819020965 0)
(0.627261037806 2.54262418384 0)
(0.63214070723 2.46654994921 0)
(0.636530254814 2.39002364812 0)
(0.640463163708 2.31309748611 0)
(0.643971567882 2.23581988841 0)
(0.647086290239 2.15823565108 0)
(0.649836877993 2.0803860876 0)
(0.652251635419 2.00230917115 0)
(0.654357653829 1.92403967318 0)
(0.656180838975 1.84560929862 0)
(0.657745935818 1.76704681824 0)
(0.65907655089 1.68837819829 0)
(0.660195172253 1.60962672808 0)
(0.661123187295 1.53081314551 0)
(0.661880898418 1.45195576109 0)
(0.662487536852 1.37307058042 0)
(0.662961274673 1.29417142566 0)
(0.663319235278 1.21527005595 0)
(0.663577502408 1.13637628707 0)
(0.663751127968 1.05749811051 0)
(0.663854138786 0.97864181205 0)
(0.663899542563 0.899812090072 0)
(0.663899333203 0.821012173781 0)
(0.663864495744 0.742243941648 0)
(0.663805011023 0.6635080405 0)
(0.663729859983 0.584804006288 0)
(0.66364702704 0.506130381949 0)
(0.663563499936 0.427484897174 0)
(0.663485240953 0.348864182665 0)
(0.66341628794 0.270267458901 0)
(0.663329666063 0.19162962796 0)
(0.662181277265 0.113662449564 0)
(0.624836675254 0.0355059978957 0)
(-2.02463882482 0.115880352278 0)
(-2.13855051918 0.369917556448 0)