/*--------------------------------*- C++ -*----------------------------------*\
| =========                 |                                                 |
| \\      /  F ield         | OpenFOAM: The Open Source CFD Toolbox           |
|  \\    /   O peration     | Version:  v1906                                 |
|   \\  /    A nd           | Web:      www.OpenFOAM.com                      |
|    \\/     M anipulation  |                                                 |
\*---------------------------------------------------------------------------*/
FoamFile
{
    version     2.0;
    format      ascii;
    class       volVectorField;
    location    "916";
    object      Ua;
}
// * * * * * * * * * * * * * * * * * * * * * * * * * * * * * * * * * * * * * //

dimensions      [0 1 -1 0 0 0 0];


internalField   nonuniform List<vector> 
9216
(
(-0.00666698730172 0.00667041652433 0)
(-0.006853775729 0.0208026759135 2.37550681504e-27)
(-0.00683972869953 0.0350149154511 -4.61474276708e-31)
(-0.00679159073909 0.04921841114 0)
(-0.00672428847924 0.063276121637 0)
(-0.00663927269863 0.0771529192447 0)
(-0.00653807075523 0.0908094316495 0)
(-0.00642159638592 0.104209230656 0)
(-0.00629090070033 0.117318190184 0)
(-0.0061468189663 0.130104666566 0)
(-0.00599045038914 0.142539439739 0)
(-0.00582264380454 0.154595881442 0)
(-0.00564452247817 0.16624985055 0)
(-0.00545688631097 0.177479760541 0)
(-0.00526080317797 0.188266386889 0)
(-0.00505694577045 0.198592827586 0)
(-0.00484624904051 0.20844423152 0)
(-0.00462919220491 0.21780766865 0)
(-0.00440651776405 0.226671805519 0)
(-0.00417846903518 0.23502671527 0)
(-0.00394556554478 0.242863533942 0)
(-0.0037078045979 0.25017424593 0)
(-0.00346548530905 0.256951359952 0)
(-0.00321838216182 0.263187707807 0)
(-0.00296660921501 0.268876174163 0)
(-0.00270977159337 0.274009539799 0)
(-0.00244786006157 0.278580293769 0)
(-0.00218038707638 0.282580546488 0)
(-0.00190730378198 0.286001944282 0)
(-0.00162812799246 0.288835665018 0)
(-0.00134287111232 0.291072475222 0)
(-0.00105114859167 0.292702806657 0)
(-0.000753133773888 0.293716871815 0)
(-0.000448689243855 0.294104955578 0)
(-0.000138283296643 0.293857673128 0)
(0.000177880961738 0.292966293996 0)
(0.000498949403765 0.291423146015 0)
(0.000824287580512 0.289222006012 0)
(0.00115259734678 0.286358578138 0)
(0.00148278270229 0.282830895213 0)
(0.0018131130111 0.278639801729 0)
(0.00214207461609 0.273789283905 0)
(0.00246758975897 0.268286886316 0)
(0.00278783080563 0.262143907808 0)
(0.00310049234267 0.25537571746 0)
(0.00340353202971 0.248001827329 0)
(0.00369448140443 0.240046158156 0)
(0.003971078996 0.231537122942 0)
(0.004230601074 0.222507981501 0)
(0.00447039121813 0.212997161357 0)
(0.00468721313961 0.203048832902 0)
(0.00487776910172 0.192713617291 0)
(0.0050381148402 0.182049261043 0)
(0.00516437624392 0.17112148265 0)
(0.00525226469027 0.16000409257 0)
(0.0052982032396 0.148779158479 0)
(0.0052987852573 0.13753558463 0)
(0.00525224825135 0.126367831432 0)
(0.00515745367631 0.115372907866 0)
(0.00501550821994 0.104648074438 0)
(0.00482842907028 0.0942870831575 0)
(0.00460094450526 0.0843769217687 0)
(0.00433825265609 0.0749942185052 0)
(0.00404759418867 0.0662030308267 0)
(0.0037370162592 0.0580513088268 0)
(0.0034143872095 0.0505697381821 0)
(0.00308458322935 0.0437763383901 0)
(0.00275432704683 0.0376779115165 0)
(0.00243184884225 0.0322662734225 0)
(0.00212593543798 0.027514724085 0)
(0.00184252576204 0.0233812133146 0)
(0.00158528121739 0.0198134866244 0)
(0.00135497490156 0.0167552505847 0)
(0.00115125455981 0.0141499507798 0)
(0.000972729378197 0.0119433287043 0)
(0.000818243444313 0.0100837616405 0)
(0.000686247219684 0.00852247714805 0)
(0.000574820062189 0.00721418754391 0)
(0.000481036379117 0.00611890590053 0)
(0.000402201701529 0.00520267041991 0)
(0.000335816255494 0.00443703877403 0)
(0.000279849299787 0.00379815048163 0)
(0.000231991091979 0.00326649380512 0)
(0.000189114017374 0.00283009877218 0)
(0.000145375924112 0.00244534956321 0)
(0.000125512152929 0.00219178554242 0)
(0.000116647828861 0.00194309794027 0)
(0.000100433794555 0.00172448911068 0)
(9.57590851853e-05 0.00154021333275 0)
(9.65943632411e-05 0.00134577487988 0)
(9.20694900946e-05 0.00115946093141 0)
(8.82624296148e-05 0.000972734159813 0)
(9.35722692461e-05 0.000782869993582 0)
(0.000100953450777 0.000586068339261 0)
(0.000110523917403 0.000358573095675 0)
(0.000117256612792 0.000114359805928 0)
(-0.02083188587 0.00689415764413 0)
(-0.021993434036 0.0220959036327 0)
(-0.0219200731442 0.0372101029137 -2.44177440865e-27)
(-0.0217343462056 0.0523278618994 0)
(-0.0214815693645 0.0672785323512 0)
(-0.0211667965653 0.0820327500751 0)
(-0.0207937940624 0.0965503481206 0)
(-0.0203659475458 0.110793085183 0)
(-0.0198870788372 0.124724824486 0)
(-0.0193608527054 0.138311940063 0)
(-0.0187914105772 0.151523423685 0)
(-0.0181825712314 0.164331019056 0)
(-0.017538536085 0.176709193679 0)
(-0.0168629736524 0.18863514216 0)
(-0.0161598264004 0.200088645555 0)
(-0.0154323094108 0.211051961174 0)
(-0.014683822995 0.221509587523 0)
(-0.0139168858359 0.231448062829 0)
(-0.0131341513333 0.240855663909 0)
(-0.0123372931626 0.249722146418 0)
(-0.0115281198925 0.258038415217 0)
(-0.0107074266272 0.265796246741 0)
(-0.00987619655361 0.272987972813 0)
(-0.00903442791377 0.279606226089 0)
(-0.00818240695 0.285643675429 0)
(-0.00731951521919 0.291092828758 0)
(-0.0064455560471 0.295945849529 0)
(-0.00555954766909 0.300194442043 0)
(-0.00466108819292 0.303829768915 0)
(-0.00374914223041 0.306842438033 0)
(-0.00282343308622 0.309222524958 0)
(-0.00188321080053 0.31095970504 0)
(-0.000928664309389 0.312043443345 0)
(4.02738620559e-05 0.312463161515 0)
(0.00102255170866 0.312208577571 0)
(0.00201721130248 0.311270057188 0)
(0.00302203249522 0.309639042614 0)
(0.00403476334645 0.307308501428 0)
(0.00505183663103 0.304273428784 0)
(0.00606962406703 0.300531321287 0)
(0.00708325466841 0.296082673899 0)
(0.00808788152545 0.290931386792 0)
(0.00907760878225 0.285085167214 0)
(0.0100467203838 0.278555790518 0)
(0.0109886818515 0.271359357371 0)
(0.0118972372158 0.263516408367 0)
(0.0127654134426 0.255052092436 0)
(0.0135863847738 0.245996273633 0)
(0.0143524114499 0.236383799354 0)
(0.0150554641485 0.226254862563 0)
(0.0156861303229 0.215655602531 0)
(0.0162342280537 0.204638922168 0)
(0.0166879277381 0.193265414455 0)
(0.0170348904353 0.181604369152 0)
(0.0172619830304 0.169734329425 0)
(0.0173574340814 0.157743210136 0)
(0.0173109447984 0.145727146449 0)
(0.0171163449929 0.13378863463 0)
(0.0167707364543 0.122033489902 0)
(0.0162767475888 0.110568087837 0)
(0.0156416310042 0.0994955662655 0)
(0.0148797664697 0.0889114465104 0)
(0.0140087126598 0.0788996128125 0)
(0.0130503123743 0.0695309611722 0)
(0.0120329866367 0.0608569511977 0)
(0.0109812724281 0.0529067695059 0)
(0.00990882387578 0.0456982839966 0)
(0.00883507267006 0.0392422047346 0)
(0.0077884745218 0.0335320673395 0)
(0.00679804421995 0.0285372020352 0)
(0.00588371546444 0.0242076363352 0)
(0.00505616030189 0.0204825053272 0)
(0.00431727134908 0.0172978811862 0)
(0.00366458389053 0.0145915191625 0)
(0.0030932872665 0.0123050508645 0)
(0.0025993171609 0.0103835720965 0)
(0.0021782646261 0.00877455766855 0)
(0.00182378001913 0.0074285413588 0)
(0.00152605390568 0.00630231758202 0)
(0.00127586507762 0.00536033241771 0)
(0.00106545971686 0.00457314038542 0)
(0.000888576825169 0.0039156236355 0)
(0.000738711748762 0.00336639109659 0)
(0.000609779149366 0.0029076889032 0)
(0.000492939251614 0.00251117299445 0)
(0.000408303300838 0.00214213887423 0)
(0.000353438418027 0.00188883853293 0)
(0.000303913565716 0.00167210158791 0)
(0.000283649169502 0.00146584213774 0)
(0.000283109205042 0.00129937689057 0)
(0.000276128633667 0.00113335069929 0)
(0.000272779424226 0.000940706706436 0)
(0.000280716914016 0.00074871086209 0)
(0.000326657371319 0.000580676563159 0)
(0.000384667128293 0.000365448446273 0)
(0.000343279379215 9.9432404895e-05 0)
(-0.0352035249982 0.00694943118211 0)
(-0.0371880394837 0.0222784993361 0)
(-0.0370374610795 0.0374846336185 -2.4451472411e-27)
(-0.0367178961933 0.0527117331334 0)
(-0.0362917369283 0.0677696455755 0)
(-0.0357640952047 0.0826276142559 0)
(-0.035139774761 0.0972444941116 0)
(-0.0344241366767 0.111581518228 0)
(-0.0336232003433 0.125602166415 0)
(-0.0327432374182 0.139272512912 0)
(-0.0317909178593 0.152561371167 0)
(-0.0307728613496 0.165440401 0)
(-0.0296958242991 0.17788411437 0)
(-0.0285662102218 0.189869845153 0)
(-0.0273903079941 0.201377630883 0)
(-0.0261737815655 0.21239006463 0)
(-0.0249219715542 0.222892072474 0)
(-0.0236393838355 0.232870671426 0)
(-0.0223300642073 0.242314672692 0)
(-0.020997102644 0.251214381136 0)
(-0.01964308576 0.259561264458 0)
(-0.018269626519 0.2673476379 0)
(-0.0168778903369 0.274566345028 0)
(-0.0154681508259 0.281210472149 0)
(-0.0140403766118 0.287273081206 0)
(-0.0125938067864 0.292746989407 0)
(-0.0111275820857 0.297624584085 0)
(-0.00964033407055 0.301897691572 0)
(-0.00813084804914 0.30555749317 0)
(-0.00659766383371 0.308594497391 0)
(-0.00503977290778 0.310998582003 0)
(-0.00345622284428 0.3127590892 0)
(-0.00184681492096 0.313864978446 0)
(-0.000211739163256 0.314305074722 0)
(0.0014477314796 0.314068380523 0)
(0.00312963441374 0.313144449577 0)
(0.00483066485399 0.311523832828 0)
(0.0065466181564 0.309198566895 0)
(0.00827182854591 0.306162705535 0)
(0.00999969725943 0.302412848742 0)
(0.011722259955 0.297948667699 0)
(0.0134308076319 0.292773365201 0)
(0.0151155760687 0.286894079079 0)
(0.016766401451 0.280322166479 0)
(0.0183724478661 0.27307340594 0)
(0.0199227565593 0.26516807866 0)
(0.0214058522679 0.256631015868 0)
(0.0228100075791 0.247491623022 0)
(0.0241225786354 0.237784014414 0)
(0.0253299225018 0.227547322546 0)
(0.0264165130972 0.216826298149 0)
(0.0273648361182 0.205672278209 0)
(0.0281547791501 0.194144430506 0)
(0.0287644387705 0.182311246268 0)
(0.0291706983867 0.170251692534 0)
(0.0293519113478 0.158055778922 0)
(0.0292897306968 0.145823555585 0)
(0.0289723544637 0.133662772638 0)
(0.0283948004733 0.12168528871 0)
(0.0275597586084 0.110004577181 0)
(0.0264799827135 0.098731992583 0)
(0.0251803956505 0.0879702617209 0)
(0.0236924768664 0.0778082716023 0)
(0.0220503066224 0.06832496614 0)
(0.0203130146207 0.0595739827819 0)
(0.0185242100249 0.051573094937 0)
(0.016696288143 0.0443362866036 0)
(0.0148572364646 0.0378856024487 0)
(0.0130644188336 0.0322219644242 0)
(0.0113736994905 0.0273084845877 0)
(0.00982153811853 0.023082110104 0)
(0.00842387006918 0.0194692469158 0)
(0.00718118473987 0.0163969241988 0)
(0.00608581765469 0.0137983494423 0)
(0.00512790696258 0.0116142852422 0)
(0.00430043031903 0.00979029942136 0)
(0.00359815773989 0.00827228960406 0)
(0.00301073968381 0.00700673491795 0)
(0.00251910360616 0.00594828495786 0)
(0.00210594449795 0.00506293281371 0)
(0.00175872887615 0.00432344139948 0)
(0.00146783295858 0.00370572091218 0)
(0.00122304456744 0.00318921495479 0)
(0.00101649217521 0.00275848146432 0)
(0.000845210105986 0.00238580290991 0)
(0.000708602028137 0.00204594552971 0)
(0.000618638901017 0.00183388587751 0)
(0.00052399425886 0.00155927989058 0)
(0.000458366637291 0.00132990664393 0)
(0.000447424220739 0.00117872990119 0)
(0.000470838317498 0.00105417850076 0)
(0.00045047995081 0.000819908285338 0)
(0.000478949084036 0.000655467474345 0)
(0.000526345993933 0.00046499920509 0)
(0.000568540378323 0.000274025436323 0)
(0.000543727341066 8.38769806089e-05 0)
(-0.0497725258842 0.00700664907664 0)
(-0.0526020320481 0.0224817461291 0)
(-0.0523866179544 0.037811333274 2.4448219985e-27)
(-0.0519303755136 0.0531671479587 0)
(-0.0513226461887 0.06835012026 0)
(-0.0505711330407 0.0833282788702 0)
(-0.0496825535171 0.0980593126169 0)
(-0.0486645817305 0.11250364166 0)
(-0.0475257530358 0.126624153084 0)
(-0.0462751525662 0.140386510439 0)
(-0.0449222918902 0.153759301602 0)
(-0.0434767932436 0.166714132531 0)
(-0.0419482866423 0.17922564004 0)
(-0.0403460906373 0.191271444221 0)
(-0.0386791409614 0.202832028085 0)
(-0.0369556869583 0.213890564163 0)
(-0.0351832705028 0.224432679973 0)
(-0.0333684603223 0.234446183372 0)
(-0.0315169001138 0.243920745031 0)
(-0.029633100674 0.252847560638 0)
(-0.0277205699826 0.261218994998 0)
(-0.0257816727536 0.269028230462 0)
(-0.023817841689 0.276268923943 0)
(-0.0218294992259 0.282934891368 0)
(-0.0198163349495 0.289019822686 0)
(-0.0177772731225 0.294517040184 0)
(-0.0157107958477 0.299419300743 0)
(-0.013614941422 0.303718649356 0)
(-0.0114876600506 0.30740632488 0)
(-0.00932683768076 0.310472717123 0)
(-0.00713069029533 0.312907405049 0)
(-0.00489779665923 0.314699239065 0)
(-0.00262750787106 0.315836482253 0)
(-0.000320026264292 0.316307071277 0)
(0.0020231938472 0.316098933852 0)
(0.00439940131114 0.315200387037 0)
(0.00680419345878 0.313600616194 0)
(0.00923155078822 0.311290215688 0)
(0.0116736037871 0.308261777878 0)
(0.0141208126649 0.304510496407 0)
(0.0165619134111 0.300034756809 0)
(0.0189842716969 0.294836666079 0)
(0.0213740017854 0.288922490018 0)
(0.0237164276564 0.282302952856 0)
(0.0259962456831 0.274993388629 0)
(0.0281978871885 0.267013734989 0)
(0.0303054632671 0.258388417086 0)
(0.0323027288556 0.249146184058 0)
(0.0341725336063 0.239320030631 0)
(0.035896197034 0.228947340186 0)
(0.0374524944983 0.218070463698 0)
(0.0388167560846 0.206737812428 0)
(0.0399602324605 0.195005697446 0)
(0.0408502431346 0.182940525737 0)
(0.0414518198174 0.170621233336 0)
(0.0417308774867 0.158140656675 0)
(0.0416588913964 0.145604941667 0)
(0.0412171692735 0.133130127809 0)
(0.0403981320774 0.120836706048 0)
(0.0392018637263 0.10884897182 0)
(0.0376457259083 0.097292474406 0)
(0.0357693817468 0.0862816281318 0)
(0.0336202424754 0.0759096201445 0)
(0.0312331822686 0.0662751121833 0)
(0.0287273481193 0.0574391956423 0)
(0.026175329831 0.0493843875403 0)
(0.0235534512268 0.0421129563076 0)
(0.0208885552484 0.0356805801602 0)
(0.0182901283954 0.0301086552383 0)
(0.0158568521934 0.0253455629117 0)
(0.0136444520477 0.0213013273759 0)
(0.0116696704283 0.0178790163088 0)
(0.00992516120208 0.0149909946603 0)
(0.00839208661836 0.0125645577267 0)
(0.0070513125967 0.0105418749097 0)
(0.00589349937318 0.00887257566275 0)
(0.00491801369767 0.00750071663666 0)
(0.0041129659855 0.00636290583646 0)
(0.00344237517892 0.00540890764033 0)
(0.00287750028579 0.00460964256292 0)
(0.0024022760093 0.00394329238775 0)
(0.00200601488413 0.00338701540695 0)
(0.00167294342927 0.00292111880481 0)
(0.00139194341744 0.002534501705 0)
(0.00115947340504 0.00218808198134 0)
(0.00099252247105 0.00191116417499 0)
(0.000864310693333 0.00166986812017 0)
(0.000745778431718 0.00140580333037 0)
(0.00067799821536 0.00121816937087 0)
(0.000618804044471 0.00100225133635 0)
(0.000610594256465 0.000826595465759 0)
(0.000658332503097 0.000701713709864 0)
(0.000644464380353 0.000490206511913 0)
(0.000683517385653 0.000328725614563 0)
(0.000728505752513 0.000194373342405 0)
(0.000710027890441 6.30711529561e-05 0)
(-0.0644879522252 0.00708051601702 0)
(-0.0681587101553 0.0227502885632 0)
(-0.0678770164658 0.0382512242096 0)
(-0.0672808161835 0.0537808385708 0)
(-0.0664866846674 0.0691319494894 0)
(-0.0655051300028 0.0842713675478 0)
(-0.0643451180824 0.0991553936939 0)
(-0.0630168626823 0.113743362793 0)
(-0.0615316662184 0.127997338785 0)
(-0.0599016078064 0.141882416467 0)
(-0.0581392818578 0.155366868502 0)
(-0.056257480652 0.168422232333 0)
(-0.0542689428593 0.181023319613 0)
(-0.0521860464998 0.193148154679 0)
(-0.0500205859716 0.204777840728 0)
(-0.0477834984542 0.215896361561 0)
(-0.0454846947323 0.226490321166 0)
(-0.0431328473257 0.236548632496 0)
(-0.0407353030775 0.246062162846 0)
(-0.0382979597995 0.255023351349 0)
(-0.0358252811889 0.263425810622 0)
(-0.0333202748592 0.271263930288 0)
(-0.0307846104627 0.278532495444 0)
(-0.0282186889655 0.285226334924 0)
(-0.0256218424164 0.291340008315 0)
(-0.0229924670928 0.296867539856 0)
(-0.0203282753514 0.301802202402 0)
(-0.0176264682809 0.306136353789 0)
(-0.0148840230349 0.309861327415 0)
(-0.0120978991091 0.312967370576 0)
(-0.00926537277347 0.315443672827 0)
(-0.00638426066915 0.317278429542 0)
(-0.00345328842928 0.318458970865 0)
(-0.000472377390528 0.318972025031 0)
(0.00255699075927 0.318804045684 0)
(0.00563151742013 0.317941638038 0)
(0.00874577377565 0.316372084559 0)
(0.0118920484622 0.314083954987 0)
(0.0150601932126 0.311067782801 0)
(0.0182376780501 0.307316773615 0)
(0.0214096898335 0.302827504271 0)
(0.0245594583423 0.297600556207 0)
(0.0276686194979 0.291641026103 0)
(0.0307177443767 0.284958854074 0)
(0.0336867989573 0.27756892721 0)
(0.0365555933518 0.269490943158 0)
(0.0393039439894 0.260749059011 0)
(0.0419115732582 0.251371421646 0)
(0.044357480088 0.241389713245 0)
(0.0466189065845 0.230838995616 0)
(0.04866972384 0.21975803351 0)
(0.0504787774762 0.208190642077 0)
(0.0520081979853 0.196187980251 0)
(0.0532131792581 0.183812320689 0)
(0.0540434278946 0.17114122527 0)
(0.0544484577819 0.158271146831 0)
(0.0543854496584 0.145317530283 0)
(0.0538278555071 0.132409078204 0)
(0.0527666022154 0.11967643323 0)
(0.0511918240021 0.107258014352 0)
(0.0491214566762 0.095304763057 0)
(0.0466229242452 0.0839494689332 0)
(0.0437665442303 0.0732762359649 0)
(0.0405341683707 0.0634357159021 0)
(0.0371957044348 0.0545193001388 0)
(0.0338854865587 0.0464019705483 0)
(0.0304343931806 0.0390519408866 0)
(0.0268474652536 0.0326243852794 0)
(0.0233520750309 0.0271920613994 0)
(0.0201215603542 0.0226643309957 0)
(0.0172305677994 0.0188962119459 0)
(0.0146841818216 0.0157510395648 0)
(0.0124550057511 0.0131202582997 0)
(0.0105022047784 0.010925280794 0)
(0.00878889340811 0.00911635991245 0)
(0.0073049061096 0.00765755783165 0)
(0.0060696010873 0.00649222126588 0)
(0.0050787136044 0.00553148623639 0)
(0.00425712765388 0.00471315044692 0)
(0.0035579127931 0.00402311761097 0)
(0.00296690929347 0.00345219985422 0)
(0.00247980727911 0.00297659629373 0)
(0.00206965071917 0.00257526832694 0)
(0.00172170735057 0.0022433409333 0)
(0.00142823901351 0.00192688734687 0)
(0.0012693418769 0.00172343311776 0)
(0.00113398082286 0.00149096280877 0)
(0.000991034237679 0.00124678803575 0)
(0.000855376542318 0.000990320416666 0)
(0.000807286736862 0.000810570141516 0)
(0.000762742257478 0.000615801444626 0)
(0.00079776878014 0.000497502063251 0)
(0.000840036997614 0.000368834427351 0)
(0.000813864522619 0.000220349488812 0)
(0.000819053546318 0.000122827366506 0)
(0.000796350730874 4.04033179827e-05 0)
(-0.0793996783644 0.00717262757065 0)
(-0.0839185207426 0.0230895441206 0)
(-0.08356724942 0.0388097397877 0)
(-0.0828257030518 0.0545606139825 0)
(-0.0818379966679 0.0701252512968 0)
(-0.0806175945477 0.0854690773381 0)
(-0.079175984725 0.100546730439 0)
(-0.0775261945089 0.115316192617 0)
(-0.0756825915953 0.129738481584 0)
(-0.0736605259013 0.143777966725 0)
(-0.0714759742581 0.157402519818 0)
(-0.0691451678101 0.170583599109 0)
(-0.0666842408547 0.183296252003 0)
(-0.064108873233 0.195519039261 0)
(-0.0614339695327 0.207233881388 0)
(-0.0586733450814 0.218425831586 0)
(-0.0558394678366 0.229082779553 0)
(-0.052943224582 0.2391950951 0)
(-0.049993764217 0.248755222065 0)
(-0.0469983818073 0.257757238148 0)
(-0.0439624941765 0.266196397538 0)
(-0.0408896608953 0.274068676084 0)
(-0.0377816945637 0.28137033698 0)
(-0.0346388030974 0.288097533538 0)
(-0.0314598023297 0.294245960264 0)
(-0.0282423367306 0.299810559083 0)
(-0.0249831493796 0.304785282059 0)
(-0.0216783441606 0.309162909443 0)
(-0.0183236911352 0.312934921939 0)
(-0.0149149261691 0.316091415883 0)
(-0.0114481138961 0.31862111587 0)
(-0.00791997584324 0.320511408535 0)
(-0.00432831306432 0.3217484524 0)
(-0.000672423970589 0.322317435053 0)
(0.00304646149562 0.32220290758 0)
(0.00682477951325 0.321389240381 0)
(0.0106562483909 0.319861206525 0)
(0.01453158928 0.317604681397 0)
(0.0184383418007 0.31460743916 0)
(0.0223608622961 0.310860008951 0)
(0.0262804891622 0.306356536341 0)
(0.0301759381601 0.301095577631 0)
(0.0340238732526 0.295080740138 0)
(0.0377996500505 0.288321078469 0)
(0.0414780998156 0.28083116621 0)
(0.0450342509864 0.272630792347 0)
(0.0484437721547 0.263744295645 0)
(0.0516829547723 0.254199609619 0)
(0.0547280260721 0.244027250985 0)
(0.0575536164847 0.233259477681 0)
(0.0601304231639 0.221930246068 0)
(0.0624220587694 0.21007622738 0)
(0.0643819442086 0.197740079145 0)
(0.0659510463421 0.184975779587 0)
(0.0670590192106 0.171856576774 0)
(0.0676312687418 0.158482772362 0)
(0.0676036698899 0.144984444533 0)
(0.0669417326528 0.131511384479 0)
(0.0656448283604 0.118200772168 0)
(0.0636720583608 0.105203905201 0)
(0.0610245999615 0.0927236239951 0)
(0.0578414023481 0.0809267516432 0)
(0.0542468627474 0.0698209247051 0)
(0.0499572938889 0.0597042590899 0)
(0.0456793944037 0.0507904443116 0)
(0.0417249629413 0.042623109409 0)
(0.0374221743819 0.035075136932 0)
(0.0327249678619 0.0285985529015 0)
(0.0281709621479 0.0233830580514 0)
(0.0240653639478 0.0192243478496 0)
(0.0204840058087 0.0158642221443 0)
(0.0173888376484 0.0131037059082 0)
(0.0147118092139 0.0108092444266 0)
(0.0123723423771 0.00889864515101 0)
(0.0102968879327 0.00734474104435 0)
(0.00847485166727 0.00615339091255 0)
(0.00698707814519 0.00527455592445 0)
(0.00587098231426 0.00455043292911 0)
(0.00494401366591 0.00388810344358 0)
(0.00412851586126 0.00331942451852 0)
(0.00343061889567 0.00286518808923 0)
(0.00287498400735 0.00248975378264 0)
(0.00240357059255 0.00216289054629 0)
(0.00199980395392 0.00188913901128 0)
(0.00166613502349 0.00161620813268 0)
(0.00149752130589 0.00143257098979 0)
(0.00132119381491 0.00119238620107 0)
(0.00120076483832 0.00100295151753 0)
(0.0011057308018 0.000809365550423 0)
(0.00103619929232 0.000627631982258 0)
(0.000911131722417 0.000424796951205 0)
(0.000887090079486 0.000292745832956 0)
(0.000939354672853 0.000220044569729 0)
(0.000917728992741 0.000138211080171 0)
(0.000886907119943 7.13599902821e-05 0)
(0.000862846107966 2.32266858174e-05 0)
(-0.094553702963 0.00728455570907 0)
(-0.0999315044747 0.0235037014364 0)
(-0.0995060599038 0.039492339415 2.46276034332e-27)
(-0.0986119627175 0.0555138155526 0)
(-0.0974213454659 0.0713392023008 0)
(-0.0959508156975 0.0869322280672 0)
(-0.094214667017 0.102245511413 0)
(-0.092229064463 0.117235382278 0)
(-0.0900117947072 0.131861576803 0)
(-0.0875818354667 0.146087577652 0)
(-0.0849589126502 0.159880772279 0)
(-0.0821630502756 0.173212536036 0)
(-0.0792141297756 0.186058227034 0)
(-0.0761314569659 0.198397094609 0)
(-0.0729333540198 0.21021210216 0)
(-0.0696367761765 0.221489666376 0)
(-0.066256975404 0.232219316694 0)
(-0.0628072138129 0.242393282687 0)
(-0.0592985519161 0.252006021533 0)
(-0.0557397123922 0.261053703123 0)
(-0.0521370391275 0.269533674674 0)
(-0.0484945411031 0.277443929453 0)
(-0.0448140275959 0.284782603862 0)
(-0.0410953093497 0.291547523311 0)
(-0.0373364607912 0.297735810745 0)
(-0.0335341120379 0.303343563141 0)
(-0.0296837685443 0.308365593983 0)
(-0.0257801375421 0.312795234219 0)
(-0.0218174749011 0.316624185597 0)
(-0.0177899470484 0.319842407408 0)
(-0.0136920460937 0.322438106087 0)
(-0.00951899558596 0.324397723357 0)
(-0.00526726140219 0.325706015311 0)
(-0.000935087853444 0.326346288074 0)
(0.00347694972354 0.326300730624 0)
(0.00796539342621 0.325550897025 0)
(0.0125233865235 0.324078355325 0)
(0.0171402540165 0.32186549717 0)
(0.0218012250036 0.318896491768 0)
(0.0264873685837 0.315158343954 0)
(0.0311757867953 0.310641990317 0)
(0.0358401145543 0.305343338096 0)
(0.0404513222777 0.299264124011 0)
(0.0449787898403 0.292412455752 0)
(0.0493915295806 0.284802893768 0)
(0.0536593846923 0.276455974051 0)
(0.0577539240555 0.267397118412 0)
(0.0616487412181 0.257655034902 0)
(0.0653187818664 0.247259747982 0)
(0.0687384460083 0.236240793089 0)
(0.0718781420363 0.22462592055 0)
(0.0746993206516 0.212441670945 0)
(0.0771483181954 0.199716555704 0)
(0.0791504243252 0.186489073591 0)
(0.080607909268 0.172821212163 0)
(0.0814081592476 0.158815627981 0)
(0.08145032327 0.144627855781 0)
(0.0806941156361 0.130450112955 0)
(0.0791923224051 0.116406656033 0)
(0.0768118838735 0.102637680971 0)
(0.0734649391075 0.0894739641033 0)
(0.069516282688 0.077171617952 0)
(0.0653011690208 0.065392375109 0)
(0.059428051682 0.0548684305659 0)
(0.053974090339 0.0462872826054 0)
(0.0498379237381 0.0381474716074 0)
(0.0446571871395 0.030058045047 0)
(0.0384179850764 0.0233811618597 0)
(0.0325232479261 0.0185414003992 0)
(0.0274649915465 0.0149868349467 0)
(0.0232302856863 0.0122293133435 0)
(0.0196522099032 0.00998801617876 0)
(0.0166010431038 0.0081119175582 0)
(0.0139391904425 0.00651717686101 0)
(0.011516328468 0.00522414046321 0)
(0.00930648528339 0.00435109038303 0)
(0.00755692449079 0.00388945899868 0)
(0.00646008312296 0.00348876907061 0)
(0.00550839388557 0.0029708575542 0)
(0.00458147990414 0.00250983234272 0)
(0.00376437796431 0.00219870055222 0)
(0.00318035153894 0.00194953363411 0)
(0.0026685239452 0.00169952814515 0)
(0.00221632735175 0.00148837957193 0)
(0.00189574798579 0.00128790904888 0)
(0.00170674557413 0.00110787816142 0)
(0.00153618184384 0.000911385077994 0)
(0.00137818290927 0.000713914686442 0)
(0.00128500220172 0.000547042293833 0)
(0.00116467360536 0.000382035845606 0)
(0.0010981800063 0.000258739759452 0)
(0.000985176934822 0.000134758693947 0)
(0.000959270921499 7.69476752114e-05 0)
(0.000967624274127 5.11848540753e-05 0)
(0.000921242589612 2.30971162745e-05 0)
(0.000894873317956 7.13944240836e-06 0)
(-0.109999423926 0.00741754106778 0)
(-0.116250023998 0.0239972909884 0)
(-0.115744745506 0.0403058622253 -2.46238043802e-27)
(-0.114689070707 0.0566497049083 0)
(-0.113283864028 0.072785305989 0)
(-0.111549161417 0.0886743020967 0)
(-0.109502411859 0.104266866715 0)
(-0.107163315793 0.119517339259 0)
(-0.104553507524 0.134383918097 0)
(-0.101696033673 0.148829029184 0)
(-0.0986148161047 0.162819492566 0)
(-0.0953341117698 0.176326604783 0)
(-0.0918779795775 0.189326125073 0)
(-0.0882697588964 0.201798167354 0)
(-0.0845315696244 0.213726997213 0)
(-0.0806838424274 0.225100733369 0)
(-0.0767448964002 0.235910954851 0)
(-0.0727305802995 0.246152220002 0)
(-0.0686539999988 0.255821509963 0)
(-0.0645253482063 0.264917617595 0)
(-0.0603518518656 0.273440509844 0)
(-0.0561378381854 0.281390696612 0)
(-0.0518849138127 0.288768639037 0)
(-0.0475922350317 0.295574225159 0)
(-0.043256844203 0.301806330091 0)
(-0.0388740404307 0.307462464777 0)
(-0.0344377636278 0.312538504256 0)
(-0.0299409776372 0.317028478502 0)
(-0.0253760586173 0.320924409432 0)
(-0.0207352014343 0.324216164853 0)
(-0.0160108855122 0.326891414472 0)
(-0.0111963462761 0.328935550708 0)
(-0.00628618851849 0.330331717131 0)
(-0.00127704914163 0.33106099832 0)
(0.00383169652021 0.331102732601 0)
(0.0090372021762 0.330435009692 0)
(0.0143324460305 0.3290353863 0)
(0.0197056222286 0.326881824352 0)
(0.0251397046183 0.323953842746 0)
(0.0306122741626 0.320233844072 0)
(0.0360956970247 0.315708540063 0)
(0.0415577321303 0.310370355587 0)
(0.046962606197 0.304218643019 0)
(0.052272534471 0.297260499049 0)
(0.0574495653617 0.289510961057 0)
(0.0624575156541 0.280992375694 0)
(0.0672636302446 0.271732834203 0)
(0.071839513044 0.261763650327 0)
(0.0761607971945 0.25111615203 0)
(0.0802050563733 0.239818065812 0)
(0.0839473141096 0.227890404709 0)
(0.0873526992112 0.21534577229 0)
(0.0903656048974 0.202190664888 0)
(0.092896670467 0.188434985857 0)
(0.0948109820812 0.174114057945 0)
(0.095931971355 0.159325027268 0)
(0.0960815403137 0.14427025794 0)
(0.0952132256247 0.129253237829 0)
(0.0936074567957 0.114318470415 0)
(0.0908780998789 0.0994765720146 0)
(0.0865149012696 0.085428182987 0)
(0.0816197908866 0.0727639496162 0)
(0.0774643365728 0.0597411470303 0)
(0.0685565147454 0.048388639645 0)
(0.0615339989229 0.0412201828152 0)
(0.0599653580361 0.0334062855046 0)
(0.0546173483381 0.0238631780159 0)
(0.0455726178869 0.0167309989994 0)
(0.0374954838712 0.01272774634 0)
(0.0311072415771 0.0102482795023 0)
(0.0260654396931 0.00837577307966 0)
(0.0220390696586 0.00678410729382 0)
(0.0187611570121 0.00537126797455 0)
(0.0158956391242 0.00404331462159 0)
(0.013023310508 0.00288909775292 0)
(0.0100311300221 0.00230671374633 0)
(0.00767195242339 0.0024650694309 0)
(0.00685928619436 0.00251412644002 0)
(0.00600176517014 0.00201618821368 0)
(0.0049063110199 0.00157960130764 0)
(0.00389846270248 0.00146538900423 0)
(0.00339366381617 0.00139414674756 0)
(0.00287201448101 0.00119701665977 0)
(0.00236018396294 0.00105157284855 0)
(0.00209534077769 0.000921909780594 0)
(0.00188288837697 0.000751031404443 0)
(0.00173435868926 0.00059551972851 0)
(0.00157105382388 0.000427059409168 0)
(0.00142979897776 0.000279320997843 0)
(0.00128001158023 0.000147757458242 0)
(0.00116571189828 5.43531821113e-05 0)
(0.00108711062089 -5.03683329573e-06 0)
(0.000980309112053 -3.95558747351e-05 0)
(0.000983396453503 -4.04266479386e-05 0)
(0.000922799092131 -2.39924793383e-05 0)
(0.000891723416305 -9.14054570323e-06 0)
(-0.125789462758 0.00757290190392 0)
(-0.13292932885 0.0245756302439 0)
(-0.132337349603 0.0412586890563 0)
(-0.131109061138 0.0579797046777 0)
(-0.129474978389 0.0744777365111 0)
(-0.127458952988 0.0907118725555 0)
(-0.125082030566 0.106629355296 0)
(-0.122367936591 0.122182154797 0)
(-0.119342673365 0.137326652496 0)
(-0.116033890544 0.152024037637 0)
(-0.11247024365 0.166240479967 0)
(-0.108680754215 0.179947209573 0)
(-0.104694178456 0.193120493831 0)
(-0.100538387616 0.205741513264 0)
(-0.0962397665873 0.21779613305 0)
(-0.0918226410958 0.229274564892 0)
(-0.0873087528332 0.240170915562 0)
(-0.0827168070589 0.250482624442 0)
(-0.0780621232902 0.260209802372 0)
(-0.0733564167988 0.269354496632 0)
(-0.0686077332174 0.277919919037 0)
(-0.0638205427442 0.285909682702 0)
(-0.0589959842021 0.2933270948 0)
(-0.0541322285656 0.300174545041 0)
(-0.0492249196307 0.306453013653 0)
(-0.0442676437736 0.312161700205 0)
(-0.0392523915294 0.317297753608 0)
(-0.0341699924466 0.321856068764 0)
(-0.0290105321231 0.325829116888 0)