/*--------------------------------*- C++ -*----------------------------------*\
| =========                 |                                                 |
| \\      /  F ield         | OpenFOAM: The Open Source CFD Toolbox           |
|  \\    /   O peration     | Version:  v1906                                 |
|   \\  /    A nd           | Web:      www.OpenFOAM.com                      |
|    \\/     M anipulation  |                                                 |
\*---------------------------------------------------------------------------*/
FoamFile
{
    version     2.0;
    format      ascii;
    class       volVectorField;
    location    "468";
    object      U;
}
// * * * * * * * * * * * * * * * * * * * * * * * * * * * * * * * * * * * * * //

dimensions      [0 1 -1 0 0 0 0];


internalField   nonuniform List<vector> 
9216
(
(0.0027106356634 -0.00271286919464 0)
(0.00285798004008 -0.0087548302398 1.17185771096e-27)
(0.00284983062076 -0.0148908781057 1.84122631218e-31)
(0.00281255864292 -0.0210273387303 0)
(0.00276081198034 -0.0270610161659 0)
(0.00269605568623 -0.0329676481029 0)
(0.00261997027165 -0.0387214024113 0)
(0.00253390521087 -0.044299301844 0)
(0.00243915476748 -0.0496811628842 0)
(0.00233699797785 -0.0548495799833 0)
(0.00222869184669 -0.0597898953259 0)
(0.00211544915163 -0.0644901309781 0)
(0.0019984182358 -0.0689408713197 0)
(0.00187866528018 -0.0731351024147 0)
(0.00175716330089 -0.0770680203496 0)
(0.0016347855795 -0.0807368205181 0)
(0.00151230468836 -0.0841404786561 0)
(0.00139039469794 -0.0872795347099 0)
(0.00126963727282 -0.0901558839732 0)
(0.00115052837076 -0.0927725857227 0)
(0.00103348830624 -0.0951336856297 0)
(0.000918868806336 -0.0972440633084 0)
(0.000806965041609 -0.0991092924831 0)
(0.000698019753791 -0.100735529067 0)
(0.000592236646547 -0.102129405756 0)
(0.000489779265565 -0.103297954883 0)
(0.000390786416726 -0.104248529174 0)
(0.000295364288928 -0.104988750812 0)
(0.000203605706285 -0.105526449644 0)
(0.000115575558175 -0.105869632035 0)
(3.13382651328e-05 -0.106026416724 0)
(-4.90873558309e-05 -0.106005080786 0)
(-0.000125692057702 -0.105813863076 0)
(-0.000198480176322 -0.105461029914 0)
(-0.000267442121819 -0.104954865574 0)
(-0.000332610639423 -0.104303627388 0)
(-0.000394004725691 -0.10351550413 0)
(-0.000451686475099 -0.102598608133 0)
(-0.000505695070864 -0.101560929056 0)
(-0.000556117595515 -0.10041033221 0)
(-0.000603009590958 -0.0991545149049 0)
(-0.000646479693404 -0.0978010094537 0)
(-0.000686596005249 -0.0963571429605 0)
(-0.000723484884165 -0.0948300448677 0)
(-0.000757222895141 -0.093226611202 0)
(-0.000787949862469 -0.0915535162219 0)
(-0.000815746736848 -0.0898171820361 0)
(-0.000840762497902 -0.0880237936953 0)
(-0.000863078608273 -0.0861792746765 0)
(-0.000882849014194 -0.0842893043091 0)
(-0.000900152417992 -0.082359299445 0)
(-0.000915144053022 -0.0803944330021 0)
(-0.000927897301651 -0.0783996216504 0)
(-0.000938565625215 -0.0763795439326 0)
(-0.000947215543259 -0.0743386336918 0)
(-0.000953996591311 -0.0722810963419 0)
(-0.000958967849315 -0.0702109073158 0)
(-0.000962273633971 -0.0681318249765 0)
(-0.000963966082323 -0.0660473934308 0)
(-0.000964183938119 -0.0639609509718 0)
(-0.000962973680471 -0.0618756363436 0)
(-0.000960468797269 -0.0597943918199 0)
(-0.00095671204954 -0.0577199723102 0)
(-0.000951832510376 -0.0556549428143 0)
(-0.000945871354778 -0.0536016897154 0)
(-0.00093895420149 -0.0515624127173 0)
(-0.000931122727737 -0.0495391381053 0)
(-0.00092249997027 -0.0475337058838 0)
(-0.000913129737184 -0.0455477847902 0)
(-0.000903132950914 -0.0435828555807 0)
(-0.000892556612265 -0.0416402279216 0)
(-0.000881519533496 -0.0397210210882 0)
(-0.000870072226235 -0.037826182734 0)
(-0.000858330847333 -0.0359564682028 0)
(-0.000846349103047 -0.034112461313 0)
(-0.000834239524077 -0.0322945534703 0)
(-0.00082205809949 -0.0305029663746 0)
(-0.000809912410385 -0.028737731863 0)
(-0.000797859423722 -0.0269987164837 0)
(-0.000786000248061 -0.0252856028553 0)
(-0.000774391189753 -0.0235979159043 0)
(-0.000763125165598 -0.0219350063334 0)
(-0.000752255845874 -0.0202960785476 0)
(-0.000741865783362 -0.0186801769777 0)
(-0.000732003008223 -0.0170862163643 0)
(-0.000722735437195 -0.0155129729816 0)
(-0.000714097683184 -0.0139591213837 0)
(-0.000706127555775 -0.0124232403934 0)
(-0.000698810746779 -0.0109038794349 0)
(-0.000692068044128 -0.00939963788554 0)
(-0.000685609943959 -0.00790939859412 0)
(-0.000678644223959 -0.006432913631 0)
(-0.000669003521026 -0.0049725771087 0)
(-0.000646852464317 -0.0035490797271 0)
(-0.000606412920888 -0.00201706041298 0)
(-0.000971861961015 -0.00097168713006 0)
(0.00877534635273 -0.00288792824156 0)
(0.00970317074527 -0.0097728840173 0)
(0.00968079381708 -0.016645040158 -1.23058625899e-27)
(0.00955137468143 -0.0235226114483 0)
(0.0093722715968 -0.0302756890001 0)
(0.00915084533651 -0.0368825238849 0)
(0.00889148790408 -0.0433156932729 0)
(0.00859841900471 -0.0495499550554 0)
(0.0082759357122 -0.0555629026847 0)
(0.00792836753705 -0.061335191889 0)
(0.00755999191657 -0.0668505722331 0)
(0.00717494101258 -0.0720958267286 0)
(0.00677712504656 -0.0770606358774 0)
(0.00637017086608 -0.0817373884021 0)
(0.00595738384671 -0.0861209548411 0)
(0.00554172638325 -0.090208441566 0)
(0.00512581532838 -0.0939989366171 0)
(0.00471193066794 -0.097493261102 0)
(0.00430203666575 -0.100693731127 0)
(0.0038978065809 -0.103603940385 0)
(0.00350065544108 -0.106228561569 0)
(0.00311176807948 -0.10857317466 0)
(0.00273213496244 -0.110644114082 0)
(0.00236257428741 -0.1124483429 0)
(0.00200376672555 -0.113993340906 0)
(0.00165626604859 -0.115287016856 0)
(0.00132053261983 -0.11633762736 0)
(0.000996929924064 -0.117153716323 0)
(0.000685759563408 -0.117744053444 0)
(0.000387243419287 -0.118117589209 0)
(0.000101566310578 -0.118283410831 0)
(-0.000171176024608 -0.118250654668 0)
(-0.000430924216939 -0.118028589989 0)
(-0.000677677514504 -0.117626525331 0)
(-0.000911444251236 -0.11705372691 0)
(-0.00113231713385 -0.116319426245 0)
(-0.00134039139458 -0.115432777676 0)
(-0.00153584823583 -0.114402840665 0)
(-0.00171885631279 -0.113238542355 0)
(-0.00188967468664 -0.111948662138 0)
(-0.00204853411199 -0.110541797137 0)
(-0.00219576001984 -0.10902635106 0)
(-0.00233163259206 -0.107410503957 0)
(-0.00245653043756 -0.105702205813 0)
(-0.00257076928772 -0.103909151458 0)
(-0.00267476661017 -0.102038778994 0)
(-0.00276885949218 -0.100098250348 0)
(-0.0028534897978 -0.0980944541783 0)
(-0.00292900242976 -0.0960339922338 0)
(-0.00299584999802 -0.0939231860705 0)
(-0.00305437333645 -0.0917680689978 0)
(-0.00310502392302 -0.0895743955865 0)
(-0.00314812906819 -0.0873476386623 0)
(-0.00318412972431 -0.0850930003918 0)
(-0.00321333332816 -0.0828154135023 0)
(-0.00323616398551 -0.0805195525632 0)
(-0.00325290628003 -0.0782098384177 0)
(-0.00326396437931 -0.0758904482989 0)
(-0.0032696004234 -0.0735653223952 0)
(-0.00327019866054 -0.0712381715769 0)
(-0.00326600205512 -0.0689124850738 0)
(-0.00325737741869 -0.0665915349098 0)
(-0.00324455388106 -0.0642783839099 0)
(-0.00322788489914 -0.0619758863683 0)
(-0.00320759200633 -0.0596866958937 0)
(-0.00318401983143 -0.0574132623277 0)
(-0.00315738833465 -0.055157839327 0)
(-0.00312803727675 -0.0529224780113 0)
(-0.0030961897748 -0.0507090344629 0)
(-0.00306218323578 -0.0485191609302 0)
(-0.00302624673504 -0.0463543136762 0)
(-0.00298871597466 -0.0442157427632 0)
(-0.00294982653087 -0.0421045007299 0)
(-0.00290991107215 -0.0400214319969 0)
(-0.00286921010957 -0.0379671828455 0)
(-0.00282805025792 -0.0359421913824 0)
(-0.00278667362308 -0.0339466991351 0)
(-0.00274539645362 -0.0319807423101 0)
(-0.00270445785343 -0.0300441651956 0)
(-0.00266415856042 -0.0281366132507 0)
(-0.00262472918054 -0.0262575483611 0)
(-0.00258644913979 -0.0244062441162 0)
(-0.00254953413335 -0.0225818029663 0)
(-0.00251423522851 -0.0207831540118 0)
(-0.00248074431728 -0.0190090722185 0)
(-0.00244927217823 -0.0172581791531 0)
(-0.00241996766043 -0.0155289644981 0)
(-0.0023929670151 -0.013819789064 0)
(-0.00236830698449 -0.0121289031986 0)
(-0.00234590109711 -0.0104544286178 0)
(-0.00232533591513 -0.00879428272038 0)
(-0.00230551737223 -0.00714585685114 0)
(-0.00228360892937 -0.00550471879895 0)
(-0.00225169605156 -0.00386085159347 0)
(-0.00216952971579 -0.00216499427967 0)
(-0.00201554691652 -0.000604428110213 0)
(0.0150226458351 -0.00293380353724 0)
(0.0166338812209 -0.00993367916596 0)
(0.0165732282374 -0.016896088479 -1.22854654332e-27)
(0.0163422863523 -0.0238743084395 0)
(0.0160306293312 -0.0307243705075 0)
(0.0156480324264 -0.0374230162515 0)
(0.0152009954097 -0.0439417842796 0)
(0.0146964569525 -0.0502548811967 0)
(0.0141417362522 -0.056339576121 0)
(0.0135442929031 -0.062176388629 0)
(0.0129115146535 -0.0677490971359 0)
(0.0122505336052 -0.0730446551201 0)
(0.011568084467 -0.0780530269767 0)
(0.0108703972641 -0.0827669693024 0)
(0.0101631332204 -0.0871817753249 0)
(0.00945134991654 -0.0912950031224 0)
(0.00873950140072 -0.0951061993016 0)
(0.00803145535643 -0.0986166331473 0)
(0.00733053405313 -0.101829045926 0)
(0.00663955869822 -0.10474742501 0)
(0.00596090850493 -0.107376801157 0)
(0.00529657119751 -0.109723074869 0)
(0.0046482037288 -0.111792865411 0)
(0.0040171749325 -0.11359338672 0)
(0.00340461895263 -0.115132340671 0)
(0.00281146301155 -0.116417832055 0)
(0.00223847109654 -0.117458293911 0)
(0.0016862550776 -0.118262428977 0)
(0.00115531048021 -0.118839154933 0)
(0.000646011917663 -0.119197561189 0)
(0.000158643101681 -0.119346866851 0)
(-0.000306611385847 -0.119296383754 0)
(-0.000749635002618 -0.119055478785 0)
(-0.00117041529542 -0.118633545234 0)
(-0.0015690015026 -0.118039963214 0)
(-0.00194553600602 -0.117284072718 0)
(-0.0023002103638 -0.116375137838 0)
(-0.00263330878402 -0.115322321381 0)
(-0.00294515328052 -0.114134652909 0)
(-0.00323615468938 -0.112821006388 0)
(-0.00350674773651 -0.111390071712 0)
(-0.00375745033331 -0.109850336475 0)
(-0.00398878850201 -0.108210062097 0)
(-0.00420136442248 -0.106477270443 0)
(-0.00439577155073 -0.104659725245 0)
(-0.00457267172958 -0.102764923842 0)
(-0.00473270117064 -0.100800084253 0)
(-0.00487655669475 -0.0987721419468 0)
(-0.00500489354111 -0.0966877424527 0)
(-0.00511842048599 -0.0945532426354 0)
(-0.00521779068146 -0.0923747084459 0)
(-0.0053037050644 -0.0901579198999 0)
(-0.00537679763494 -0.0879083731484 0)
(-0.00543774622965 -0.0856312880321 0)
(-0.00548715378918 -0.0833316134847 0)
(-0.00552566522378 -0.0810140364125 0)
(-0.00555384627374 -0.0786829891655 0)
(-0.00557230487624 -0.0763426583734 0)
(-0.00558156918628 -0.0739969932953 0)
(-0.00558221155457 -0.0716497134042 0)
(-0.00557472715814 -0.0693043164428 0)
(-0.00555965850334 -0.0669640837644 0)
(-0.00553747596797 -0.0646320873263 0)
(-0.00550870064775 -0.0623111922637 0)
(-0.00547378795628 -0.0600040623421 0)
(-0.00543324671885 -0.0577131596743 0)
(-0.00538752687023 -0.0554407487031 0)
(-0.00533713291176 -0.0531888934762 0)
(-0.00528251666731 -0.0509594605076 0)
(-0.00522418358027 -0.0487541143333 0)
(-0.00516259144931 -0.0465743199498 0)
(-0.00509824843826 -0.0444213375918 0)
(-0.00503161865068 -0.0422962254454 0)
(-0.00496321114716 -0.0401998345646 0)
(-0.00489349313294 -0.0381328125746 0)
(-0.00482296961856 -0.0360955995421 0)
(-0.00475210483889 -0.034088433146 0)
(-0.00468139247278 -0.0321113460838 0)
(-0.00461128571606 -0.0301641730487 0)
(-0.00454225813324 -0.0282465500449 0)
(-0.00447474254394 -0.0263579232669 0)
(-0.00440918263188 -0.0244975504723 0)
(-0.00434598046035 -0.0226645117265 0)
(-0.00428553875051 -0.0208577127476 0)
(-0.00422821618094 -0.0190758970829 0)
(-0.00417435936791 -0.0173176506016 0)
(-0.00412426340408 -0.0155814130811 0)
(-0.00407818992273 -0.0138654789989 0)
(-0.00403632640962 -0.0121679968998 0)
(-0.00399878374915 -0.0104869385437 0)
(-0.00396555616773 -0.00882002186505 0)
(-0.00393655791822 -0.00716450941834 0)
(-0.0039117836485 -0.00551668278199 0)
(-0.00389155072558 -0.00387015117259 0)
(-0.0038613758497 -0.00223488140866 0)
(-0.00354006356496 -0.000641266245741 0)
(0.0214177746937 -0.00297913860199 0)
(0.0237331377224 -0.0100840806834 0)
(0.0236435026375 -0.017142016857 1.22797586651e-27)
(0.0233089874691 -0.0242164790937 0)
(0.0228584181188 -0.0311574342894 0)
(0.0223062484796 -0.0379401308892 0)
(0.0216619203674 -0.0445349298318 0)
(0.0209355235775 -0.0509153329799 0)
(0.0201377144834 -0.0570582568399 0)
(0.0192793476842 -0.062944167521 0)
(0.0183711483119 -0.0685570416441 0)
(0.0174234359236 -0.0738842343056 0)
(0.0164459160659 -0.0789162653889 0)
(0.0154475276495 -0.0836465516507 0)
(0.014436355689 -0.0880711061206 0)
(0.0134195884182 -0.0921882265859 0)
(0.0124035253419 -0.0959981874682 0)
(0.0113936099714 -0.0995029491104 0)
(0.0103944955891 -0.102705890659 0)
(0.00941011575175 -0.105611573509 0)
(0.00844377306569 -0.108225534912 0)
(0.00749821699312 -0.110554113922 0)
(0.00657573113378 -0.11260430502 0)
(0.00567819915019 -0.114383639226 0)
(0.00480717745404 -0.115900085921 0)
(0.00396394064352 -0.117161974722 0)
(0.00314953588204 -0.11817793005 0)
(0.00236480703641 -0.118956818569 0)
(0.0016104332087 -0.11950770253 0)
(0.000886935143989 -0.119839800805 0)
(0.000194702751569 -0.119962449439 0)
(-0.000466006984538 -0.119885080933 0)
(-0.00109504509772 -0.119617158353 0)
(-0.00169239126134 -0.119168171626 0)
(-0.00225812609233 -0.118547596732 0)
(-0.00279244708488 -0.117764864157 0)
(-0.00329564185092 -0.116829326282 0)
(-0.00376810816976 -0.115750228648 0)
(-0.00421032218346 -0.114536679788 0)
(-0.00462286026329 -0.113197625645 0)
(-0.00500636210229 -0.1117418231 0)
(-0.00536155468895 -0.110177818643 0)
(-0.00568921061306 -0.108513926676 0)
(-0.00599017462434 -0.106758213291 0)
(-0.00626531776931 -0.104918480067 0)
(-0.00651556707767 -0.103002253376 0)
(-0.00674185634013 -0.101016773935 0)
(-0.00694515935899 -0.0989689915688 0)
(-0.00712643824464 -0.0968655603601 0)
(-0.0072866805428 -0.0947128384453 0)
(-0.00742684598477 -0.0925168881939 0)
(-0.00754790759256 -0.0902834802252 0)
(-0.00765079780157 -0.0880180977402 0)
(-0.00773645347239 -0.08572594367 0)
(-0.00780576226843 -0.0834119479922 0)
(-0.00785961122162 -0.0810807766754 0)
(-0.00789883409473 -0.0787368406391 0)
(-0.00792426289541 -0.0763843050885 0)
(-0.00793667675939 -0.0740270987368 0)
(-0.00793685546218 -0.0716689221787 0)
(-0.00792553008528 -0.0693132561514 0)
(-0.00790343734576 -0.0669633678926 0)
(-0.00787127209091 -0.0646223175573 0)
(-0.00782974106531 -0.0622929619269 0)
(-0.00777951711197 -0.0599779585738 0)
(-0.00772129103018 -0.0576797668317 0)
(-0.0076557273506 -0.055400649818 0)
(-0.00758351306766 -0.0531426730684 0)
(-0.00750531493596 -0.050907704959 0)
(-0.00742182419615 -0.0486974137972 0)
(-0.0073337155238 -0.0465132674739 0)
(-0.00724168720245 -0.0443565299804 0)
(-0.00714642202327 -0.0422282611941 0)
(-0.00704862273631 -0.0401293137829 0)
(-0.00694897533298 -0.0380603339401 0)
(-0.00684817984743 -0.0360217594682 0)
(-0.00674691647537 -0.0340138220558 0)
(-0.00664587197532 -0.0320365470843 0)
(-0.00654570901736 -0.0300897577983 0)
(-0.00644708845727 -0.028173077112 0)
(-0.00635064215387 -0.0262859337695 0)
(-0.0062569913462 -0.0244275661695 0)
(-0.00616672295472 -0.0225970303498 0)
(-0.00608040409556 -0.0207932054988 0)
(-0.00599856154831 -0.0190148030453 0)
(-0.00592169213812 -0.0172603726019 0)
(-0.00585024477575 -0.0155283097732 0)
(-0.00578462674816 -0.0138168579911 0)
(-0.00572519002903 -0.0121241067736 0)
(-0.0056722418943 -0.0104479747617 0)
(-0.00562606178936 -0.00878617756214 0)
(-0.00558698861454 -0.00713616682619 0)
(-0.00555556694229 -0.00549505992649 0)
(-0.00553178005645 -0.00385839769619 0)
(-0.00549025133129 -0.00224802490569 0)
(-0.00494612804757 -0.000657878197511 0)
(0.0279197169171 -0.00303866987766 0)
(0.0309410885853 -0.0102818311446 0)
(0.0308198636604 -0.0174722860387 0)
(0.0303764401686 -0.0246761059927 0)
(0.0297796789405 -0.0317384037011 0)
(0.0290491625163 -0.0386327170259 0)
(0.0281977652052 -0.0453279746529 0)
(0.0272391625505 -0.0517967637844 0)
(0.0261877289467 -0.0580155580852 0)
(0.0250580413774 -0.0639648001689 0)
(0.0238644312284 -0.0696287977115 0)
(0.0226206141558 -0.0749955192736 0)
(0.0213394130968 -0.080056306501 0)
(0.0200325658034 -0.0848055341821 0)
(0.0187106188156 -0.0892402447965 0)
(0.0173828875011 -0.0933597813605 0)
(0.0160574789132 -0.0971654353364 0)
(0.0147413523026 -0.100660123011 0)
(0.0134404155009 -0.103848096893 0)
(0.0121596321427 -0.106734696783 0)
(0.0109031432387 -0.109326139629 0)
(0.00967438005135 -0.11162934736 0)
(0.00847617826586 -0.113651807676 0)
(0.00731087209313 -0.115401464558 0)
(0.00618038455562 -0.116886631932 0)
(0.00508629302443 -0.118115926965 0)
(0.00402989180296 -0.119098216624 0)
(0.00301222971983 -0.119842574998 0)
(0.00203414929238 -0.120358246199 0)
(0.00109630277569 -0.120654612091 0)
(0.000199175676472 -0.120741157191 0)
(-0.000656911434464 -0.120627459546 0)
(-0.00147178029147 -0.120323109261 0)
(-0.00224540918359 -0.119837728759 0)
(-0.00297791310872 -0.119180918552 0)
(-0.00366955061898 -0.118362228826 0)
(-0.00432070771803 -0.117391127159 0)
(-0.00493190371583 -0.116276968056 0)
(-0.00550377192195 -0.115028962789 0)
(-0.00603706451563 -0.113656151936 0)
(-0.00653262971988 -0.112167379006 0)
(-0.00699141591711 -0.110571267416 0)
(-0.00741444583827 -0.108876199192 0)
(-0.00780282061726 -0.107090297419 0)
(-0.00815769186873 -0.105221410784 0)
(-0.00848026649506 -0.103277101953 0)
(-0.00877177761621 -0.101264638202 0)
(-0.00903349090958 -0.0991909857109 0)
(-0.00926667535203 -0.0970628060406 0)
(-0.0094726117563 -0.0948864558711 0)
(-0.00965256421943 -0.0926679887189 0)
(-0.00980779138806 -0.0904131593015 0)
(-0.00993951942986 -0.0881274295022 0)
(-0.0100489563857 -0.0858159761965 0)
(-0.0101372673253 -0.0834837001954 0)
(-0.010205591906 -0.0811352361287 0)
(-0.010255022138 -0.0787749628504 0)
(-0.0102866229409 -0.0764070138153 0)
(-0.0103014125996 -0.0740352874118 0)
(-0.0103003857253 -0.0716634563492 0)
(-0.0102844961093 -0.0692949765167 0)
(-0.0102546811317 -0.0669330941721 0)
(-0.0102118463884 -0.064580852357 0)
(-0.0101568903435 -0.0622410951959 0)
(-0.0100906899253 -0.0599164714242 0)
(-0.010014124171 -0.0576094356952 0)
(-0.00992806000255 -0.0553222494236 0)
(-0.00983337377819 -0.053056979595 0)
(-0.00973093667127 -0.0508154976093 0)
(-0.00962163338848 -0.0485994764983 0)
(-0.00950634690568 -0.046410388803 0)
(-0.00938597402751 -0.0442495033091 0)
(-0.00926140958433 -0.0421178830311 0)
(-0.00913355889818 -0.0400163825179 0)
(-0.00900332181173 -0.0379456469004 0)
(-0.00887160238953 -0.0359061106034 0)
(-0.00873929328005 -0.0338979981122 0)
(-0.00860728310458 -0.0319213246127 0)
(-0.00847644164321 -0.0299758988405 0)
(-0.00834762534822 -0.0280613258672 0)
(-0.00822166373342 -0.0261770120837 0)
(-0.00809936335619 -0.024322170059 0)
(-0.00798149563546 -0.0224958254248 0)
(-0.00786879953312 -0.020696823389 0)
(-0.00776197093929 -0.0189238367849 0)
(-0.00766166438535 -0.0171753731387 0)
(-0.00756848463117 -0.0154497821728 0)
(-0.00748298923376 -0.0137452608752 0)
(-0.00740568665119 -0.0120598572255 0)
(-0.00733704975717 -0.010391470198 0)
(-0.0072775414645 -0.00873785418514 0)
(-0.00722767491225 -0.00709662946847 0)
(-0.00718802343039 -0.00546534524207 0)
(-0.00715755661002 -0.00384011185882 0)
(-0.00710076041169 -0.00224467979672 0)
(-0.00637500267477 -0.00066006640469 0)
(0.0345663709353 -0.00311410128152 0)
(0.0383047110157 -0.0105349747149 0)
(0.0381472872045 -0.0178974511297 0)
(0.0375869365267 -0.025267974012 0)
(0.0368336134534 -0.0324859586608 0)
(0.0359125263594 -0.039522848432 0)
(0.0348405440845 -0.0463458330411 0)
(0.033635485457 -0.0529263982759 0)
(0.0323159576661 -0.0592405294913 0)
(0.0309007079871 -0.0652687337689 0)
(0.029408040827 -0.0709958486558 0)
(0.0278553468553 -0.0764107374554 0)
(0.0262587580399 -0.0815058977803 0)
(0.0246329216224 -0.0862770226717 0)
(0.0229908859737 -0.0907225474812 0)
(0.0213440765583 -0.0948432094725 0)
(0.019702347515 -0.0986416392135 0)
(0.0180740833577 -0.102121996338 0)
(0.0164663381234 -0.105289655705 0)
(0.014884989491 -0.108150945656 0)
(0.013334901426 -0.110712935961 0)
(0.0118200780201 -0.112983271159 0)
(0.0103438089589 -0.11497004296 0)
(0.00890879382258 -0.11668169523 0)
(0.00751725149306 -0.118126954383 0)
(0.00617100486253 -0.119314778952 0)
(0.00487155152781 -0.120254322101 0)
(0.00362011197535 -0.120954902482 0)
(0.00241766892587 -0.121425979108 0)
(0.00126498898099 -0.121677127809 0)
(0.000162642660702 -0.121718012495 0)
(-0.000888994870171 -0.121558389355 0)
(-0.00188971922336 -0.12120800348 0)
(-0.00283951310366 -0.120676643472 0)
(-0.003738529764 -0.119974065493 0)
(-0.00458709525391 -0.119109971202 0)
(-0.00538569837615 -0.118093973922 0)
(-0.00613498859812 -0.11693556668 0)
(-0.00683576266607 -0.115644091056 0)
(-0.00748895974436 -0.114228708083 0)
(-0.00809564450028 -0.112698371014 0)
(-0.0086569999405 -0.111061801015 0)
(-0.00917430779817 -0.109327465401 0)
(-0.00964894007731 -0.107503559304 0)
(-0.0100823378895 -0.105597990224 0)
(-0.0104760028519 -0.103618366186 0)
(-0.0108314755632 -0.101571986821 0)
(-0.0111503279302 -0.0994658379486 0)
(-0.0114341423801 -0.0973065889136 0)
(-0.0116845060713 -0.0951005930991 0)
(-0.0119029918383 -0.0928538908245 0)
(-0.0120911550987 -0.0905722148948 0)
(-0.0122505173937 -0.0882609980098 0)
(-0.0123825666459 -0.0859253821069 0)
(-0.0124887439758 -0.0835702288739 0)
(-0.0125704476865 -0.0812001313139 0)
(-0.0126290237078 -0.0788194256921 0)
(-0.0126657732951 -0.0764322035733 0)
(-0.0126819470093 -0.0740423234357 0)
(-0.0126787556019 -0.071653421456 0)
(-0.0126573669197 -0.0692689212057 0)
(-0.0126189189674 -0.0668920417938 0)
(-0.0125645186927 -0.0645258045163 0)
(-0.0124952558572 -0.0621730375457 0)
(-0.0124122024162 -0.0598363790768 0)
(-0.0123164257491 -0.0575182784875 0)
(-0.0122089874036 -0.055220996258 0)
(-0.0120909544286 -0.052946602218 0)
(-0.0119633965636 -0.0506969731264 0)
(-0.0118273948681 -0.0484737891276 0)
(-0.0116840369243 -0.0462785302372 0)
(-0.0115344224853 -0.0441124723278 0)
(-0.0113796567586 -0.0419766838127 0)
(-0.0112208532913 -0.0398720223911 0)
(-0.0110591257887 -0.0377991330097 0)
(-0.0108955887653 -0.035758446287 0)
(-0.010731348539 -0.033750178472 0)
(-0.0105675023026 -0.0317743320798 0)
(-0.0104051289379 -0.0298306981817 0)
(-0.0102452871083 -0.02791885942 0)
(-0.01008900642 -0.0260381946322 0)
(-0.00993728501717 -0.0241878841091 0)
(-0.00979108148734 -0.0223669162745 0)
(-0.00965131235757 -0.0205740947677 0)
(-0.00951884515588 -0.0188080465626 0)
(-0.0093944964409 -0.0170672301149 0)
(-0.00927902705803 -0.0153499440254 0)
(-0.00917314268865 -0.0136543353948 0)
(-0.00907749495755 -0.0119784090485 0)
(-0.00899269088685 -0.0103200384476 0)
(-0.00891930929589 -0.0086769863143 0)
(-0.00885792366431 -0.00704693459318 0)
(-0.00880900436203 -0.0054275519797 0)
(-0.00877064206734 -0.00381496875757 0)
(-0.00869829366457 -0.00223274667982 0)
(-0.00780182238675 -0.000657664138924 0)
(0.0413947912152 -0.0032075363626 0)
(0.0458659859247 -0.0108492218794 0)
(0.0456659257084 -0.0184258282298 1.21840244768e-27)
(0.0449777920158 -0.0260032016677 0)
(0.0440541103665 -0.0334136134803 0)
(0.0429263858395 -0.0406258765306 0)
(0.041616198067 -0.0476050722662 0)
(0.0401462302933 -0.054321411546 0)
(0.0385399928445 -0.0607504034012 0)
(0.0368209836679 -0.066872791187 0)
(0.0350119481643 -0.0726742390733 0)
(0.0331342983599 -0.078144888049 0)
(0.0312077026175 -0.0832788231781 0)
(0.0292498365418 -0.0880735028331 0)
(0.0272762774636 -0.0925291912576 0)
(0.0253005150123 -0.0966484256887 0)
(0.0233340514994 -0.100435538531 0)
(0.021386562585 -0.103896246169 0)
(0.0194660958615 -0.107037307945 0)
(0.0175792842995 -0.109866253735 0)
(0.0157315609537 -0.112391174081 0)
(0.0139273601273 -0.114620565199 0)
(0.0121702999051 -0.116563219312 0)
(0.0104633379672 -0.118228151216 0)
(0.00880890209494 -0.119624551538 0)
(0.0072089917978 -0.120761758742 0)
(0.00566525690457 -0.121649242215 0)
(0.00417905200535 -0.122296590933 0)
(0.00275147504386 -0.122713502887 0)
(0.00138338926092 -0.122909771813 0)
(7.54428664483e-05 -0.122895267814 0)
(-0.00117194412782 -0.122679955281 0)
(-0.00235854561226 -0.122273761144 0)
(-0.00348435123337 -0.12168667247 0)
(-0.00454955660927 -0.120928633195 0)
(-0.00555456180441 -0.120009529071 0)
(-0.0064999642778 -0.118939151104 0)
(-0.00738655317254 -0.117727161753 0)
(-0.00821529752457 -0.116383061999 0)
(-0.00898733617164 -0.114916160351 0)
(-0.00970396165518 -0.113335544171 0)
(-0.0103666066826 -0.111650053952 0)
(-0.0109768249899 -0.109868260726 0)
(-0.0115362757895 -0.107998446967 0)
(-0.0120467031167 -0.106048590983 0)
(-0.0125099197542 -0.104026354937 0)
(-0.0129277865257 -0.101939076401 0)
(-0.013302197053 -0.0997937633913 0)
(-0.0136350583014 -0.0975970927285 0)
(-0.0139282773502 -0.095355411507 0)
(-0.0141837443385 -0.0930747415077 0)
(-0.0144033222914 -0.0907607861622 0)
(-0.0145888334873 -0.0884189398632 0)
(-0.0147420532173 -0.0860542990725 0)
(-0.0148647003781 -0.0836716749848 0)
(-0.0149584357537 -0.0812756070455 0)
(-0.0150248572562 -0.0788703770639 0)
(-0.0150655028236 -0.0764600231314 0)
(-0.0150818501471 -0.0740483531354 0)
(-0.0150753236343 -0.0716389570757 0)
(-0.0150472977851 -0.069235218097 0)
(-0.0149991070152 -0.0668403215628 0)
(-0.0149320512489 -0.0644572622735 0)
(-0.0148474069242 -0.0620888493651 0)
(-0.0147464330572 -0.0597377091927 0)
(-0.0146303816243 -0.0574062860057 0)
(-0.0145005024166 -0.0550968408899 0)
(-0.0143580512629 -0.0528114490259 0)
(-0.0142042924316 -0.0505519958253 0)
(-0.0140405037371 -0.048320172166 0)
(-0.0138679759102 -0.0461174692829 0)
(-0.0136880143338 -0.0439451735899 0)
(-0.0135019354878 -0.0418043618958 0)
(-0.0133110656841 -0.0396958972492 0)
(-0.0131167352019 -0.0376204257487 0)
(-0.0129202747768 -0.0355783744331 0)
(-0.0127230082841 -0.0335699504655 0)
(-0.0125262478508 -0.0315951415967 0)
(-0.0123312859312 -0.0296537180323 0)
(-0.0121393898171 -0.0277452355684 0)
(-0.0119517937915 -0.0258690400758 0)
(-0.0117696936417 -0.0240242731043 0)
(-0.0115942394171 -0.0222098786674 0)
(-0.0114265304455 -0.0204246109125 0)
(-0.0112676092174 -0.0186670427029 0)
(-0.0111184575746 -0.0169355748811 0)
(-0.0109799926634 -0.0152284462905 0)
(-0.0108530657311 -0.0135437446985 0)
(-0.0107384622282 -0.0118794194523 0)
(-0.0106369058335 -0.0102332972029 0)
(-0.0105490643184 -0.00860310721288 0)
(-0.0104755478251 -0.00698650805224 0)
(-0.0104167508726 -0.00538113038056 0)
(-0.0103701130891 -0.00378296733653 0)
(-0.0102826701302 -0.00221505686561 0)
(-0.00922005971393 -0.000652835405474 0)
(0.0484460915206 -0.00332108702991 0)
(0.0536701052928 -0.0112312049806 0)
(0.0534190525161 -0.0190679243426 -1.2177535715e-27)
(0.0525890581035 -0.0268958266693 0)
(0.0514772087483 -0.034538280104 0)
(0.0501222496741 -0.0419608174054 0)
(0.0485514291042 -0.04912599633 0)
(0.0467932401786 -0.0560026082161 0)
(0.0448769622011 -0.0625657804407 0)
(0.0428315798927 -0.068796782598 0)
(0.0406848582848 -0.0746825380409 0)
(0.0384626427505 -0.0802149871077 0)
(0.0361883908881 -0.0853903638233 0)
(0.0338829180139 -0.0902084522426 0)
(0.0315643256721 -0.0946718736721 0)
(0.0292480737026 -0.0987854403739 0)
(0.0269471570014 -0.102555596867 0)
(0.0246723488719 -0.105989957489 0)
(0.0224324801992 -0.10909693978 0)
(0.0202347278108 -0.111885486609 0)
(0.0180848939773 -0.114364866412 0)
(0.0159876624467 -0.116544538696 0)
(0.0139468237153 -0.118434071792 0)
(0.0119654637978 -0.120043099873 0)
(0.0100461165769 -0.121381307524 0)
(0.00819087976666 -0.122458431232 0)
(0.00640149926388 -0.123284269083 0)
(0.0046794252122 -0.123868691617 0)
(0.00302584679279 -0.124221649204 0)
(0.00144170950665 -0.124353167669 0)
(-7.22708418914e-05 -0.124273359883 0)
(-0.00151562732646 -0.123992385244 0)
(-0.00288811747958 -0.123520418212 0)
(-0.00418974001423 -0.122867662084 0)
(-0.00542073594723 -0.122044283643 0)
(-0.0065815850875 -0.1210603864 0)
(-0.0076730007083 -0.119925972758 0)
(-0.00869592190361 -0.118650907322 0)
(-0.00965150157229 -0.117244881367 0)
(-0.0105410926652 -0.115717379436 0)
(-0.0113662306824 -0.11407764865 0)
(-0.0121286154042 -0.112334671372 0)
(-0.0128300897521 -0.110497141423 0)
(-0.0134726189632 -0.108573444236 0)
(-0.014058267781 -0.10657164088 0)
(-0.0145891789634 -0.104499456172 0)
(-0.0150675505818 -0.10236427058 0)
(-0.0154956154951 -0.100173116067 0)
(-0.0158756202627 -0.0979326754358 0)
(-0.0162098069793 -0.0956492852435 0)
(-0.0165003951245 -0.0933289417552 0)
(-0.0167495670096 -0.0909773099156 0)
(-0.0169594537693 -0.0885997346897 0)
(-0.017132125542 -0.0862012546341 0)
(-0.0172695826136 -0.0837866169285 0)
(-0.0173737511425 -0.0813602935918 0)
(-0.0174464800177 -0.0789264980425 0)
(-0.017489542348 -0.0764892016245 0)
(-0.0175046378688 -0.0740521492851 0)
(-0.0174933995793 -0.0716188740101 0)
(-0.0174574006447 -0.069192709378 0)
(-0.0173981646967 -0.0667767999227 0)
(-0.0173171753978 -0.0643741089622 0)
(-0.0172158882758 -0.0619874237609 0)
(-0.0170957406907 -0.0596193580517 0)
(-0.0169581628982 -0.0572723519882 0)
(-0.0168045862571 -0.0549486699022 0)
(-0.016636451563 -0.052650396102 0)
(-0.0164552139232 -0.0503794293316 0)
(-0.0162623471776 -0.0481374761985 0)
(-0.0160593447558 -0.0459260442867 0)
(-0.0158477199372 -0.0437464352187 0)
(-0.0156290028996 -0.0415997383367 0)
(-0.0154047373867 -0.0394868251394 0)
(-0.0151764748063 -0.0374083449978 0)
(-0.0149457683484 -0.0353647221266 0)
(-0.0147141652646 -0.0333561541661 0)
(-0.0144831995834 -0.0313826122109 0)
(-0.0142543836428 -0.0294438424969 0)
(-0.0140292003792 -0.0275393694955 0)
(-0.0138090949489 -0.0256685005396 0)
(-0.0135954673124 -0.0238303316863 0)
(-0.0133896645496 -0.0220237549 0)
(-0.0131929742833 -0.0202474662611 0)
(-0.0130066182105 -0.0184999752573 0)
(-0.0128317469303 -0.0167796150004 0)
(-0.0126694353574 -0.0150845534965 0)
(-0.0125206797305 -0.0134128061525 0)
(-0.0123863957024 -0.0117622502586 0)
(-0.0122674178011 -0.0101306421675 0)
(-0.0121644982407 -0.00851564100615 0)