/*--------------------------------*- C++ -*----------------------------------*\
| =========                 |                                                 |
| \\      /  F ield         | OpenFOAM: The Open Source CFD Toolbox           |
|  \\    /   O peration     | Version:  v1906                                 |
|   \\  /    A nd           | Web:      www.OpenFOAM.com                      |
|    \\/     M anipulation  |                                                 |
\*---------------------------------------------------------------------------*/
FoamFile
{
    version     2.0;
    format      ascii;
    class       volScalarField;
    location    "97";
    object      alpha;
}
// * * * * * * * * * * * * * * * * * * * * * * * * * * * * * * * * * * * * * //

dimensions      [0 0 -1 0 0 0 0];


internalField   nonuniform List<scalar> 
9216
(
131.855662934
199.978330797
199.979995116
199.979995116
199.979995116
199.981366308
199.981366308
199.981366308
199.981366308
199.981366308
199.980018327
199.977262621
199.977621335
199.974395798
199.974395798
199.974395798
199.977262621
199.979584747
199.979584747
199.979584747
199.979584747
199.974457801
199.97333008
199.97333008
199.97333008
199.97333008
199.96937703
199.967583838
199.96607341
199.96313274
199.962318606
199.953562928
199.956303238
199.96502714
199.965823114
199.97041592
199.970678103
199.970678103
199.970678103
199.970678103
199.970678103
199.967972662
199.963233674
199.962791089
199.966308613
199.966308613
199.966308613
199.966308613
199.966308613
199.966089619
199.967173839
199.968317547
199.969580766
199.970678103
199.970678103
199.969939976
199.967450261
199.964251879
199.958998403
199.95131361
199.944580084
199.938528433
199.93387708
199.928206951
199.917599437
199.902010524
199.887604492
199.882790385
199.866380011
199.845695363
199.826676728
199.803616835
199.783429659
199.763851763
199.728515675
199.667708406
199.599003529
199.524599545
199.403888926
199.181011931
198.586492967
193.070713736
182.037773997
167.524044955
152.454492192
141.212589766
128.87305876
109.80397187
86.5793124424
67.3417206089
50.2594632863
37.3020747243
27.2862759037
18.0594332834
11.1270363649
1.22004123878
199.97696805
199.981223874
199.981366308
199.981366308
199.981366308
199.981366308
199.981366308
199.979995116
199.979995116
199.979995116
199.979995116
199.979995116
199.977414975
199.974548153
199.974548153
199.974548153
199.975597072
199.975722145
199.975722145
199.974466096
199.978471569
199.976778739
199.974198598
199.971391821
199.970266057
199.970266057
199.970266057
199.970266057
199.970217825
199.965896567
199.962357281
199.962357281
199.962357281
199.962357281
199.962357281
199.962357281
199.962357281
199.959171922
199.959171922
199.9563051
199.9563051
199.9563051
199.9563051
199.951450111
199.951450111
199.951450111
199.951450111
199.951450111
199.951450111
199.951450111
199.951450111
199.951450111
199.951450111
199.947307816
199.944050341
199.943597282
199.9403226
199.934791594
199.917759096
199.902692643
199.890547582
199.880478903
199.871038067
199.866557831
199.855077552
199.831503767
199.805845634
199.797047639
199.798848054
199.805306433
199.796824098
199.76849017
199.734946342
199.698293842
199.65269239
199.587136388
199.526345468
199.521127047
199.539667083
199.413581623
199.178944848
198.096424487
191.689476223
181.021489367
168.339620325
155.014094533
143.350582486
122.892929307
103.957514362
80.3111933893
60.1114871571
48.435637285
39.1575800215
24.8564125729
16.4919936593
13.6268220177
199.979995116
199.981540915
199.980958805
199.981876038
199.979995116
199.979995116
199.979995116
199.979995116
199.979995116
199.979995116
199.978471569
199.978471569
199.978471569
199.978471569
199.971331776
199.974198598
199.974198598
199.974198598
199.974198598
199.974198598
199.974198598
199.974198598
199.974198598
199.970266057
199.970266057
199.966483393
199.963029745
199.959490458
199.959490458
199.959490458
199.9563051
199.9563051
199.951450111
199.951450111
199.951450111
199.951450111
199.951450111
199.951450111
199.951450111
199.951450111
199.951450111
199.951450111
199.946055679
199.946055679
199.938655909
199.938655909
199.931996116
199.931996116
199.926002303
199.917780337
199.917780337
199.917780337
199.917780337
199.917780337
199.917780337
199.917780337
199.917780337
199.914457666
199.905415888
199.888344538
199.872747865
199.860293099
199.848723616
199.834625421
199.812067385
199.780164817
199.745805186
199.717392474
199.685543514
199.640680366
199.592095808
199.583298287
199.519303621
199.543784139
199.469671417
199.362333386
199.28008216
199.197722581
199.075360539
198.967830183
198.775359313
196.606322225
187.502897613
178.06039514
166.135253443
152.154954015
132.848698437
124.461972031
111.386914481
83.8645629913
57.1691493208
53.1220777049
38.0962405668
29.1882998227
25.9101913221
17.247814813
199.981366308
199.981876038
199.981876038
199.981876038
199.979995116
199.979995116
199.979995116
199.979995116
199.978471569
199.978471569
199.978471569
199.978471569
199.978471569
199.974198598
199.974198598
199.974198598
199.974198598
199.974198598
199.974198598
199.974198598
199.974198598
199.971331776
199.971331776
199.967399235
199.963029745
199.959490458
199.9563051
199.9563051
199.951450111
199.951450111
199.951450111
199.951450111
199.951450111
199.951450111
199.951450111
199.951450111
199.946055679
199.946055679
199.946055679
199.946055679
199.932662096
199.926002303
199.917780337
199.917780337
199.917780337
199.917780337
199.917780337
199.917780337
199.917780337
199.917780337
199.908644819
199.908644819
199.908644819
199.908644819
199.908644819
199.908644819
199.908644819
199.908644819
199.907814968
199.895122907
199.878146554
199.862644312
199.845909358
199.830683922
199.808743109
199.776737072
199.73937895
199.706859496
199.676342418
199.634135453
199.588039715
199.530206964
199.46178254
199.441782924
199.333964312
199.222590645
199.130324987
199.037911629
198.915850943
198.698665634
196.748187664
184.492190733
176.863561352
169.364167237
160.180329682
145.033486002
131.623238333
123.755258876
103.850771913
90.4299004558
73.0108514774
49.7994136833
46.7836487633
38.2149469919
31.7370573172
20.2844238537
199.981366308
199.981876038
199.981876038
199.980925282
199.979995116
199.979995116
199.979995116
199.978471569
199.978471569
199.978471569
199.978471569
199.978471569
199.974198598
199.974198598
199.974198598
199.974198598
199.974198598
199.974198598
199.974198598
199.971331776
199.971331776
199.971331776
199.967399235
199.963029745
199.9563051
199.9563051
199.951450111
199.951450111
199.951450111
199.951450111
199.951450111
199.951450111
199.946055679
199.946055679
199.946055679
199.946055679
199.946055679
199.940061865
199.926002303
199.917780337
199.917780337
199.917780337
199.917780337
199.917780337
199.908644819
199.908644819
199.908644819
199.908644819
199.908644819
199.908644819
199.908644819
199.908644819
199.898494243
199.898494243
199.898494243
199.898494243
199.898494243
199.898494243
199.898494243
199.881240899
199.865261066
199.841994905
199.816514258
199.797346177
199.774748229
199.735931993
199.70886177
199.689360934
199.651932646
199.606788823
199.565047237
199.534258233
199.465391064
199.373902478
199.245342471
199.139316354
199.122514449
199.039005276
198.918645194
198.697206619
196.556542126
184.600618652
176.883540071
164.648469165
151.123453526
135.478197585
122.158675132
115.958952072
113.273735022
92.9016247302
80.985671394
60.2215037952
45.6162583305
45.7738757425
41.8530294078
30.0835905875
199.981366308
199.981876038
199.981876038
199.979995116
199.979995116
199.979995116
199.978471569
199.978471569
199.978471569
199.978471569
199.978471569
199.976778739
199.974198598
199.974198598
199.974198598
199.974198598
199.974198598
199.971331776
199.971331776
199.971331776
199.971331776
199.967399235
199.963029745
199.9563051
199.951450111
199.951450111
199.951450111
199.951450111
199.951450111
199.951450111
199.946055679
199.946055679
199.946055679
199.946055679
199.946055679
199.940061865
199.926002303
199.926002303
199.917780337
199.917780337
199.917780337
199.917780337
199.908644819
199.908644819
199.908644819
199.908644819
199.908644819
199.898494243
199.898494243
199.898494243
199.898494243
199.898494243
199.887215825
199.887215825
199.887215825
199.87468425
199.87468425
199.860760278
199.860760278
199.844368363
199.780955509
199.734050666
199.699983135
199.676888128
199.659698039
199.6441896
199.600664378
199.594341146
199.568835838
199.532152289
199.492407782
199.429684506
199.347809287
199.233273912
199.147405666
199.1375972
199.060519324
198.901834853
198.804952453
198.678576067
196.661275791
182.176479499
170.369826171
162.778092295
149.972176288
135.46312723
130.351872921
116.333875524
100.592686592
85.0803648829
87.0735825929
75.4964388244
55.0501752723
51.4712154691
50.8445596903
38.4119232997
199.981366308
199.981876038
199.981876038
199.979995116
199.979995116
199.978471569
199.978471569
199.978471569
199.978471569
199.978471569
199.978471569
199.974198598
199.974198598
199.974198598
199.971331776
199.971331776
199.971331776
199.971331776
199.971331776
199.971331776
199.971331776
199.963029745
199.9563051
199.951450111
199.951450111
199.951450111
199.951450111
199.951450111
199.946055679
199.946055679
199.946055679
199.946055679
199.946055679
199.940061865
199.940061865
199.926002303
199.917780337
199.917780337
199.917780337
199.917780337
199.908644819
199.908644819
199.908644819
199.908644819
199.898494243
199.898494243
199.898494243
199.898494243
199.898494243
199.887215825
199.887215825
199.887215825
199.87468425
199.87468425
199.860760278
199.860760278
199.845289198
199.845289198
199.784970817
199.680920371
199.659698039
199.600664378
199.600664378
199.600664378
199.556293753
199.556293753
199.556293753
199.556293753
199.506993059
199.506860204
199.485947109
199.425573801
199.348036541
199.253522466
199.154579071
199.132537224
199.002706576
198.873740847
198.820032332
198.386520864
190.767115825
179.917901118
166.020480125
156.54477434
146.74280935
135.046905194
125.688049222
116.755298125
100.112531143
94.7173395175
81.9152342397
83.1047069671
72.780074335
59.4996759831
59.548743969
46.5322948521
199.981366308
199.981876038
199.981876038
199.979995116
199.979995116
199.980352491
199.980352491
199.978471569
199.978471569
199.978471569
199.975891428
199.974198598
199.974198598
199.971331776
199.971331776
199.971331776
199.971331776
199.971331776
199.971331776
199.971331776
199.967399235
199.959490458
199.951450111
199.951450111
199.951450111
199.951450111
199.951450111
199.946055679
199.946055679
199.946055679
199.946055679
199.946055679
199.940061865
199.940061865
199.926002303
199.917780337
199.917780337
199.917780337
199.908644819
199.908644819
199.908644819
199.908644819
199.908644819
199.898494243
199.898494243
199.898494243
199.898494243
199.887215825
199.887215825
199.887215825
199.87468425
199.87468425
199.860760278
199.860760278
199.845289198
199.845289198
199.828099109
199.688515721
199.64059794
199.600664378
199.600664378
199.556293753
199.556293753
199.506993059
199.506993059
199.45221451
199.45221451
199.391349456
199.391349456
199.391349456
199.323721617
199.322821024
199.271141664
199.189474822
199.091544781
199.005190142
198.940727982
198.833990242
198.792600637
198.116128419
191.519535523
176.880045483
166.454311049
157.899068168
144.525115652
135.279939375
120.922632644
111.100284223
102.481352435
99.0171028668
91.7178187352
81.9845361714
83.4588740203
66.9567051579
67.8856213568
54.9781943333
199.982166699
199.981876038
199.981876038
199.981876038
199.980352491
199.980352491
199.980352491
199.978471569
199.978471569
199.978471569
199.975891428
199.974198598
199.971331776
199.971331776
199.971331776
199.971331776
199.971331776
199.971331776
199.971331776
199.971331776
199.963029745
199.9563051
199.951450111
199.951450111
199.951450111
199.951450111
199.946055679
199.946055679
199.946055679
199.946055679
199.946055679
199.940061865
199.940061865
199.926002303
199.917780337
199.917780337
199.917780337
199.908644819
199.908644819
199.908644819
199.908644819
199.898494243
199.898494243
199.898494243
199.898494243
199.887215825
199.887215825
199.887215825
199.87468425
199.87468425
199.860760278
199.860760278
199.845289198
199.845289198
199.828099109
199.772787132
199.64059794
199.600664378
199.600664378
199.556293753
199.556293753
199.506993059
199.506993059
199.45221451
199.391349456
199.391349456
199.323721617
199.323721617
199.248579575
199.248579575
199.248579575
199.165088416
199.165088416
199.123821401
199.033639424
198.946297328
198.836530719
198.839800128
198.697823582
197.290829754
188.254631619
173.872339493
165.270976027
155.687021381
146.731206517
137.451867641
126.000761975
112.169473245
103.261564314
91.824373771
97.2638824382
91.7070736285
84.9121360214
79.3723637137
74.5103108241
62.4575306883
199.98324723
199.981876038
199.981876038
199.981876038
199.980352491
199.980352491
199.980352491
199.978471569
199.978471569
199.978471569
199.975891428
199.974198598
199.971331776
199.971331776
199.971331776
199.971331776
199.971331776
199.971331776
199.971331776
199.967399235
199.9563051
199.951450111
199.951450111
199.951450111
199.951450111
199.946055679
199.946055679
199.946055679
199.946055679
199.946055679
199.940061865
199.933402073
199.926002303
199.917780337
199.917780337
199.917780337
199.908644819
199.908644819
199.908644819
199.908644819
199.898494243
199.898494243
199.898494243
199.898494243
199.887215825
199.887215825
199.87468425
199.87468425
199.860760278
199.860760278
199.860760278
199.845289198
199.845289198
199.828099109
199.721340847
199.64059794
199.600664378
199.556293753
199.556293753
199.506993059
199.506993059
199.45221451
199.391349456
199.323721617
199.323721617
199.248579575
199.248579575
199.165088416
199.165088416
199.072320463
199.072320463
199.072320463
199.072320463
198.969244959
198.933902686
198.886062638
198.821632019
198.822372223
198.636491847
196.319020136
182.895122531
173.846001848
163.215976191
154.173442131
147.095479601
137.63832142
125.32947073
114.741331
106.053503571
99.6130621675
93.718386513
96.816035234
92.1083283881
89.6731991639
81.1149616891
71.0616176314
199.98324723
199.981876038
199.981876038
199.981876038
199.980352491
199.980352491
199.980352491
199.978471569
199.978471569
199.975891428
199.974198598
199.971331776
199.971331776
199.971331776
199.971331776
199.971331776
199.971331776
199.971331776
199.971331776
199.959844387
199.9563051
199.951450111
199.951450111
199.951450111
199.946055679
199.946055679
199.946055679
199.946055679
199.940061865
199.940061865
199.940061865
199.926002303
199.926002303
199.917780337
199.917780337
199.908644819
199.908644819
199.908644819
199.898494243
199.898494243
199.898494243
199.898494243
199.887215825
199.887215825
199.887215825
199.87468425
199.87468425
199.860760278
199.860760278
199.845289198
199.845289198
199.828099109
199.828099109
199.721340847
199.600664378
199.600664378
199.556293753
199.556293753
199.506993059
199.45221451
199.391349456
199.323721617
199.323721617
199.248579575
199.165088416
199.165088416
199.072320463
199.072320463
198.969244959
198.969244959
198.969244959
198.854716621
198.854716621
198.854716621
198.854716621
198.854716621
198.832639579
198.72410628
198.453122042
194.263782749
182.004300614
174.291957627
163.942867226
155.888626517
147.428390964
133.969709757
124.006387438
116.428834539
112.833142872
106.768687015
102.266421499
94.5885194306
98.0410079992
101.516756982
88.5374385304
77.5239143988
199.98324723
199.981876038
199.981876038
199.981876038
199.980352491
199.980352491
199.980352491
199.978471569
199.978471569
199.975891428
199.974198598
199.971331776
199.971331776
199.971331776
199.971331776
199.971331776
199.971331776
199.971331776
199.968146418
199.9563051
199.951450111
199.951450111
199.951450111
199.946055679
199.946055679
199.946055679
199.946055679
199.940061865
199.940061865
199.940061865
199.926002303
199.926002303
199.917780337
199.917780337
199.908644819
199.908644819
199.908644819
199.898494243
199.898494243
199.898494243
199.898494243
199.887215825
199.887215825
199.887215825
199.87468425
199.87468425
199.860760278
199.860760278
199.845289198
199.845289198
199.828099109
199.828099109
199.721340847
199.600664378
199.556293753
199.556293753
199.506993059
199.506993059
199.45221451
199.391349456
199.323721617
199.248579575
199.165088416
199.165088416
199.072320463
199.072320463
198.969244959
198.854716621
198.854716621
198.854716621
198.727462912
198.727462912
198.727462912
198.586069902
198.586069902
198.586069902
198.586069902
198.577283027
198.087964813
192.272035907
182.373470836
175.514445428
164.503027307
157.214095987
146.761628236
135.170876889
127.717622034
121.381458982
114.820028148
110.927200979
106.748673969
103.599821225
98.4767015052
106.082821604
95.7240266166
82.6496906589
199.985569356
199.984198164
199.981876038
199.981876038
199.980352491
199.980352491
199.980352491
199.978471569
199.978471569
199.975891428
199.974198598
199.971331776
199.971331776
199.971331776
199.971331776
199.971331776
199.971331776
199.968146418
199.959844387
199.9563051
199.951450111
199.951450111
199.951450111
199.946055679
199.946055679
199.946055679
199.940061865
199.940061865
199.940061865
199.933402073
199.926002303
199.917780337
199.917780337
199.908644819
199.908644819
199.908644819
199.898494243
199.898494243
199.898494243
199.887215825
199.887215825
199.887215825
199.87468425
199.87468425
199.87468425
199.860760278
199.860760278
199.845289198
199.845289198
199.828099109
199.828099109
199.779887443
199.600664378
199.556293753
199.556293753
199.506993059
199.45221451
199.391349456
199.391349456
199.311535164
199.248579575
199.165088416
199.072320463
198.969244959
198.969244959
198.854716621
198.854716621
198.727462912
198.727462912
198.586069902
198.586069902
198.428966558
198.428966558
198.428966558
198.428966558
198.428966558
198.428966558
198.165844871
197.690957015
194.799224168
183.843027271
172.468435778
164.179089946
158.783095104
147.2132007
139.968391104
132.413784154
124.952707617
118.308062881
114.303304795
109.910097833
106.718367091
105.041546088
108.855358081
102.083340158
87.6288349115
199.985569356
199.984198164
199.984198164
199.981876038
199.980352491
199.980352491
199.980352491
199.978471569
199.978471569
199.975891428
199.974198598
199.971331776
199.971331776
199.971331776
199.971331776
199.971331776
199.968146418
199.968146418
199.9563051
199.9563051
199.951450111
199.951450111
199.946055679
199.946055679
199.946055679
199.940061865
199.940061865
199.940061865
199.933402073
199.926002303
199.917780337
199.917780337
199.908644819
199.908644819
199.908644819
199.898494243
199.898494243
199.898494243
199.887215825
199.887215825
199.887215825
199.87468425
199.87468425
199.860760278
199.860760278
199.860760278
199.845289198
199.845289198
199.828099109
199.828099109
199.80899901
199.600664378
199.556293753
199.556293753
199.506993059
199.45221451
199.391349456
199.323721617
199.248579575
199.165088416
199.072320463
199.072320463
198.969244959
198.854716621
198.854716621
198.727462912
198.586069902
198.586069902
198.428966558
198.428966558
198.428966558
198.254407286
198.254407286
198.254407286
198.254407286
198.06045254
197.996906314
197.670886437
196.27594538
190.221758288
181.353628372
175.356421501
167.783486104
160.368379885
153.507871722
142.338288739
135.778475116
127.846417726
121.727230517
119.952407113
114.077816479
111.425141398
108.867388671
107.247354696
110.716449754
92.1989945299
199.985569356
199.984198164
199.984198164
199.984198164
199.980352491
199.980352491
199.980352491
199.978471569
199.978471569
199.974198598
199.974198598
199.971331776
199.971331776
199.971331776
199.971331776
199.968146418
199.968146418
199.964213877
199.9563051
199.951450111
199.951450111
199.951450111
199.946055679
199.946055679
199.940061865
199.940061865
199.940061865
199.933402073
199.926002303
199.926002303
199.917780337
199.917780337
199.908644819
199.908644819
199.898494243
199.898494243
199.898494243
199.887215825
199.887215825
199.887215825
199.87468425
199.87468425
199.860760278
199.860760278
199.845289198
199.845289198
199.845289198
199.828099109
199.828099109
199.80899901
199.600664378
199.556293753
199.556293753
199.506993059
199.45221451
199.391349456
199.323721617
199.248579575
199.165088416
199.072320463
198.969244959
198.854716621
198.727462912
198.727462912
198.586069902
198.428966558
198.428966558
198.254407286
198.254407286
198.254407286
198.06045254
198.06045254
198.06045254
198.06045254
198.06045254
197.770258012
197.537292513
196.602725007
193.642150131
187.558453867
180.720183692
173.338814167
172.033812534
165.581202937
154.561146534
147.273476226
135.810583686
130.813718042
127.920511667
124.815048251
118.896034075
115.699107061
112.26903423
110.644199025
116.528864454
96.5169467391
199.985569356
199.986288077
199.984198164
199.984198164
199.982674617
199.980352491
199.980352491
199.980352491
199.975891428
199.974198598
199.974198598
199.971331776
199.971331776
199.971331776
199.971331776
199.968146418
199.968146418
199.96067459
199.9563051
199.951450111
199.951450111
199.946055679
199.946055679
199.946055679
199.940061865
199.940061865
199.933402073
199.926002303
199.926002303
199.917780337
199.917780337
199.908644819
199.908644819
199.898494243
199.898494243
199.898494243
199.887215825
199.887215825
199.887215825
199.87468425
199.87468425
199.860760278
199.860760278
199.845289198
199.845289198
199.845289198
199.828099109
199.828099109
199.80899901
199.64059794
199.556293753
199.556293753
199.506993059
199.45221451
199.391349456
199.248579575
199.165088416
199.072320463
198.969244959
198.854716621
198.727462912
198.727462912
198.586069902
198.428966558
198.254407286
198.254407286
198.06045254
198.06045254
198.06045254
197.844947267
197.844947267
197.844947267
197.844947267
197.84102174
197.809518388
197.728559459
196.470124871
194.425586187
189.64411482
184.455099973
178.555187406
173.809837603
174.657393489
167.455829949
157.707224411
147.953458455
139.825872874
138.806027639
134.55165839
127.710335699
121.930961201
119.120155041
116.971040061
113.706021998
117.774413741
100.207150722
199.985569356
199.986288077
199.986288077
199.984198164
199.982674617
199.980352491
199.980352491
199.980352491
199.975891428
199.974198598
199.971331776
199.971331776
199.971331776
199.971331776
199.968146418
199.968146418
199.964607131
199.9563051
199.9563051
199.951450111
199.951450111
199.946055679
199.946055679
199.940061865
199.940061865
199.933402073
199.933402073
199.926002303
199.917780337
199.917780337
199.908644819
199.908644819
199.898494243
199.898494243
199.898494243
199.887215825
199.887215825
199.87468425
199.87468425
199.87468425
199.860760278
199.860760278
199.845289198
199.845289198
199.828099109
199.828099109
199.828099109
199.80899901
199.787776678
199.556293753
199.556293753
199.506993059
199.45221451
199.323721617
199.248579575
199.165088416
199.072320463
198.854716621
198.727462912
198.586069902
198.428966558
198.254407286
198.06045254
198.06045254
197.689258087
197.717748047
197.844947267
197.79864303
197.410374797
197.490494244
197.508024228
197.509411781
197.484503681
197.431821065
197.319457464
196.970172629
195.19284095
190.409981354
185.841548452
181.604343605
177.434998057
178.822128016
174.266248553
167.080967891
157.983661729
147.679970534
144.662042584
142.829361083
132.119873147
127.749661613
125.746015123
121.803762403
120.140999008
116.867753547
118.727414451
103.086508473
199.98765927
199.986288077
199.986288077
199.986288077
199.98476453
199.982674617
199.980352491
199.980352491
199.975891428
199.974198598
199.971331776
199.971331776
199.971331776
199.971331776
199.968146418
199.968146418
199.96067459
199.9563051
199.951450111
199.951450111
199.946055679
199.946055679
199.940061865
199.940061865
199.933402073
199.933402073
199.926002303
199.917780337
199.917780337
199.908644819
199.908644819
199.898494243
199.898494243
199.898494243
199.887215825
199.887215825
199.87468425
199.87468425
199.860760278
199.860760278
199.860760278
199.845289198
199.845289198
199.828099109
199.828099109
199.80899901
199.80899901
199.787776678
199.600664378
199.556293753
199.506993059
199.45221451
199.323721617
199.248579575
199.072320463
198.969244959
198.727462912
198.290822013
197.844947267
197.605496963
197.339441071
197.339441071
197.339441071
196.978911734
195.262210852
197.231002932
197.150521256
196.341231129
196.672107062
196.959707328
196.763619318
196.837960176
196.740416274
196.509867788
196.109423327
195.439671198
193.984622541
190.415173535
186.455925016
183.400912017
180.224565845
176.605702296
171.798370326
165.864183061
157.295096253
148.483922784
148.230375953
141.198198781
135.344758749
132.255697394
129.3500619
126.673424496
121.483538068
120.317409186
118.669982607
105.661430788
199.98765927
199.986288077
199.986288077
199.986288077
199.98476453
199.98476453
199.980352491
199.978471569
199.974198598
199.974198598
199.971331776
199.971331776
199.971331776
199.968146418
199.968146418
199.964607131
199.96067459
199.9563051
199.951450111
199.951450111
199.946055679
199.946055679
199.940061865
199.933402073
199.933402073
199.926002303
199.926002303
199.917780337
199.908644819
199.908644819
199.898494243
199.898494243
199.898494243
199.887215825
199.887215825
199.87468425
199.87468425
199.860760278
199.860760278
199.845289198
199.845289198
199.845289198
199.828099109
199.828099109
199.80899901
199.80899901
199.787776678
199.64059794
199.556293753
199.506993059
199.391349456
199.323721617
199.165088416
198.969244959
196.794142473
0
0
0
0
0
0
0
0
0
40.0947577416
128.692446364
179.721187158
172.799865427
196.172923582
195.86383563
194.106603088
194.909049829
193.452150165
193.573377322
194.059535701
192.774089758
189.826266842
182.240179998
183.156624463
180.684721371
177.478529584
173.576724444
169.541833315
164.608495407
157.181437414
151.094936925
153.390116092
145.465879414
141.012444708
137.441784097
133.75231331
129.357497062
124.994566623
122.931282857
119.397381296
108.569158114
199.98765927
199.986288077
199.986288077
199.986288077
199.98476453
199.98476453
199.982674617
199.978471569
199.974198598
199.974198598
199.971331776
199.971331776
199.971331776
199.968146418
199.964607131
199.96067459
199.9563051
199.9563051
199.951450111
199.946055679
199.946055679
199.940061865
199.940061865
199.933402073
199.926002303
199.926002303
199.917780337
199.908644819
199.908644819
199.898494243
199.898494243
199.898494243
199.887215825
199.887215825
199.87468425
199.87468425
199.860760278
199.860760278
199.845289198
199.845289198
199.828099109
199.828099109
199.828099109
199.80899901
199.80899901
199.787776678
199.764196308
199.556293753
199.506993059
199.391349456
199.323721617
199.072320463
0
0
0
0
0
0
0
0
0
0
0
0
0
0
0
30.2853189458
83.2005611325
153.952753722
171.312574794
193.923370003
187.872587743
188.82293068
184.796336283
183.112508534
180.699570305
177.896707145
180.407879065
177.749935845
174.735755859
171.078525769
167.57100607
163.483290329
158.377185022
159.064687128
155.656023068
147.722037735
145.478498094
141.852664828
137.617753424
133.547167838
130.29281934
125.064861734
122.621569517
111.5311542
199.98765927
199.986288077
199.986288077
199.986288077
199.98476453
199.98476453
199.982674617
199.978471569
199.974198598
199.974198598
199.971331776
199.971331776
199.968146418
199.968146418
199.964607131
199.96067459
199.9563051
199.951450111
199.951450111
199.946055679
199.940061865
199.940061865
199.933402073
199.926002303
199.926002303
199.917780337
199.908644819
199.908644819
199.898494243
199.898494243
199.887215825
199.887215825
199.87468425
199.87468425
199.860760278
199.860760278
199.860760278
199.845289198
199.845289198
199.828099109
199.828099109
199.80899901
199.80899901
199.787776678
199.787776678
199.764196308
199.556293753
199.506993059
199.391349456
199.248579575
0.425750062851
0
0
0
0
0
0
0
0
0
0
0
0
0
0
0
0
0
0
2.91894425808
47.063351365
121.700346243
144.30668583
182.707472554
173.566065312
179.101757737
177.061879131
174.488912041
172.997457157
175.321970424
171.724960748
168.122072172
165.592326173
162.207871324
158.600460084
160.237030054
155.981790983
150.904646425
148.759361478
144.796119329
140.797551938
136.544942751
134.501132913
128.384183415
125.906048384
114.028914271
199.98765927
199.986288077
199.986288077
199.986288077
199.98476453
199.98476453
199.982674617
199.976778739
199.974198598
199.974198598
199.971331776
199.971331776
199.968146418
199.964607131
199.96067459
199.9563051
199.9563051
199.951450111
199.946055679
199.946055679
199.940061865
199.933402073
199.933402073
199.926002303
199.917780337
199.908644819
199.908644819
199.898494243
199.898494243
199.887215825
199.887215825
199.87468425
199.87468425
199.860760278
199.860760278
199.845289198
199.845289198
199.828099109
199.828099109
199.828099109
199.80899901
199.80899901
199.787776678
199.787776678
199.764196308
199.600664378
199.506993059
199.391349456
199.165088416
0
0
0
0
0
0
0
0
0
0
0
0
0
0
0
0
0
0
0
0
0
0
0
29.2486652881
86.1066975048
143.572155634
172.6309266
167.492872068
170.35663852
169.303265337
167.276340093
163.982106657
166.191383048
163.749474508
160.388593622
157.425679301
160.000870686
155.763550967
155.636219797
147.271808016
144.660310098
142.504100175
138.305055941
136.305467811
131.827664624
127.536913958
115.162881806
199.98765927
199.986288077
199.986288077
199.986288077
199.98476453
199.98476453
199.982674617
199.976778739
199.974198598
199.974198598
199.971331776
199.971331776
199.968146418
199.964607131
199.96067459
199.9563051
199.951450111
199.946055679
199.946055679
199.940061865
199.933402073
199.933402073
199.926002303
199.917780337
199.908644819
199.908644819
199.898494243
199.898494243
199.887215825
199.887215825
199.87468425
199.860760278
199.860760278
199.860760278
199.845289198
199.845289198
199.828099109
199.828099109
199.80899901
199.80899901
199.787776678
199.787776678