/*--------------------------------*- C++ -*----------------------------------*\
| =========                 |                                                 |
| \\      /  F ield         | OpenFOAM: The Open Source CFD Toolbox           |
|  \\    /   O peration     | Version:  v1906                                 |
|   \\  /    A nd           | Web:      www.OpenFOAM.com                      |
|    \\/     M anipulation  |                                                 |
\*---------------------------------------------------------------------------*/
FoamFile
{
    version     2.0;
    format      ascii;
    class       volVectorField;
    location    "577";
    object      U;
}
// * * * * * * * * * * * * * * * * * * * * * * * * * * * * * * * * * * * * * //

dimensions      [0 1 -1 0 0 0 0];


internalField   nonuniform List<vector> 
9216
(
(0.0015582448436 -0.00155972808385 0)
(0.00159796508273 -0.00486065346574 6.54347788793e-28)
(0.00158656274701 -0.0081694553314 1.08228981086e-31)
(0.00156332371005 -0.0114579851244 0)
(0.00153210078759 -0.0146876294833 0)
(0.0014936620648 -0.0178443533445 0)
(0.00144890177606 -0.0209140425633 0)
(0.00139856692966 -0.0238843305794 0)
(0.00134350417578 -0.0267444586182 0)
(0.00128444606549 -0.0294853567418 0)
(0.00122222252558 -0.0320995520453 0)
(0.00115749401333 -0.0345811684707 0)
(0.0010910056404 -0.036925763499 0)
(0.0010232871715 -0.0391302621903 0)
(0.00095495458247 -0.0411927510843 0)
(0.000886380182442 -0.0431123809973 0)
(0.000818038565146 -0.0448891525457 0)
(0.000750146694508 -0.0465238166081 0)
(0.000683048669724 -0.0480176772741 0)
(0.000616826016525 -0.0493725081407 0)
(0.000551715781424 -0.0505903859581 0)
(0.00048769196702 -0.0516736293268 0)
(0.000424911349133 -0.0526246680584 0)
(0.000363268938827 -0.0534460043931 0)
(0.000302866754628 -0.0541401168363 0)
(0.000243547100454 -0.0547094398114 0)
(0.000185379270471 -0.0551562999367 0)
(0.000128175988675 -0.0554829104642 0)
(7.19934586537e-05 -0.0556913376049 0)
(1.66369185665e-05 -0.0557835047816 0)
(-3.78343957183e-05 -0.0557611971521 0)
(-9.1606505132e-05 -0.0556260579359 0)
(-0.000144597191812 -0.0553796267007 0)
(-0.000196957492994 -0.0550233655018 0)
(-0.000248567610982 -0.0545587097453 0)
(-0.000299528830508 -0.0539871017158 0)
(-0.000349670635903 -0.0533100694349 0)
(-0.000399030793606 -0.0525292613731 0)
(-0.000447382448159 -0.0516465437918 0)
(-0.000494696433006 -0.0506640272811 0)
(-0.000540695495823 -0.0495841696262 0)
(-0.000585292702825 -0.0484097805845 0)
(-0.000628178659419 -0.0471441174506 0)
(-0.000669227611545 -0.0457908578465 0)
(-0.000708120805505 -0.0443541822064 0)
(-0.000744709647285 -0.0428387171607 0)
(-0.000778676294999 -0.0412496182291 0)
(-0.000809842244503 -0.0395925083037 0)
(-0.00083786869325 -0.0378735945709 0)
(-0.000862503976041 -0.0360996417163 0)
(-0.000883334998332 -0.0342781577975 0)
(-0.000899979984913 -0.0324174203346 0)
(-0.000911916752203 -0.0305267122839 0)
(-0.000918641150826 -0.0286163373234 0)
(-0.000919600342607 -0.0266977810484 0)
(-0.000914326646977 -0.0247835576236 0)
(-0.000902465191561 -0.0228871219024 0)
(-0.000883845686705 -0.0210224427207 0)
(-0.000858542761143 -0.0192036518974 0)
(-0.000826857680745 -0.0174444525334 0)
(-0.000789391378015 -0.015757641552 0)
(-0.000746946406897 -0.0141545073863 0)
(-0.000700559065829 -0.0126444013626 0)
(-0.000651275780841 -0.0112344467488 0)
(-0.000600202641343 -0.00992951050086 0)
(-0.000548361329307 -0.00873222476364 0)
(-0.000496819402383 -0.00764305314968 0)
(-0.000446506632433 -0.00666035416637 0)
(-0.000398306770527 -0.00578059564212 0)
(-0.000352837994523 -0.0049986542816 0)
(-0.000310588041051 -0.0043082643972 0)
(-0.000271742087634 -0.00370245804917 0)
(-0.000236400036613 -0.00317399463688 0)
(-0.000204455471134 -0.00271565767533 0)
(-0.000175844803657 -0.00232042015876 0)
(-0.00015039628644 -0.00198150104576 0)
(-0.000128008411673 -0.00169239263415 0)
(-0.000108443577559 -0.00144694214739 0)
(-9.15066620838e-05 -0.001239447221 0)
(-7.6886389426e-05 -0.00106474830111 0)
(-6.4345177438e-05 -0.000918252640872 0)
(-5.3545219372e-05 -0.000795965776513 0)
(-4.4160367917e-05 -0.000694580625836 0)
(-3.54250962637e-05 -0.000611287116486 0)
(-2.71974526697e-05 -0.000537988594102 0)
(-2.40578784947e-05 -0.000493912028099 0)
(-2.21890248695e-05 -0.000443999336383 0)
(-1.90074217196e-05 -0.000402949403587 0)
(-1.87425055769e-05 -0.000368574100886 0)
(-1.99625083679e-05 -0.000329886792663 0)
(-1.99169963269e-05 -0.000291421882324 0)
(-2.02510393678e-05 -0.000250569325355 0)
(-2.30647648806e-05 -0.000206096231701 0)
(-2.63641840551e-05 -0.000157260647088 0)
(-3.00093141611e-05 -9.77784039891e-05 0)
(-3.23824980741e-05 -3.15904458728e-05 0)
(0.00487251168726 -0.00161598313879 0)
(0.00513342078786 -0.0051733788242 0)
(0.00509393755743 -0.00869939201715 -6.72844779206e-28)
(0.00501767488412 -0.0122061656895 0)
(0.00491626975674 -0.0156468047569 0)
(0.00479221333415 -0.0190081129296 0)
(0.00464794992624 -0.0222753998431 0)
(0.00448588352221 -0.0254355881754 0)
(0.0043086300599 -0.0284772871309 0)
(0.00411865090425 -0.0313908992042 0)
(0.00391851318347 -0.0341685784373 0)
(0.00371046656083 -0.0368041865428 0)
(0.0034967825542 -0.0392931533077 0)
(0.00327930100398 -0.0416323577776 0)
(0.00305985466089 -0.0438199398376 0)
(0.00283978796125 -0.0458551514682 0)
(0.00262045863817 -0.0477381596718 0)
(0.00240272386333 -0.0494699011267 0)
(0.00218750563742 -0.0510519034433 0)
(0.00197523921449 -0.0524861624322 0)
(0.00176648944013 -0.053774994956 0)
(0.00156135902584 -0.0549209458486 0)
(0.00136014479301 -0.0559266756677 0)
(0.00116270761026 -0.0567948965327 0)
(0.000969160126979 -0.0575282924425 0)
(0.000779203358018 -0.0581294799059 0)
(0.000592838678609 -0.0586009570726 0)
(0.000409678902455 -0.0589450848827 0)
(0.000229678209298 -0.059164061671 0)
(5.24268586894e-05 -0.0592599229535 0)
(-0.000122110159943 -0.0592345341581 0)
(-0.000294305579778 -0.0590896232034 0)
(-0.000464123665401 -0.0588267933702 0)
(-0.000631833558965 -0.0584475549822 0)
(-0.000797274406673 -0.0579533766891 0)
(-0.00096055770019 -0.0573457334294 0)
(-0.00112135172551 -0.0566261773874 0)
(-0.00127956946726 -0.055796396041 0)
(-0.00143468651133 -0.0548582966037 0)
(-0.0015864084703 -0.0538140628336 0)
(-0.00173403449569 -0.0526662389916 0)
(-0.00187709593578 -0.0514177695525 0)
(-0.00201477298333 -0.0500720667436 0)
(-0.0021464894341 -0.0486330194158 0)
(-0.00227138139268 -0.0471050356134 0)
(-0.00238882441826 -0.0454930210926 0)
(-0.00249794569098 -0.0438024100464 0)
(-0.00259805610385 -0.0420391408161 0)
(-0.00268820101978 -0.0402097162617 0)
(-0.00276748500666 -0.0383212280206 0)
(-0.00283468493348 -0.0363814973573 0)
(-0.00288849861793 -0.0343991827107 0)
(-0.00292729544431 -0.0323839958406 0)
(-0.00294937005513 -0.0303468276291 0)
(-0.00295292379043 -0.0282998955552 0)
(-0.00293637011786 -0.0262566790274 0)
(-0.00289851418549 -0.02423176282 0)
(-0.00283877463976 -0.0222404170051 0)
(-0.00275734303319 -0.0202981312105 0)
(-0.0026552121385 -0.0184199981215 0)
(-0.00253428620871 -0.0166201233684 0)
(-0.00239725542257 -0.0149109405039 0)
(-0.002247495132 -0.0133026247371 0)
(-0.00208848432618 -0.0118028012688 0)
(-0.00192373532692 -0.0104166004526 0)
(-0.00175659622437 -0.00914676657678 0)
(-0.00159046010899 -0.00799368924093 0)
(-0.00142842841573 -0.00695542930163 0)
(-0.00127331467345 -0.00602790903926 0)
(-0.00112720290233 -0.00520527410945 0)
(-0.000991574758254 -0.00448042073735 0)
(-0.000867065401311 -0.0038455485955 0)
(-0.000753856418044 -0.00329267142473 0)
(-0.000651628943291 -0.00281396412662 0)
(-0.000560065415713 -0.00240190631122 0)
(-0.000478701066218 -0.00204926638785 0)
(-0.00040714775937 -0.00174907317581 0)
(-0.000344726703869 -0.00149470243575 0)
(-0.000290719159801 -0.00128002921313 0)
(-0.000244191194614 -0.00109953716805 0)
(-0.000204319501788 -0.000948327377658 0)
(-0.000170166313689 -0.00082207526376 0)
(-0.000140886027028 -0.000716900076707 0)
(-0.000115278222204 -0.000629358094297 0)
(-9.27096980081e-05 -0.000550623037972 0)
(-7.85207385354e-05 -0.000484165396376 0)
(-6.7196851864e-05 -0.000433059227915 0)
(-5.73340788947e-05 -0.000393199812468 0)
(-5.51283679755e-05 -0.000353541801178 0)
(-5.7922766618e-05 -0.00032200148675 0)
(-5.94363560345e-05 -0.00028902388574 0)
(-6.25597174147e-05 -0.000246441839332 0)
(-6.89067533933e-05 -0.000201033272007 0)
(-8.52150102758e-05 -0.000159769811477 0)
(-0.000104576699959 -0.000102577878827 0)
(-9.50658225516e-05 -2.83643290728e-05 0)
(0.00824603328074 -0.00163728222979 0)
(0.00869202144651 -0.00523864905792 0)
(0.00861767539315 -0.00880148464685 -6.71898969377e-28)
(0.00848539290494 -0.0123475604609 0)
(0.00831159005512 -0.0158253272348 0)
(0.00809980752322 -0.019220925932 0)
(0.0078538766328 -0.022519221397 0)
(0.00757792763912 -0.025706901252 0)
(0.00727633129456 -0.0287724821306 0)
(0.00695341379878 -0.0317063805095 0)
(0.00661345529825 -0.0345008730526 0)
(0.00626042657964 -0.0371500162581 0)
(0.00589806275452 -0.0396495043199 0)
(0.00552963074628 -0.0419965125508 0)
(0.00515807891041 -0.0441895071347 0)
(0.00478583035965 -0.0462280636776 0)
(0.00441499517355 -0.0481126729845 0)
(0.00404717512992 -0.0498445705152 0)
(0.00368371982546 -0.0514255656868 0)
(0.00332552783936 -0.0528579011388 0)
(0.00297333008644 -0.0541441169892 0)
(0.00262747698066 -0.0552869451062 0)
(0.00228823740762 -0.056289209338 0)
(0.00195556754635 -0.0571537523101 0)
(0.00162941901119 -0.0578833671067 0)
(0.00130948996972 -0.0584807510794 0)
(0.000995539554702 -0.0589484639221 0)
(0.000687125262806 -0.0592889037227 0)
(0.000383922530448 -0.0595042875504 0)
(8.54534508001e-05 -0.0595966469035 0)
(-0.000208588189394 -0.0595678312778 0)
(-0.000498611856113 -0.0594195201009 0)
(-0.000784805486185 -0.0591532491858 0)
(-0.00106740913006 -0.0587704460375 0)
(-0.00134639291943 -0.0582724768161 0)
(-0.00162173081022 -0.0576607019788 0)
(-0.00189309135454 -0.0569365449726 0)
(-0.00216011336457 -0.0561015633612 0)
(-0.00242212013778 -0.0551575308845 0)
(-0.00267840051229 -0.0541065122796 0)
(-0.00292795618604 -0.052950942716 0)
(-0.00316978720771 -0.0516936872057 0)
(-0.00340267404407 -0.0503380969486 0)
(-0.00362545459863 -0.0488880338089 0)
(-0.0038368273454 -0.0473478888438 0)
(-0.00403559002881 -0.0457225670117 0)
(-0.00422043452792 -0.044017478291 0)
(-0.00439010757454 -0.0422385123784 0)
(-0.0045431706391 -0.0403920537657 0)
(-0.00467806546744 -0.0384850172281 0)
(-0.00479286121911 -0.0365249675314 0)
(-0.00488528655046 -0.0345202866201 0)
(-0.00495258912873 -0.032480428023 0)
(-0.00499170340127 -0.0304161662047 0)
(-0.0049994123691 -0.028339818489 0)
(-0.00497277668745 -0.026265282334 0)
(-0.00490956081425 -0.0242078569706 0)
(-0.0048086493682 -0.0221837710293 0)
(-0.00467023917065 -0.0202096145569 0)
(-0.00449602752465 -0.0183016617503 0)
(-0.00428920982615 -0.016475208428 0)
(-0.00405464274364 -0.0147437203627 0)
(-0.00379835114197 -0.0131179200885 0)
(-0.00352652086769 -0.0116055081504 0)
(-0.00324504855721 -0.0102115187753 0)
(-0.00295967212073 -0.00893862404575 0)
(-0.00267617679602 -0.00778706588534 0)
(-0.00240008469253 -0.00675451756895 0)
(-0.00213627232665 -0.00583620620999 0)
(-0.00188845165322 -0.00502535432596 0)
(-0.0016590245245 -0.00431385443707 0)
(-0.00144901223751 -0.00369300280005 0)
(-0.00125840738868 -0.00315415357248 0)
(-0.00108653020752 -0.00268914249788 0)
(-0.00093262718345 -0.00229036054779 0)
(-0.000796029782089 -0.00195053454955 0)
(-0.000676084150311 -0.00166253756603 0)
(-0.000571744955074 -0.00141950237628 0)
(-0.000481647499773 -0.00121511632897 0)
(-0.000404227823747 -0.00104379424142 0)
(-0.000338004729482 -0.000900654202364 0)
(-0.000281547739179 -0.000781430119014 0)
(-0.000233622288727 -0.000682335573019 0)
(-0.000193177863485 -0.000600366066538 0)
(-0.000160068903503 -0.000526379079041 0)
(-0.000136051400509 -0.000465993142128 0)
(-0.000117696048337 -0.000425693322585 0)
(-9.9497321235e-05 -0.00037216306541 0)
(-8.84805113337e-05 -0.000326974563443 0)
(-8.99889366956e-05 -0.000299681353559 0)
(-0.000101526728919 -0.000277710489101 0)
(-0.000103893011791 -0.000222664669822 0)
(-0.000118351547535 -0.000184105670122 0)
(-0.000138570420285 -0.000134698926587 0)
(-0.00015637044686 -8.12189810501e-05 0)
(-0.000152879998296 -2.52625502958e-05 0)
(0.0116849151346 -0.00166365393072 0)
(0.0123217855904 -0.00532122625406 0)
(0.0122145122342 -0.00893671655537 6.71810167581e-28)
(0.0120241389505 -0.0125342244455 0)
(0.0117743105915 -0.0160599761611 0)
(0.0114703252951 -0.0194993200779 0)
(0.0111177474214 -0.0228365284263 0)
(0.0107226295511 -0.0260579484125 0)
(0.0102912987578 -0.0291519727562 0)
(0.00983007462774 -0.0321090775041 0)
(0.00934510660869 -0.0349217582819 0)
(0.00884215782351 -0.0375844109215 0)
(0.00832653242718 -0.0400931610528 0)
(0.00780293650774 -0.0424456688969 0)
(0.00727549344982 -0.0446409149347 0)
(0.00674766935624 -0.0466789880435 0)
(0.00622235498144 -0.0485608769462 0)
(0.00570183043217 -0.0502882804082 0)
(0.00518788638179 -0.0518634320426 0)
(0.00468180325765 -0.0532889498295 0)
(0.00418448909485 -0.0545677030048 0)
(0.00369645582907 -0.0557027028958 0)
(0.00321795972444 -0.0566970091159 0)
(0.00274896646818 -0.0575536558228 0)
(0.00228928825362 -0.0582755898919 0)
(0.00183853633523 -0.0588656249206 0)
(0.00139625431806 -0.0593264042693 0)
(0.000961861284891 -0.0596603767435 0)
(0.000534783688543 -0.0598697800978 0)
(0.000114393628101 -0.0599566350546 0)
(-0.000299857499898 -0.0599227514747 0)
(-0.000708501728512 -0.0597697361827 0)
(-0.00111191933461 -0.0594990223327 0)
(-0.00151040079929 -0.0591119051114 0)
(-0.00190401281537 -0.0586095897274 0)
(-0.00229266336097 -0.0579932522519 0)
(-0.00267597772884 -0.0572641125425 0)
(-0.00305337528521 -0.0564235159272 0)
(-0.00342396797682 -0.0554730230869 0)
(-0.00378665943249 -0.0544145001573 0)
(-0.00414007763529 -0.0532502071529 0)
(-0.00448270169385 -0.0519828726104 0)
(-0.00481282929622 -0.0506157526478 0)
(-0.00512871872477 -0.0491526610445 0)
(-0.00542856782266 -0.0475979734434 0)
(-0.00571063059156 -0.0459565976982 0)
(-0.00597315582317 -0.0442339265586 0)
(-0.00621441540572 -0.042435778496 0)
(-0.00643254529966 -0.0405683628984 0)
(-0.00662544647051 -0.0386382917381 0)
(-0.00679053770359 -0.036652687115 0)
(-0.00692461140863 -0.0346194014296 0)
(-0.00702368448154 -0.0325473694821 0)
(-0.00708310196735 -0.0304470367509 0)
(-0.00709784432285 -0.0283307683562 0)
(-0.00706318151291 -0.0262130486421 0)
(-0.00697544865973 -0.0241103115843 0)
(-0.00683277388337 -0.0220402859316 0)
(-0.00663519377118 -0.0200213005947 0)
(-0.00638508286087 -0.0180714726958 0)
(-0.00608689032864 -0.0162080913352 0)
(-0.00574812394318 -0.0144464407906 0)
(-0.00537833001952 -0.0127980429248 0)
(-0.00498684376649 -0.0112704078289 0)
(-0.00458189274103 -0.00986822672679 0)
(-0.00417153992166 -0.00859413714975 0)
(-0.00376422556531 -0.00744831356031 0)
(-0.00336831558793 -0.00642790487832 0)
(-0.00299118971296 -0.00552701654368 0)
(-0.00263839447309 -0.00473730992048 0)
(-0.00231326753623 -0.00404897886374 0)
(-0.00201694748249 -0.00345180078698 0)
(-0.00174884544234 -0.00293607489384 0)
(-0.0015074419082 -0.00249321654314 0)
(-0.00129132662242 -0.00211570349184 0)
(-0.00109971880056 -0.00179639110299 0)
(-0.000931967895766 -0.00152791918192 0)
(-0.0007866731309 -0.00130294106449 0)
(-0.000661668672301 -0.00111480247225 0)
(-0.000554558218161 -0.000957860885832 0)
(-0.000463140464764 -0.000827342271478 0)
(-0.000385400704503 -0.000719160987919 0)
(-0.000319625893339 -0.000629803879206 0)
(-0.000264641872862 -0.000556718562795 0)
(-0.000218932025979 -0.000487664640197 0)
(-0.000189037351917 -0.000441187081171 0)
(-0.000163819497917 -0.000395385810823 0)
(-0.000141684682551 -0.000344767723378 0)
(-0.000131156563153 -0.000310844798823 0)
(-0.000124189581615 -0.000266837756348 0)
(-0.000131353249336 -0.000230077644866 0)
(-0.000153705724844 -0.000204504153882 0)
(-0.000161543668346 -0.00014948522809 0)
(-0.000182881500825 -0.000104906388986 0)
(-0.000204483204045 -6.394938785e-05 0)
(-0.000204444405956 -2.10666149551e-05 0)
(0.0151859341848 -0.00169895919662 0)
(0.0160135106523 -0.00543279226476 0)
(0.0158710733265 -0.00912136988599 0)
(0.0156190385072 -0.0127890709348 0)
(0.0152885639447 -0.0163799981717 0)
(0.014886949496 -0.0198785067825 0)
(0.0144217874133 -0.023268108613 0)
(0.013901305539 -0.0265347098592 0)
(0.0133340398004 -0.0296665590106 0)
(0.0127284930292 -0.0326542496251 0)
(0.0120928663844 -0.0354906144322 0)
(0.011434821419 -0.0381705548848 0)
(0.0107613330333 -0.0406908219955 0)
(0.0100785704528 -0.0430497716738 0)
(0.00939186545459 -0.0452471100203 0)
(0.00870568962429 -0.0472836452264 0)
(0.0080237042225 -0.0491610541339 0)
(0.00734879514875 -0.0508816723296 0)
(0.00668316529152 -0.0524483090226 0)
(0.00602839150577 -0.0538640895938 0)
(0.0053855289306 -0.055132322805 0)
(0.00475516631933 -0.056256392428 0)
(0.00413752502135 -0.0572396687268 0)
(0.00353250185795 -0.0580854385396 0)
(0.00293975682409 -0.0587968495485 0)
(0.00235874219481 -0.0593768678307 0)
(0.00178878040952 -0.0598282454035 0)
(0.00122908356031 -0.0601534976318 0)
(0.000678826490767 -0.060354888691 0)
(0.000137162752185 -0.0604344249132 0)
(-0.000396701447956 -0.0603938620509 0)
(-0.000923489781685 -0.0602347095986 0)
(-0.00144377855827 -0.0599582619152 0)
(-0.00195797656354 -0.0595656330015 0)
(-0.00246624695615 -0.0590578065907 0)
(-0.00296849019353 -0.0584357018262 0)
(-0.00346427548948 -0.0577002536222 0)
(-0.00395284031632 -0.0568525062961 0)
(-0.00443304859419 -0.0558937179471 0)
(-0.00490342494201 -0.0548254694757 0)
(-0.00536215762978 -0.0536497716594 0)
(-0.0058071804938 -0.0523691593831 0)
(-0.00623622512194 -0.0509867631916 0)
(-0.00664693963308 -0.0495063453221 0)
(-0.00703696013945 -0.0479322927729 0)
(-0.00740401181318 -0.0462695617232 0)
(-0.00774592118396 -0.0445235803147 0)
(-0.0080606005388 -0.0427001257424 0)
(-0.0083458966545 -0.0408052119136 0)
(-0.00859937140018 -0.0388450368227 0)
(-0.00881795748398 -0.0368260570938 0)
(-0.00899761319714 -0.0347552532597 0)
(-0.0091330340193 -0.0326406319949 0)
(-0.00921764080546 -0.0304919319059 0)
(-0.00924400690528 -0.0283213958577 0)
(-0.00920485876477 -0.0261442766706 0)
(-0.00909445791667 -0.023978732473 0)
(-0.00890994521804 -0.0218446941933 0)
(-0.00865086680102 -0.0197629990862 0)
(-0.00832034435711 -0.0177543347793 0)
(-0.00792349871107 -0.0158391310454 0)
(-0.0074714341234 -0.0140359515477 0)
(-0.00697909078559 -0.0123573468273 0)
(-0.00645969764657 -0.0108096989784 0)
(-0.00592318465872 -0.00939677015109 0)
(-0.0053795362049 -0.00812144522283 0)
(-0.00484025121269 -0.00698426905884 0)
(-0.00431736341071 -0.00598185429192 0)
(-0.00382152259131 -0.00510660844676 0)
(-0.00336048628949 -0.00434771169971 0)
(-0.00293849839621 -0.00369264828226 0)
(-0.00255637677952 -0.00312878754217 0)
(-0.00221218898667 -0.00264482516962 0)
(-0.00190266334851 -0.00223177514045 0)
(-0.00162525919283 -0.00188276677086 0)
(-0.00137945654909 -0.00159128620532 0)
(-0.0011653225154 -0.00134958612614 0)
(-0.000981174936898 -0.00114928367079 0)
(-0.000823616664484 -0.000983070346833 0)
(-0.000689034127905 -0.000845325212707 0)
(-0.000574436123706 -0.000731547674664 0)
(-0.000477117748358 -0.000637959172291 0)
(-0.000394758149847 -0.000561599963761 0)
(-0.000325858437974 -0.000499307475904 0)
(-0.000270023129825 -0.00044125538334 0)
(-0.000239189468666 -0.000407274265149 0)
(-0.000213808859121 -0.000365849271652 0)
(-0.000188677470594 -0.000320203480079 0)
(-0.000166280731751 -0.000267900833309 0)
(-0.000163215508797 -0.000234247664047 0)
(-0.000164393751634 -0.000191182901716 0)
(-0.000188222854162 -0.000165025193962 0)
(-0.000215834965774 -0.000130794512493 0)
(-0.000223490000656 -8.3946354334e-05 0)
(-0.000236385901143 -4.91530785351e-05 0)
(-0.000236333462836 -1.63747161646e-05 0)
(0.0187704458262 -0.00174416096505 0)
(0.0197912265555 -0.00557632342065 0)
(0.0196102259555 -0.00935949920096 0)
(0.0192914070643 -0.0131176059957 0)
(0.0188738160172 -0.0167921171637 0)
(0.0183670729053 -0.0203661292222 0)
(0.0177811636245 -0.023822209541 0)
(0.0171268433858 -0.0271457382576 0)
(0.0164151886372 -0.0303248323897 0)
(0.0156571597234 -0.0333503027145 0)
(0.0148632386181 -0.0362154861306 0)
(0.0140431414288 -0.0389160047147 0)
(0.0132056246115 -0.0414494764225 0)
(0.0123583639001 -0.0438152045877 0)
(0.0115079135702 -0.0460138673332 0)
(0.0106597137908 -0.0480472240457 0)
(0.0098181514858 -0.0499178491398 0)
(0.0089866396362 -0.0516288997495 0)
(0.00816772484699 -0.0531839185407 0)
(0.00736319006035 -0.0545866712417 0)
(0.00657416910092 -0.0558410151997 0)
(0.00580124292461 -0.0569507955325 0)
(0.00504454065911 -0.0579197637955 0)
(0.00430381736439 -0.0587515155025 0)
(0.00357853628657 -0.0594494420846 0)
(0.00286792819746 -0.0600166946969 0)
(0.00217105868231 -0.060456156891 0)
(0.00148687564318 -0.0607704250703 0)
(0.000814269653375 -0.0609617955232 0)
(0.000152118362111 -0.0610322571649 0)
(-0.000500651629089 -0.0609834986403 0)
(-0.00114501572212 -0.0608169077014 0)
(-0.00178178322598 -0.0605336031233 0)
(-0.00241154179933 -0.0601344669306 0)
(-0.00303458454451 -0.0596201960046 0)
(-0.00365085515188 -0.0589913724747 0)
(-0.00425988327417 -0.058248553214 0)
(-0.00486074868396 -0.0573923782612 0)
(-0.00545204895803 -0.0564236954444 0)
(-0.00603191019212 -0.0553436952547 0)
(-0.00659801555693 -0.0541540469249 0)
(-0.00714768710997 -0.0528570223161 0)
(-0.00767798945807 -0.0514555918298 0)
(-0.00818587792688 -0.0499534737775 0)
(-0.00866834493051 -0.0483551208573 0)
(-0.00912256569512 -0.0466656313499 0)
(-0.00954597750204 -0.0448905851244 0)
(-0.00993627344176 -0.0430358209132 0)
(-0.01029123841 -0.0411071976964 0)
(-0.0106084173159 -0.0391104133982 0)
(-0.0108845889227 -0.037050986558 0)
(-0.0111151281828 -0.0349345323729 0)
(-0.011293389088 -0.0327674482242 0)
(-0.0114104302592 -0.0305580574684 0)
(-0.011455442185 -0.0283180308022 0)
(-0.0114173265884 -0.0260635407382 0)
(-0.0112871366542 -0.0238154356302 0)
(-0.0110610746783 -0.0215967289719 0)
(-0.0107375211554 -0.0194317304324 0)
(-0.0103209344378 -0.0173441320145 0)
(-0.0098146743428 -0.0153592053043 0)
(-0.00923523648293 -0.0135020542911 0)
(-0.00860753572217 -0.0117863256465 0)
(-0.0079498700915 -0.0102145190151 0)
(-0.007271504436 -0.00878808086883 0)
(-0.00658313590966 -0.00751121769013 0)
(-0.0059001290505 -0.00638615328084 0)
(-0.00523987241415 -0.00540918739522 0)
(-0.00461768838295 -0.00457014925027 0)
(-0.00404415307991 -0.00385429430341 0)
(-0.00352434940669 -0.00324487675169 0)
(-0.00305808461732 -0.00272549767916 0)
(-0.00264074444767 -0.00228236677514 0)
(-0.00226549743901 -0.00190629121774 0)
(-0.00192759463574 -0.0015925004946 0)
(-0.00162785843445 -0.00133645769967 0)
(-0.00136897875359 -0.00112964038257 0)
(-0.00114912572778 -0.000961237615308 0)
(-0.000962498284642 -0.000822663715055 0)
(-0.000803471053 -0.000708682104255 0)
(-0.000668385917383 -0.000615427287184 0)
(-0.000553789589696 -0.000539480261427 0)
(-0.000456676610438 -0.000478413286745 0)
(-0.000375128383392 -0.000427658004173 0)
(-0.000313469108109 -0.000382599478508 0)
(-0.000278574200521 -0.000351896767301 0)
(-0.000245906957079 -0.000309628122295 0)
(-0.000227313790499 -0.000278518547177 0)
(-0.000215314490018 -0.000244398356726 0)
(-0.000212064333627 -0.000210189218233 0)
(-0.000199725657388 -0.000160016486379 0)
(-0.000212499635182 -0.0001257510314 0)
(-0.000247877551177 -0.00010445027935 0)
(-0.000261397914729 -7.18333371876e-05 0)
(-0.000266101852013 -4.07507528786e-05 0)
(-0.000266780145662 -1.35906967021e-05 0)
(0.0224602405899 -0.0018004284766 0)
(0.0236778613546 -0.00575512534707 0)
(0.0234536865596 -0.00965616324893 6.67071698588e-28)
(0.0230612216408 -0.0135265348075 0)
(0.0225479307989 -0.0173043657951 0)
(0.0219261948199 -0.0209711620833 0)
(0.0212088738989 -0.0245083402465 0)
(0.020409721733 -0.0279006870479 0)
(0.0195427869383 -0.0311362449828 0)
(0.0186218488891 -0.0342062020604 0)
(0.0176599551412 -0.0371046352502 0)
(0.0166690730209 -0.0398281715212 0)
(0.0156598611614 -0.0423756022594 0)
(0.014641547427 -0.0447474855509 0)
(0.0136219013899 -0.0469457630604 0)
(0.0126072762855 -0.0489734103269 0)
(0.0116027048657 -0.0508341313802 0)
(0.0106120245006 -0.0525321021232 0)
(0.00963802111334 -0.0540717618048 0)
(0.00868257341522 -0.0554576485846 0)
(0.00774679486032 -0.0566942732126 0)
(0.00683116129664 -0.0577860241569 0)
(0.00593562826971 -0.0587370975795 0)
(0.00505973035875 -0.0595514462001 0)
(0.00420267058298 -0.060232741991 0)
(0.00336339444449 -0.0607843486903 0)
(0.00254065875872 -0.0612093011872 0)
(0.0017330905714 -0.0615102898579 0)
(0.000939247206557 -0.0616896491152 0)
(0.000157672520826 -0.0617493487066 0)
(-0.00061303971832 -0.0616909993022 0)
(-0.00137418059918 -0.0615158443473 0)
(-0.00212685186487 -0.061224791153 0)
(-0.00287188801046 -0.0608184374821 0)
(-0.00360977049307 -0.0602971230986 0)
(-0.00434054526485 -0.0596610036958 0)
(-0.00506374142477 -0.0589101502701 0)
(-0.00577830752746 -0.058044675063 0)
(-0.00648256735915 -0.0570648824967 0)
(-0.00717421478859 -0.055971439066 0)
(-0.0078503506797 -0.0547655515092 0)
(-0.0085075788033 -0.0534491361472 0)
(-0.00914215615224 -0.0520249567902 0)
(-0.00975019988917 -0.0504967034812 0)
(-0.010327924262 -0.0488689831152 0)
(-0.0108718797552 -0.0471471967366 0)
(-0.0113791330026 -0.0453372903487 0)
(-0.011847323741 -0.043445388762 0)
(-0.0122745100455 -0.0414773577053 0)
(-0.0126587290266 -0.03943838905 0)
(-0.0129972180708 -0.0373327694759 0)
(-0.0132853228555 -0.035164054766 0)
(-0.0135152754201 -0.0329359352769 0)
(-0.0136752632584 -0.0306539861109 0)
(-0.0137495896832 -0.0283282931694 0)
(-0.0137210044386 -0.0259759718996 0)
(-0.0135751407048 -0.0236224808027 0)
(-0.0133087033069 -0.0212950785333 0)
(-0.012916947305 -0.0190228579708 0)
(-0.0124090571958 -0.0168314865361 0)
(-0.0117775642215 -0.014753430723 0)
(-0.0110480570054 -0.0128288102426 0)
(-0.0102675639882 -0.0110719781883 0)
(-0.0094609240134 -0.00947366604418 0)
(-0.00862926445023 -0.00803003482771 0)
(-0.00778104951147 -0.00675006918701 0)
(-0.00693755134633 -0.00564100539642 0)
(-0.00612509992644 -0.00469941383776 0)
(-0.00536618467089 -0.00391088953768 0)
(-0.00467505026914 -0.00325437320786 0)
(-0.0040574197381 -0.00270658024772 0)
(-0.00351115759309 -0.00224518286369 0)
(-0.00302677131678 -0.00185223807127 0)
(-0.0025901665379 -0.00151862525348 0)
(-0.00219166055249 -0.0012451277135 0)
(-0.00183618906881 -0.00103267038702 0)
(-0.00153421957314 -0.000870853513232 0)
(-0.00128380547022 -0.00074280326212 0)
(-0.00107348208743 -0.000637415708122 0)
(-0.000893906605986 -0.000551212874818 0)
(-0.000741769678093 -0.000481865948024 0)
(-0.000612892383119 -0.00042624009344 0)
(-0.000503515813407 -0.000382616270258 0)
(-0.000411655215505 -0.00034543707443 0)
(-0.000350405583199 -0.000316929744456 0)
(-0.000312024465475 -0.000291012053375 0)
(-0.000280934469048 -0.000262090559236 0)
(-0.000256531843019 -0.000230413651804 0)
(-0.000248765713659 -0.000204213332098 0)
(-0.000240680843345 -0.000169080082906 0)
(-0.000247300465007 -0.000141663934903 0)
(-0.000243176006736 -0.000102271972672 0)
(-0.000261613894308 -7.85680172289e-05 0)
(-0.000288081702179 -5.9822505659e-05 0)
(-0.000290810341798 -3.4207469731e-05 0)
(-0.0002920439605 -1.14474494258e-05 0)
(0.0262796984787 -0.00186911648412 0)
(0.0276986617293 -0.00597335524629 0)
(0.0274253080489 -0.0100179843044 -6.66969318339e-28)
(0.0269502641111 -0.0140246220479 0)
(0.0263301495188 -0.0179271830855 0)
(0.0255807191093 -0.0217051884374 0)
(0.0247183527595 -0.0253386837735 0)
(0.0237604267392 -0.0288118262618 0)
(0.0227245203725 -0.0321127062142 0)
(0.0216276920888 -0.0352331354429 0)
(0.0204859024867 -0.038168262896 0)
(0.0193136007184 -0.0409160995712 0)
(0.0181234721196 -0.0434770028839 0)
(0.0169263285384 -0.045853165224 0)
(0.0157311161471 -0.0480481393397 0)
(0.0145450096534 -0.0500664214343 0)
(0.013373564919 -0.0519131017854 0)
(0.0122209028768 -0.0535935843533 0)
(0.011089905492 -0.0551133704625 0)
(0.00998240713036 -0.0564778983098 0)
(0.00889937298934 -0.0576924281063 0)
(0.00784105747895 -0.0587619628788 0)
(0.00680714223361 -0.0596911954526 0)
(0.00579685245359 -0.0604844738686 0)
(0.00480905552156 -0.0611457786365 0)
(0.00384234318349 -0.0616787071158 0)
(0.00289510304741 -0.0620864613158 0)
(0.00196558160114 -0.0623718371314 0)
(0.00105194514684 -0.0625372140197 0)
(0.000152340840086 -0.0625845437634 0)
(-0.000735036190297 -0.0625153522394 0)
(-0.0016118668315 -0.0623307203051 0)
(-0.0024796231991 -0.0620313110088 0)
(-0.00333947089419 -0.0616173860489 0)
(-0.00419216202256 -0.061088853762 0)
(-0.00503792363929 -0.0604453439192 0)
(-0.00587634703635 -0.0596863159964 0)
(-0.00670629071046 -0.0588112047197 0)
(-0.00752580869014 -0.0578196032319 0)
(-0.00833212319221 -0.0567114791023 0)
(-0.00912165726659 -0.0554874114656 0)
(-0.00989014637335 -0.0541488283112 0)
(-0.010632837579 -0.0526982134299 0)
(-0.0113447788319 -0.0511392423846 0)
(-0.0120211782532 -0.0494768011898 0)
(-0.0126577940745 -0.047716840507 0)
(-0.0132512810874 -0.0458660294525 0)
(-0.0137993936412 -0.0439311981983 0)
(-0.0143009101705 -0.0419186031003 0)
(-0.0147551321994 -0.0398331214033 0)
(-0.0151608067516 -0.0376775802353 0)
(-0.0155143970036 -0.0354525894811 0)
(-0.0158077875149 -0.0331573883884 0)
(-0.0160259839357 -0.0307923716161 0)
(-0.016146062276 -0.0283637720029 0)
(-0.016140279107 -0.0258890918373 0)
(-0.0159835180834 -0.0234031337484 0)
(-0.0156797847319 -0.0209385347352 0)
(-0.015214055077 -0.0185320823357 0)
(-0.0146158283074 -0.016204746358 0)
(-0.0138350533175 -0.0139982002447 0)
(-0.012914431197 -0.0119920484956 0)
(-0.0119578089548 -0.0101991866698 0)
(-0.0109963570566 -0.00857621219074 0)
(-0.010001292791 -0.00710819807778 0)
(-0.00897281473185 -0.00581949597884 0)
(-0.0079440127062 -0.00473019537116 0)
(-0.00695786103698 -0.00383781285127 0)
(-0.00604828702084 -0.00312009215029 0)
(-0.00523382349872 -0.00254552254625 0)