/*--------------------------------*- C++ -*----------------------------------*\
| =========                 |                                                 |
| \\      /  F ield         | OpenFOAM: The Open Source CFD Toolbox           |
|  \\    /   O peration     | Version:  v1906                                 |
|   \\  /    A nd           | Web:      www.OpenFOAM.com                      |
|    \\/     M anipulation  |                                                 |
\*---------------------------------------------------------------------------*/
FoamFile
{
    version     2.0;
    format      ascii;
    class       volScalarField;
    location    "788";
    object      p;
}
// * * * * * * * * * * * * * * * * * * * * * * * * * * * * * * * * * * * * * //

dimensions      [0 2 -2 0 0 0 0];


internalField   nonuniform List<scalar> 
9216
(
273.530801565
273.610578378
273.775651368
274.027426615
274.364482717
274.785234082
275.287711086
275.86960534
276.528302653
277.260929631
278.064384038
278.935381932
279.870484836
280.866144873
281.91872625
283.0245462
284.179889475
285.381044218
286.62430943
287.906025935
289.222577608
290.57041821
291.946067566
293.346135233
294.767312825
296.206395425
297.660271094
299.125940685
300.600505333
302.08118511
303.56530512
305.050312707
306.53376245
308.013333545
309.486813435
310.952113571
312.407252661
313.85037177
315.279716913
316.693653258
318.090647278
319.469280114
320.828229443
322.166282062
323.482315634
324.775310573
326.044331852
327.288540263
328.507174451
329.699561642
330.865100068
332.003269226
333.11361282
334.195748633
335.24935208
336.274165734
337.269983555
338.236660096
339.174095439
340.082244064
340.96110051
341.810707861
342.631144117
343.422530246
344.185017227
344.918793608
345.624073183
346.301101997
346.950146618
347.571500544
348.165473049
348.732394961
349.272608078
349.786470298
350.274345637
350.736608702
351.173635355
351.58580655
351.973499686
352.337091846
352.676951903
352.993443191
353.286916432
353.557711897
353.806153209
354.03254907
354.237188049
354.420339988
354.582252053
354.723150345
354.843238478
354.942702272
355.021718652
355.080493875
355.119683305
355.136464983
273.451067536
273.531206603
273.696623772
273.94940098
274.287893282
274.710439374
275.215025984
275.79930628
276.460631361
277.196091069
278.002549751
278.876688337
279.815038134
280.814019991
281.869972924
282.979188053
284.137930649
285.342468102
286.589085365
287.874107305
289.193908355
290.544930198
291.923686803
293.32677856
294.750893878
296.19282077
297.649445987
299.117764815
300.594878445
302.078002446
303.564462766
305.051703467
306.537281716
308.018873917
309.494270093
310.96137969
312.418224897
313.862945517
315.293791667
316.709127883
318.107425251
319.48726482
320.847329283
322.186405779
323.503377269
324.797224842
326.067018923
327.311921196
328.531175799
329.724110973
330.890130367
332.028714525
333.139412415
334.221842832
335.275686237
336.300686138
337.296641291
338.263407088
339.200888155
340.109039728
340.987860646
341.837394702
342.65772399
343.448970182
344.211288184
344.944867293
345.649925109
346.326708507
346.975487777
347.596557358
348.190230179
348.756838135
349.29672661
349.810254693
350.297789899
350.759708129
351.196388627
351.608213711
351.995564003
352.35881798
352.698347526
353.014517352
353.30768093
353.578179827
353.826340086
354.052471533
354.256864669
354.439789998
354.601495479
354.742205841
354.862120232
354.961410011
355.040211845
355.09860381
355.136495168
355.153251099
273.285232247
273.366519642
273.533469872
273.788552193
274.130090094
274.556377023
275.0653389
275.654560563
276.321322154
277.062640213
277.875307619
278.755934971
279.700988334
280.706826701
281.769734169
282.885951181
284.051699808
285.263208235
286.516729297
287.808558833
289.135048472
290.492619035
291.877768883
293.28708365
294.717241391
296.165019741
297.627298846
299.101066747
300.583420758
302.071571564
303.562843429
305.054677357
306.544630363
308.030377558
309.509710623
310.980539205
312.440888535
313.8889
315.322828048
316.741040037
318.142012499
319.524330349
320.886682625
322.227861159
323.546755919
324.842353274
326.113731074
327.360056634
328.580581697
329.774640261
330.941643554
332.081077815
333.192499386
334.275532553
335.329864827
336.355244909
337.351478216
338.318425004
339.255996157
340.164151464
341.042895668
341.892276864
342.712382766
343.503339188
344.265306473
344.998477993
345.703076691
346.379353542
347.027584152
347.648067145
348.241120787
348.807081262
349.346299314
349.859138416
350.345971434
350.807178704
351.243144747
351.654256292
352.040899085
352.4034559
352.742303495
353.057810664
353.350335393
353.620223006
353.867803578
354.093390214
354.297276761
354.47973623
354.641018758
354.78134999
354.900928784
354.999924447
355.07847176
355.136658769
355.174444142
355.192394976
273.030267306
273.112841847
273.282189841
273.540877068
273.887165868
274.319273874
274.835033268
275.431923811
276.107114513
276.857508145
277.679785267
278.57044773
279.525859416
280.542284484
281.615921406
282.742933777
283.919476563
285.141719271
286.405864911
287.708166544
289.044940313
290.412576865
291.807550009
293.226424519
294.665861781
296.122625179
297.593583759
299.075716009
300.566112182
302.061976931
303.560630639
305.059511077
306.556173912
308.048293629
309.533663103
311.01019366
312.475913922
313.928969073
315.367618955
316.79023661
318.195305699
319.581418413
320.94727233
322.291667804
323.613504389
324.911777847
326.185576283
327.434076905
328.656542015
329.852315657
331.020819591
332.161549961
333.274073354
334.358023587
335.413097945
336.439054142
337.435706798
338.402924616
339.340627099
340.248781947
341.127402008
341.97654285
342.796299903
343.586806158
344.348229433
345.08077014
345.784658604
346.460152832
347.107535838
347.727113367
348.319211181
348.884172709
349.422356293
349.934132751
350.419882594
350.879993534
351.314857687
351.724869075
352.110420861
352.471902884
352.809698994
353.124184671
353.415724505
353.684669963
353.931357064
354.156104333
354.359210698
354.540953625
354.701587194
354.841340267
354.96041445
355.058981878
355.137182605
355.195120248
355.23278541
355.250961343
272.685091494
272.769315086
272.941952996
273.205594667
273.558409091
273.998503057
274.523576721
275.130963201
275.817676582
276.580461867
277.415844065
278.320175484
279.289679757
280.320491998
281.408694361
282.550347112
283.741515025
284.978289693
286.256807846
287.573266469
288.923934898
290.305164705
291.713397482
293.145171259
294.597125545
296.066005595
297.548665773
299.0420725
300.543306533
302.049564997
303.558162859
305.066534048
306.572232254
308.072931542
309.566426101
311.050629937
312.523575975
313.983414945
315.428413719
316.856953438
318.267527158
319.658737326
321.029292832
322.378005966
323.703789019
325.005650854
326.282693215
327.534107067
328.759168752
329.957236247
331.127745311
332.270205788
333.384197858
334.469368496
335.525427916
336.552146256
337.549350271
338.51692028
339.454787119
340.362929346
341.241370437
342.090176202
342.909452177
343.699341181
344.460020829
345.191701165
345.894622212
346.569051604
347.21528212
347.833629256
348.424428695
348.988033798
349.524812989
350.035147165
350.519427017
350.978050374
351.411419495
351.8199384
352.204010176
352.564034352
352.900404277
353.2135046
353.503708779
353.771376716
354.016852454
354.240462014
354.442511304
354.623284162
354.783040475
354.922014367
355.040412441
355.138412219
355.216160841
355.273773485
355.311255399
355.329432928
272.247921898
272.334237401
272.511111554
272.781140912
273.142365356
273.592740776
274.129790708
274.750653872
275.452140126
276.230787796
277.082919207
278.004693163
278.992152926
280.041268959
281.147975971
282.308204375
283.517906353
284.773077126
286.069771931
287.404119453
288.772332271
290.170715001
291.595670562
293.043705146
294.511432105
295.995575177
297.492971115
299.000571982
300.515447043
302.034784438
303.555892491
305.076200614
306.593260098
308.104744699
309.608450276
311.1022944
312.584315453
314.052671372
315.505637941
316.941606765
318.359082821
319.756681757
321.133126829
322.487245652
323.817966682
325.124315574
326.405411366
327.660462615
328.888763444
330.089689611
331.262694564
332.40730559
333.523120003
334.609801482
335.667076491
336.694730886
337.692606623
338.660598665
339.598651997
340.506758819
341.384955841
342.233321711
343.051974523
343.841069407
344.600796154
345.331376881
346.033063682
346.706136287
347.350899662
347.967681588
348.556830172
349.118711318
349.653706121
350.162208235
350.644621172
351.101355593
351.532826554
351.939450768
352.321643862
352.679817671
353.014377563
353.325719838
353.614229186
353.880276245
354.124215251
354.346381806
354.547090759
354.726634211
354.885279644
355.023268179
355.140812998
355.238098083
355.31527744
355.372473962
355.409699481
355.427783085
271.716481023
271.805387614
271.987526753
272.265495173
272.63716386
273.100291421
273.652172594
274.28969609
275.00941098
275.807593582
276.680311249
277.62348136
278.632924077
279.704408074
280.833689061
282.016541368
283.24878318
284.526296194
285.845040588
287.201066164
288.590520512
290.009654908
291.454828606
292.922511996
294.409289052
295.911859333
297.427039726
298.951766022
300.483094383
302.018202657
303.554391495
305.089085144
306.619832225
308.144306274
309.660305297
311.165751329
312.658689498
314.137286642
315.599829526
317.044722635
318.47048561
319.87575033
321.259257694
322.619854138
323.956487937
325.268205333
326.554146534
327.813541624
329.045706444
330.250038457
331.426012665
332.573177585
333.69115134
334.779617871
335.838323303
336.867072479
337.865725666
338.834195444
339.772443761
340.680479165
341.55835417
342.406162765
343.224038011
344.012149726
344.770702216
345.499932018
346.200105652
346.87151733
347.514486633
348.129356112
348.71648883
349.276265828
349.80908351
350.315350971
350.795487262
351.249918611
351.679075613
352.083390407
352.463293863
352.819212786
353.151567166
353.460767487
353.747212112
354.01128476
354.253352093
354.473761416
354.672838511
354.850885608
355.008179511
355.144969876
355.261477705
355.357894229
355.434380092
355.491063953
355.527961821
355.545896473
271.087945923
271.180001392
271.368541283
271.656155254
272.040497926
272.519075235
273.088890713
273.746517253
274.488177087
275.309821049
276.207202697
277.175945309
278.21160016
279.309695494
280.465776249
281.675435246
282.934336786
284.238233886
285.582980323
286.964538711
288.378985607
289.822514585
291.291437981
292.782187912
294.291316944
295.815498728
297.351528703
298.896324976
300.446929301
302.000508155
303.554353542
305.105884012
306.652645329
308.192310886
309.722681372
311.241684263
312.747372806
314.23792456
315.711639459
317.166937463
318.60235578
320.01654575
321.408269385
322.776395647
324.119896493
325.437842756
326.729399883
327.993823616
329.230455625
330.438719172
331.618114814
332.768216217
333.888666084
334.979172255
336.039503974
337.069488369
338.069007125
339.037993384
339.97642883
340.884340992
341.761800689
342.60891965
343.425848225
344.212773202
344.969915648
345.697528785
346.395895838
347.065327841
347.706161374
348.318756223
348.90349294
349.460770307
349.991002709
350.494617415
350.972051784
351.423750417
351.850162259
352.251737691
352.628925608
352.982170534
353.311909763
353.618570575
353.902567524
354.164299826
354.404148861
354.622475804
354.819619396
354.99589387
355.151587039
355.286958576
355.402238505
355.497626011
355.573288599
355.629360387
355.665861256
355.683606056
270.358885899
270.454718249
270.650931778
270.950096882
271.349593541
271.846606807
272.437772979
273.119269857
273.886914605
274.7362588
275.662675428
276.6614354
277.727772042
278.856933211
280.044221641
281.285024736
282.574835414
283.909265677
285.284054622
286.695072362
288.138321212
289.609935174
291.106178596
292.623444597
294.158253712
295.707252966
297.267215526
298.835040848
300.40775529
301.982512982
303.556596499
305.127418083
306.692520414
308.249576905
309.796391505
311.330898143
312.851159684
314.355366333
315.841833572
317.308999591
318.755422309
320.17977597
321.580847428
322.957532112
324.30882979
325.633840122
326.931758126
328.201869547
329.443546227
330.656241501
331.839485674
332.992881614
334.116100513
335.208877824
336.271009442
337.302348091
338.302799987
339.272321734
340.210917474
341.118636254
341.995569601
342.841849264
343.657645088
344.443162975
345.198642899
345.924356916
346.620607155
347.28772373
347.926062572
348.536003133
349.117945986
349.672310283
350.199531101
350.700056667
351.174345498
351.62286345
352.04608073
352.444468861
352.818497657
353.168632201
353.495329877
353.799037467
354.08018832
354.339199645
354.57646991
354.792376385
354.987272844
355.161487421
355.315320654
355.449043712
355.562896835
355.657088137
355.731792531
355.787149803
355.823184571
355.840703365
269.5251868
269.625512465
269.830846938
270.143722493
270.561170572
271.079969794
271.69629483
272.405831544
273.20389817
274.085560484
275.04573457
276.079274454
277.181043174
278.345967531
279.569077859
280.845534917
282.170646267
283.539874575
284.94884003
286.393318855
287.869239453
289.372677495
290.899850829
292.447114919
294.010959173
295.588004399
297.175001357
298.768830335
300.366501476
301.965155675
303.562065223
305.154635405
306.74040555
308.317049218
309.882374187
311.434321938
312.970966531
314.490512918
315.991294679
317.471771245
318.930524618
320.366255689
321.777780157
323.164024178
324.524019741
325.856899889
327.161893813
328.438321893
329.685590733
330.903188265
332.09067893
333.247699043
334.373952322
335.469205675
336.533285229
337.566072661
338.567501809
339.537555605
340.476263272
341.383697815
342.259973729
343.105244922
343.919702772
344.7035743
345.457120369
346.180633897
346.874438001
347.538884054
348.174349619
348.781236229
349.359967007
349.910984131
350.43474613
350.931725053
351.402403506
351.847271595
352.266823802
352.661555825
353.031961394
353.378529121
353.701739382
354.002061272
354.279949652
354.535842313
354.770157263
354.983290176
355.175611989
355.347466694
355.499169302
355.631004019
355.743222624
355.836043126
355.909648688
355.964185574
355.999683881
356.016941369
268.581955888
268.687603667
268.90372943
269.232797627
269.671396394
270.215788506
270.861568198
271.603809519
272.437218049
273.356271489
274.355341556
275.428794149
276.571066898
277.77672525
279.040499697
280.357307413
281.722261823
283.130673394
284.578044582
286.060061287
287.572582758
289.111631277
290.673382715
292.254158514
293.850419548
295.45876188
297.075914392
298.698737931
300.324225674
301.949504248
303.57183467
305.188614413
306.797379081
308.395802391
309.981696527
311.553011641
313.107834706
314.644387678
316.161025035
317.656230708
319.128614489
320.57690796
321.999960045
323.396732215
324.76629347
326.107815122
327.420565494
328.703904547
329.957278552
331.18021482
332.372316582
333.53325804
334.662779664
335.760683765
336.826830384
337.861133519
338.863557722
339.834115036
340.772862299
341.679898758
342.555363977
343.399435961
344.212329476
344.994294454
345.74561446
346.466605126
347.157612507
347.819011309
348.451202946
349.054613404
349.629690898
350.176903318
350.696735483
351.189686211
351.656265245
352.096990056
352.51238256
352.90296579
353.269260549
353.61178208
353.931036789
354.227519032
354.501708018
354.75406482
354.985029547
355.195018662
355.384422486
355.553602889
355.702891182
355.8325862
355.942952614
356.034219565
356.106579396
356.160185519
356.195074656
356.212035065
267.52340038
267.63534388
267.864217015
268.212372362
268.67583048
269.250196594
269.930332874
270.710551634
271.584806879
272.546866907
273.590458932
274.709382819
275.897594043
277.149258713
278.45878503
279.820836283
281.230330315
282.682429952
284.172528038
285.696229995
287.249335996
288.82782431
290.427836759
292.045666946
293.67775147
295.320664147
296.971112909
298.62593895
300.282117473
301.936759474
303.587113305
305.230567494
306.864653261
308.487044356
310.095557861
311.688153787
313.262933852
314.818139499
316.35214916
317.863474868
319.350758256
320.812766064
322.248385197
323.656617476
325.0365741
326.387469965
327.708617861
328.999422669
330.25937557
331.488048382
332.685088048
333.85021136
334.983199955
336.083895655
337.152196175
338.188051255
339.191459201
340.162463887
341.101152148
342.007651589
342.882128712
343.724787333
344.535867195
345.315642701
346.06442169
346.782544162
347.47038089
348.128331859
348.756824471
349.356311509
349.927268823
350.470192763
350.98559735
351.474011243
351.935974507
352.372035247
352.782746134
353.168660874
353.53033066
353.868300642
354.18310645
354.475270803
354.745300228
354.993681921
355.220880758
355.427336492
355.613461133
355.779636539
355.926212206
356.053503288
356.161788827
356.251310254
356.322270164
356.374830162
356.409034307
356.425660434
266.342671596
266.46207179
266.706017933
267.076684326
267.569359258
268.17880404
268.89895318
269.723168014
270.644480363
271.655805018
272.750110768
273.920547748
275.160533237
276.463801369
277.824423965
279.236809961
280.695690411
282.19609483
283.733323467
285.302918764
286.900638322
288.522430812
290.164415782
291.8228678
293.494205091
295.174982433
296.861887849
298.551742272
300.24150136
301.92825834
303.609246862
305.28184498
306.943578431
308.592120613
310.225293942
311.841069498
313.437565754
315.013046359
316.565917104
318.0947221
319.598139327
321.074975588
322.524161044
323.94474336
325.335881627
326.696840093
328.026981837
329.325762411
330.592723577
331.827487147
333.029749051
334.199273652
335.335888413
336.439478944
337.509984513
338.547394034
339.551742596
340.523108491
341.461610774
342.367407278
343.240693053
344.081699124
344.890691497
345.667970289
346.413868901
347.1287531
347.813019954
348.467096516
349.091438222
349.686526956
350.252868776
350.790991297
351.301440779
351.784778932
352.241579504
352.672424692
353.07790144
353.458597666
353.815098474
354.147982386
354.457817642
354.745158593
355.010542225
355.254484831
355.477478864
355.679989981
355.862454294
356.025275843
356.168824297
356.293432872
356.399396481
356.486970244
356.556368075
356.60776051
356.641200089
356.657453118
265.031662997
265.15992674
265.421752942
265.819039694
266.346120484
266.996664802
267.763424362
268.63856897
269.613998008
270.6816021
271.833463629
273.061995909
274.360026655
275.720835538
277.138157018
278.606159431
280.119409694
281.672831064
283.261659251
284.881400491
286.527793718
288.196778161
289.884466953
291.587127094
293.301165666
295.023121947
296.749664583
298.477592724
300.203839769
301.925477598
303.639722375
305.343939697
307.03564779
308.712519123
310.372381768
312.013219174
313.633168761
315.230519442
316.803708155
318.351315562
319.872060991
321.364796793
322.828502192
324.262276791
325.665333806
327.036993175
328.376674583
329.683890534
330.958239489
332.199399193
333.407120217
334.581219833
335.721576256
336.828123374
337.900845997
338.939775709
339.94498733
340.916596039
341.854755093
342.759654145
343.631518044
344.47060605
345.277211314
346.051660532
346.794313587
347.505563107
348.18583377
348.835581315
349.455291145
350.04547652
350.606676301
351.139452286
351.644386146
352.122076045
352.573132983
352.998176942
353.397832893
353.772726747
354.12348127
354.450712051
354.755023534
355.037005175
355.297227735
355.536239753
355.754564209
355.952695412
356.1310961
356.2901948
356.430383407
356.552015039
356.655402105
356.740814679
356.808479171
356.858576162
356.89116734
356.907006273
263.580746284
263.719606009
264.002754582
264.431666923
264.999417331
265.698249179
266.519395683
267.453527523
268.491152445
269.622936294
270.839934486
272.133737795
273.496544336
274.921174044
276.401042898
277.930112306
279.502826175
281.114044629
282.758980357
284.433140961
286.132279059
287.852350797
289.589483022
291.339949072
293.100153015
294.86662172
296.636003681
298.405072852
300.170735664
301.930037751
303.680173382
305.418492292
307.142502978
308.849875956
310.538445188
312.206207879
313.851322884
315.472107819
317.06703508
318.634726896
320.173949596
321.68360719
323.162734465
324.610489688
326.026147101
327.409089268
328.758799421
330.074853836
331.356914359
332.604721087
333.818085365
334.996883089
336.1410485
337.250568492
338.325477568
339.365853498
340.371813738
341.343512621
342.281139327
343.184916535
344.055099717
344.8919769
345.695868779
346.46712899
347.206144389
347.913335157
348.589154607
349.234088551
349.848654177
350.433398364
350.988895441
351.515744424
352.014565771
352.485997733
352.930692401
353.349311509
353.742522107
354.110992151
354.4553861
354.776360559
355.074560018
355.35061273
355.605126757
355.838686211
356.051847719
356.245137126
356.419046451
356.574031104
356.710507376
356.828850174
356.929391029
357.012416485
357.078166586
357.126832708
357.158486868
357.173868537
261.978421982
262.130048593
262.438809981
262.905537917
263.521623441
264.277428047
265.162220881
266.164778814
267.273899279
268.478790905
269.769333592
271.136219968
272.571000248
274.066057054
275.614535764
277.210251883
278.847591311
280.521414028
282.226967023
283.959809103
285.715748062
287.490789889
289.281099459
291.082972426
292.89281805
294.707152412
296.522600446
298.335904457
300.143936125
301.943707668
303.732384974
305.507297284
307.265940525
309.005981892
310.72526139
312.421791588
314.093755627
315.739503804
317.357548883
318.9465604
320.505358053
322.032904419
323.528297098
324.990760534
326.419637607
327.814381169
329.174545589
330.499778405
331.789812112
333.044456187
334.263589383
335.44715244
336.595141277
337.70760083
338.784619622
339.826325192
340.832880431
341.804480892
342.741353019
343.643753275
344.511968012
345.346313961
346.147139115
346.914823817
347.649781813
348.352461069
349.023344166
349.662948137
350.271823632
350.850553381
351.399749934
351.920052752
352.412124697
352.876648052
353.314320162
353.725848832
354.111947569
354.473330773
354.810708935
355.124783925
355.416244391
355.685761331
355.933983857
356.161535188
356.369008889
356.556965388
356.725928762
356.876383824
357.00877349
357.123496448
357.220905098
357.301303796
357.364947464
357.412039443
357.442662731
357.457541276
260.210850889
260.378014388
260.71782966
261.230149777
261.904083296
262.727480932
263.687052584
264.769174203
265.96054407
267.24865078
268.622052327
270.070492474
271.584893144
273.15726461
274.780570873
276.448579013
278.155712064
279.89691642
281.667548566
283.463281491
285.28002919
287.11388696
288.961085984
290.817961606
292.680935498
294.546511457
296.411283063
298.271949637
300.125335887
301.968409735
303.798300316
305.612310351
307.407919551
309.182790154
310.934768476
312.661884368
314.36234868
316.034549017
317.677044214
319.288557665
320.867969731
322.414309344
323.926745101
325.404575987
326.847221984
328.254214659
329.625187874
330.959868604
332.258067982
333.519672518
334.744635667
335.93296977
337.084738578
338.200050462
339.279052533
340.321925741
341.328881126
342.300157225
343.236018667
344.136755845
345.002685562
345.834152405
346.631530638
347.395226302
348.125679257
348.823364885
349.488795231
350.122519384
350.725123001
351.297226897
351.839484747
352.352579931
352.837221678
353.29414062
353.724083942
354.127810246
354.506084294
354.859671702
355.189333704
355.495822016
355.779873866
356.042207222
356.283516247
356.50446702
356.705693534
356.887794004
357.051327483
357.196810809
357.324715867
357.435467158
357.529439673
357.606957196
357.66829071
357.713656271
357.743149104
357.757476037
258.261215017
258.447521145
258.825417508
259.393261466
260.13701706
261.041148019
262.089006045
263.263916113
264.550009421
265.932769634
267.399307907
268.93841765
270.540474168
272.197243804
273.901655629
275.647573146
277.429588159
279.24284682
281.082909147
282.945638456
284.827115089
286.723569349
288.63133054
290.546791744
292.466391705
294.386615135
296.304009298
298.215211869
300.116981427
302.006226427
303.880028933
305.735657287
307.570570955
309.382425577
311.169074275
312.928566694
314.659145544
316.359241271
318.02746539
319.662602751
321.263602697
322.829569424
324.359751737
325.85353255
327.310418321
328.730028642
330.112086007
331.456405819
332.762886567
334.031500243
335.262283002
336.45532625
337.610768295
338.72878683
339.809592399
340.853423124
341.86054077
342.831228301
343.765788873
344.664546231
345.527846292
346.356059689
347.149584909
347.908851715
348.634324428
349.326504754
349.985933835
350.613193316
351.208905251
351.773730843
352.308367997
352.813547848
353.290030387
353.738599425
354.160057073
354.555217976
354.924903417
355.269935461
355.591131198
355.889297152
356.165223891
356.419680887
356.653411632
356.867129058
357.061511279
357.237197675
357.394785334
357.534825855
357.6578225
357.764227701
357.854440891
357.928806669
357.987613368
358.031090976
358.059347592
358.073071251
256.108830557
256.319075513
256.744309964
257.380581035
258.209449044
259.210759254
260.363431193
261.646911193
263.042213641
264.532531018
266.10345867
267.742926003
269.440941116
271.189246665
272.98096041
274.810246367
276.672038996
278.561825629
280.475481803
282.409148693
284.359140906
286.321874961
288.293813436
290.271425178
292.251166306
294.229487001
296.202862057
298.167837368
300.121077217
302.059409891
303.979857269
305.879645006
307.756208514
309.607195418
311.430466646
313.224094976
314.986360239
316.715742313
318.410913164
320.070727858
321.694214358
323.280562276
324.829111108
326.339338208
327.810846932
329.243355102
330.636683872
331.990746859
333.305539512
334.581128587
335.817641835
337.015258003
338.174197459
339.294713668
340.377085884
341.421613288
342.428610843
343.398406943
344.331342935
345.227774378
346.088073855
346.912634963
347.701877101
348.456250538
349.176241303
349.862375421
350.51522211
351.135395655
351.723555783
352.280406481
352.80669334
353.303199558
353.77074089
354.210159778
354.622319008
355.00809511
355.368371732
355.704033126
356.015957817
356.305012506
356.572046245
356.817884876
357.043325796
357.249133042
357.436032761
357.604709059
357.755800258
357.889895558
358.007532101
358.109192395
358.195302112
358.266228333
358.322277944
358.363695594
358.390603561
358.403669218
253.727889587
253.96861157
254.453641506
255.175407436
256.109195928
257.228494953
258.5063522
259.917295987
261.43860349
263.050931177
264.73840421
266.488322343
268.290654801
270.137470203
272.022399168
273.940181202
275.886312433
277.8567887
279.847926416
281.856239155
283.878348581
285.91091344
287.950568632
289.993877095
292.037306064
294.077242476
296.110044825
298.13211944
300.139996342
302.130395191
304.100262292
306.046775091
307.967342137
309.859602149
311.721425419
313.5509125
315.346387107
317.106386541
318.829652205
320.515119597
322.161906416
323.769299432
325.336740754
326.863814022
328.350230996
329.795818911
331.200508434
332.564322077
333.887362733
335.169802227
336.411869819
337.613840944
338.776026455
339.898762859
340.982403909
342.027313993
343.033863593
344.002427055
344.933382694
345.82711517
346.684019818
347.504508543
348.289016682
349.038010235
349.751992791
350.431511562
351.077162006
351.689590691
352.269496171
352.817627853
353.334782932
353.821801678
354.279561388
354.708969436
355.110955818
355.486465544
355.83645112
356.161865297
356.463654115
356.742750285
357.000066877
357.236491344
357.45287988
357.650052163
357.828786516
357.989815516
358.133822055
358.261435882
358.373230561
358.46972089
358.551360672
358.618540868
358.671588205
358.710763219
358.736202996
358.748552281
251.085631875
251.365996086
251.927985325
252.758248011
253.822982524
255.086866137
256.515164118
258.076212069
259.742897523
261.493217139
263.31008306
265.180639327
267.095365481
269.047182542
271.030683901
273.041538456
275.076065253
277.13095301
279.203087458
281.28944741
283.387034546
285.492810422
287.603628295
289.716166502
291.826888658
293.932069312
296.027879032
298.110509589
300.17629689
302.221817313
304.243928709
306.239760069
308.20669359
310.142358467
312.044636233
313.911661773
315.741811845
317.533690698
319.286119439
320.998125768
322.668930169
324.297930153
325.884684192
327.428895531
328.930397026
330.389137384
331.805168467
333.178633142
334.509753233
335.798817049
337.046166581
338.252184578
339.41728208
340.541886935
341.626433959
342.671357223
343.67708497
344.6440374
345.572627507
346.463264804
347.316361633
348.132341472
348.911648528
349.654757737
350.362184336
351.034492176
351.67230015
352.276286234
352.847188931
353.385806055
353.892991061
354.369647228
354.81672026
355.235189833
355.626060705
355.990353832
356.329097822
356.643320861
356.934043127
357.202269635
357.448983455
357.675139272
357.881657329
358.069417775
358.239255503
358.391955488
358.52824867
358.648808365
358.754247183
358.845114394
358.921893736
358.985001713
359.034786049
359.071523833
359.095368289
359.106939334
248.139610322
248.472894807
249.136114745
250.106475542
251.336807366
252.779555852
254.389719763
256.127938678
257.962113083
259.867716795
261.827073951
263.828023881
265.862424287
267.924807862
270.011328395
272.119016163
274.245302479
276.387750849
278.543928348
280.711355296
282.88747917
285.069631243
287.254944779
289.440246848
291.621972632
293.796203806
295.958805804
298.105635458
300.232748613
302.33653866
304.413771166
306.461542497
308.477214746
310.458405002
312.403006448
314.309198339
316.175423634
318.000364698
319.782933224
321.522262764
323.217692011
324.868745226
326.475113188
328.03663387
329.553275019
331.025119652
332.452353043
333.835250596
335.174165497
336.469515319
337.721767562
338.931424659
340.099009154
341.225049984
342.310070617
343.354579859
344.359065873
345.323993935
346.249808057
347.136936442
347.985800287
348.796825266
349.570454638
350.3071629
351.007468761
351.67194641
352.301234173
352.896040011
353.457143538
353.985394588
354.481708549
354.947059002
355.382468362
355.788997398
356.167734429
356.519784871
356.846261491
357.148275505
357.426928388
357.683304245
357.918462569
358.133431332
358.329200453