/*--------------------------------*- C++ -*----------------------------------*\
| =========                 |                                                 |
| \\      /  F ield         | OpenFOAM: The Open Source CFD Toolbox           |
|  \\    /   O peration     | Version:  v1906                                 |
|   \\  /    A nd           | Web:      www.OpenFOAM.com                      |
|    \\/     M anipulation  |                                                 |
\*---------------------------------------------------------------------------*/
FoamFile
{
    version     2.0;
    format      ascii;
    class       volVectorField;
    location    "788";
    object      U;
}
// * * * * * * * * * * * * * * * * * * * * * * * * * * * * * * * * * * * * * //

dimensions      [0 1 -1 0 0 0 0];


internalField   nonuniform List<vector> 
9216
(
(0.00270999471585 -0.00271233527132 0)
(0.00285728401906 -0.00875303707547 1.1715956174e-27)
(0.00284911698469 -0.0148877790596 1.84098129357e-31)
(0.00281183562204 -0.0210228964431 0)
(0.00276006878013 -0.0270552076856 0)
(0.00269529768501 -0.0329604344536 0)
(0.002619184194 -0.0387127450545 0)
(0.0025330988059 -0.0442891486422 0)
(0.00243831302792 -0.0496694619711 0)
(0.00233613102829 -0.0548362673904 0)
(0.0022277832943 -0.059774907454 0)
(0.00211451132764 -0.0644733936489 0)
(0.00199743359707 -0.0689223107935 0)
(0.0018776480859 -0.0731146359254 0)
(0.00175609504283 -0.0770455656843 0)
(0.00163368221382 -0.0807122877908 0)
(0.00151114689175 -0.0841137785732 0)
(0.0013891998516 -0.0872505715509 0)
(0.00126838535801 -0.0901245627219 0)
(0.00114923802074 -0.0927388059177 0)
(0.00103213890158 -0.0950973476133 0)
(0.000917480050367 -0.0972050628589 0)
(0.000805515784388 -0.0990675264401 0)
(0.000696530705575 -0.100690890372 0)
(0.000590686176182 -0.102081788733 0)
(0.000488189021994 -0.103247250602 0)
(0.000389134317263 -0.104194630635 0)
(0.000293672974702 -0.104931548282 0)
(0.00020185267394 -0.105465835988 0)
(0.000113784540374 -0.105805498067 0)
(2.94865383645e-05 -0.105958656411 0)
(-5.09754711424e-05 -0.105933589177 0)
(-0.000127640454755 -0.105738534247 0)
(-0.000200462674777 -0.105381759849 0)
(-0.000269482618529 -0.104871555286 0)
(-0.000334681833894 -0.104216177766 0)
(-0.000396131107742 -0.103423822631 0)
(-0.000453839353153 -0.102502602911 0)
(-0.000507899463953 -0.101460516092 0)
(-0.000558343265681 -0.100305429179 0)
(-0.000605282060031 -0.0990450485461 0)
(-0.00064876713785 -0.0976869094988 0)
(-0.000688924392579 -0.0962383495437 0)
(-0.00072582070972 -0.0947065025636 0)
(-0.000759592470544 -0.093098276258 0)
(-0.000790318021701 -0.0914203511484 0)
(-0.000818139980068 -0.0896791623841 0)
(-0.000843143962928 -0.0878809033113 0)
(-0.000865474772945 -0.0860315117628 0)
(-0.000885221408022 -0.084136677833 0)
(-0.000902527227031 -0.0822018341808 0)
(-0.000917481233357 -0.0802321672028 0)
(-0.000930222431278 -0.0782326108238 0)
(-0.000940837247472 -0.0762078602252 0)
(-0.00094945827315 -0.0741623681378 0)
(-0.000956167675402 -0.0721003599744 0)
(-0.000961090576235 -0.0700258317156 0)
(-0.00096430420457 -0.067942565417 0)
(-0.000965926111401 -0.0658541275487 0)
(-0.000966028814949 -0.0637638837878 0)
(-0.000964723063567 -0.0616749969767 0)
(-0.000962077659801 -0.0595904404679 0)
(-0.000958197912982 -0.0575129949168 0)
(-0.000953150361066 -0.0554452596404 0)
(-0.00094703655297 -0.053389647957 0)
(-0.000939922372238 -0.0513483965186 0)
(-0.000931907230449 -0.0493235591019 0)
(-0.00092305777372 -0.0473170141247 0)
(-0.00091347257435 -0.0453304572617 0)
(-0.000903220034133 -0.04336540775 0)
(-0.000892398620757 -0.0414232002824 0)
(-0.000881078882436 -0.0395049907803 0)
(-0.00086935928331 -0.0376117482562 0)
(-0.000857312289516 -0.0357442608563 0)
(-0.000845035821584 -0.0339031282482 0)
(-0.000832603456656 -0.0320887685822 0)
(-0.000820111511527 -0.0303014119745 0)
(-0.000807633429175 -0.0285411089573 0)
(-0.000795262465539 -0.0268077253811 0)
(-0.000783070372136 -0.0251009526952 0)
(-0.000771145636686 -0.0234203045483 0)
(-0.000759556554932 -0.02176512918 0)
(-0.000748384903363 -0.0201346078744 0)
(-0.000737693442232 -0.018527769793 0)
(-0.000727554695249 -0.0169434928239 0)
(-0.000718022544581 -0.0153805220658 0)
(-0.000709154787292 -0.0138374755361 0)
(-0.000700986115932 -0.0123128722027 0)
(-0.000693536858611 -0.0108051570091 0)
(-0.000686767401366 -0.00931277471379 0)
(-0.000680518127674 -0.00783430218967 0)
(-0.000674299183052 -0.00636883989658 0)
(-0.000666751450798 -0.00491709705144 0)
(-0.000651856411324 -0.00349054847048 0)
(-0.000624876280292 -0.00200668391555 0)
(-0.000832281726169 -0.000832030567885 0)
(0.00877329206917 -0.00288736890223 0)
(0.0097007993602 -0.0097708463941 0)
(0.00967836729762 -0.0166415114412 -1.23031136421e-27)
(0.00954891179278 -0.0235175522609 0)
(0.00936975006222 -0.0302690732955 0)
(0.00914826675264 -0.0368743119348 0)
(0.00888882602701 -0.043305839935 0)
(0.00859567962661 -0.0495384051313 0)
(0.00827309078315 -0.0555495964304 0)
(0.0079254271993 -0.0613200607415 0)
(0.00755692686418 -0.0668335437498 0)
(0.00717176549436 -0.0720768208773 0)
(0.00677380882743 -0.0770395693885 0)
(0.00636673185651 -0.0817141715942 0)
(0.00595379108559 -0.0860954953733 0)
(0.00553800098795 -0.0901806417394 0)
(0.0051219257413 -0.0939686965864 0)
(0.00470790073392 -0.0974604765709 0)
(0.00429783432192 -0.100658296099 0)
(0.00389345803929 -0.103565745173 0)
(0.00349612821033 -0.106187495219 0)
(0.00310709043835 -0.108529123178 0)
(0.00272727406395 -0.110596962649 0)
(0.00235756034103 -0.112397974243 0)
(0.00199856660354 -0.113939637439 0)
(0.00165091182751 -0.115229859101 0)
(0.00131499096842 -0.116276896123 0)
(0.000991234880939 -0.117089291094 0)
(0.000679877689449 -0.117675814714 0)
(0.000381210900575 -0.11804541669 0)
(9.53498530468e-05 -0.118207186337 0)
(-0.00017753847395 -0.11817025743 0)
(-0.000437466668391 -0.117943906924 0)
(-0.000684358931162 -0.117537441785 0)
(-0.000918298179984 -0.116960132363 0)
(-0.00113929992862 -0.116221211763 0)
(-0.00134753656168 -0.115329839528 0)
(-0.00154310913771 -0.114295077865 0)
(-0.00172626627819 -0.113125860448 0)
(-0.00189718380198 -0.111830970651 0)
(-0.00205617538731 -0.110419013531 0)
(-0.00220348006866 -0.108898398182 0)
(-0.0023394639056 -0.10727731406 0)
(-0.00246441592969 -0.105563718134 0)
(-0.00257874064879 -0.103765316224 0)
(-0.00268276291157 -0.101889555234 0)
(-0.00277691124392 -0.0999436097538 0)
(-0.00286153205494 -0.0979343793145 0)
(-0.00293706403781 -0.09586848014 0)
(-0.0030038619117 -0.0937522470098 0)
(-0.00306236214884 -0.0915917296614 0)
(-0.00311291637888 -0.089392698532 0)
(-0.00315594883486 -0.0871606450185 0)
(-0.00319179933762 -0.0849007901035 0)
(-0.00322087280551 -0.0826180874136 0)
(-0.00324349167019 -0.0803172335587 0)
(-0.00326003782764 -0.0780026728 0)
(-0.00327081414039 -0.0756786078663 0)
(-0.00327617907817 -0.07334900501 0)
(-0.00327641689842 -0.0710176041484 0)
(-0.00327186518218 -0.0686879232425 0)
(-0.00326279313212 -0.0663632668428 0)
(-0.00324952205891 -0.0640467289952 0)
(-0.00323231124144 -0.0617411996327 0)
(-0.003211471391 -0.0594493656164 0)
(-0.00318725748503 -0.0571737148406 0)
(-0.00315997515401 -0.054916535422 0)
(-0.0031298800306 -0.0526799178022 0)
(-0.00309727704891 -0.0504657524842 0)
(-0.00306242594341 -0.0482757307448 0)
(-0.00302563344224 -0.0461113415641 0)
(-0.00298716475441 -0.0439738717481 0)
(-0.00294732871293 -0.041864402825 0)
(-0.00290639520979 -0.0397838114211 0)
(-0.00286467333887 -0.0377327668595 0)
(-0.00282243490336 -0.0357117325374 0)
(-0.0027799856387 -0.0337209648486 0)
(-0.00273759497047 -0.0317605161456 0)
(-0.00269556034408 -0.0298302354101 0)
(-0.00265414347258 -0.0279297731784 0)
(-0.00261362775791 -0.0260585842197 0)
(-0.00257426120714 -0.0242159346478 0)
(-0.002536306764 -0.022400906733 0)
(-0.00249999190743 -0.0206124083496 0)
(-0.00246555126143 -0.018849180064 0)
(-0.00243318206141 -0.0171098071115 0)
(-0.00240307647875 -0.0153927287864 0)
(-0.00237537802109 -0.0136962522933 0)
(-0.00235019138551 -0.012018560773 0)
(-0.00232751154176 -0.010357713938 0)
(-0.0023071420089 -0.00871159881508 0)
(-0.00228843401567 -0.0070777377727 0)
(-0.00226963437943 -0.00545245846543 0)
(-0.00224557502673 -0.00382795602749 0)
(-0.00218694437937 -0.00218196992557 0)
(-0.00200541437244 -0.000622757268191 0)
(0.0150191348925 -0.00293324548514 0)
(0.0166298190557 -0.0099316454978 0)
(0.0165690843329 -0.0168925713093 -1.22827214416e-27)
(0.0163380755894 -0.0238692651367 0)
(0.016026327577 -0.0307177733423 0)
(0.0156436243393 -0.0374148254516 0)
(0.0151964558433 -0.0439319528383 0)
(0.0146917738636 -0.0502433536627 0)
(0.0141368857462 -0.0563262907182 0)
(0.0135392665355 -0.062161276304 0)
(0.0129062901265 -0.0677320834381 0)
(0.0122451059998 -0.0730256593909 0)
(0.0115624331487 -0.0780319640422 0)
(0.0108645205426 -0.0827437487937 0)
(0.0101570120135 -0.0871563031699 0)
(0.0094449853612 -0.0912671809145 0)
(0.00873287577196 -0.0950759256146 0)
(0.00802457220915 -0.0985838029688 0)
(0.00732337682304 -0.101793551824 0)
(0.00663213302047 -0.104709156568 0)
(0.00595319882519 -0.107335646054 0)
(0.00528858500334 -0.109678918353 0)
(0.00463992640006 -0.111745591339 0)
(0.00400861571175 -0.113542877011 0)
(0.00339576415642 -0.115078476375 0)
(0.00280232366498 -0.116360492823 0)
(0.00222903453065 -0.117397359128 0)
(0.00167653423806 -0.118197777193 0)
(0.0011452938451 -0.118770665107 0)
(0.000635714556462 -0.119125112093 0)
(0.000148054728163 -0.119270338682 0)
(-0.000317473298305 -0.119215656714 0)
(-0.00076077912022 -0.118970435671 0)
(-0.00118182168033 -0.118544070312 0)
(-0.00158067727919 -0.117945943936 0)
(-0.00195745806123 -0.117185398998 0)
(-0.00231238384559 -0.116271703883 0)
(-0.00264570721611 -0.115214025031 0)
(-0.00295777962168 -0.114021397577 0)
(-0.00324897877883 -0.11270270038 0)
(-0.00351977006335 -0.111266630262 0)
(-0.00377063670956 -0.109721681154 0)
(-0.00400213660537 -0.10807612289 0)
(-0.00421483567427 -0.106337985238 0)
(-0.00440936040452 -0.104515041938 0)
(-0.00458633482557 -0.102614800021 0)
(-0.00474642923484 -0.100644489273 0)
(-0.00489030115891 -0.0986110568112 0)
(-0.00501864080688 -0.0965211618408 0)
(-0.00513211631597 -0.0943811751101 0)
(-0.00523141646042 -0.0921971783791 0)
(-0.00531720039457 -0.0899749679992 0)
(-0.00539013812443 -0.0877200582678 0)
(-0.00545086483684 -0.085437688134 0)
(-0.00550001956279 -0.0831328272815 0)
(-0.00553820404998 -0.0808101847244 0)
(-0.00556601992962 -0.0784742163766 0)
(-0.00558403191069 -0.0761291342485 0)
(-0.00559280358769 -0.0737789141766 0)
(-0.00559286455644 -0.0714273043754 0)
(-0.00558474481789 -0.0690778322168 0)
(-0.00556894523986 -0.066733811158 0)
(-0.00554597034182 -0.0643983457121 0)
(-0.00551630142625 -0.0620743361347 0)
(-0.0054804274327 -0.059764481212 0)
(-0.00543882004126 -0.0574712805709 0)
(-0.00539196226657 -0.0551970353218 0)
(-0.00534032492934 -0.0529438482867 0)
(-0.00528439273972 -0.05071362299 0)
(-0.00522464169647 -0.0485080624686 0)
(-0.00516156253597 -0.0463286673356 0)
(-0.00509563883533 -0.044176734016 0)
(-0.0050273678558 -0.042053352766 0)
(-0.00495723932361 -0.0399594062226 0)
(-0.00488575381255 -0.0378955681751 0)
(-0.00481340233919 -0.0358623031972 0)
(-0.00474068250232 -0.0338598668481 0)
(-0.00466807911303 -0.0318883069699 0)
(-0.00459607830916 -0.0299474657485 0)
(-0.00452514946282 -0.0280369830235 0)
(-0.00445575743395 -0.0261563004515 0)
(-0.00438834592772 -0.0243046669703 0)
(-0.00432334789264 -0.0224811450747 0)
(-0.00426117030035 -0.0206846183556 0)
(-0.00420220230919 -0.0189137996471 0)
(-0.00414680083757 -0.0171672400319 0)
(-0.00409529502486 -0.0154433374291 0)
(-0.00404797026722 -0.0137403438541 0)
(-0.00400506506608 -0.0120563667395 0)
(-0.00396674921033 -0.0103893565551 0)
(-0.00393311437533 -0.00873706207381 0)
(-0.0039041823584 -0.00709690857854 0)
(-0.00387999426739 -0.00546566464051 0)
(-0.00386039612816 -0.00383777185156 0)
(-0.00382905839221 -0.00222795536978 0)
(-0.00348179611915 -0.000646023097085 0)
(0.0214128101061 -0.00297859185775 0)
(0.02372738638 -0.0100820837746 0)
(0.0236376368443 -0.0171385630881 1.22770175702e-27)
(0.0233030241176 -0.024211525211 0)
(0.0228523275411 -0.0311509508343 0)
(0.0223000030686 -0.0379320772497 0)
(0.0216554905196 -0.044525257313 0)
(0.0209288851896 -0.0509039849584 0)
(0.0201308411361 -0.0570451697599 0)
(0.0192722193088 -0.0629292709996 0)
(0.0183637419499 -0.0685402594487 0)
(0.0174157355465 -0.0738654844616 0)
(0.0164379020752 -0.078895461084 0)
(0.0154391877382 -0.0836236013166 0)
(0.0144276732825 -0.0880459142275 0)
(0.013410554471 -0.0921606936882 0)
(0.01239412587 -0.0959682108969 0)
(0.0113838386998 -0.0994704229658 0)
(0.0103843407228 -0.102670706417 0)
(0.00939957339656 -0.105573619978 0)
(0.00843283331175 -0.108184698801 0)
(0.00748687806323 -0.110510279763 0)
(0.00656398484306 -0.112557355719 0)
(0.00566604575167 -0.114333455989 0)
(0.00479461046833 -0.115846548834 0)
(0.00395096240665 -0.117104962671 0)
(0.00313614173653 -0.118117321351 0)
(0.00235100160219 -0.118892490918 0)
(0.00159621386581 -0.119439533709 0)
(0.000872309075746 -0.119767668628 0)
(0.000179669681152 -0.119886232742 0)
(-0.000481437115586 -0.119804659068 0)
(-0.00111086997222 -0.119532412149 0)
(-0.00170859767861 -0.119078984157 0)
(-0.00227470883458 -0.118453853706 0)
(-0.00280938917209 -0.117666454079 0)
(-0.00331293465937 -0.116726141503 0)
(-0.00378573059778 -0.115642165454 0)
(-0.0042282618308 -0.114423639535 0)
(-0.00464109147757 -0.113079514914 0)
(-0.00502486828412 -0.111618554893 0)
(-0.00538030518345 -0.110049312596 0)
(-0.00570818413104 -0.108380110313 0)
(-0.00600933498441 -0.106619022325 0)
(-0.0062846384292 -0.104773859715 0)
(-0.00653500575839 -0.102852158764 0)
(-0.00676138057901 -0.100861171451 0)
(-0.00696472010487 -0.0988078594258 0)
(-0.00714599634592 -0.0966988899938 0)
(-0.00730617943622 -0.0945406352478 0)
(-0.00744623894736 -0.0923391729489 0)
(-0.00756712971128 -0.0901002900627 0)
(-0.00766979382823 -0.0878294876151 0)
(-0.00775514929507 -0.0855319875514 0)
(-0.00782409313682 -0.0832127403709 0)
(-0.00787749300399 -0.0808764340161 0)
(-0.00791619167092 -0.0785275029098 0)
(-0.00794100150706 -0.0761701374543 0)
(-0.00795271031937 -0.073808293066 0)
(-0.00795207835312 -0.0714456989447 0)
(-0.00793984518479 -0.069085865857 0)
(-0.00791672862736 -0.0667320930779 0)
(-0.00788343213489 -0.0643874740243 0)
(-0.00784064482843 -0.0620549007114 0)
(-0.00778904874731 -0.059737066819 0)
(-0.007729319146 -0.0574364695107 0)
(-0.00766213092925 -0.0551554100418 0)
(-0.00758815848999 -0.0528959933056 0)
(-0.00750808081675 -0.0506601265474 0)
(-0.00742258034785 -0.0484495173803 0)
(-0.00733234647015 -0.0462656714712 0)
(-0.00723807316136 -0.0441098899864 0)
(-0.00714046086219 -0.0419832672233 0)
(-0.00704021293189 -0.039886688449 0)
(-0.0069380360858 -0.037820828382 0)
(-0.00683463590122 -0.03578615025 0)
(-0.00673071614608 -0.0337829058289 0)
(-0.00662697366141 -0.0318111363077 0)
(-0.00652409693782 -0.0298706743342 0)
(-0.00642276071931 -0.0279611470133 0)
(-0.0063236241359 -0.0260819801512 0)
(-0.00622732528639 -0.0242324034533 0)
(-0.00613447910223 -0.0224114568915 0)
(-0.00604567201537 -0.0206179978722 0)
(-0.00596145950901 -0.0188507092696 0)
(-0.00588236073364 -0.0171081076733 0)
(-0.00580885549119 -0.015388551427 0)
(-0.00574137882228 -0.0136902468902 0)
(-0.00568031859472 -0.012011250909 0)
(-0.00562601525635 -0.0103494656244 0)
(-0.00557877657852 -0.00870262329875 0)
(-0.00553892625925 -0.00706825179192 0)
(-0.00550686809915 -0.00544363008388 0)
(-0.0054820810328 -0.00382439116677 0)
(-0.00543839340901 -0.00223266930558 0)
(-0.00489063479402 -0.000655210405264 0)
(0.0279133280461 -0.00303813884173 0)
(0.0309336824195 -0.0102798870671 0)
(0.0308123089215 -0.0174689217928 0)
(0.030368756811 -0.02467127717 0)
(0.0297718295984 -0.0317320796652 0)
(0.0290411094286 -0.0386248554552 0)
(0.0281894715489 -0.0453185249465 0)
(0.027230594945 -0.0517856673481 0)
(0.0261788552337 -0.0580027491571 0)
(0.0250488332665 -0.0639502062853 0)
(0.0238548615102 -0.0696123404315 0)
(0.0226106596094 -0.0749771146252 0)
(0.0213290512296 -0.0800358656335 0)
(0.0200217780359 -0.0847829637406 0)
(0.0186993868326 -0.0892154474838 0)
(0.0173711967344 -0.0933326562055 0)
(0.0160453145809 -0.0971358781675 0)
(0.0147287032109 -0.10062802664 0)
(0.0134272698202 -0.103813351521 0)
(0.0121459815354 -0.106697190107 0)
(0.0108889784025 -0.109285757214 0)
(0.00965969518035 -0.111585972715 0)
(0.00846096636384 -0.113605322621 0)
(0.00729512976941 -0.115351749283 0)
(0.00616410710182 -0.116833565386 0)
(0.00506947955301 -0.118059386943 0)
(0.00401254005959 -0.119038080204 0)
(0.0029943415701 -0.119778718651 0)
(0.00201572524148 -0.120290546288 0)
(0.00107734781918 -0.120582944998 0)
(0.000179693604547 -0.120665400164 0)
(-0.000676912344667 -0.120547490251 0)
(-0.00149229288957 -0.120238806624 0)
(-0.00226642099295 -0.119748974072 0)
(-0.00299941287548 -0.11908759546 0)
(-0.00369152127783 -0.118264223811 0)
(-0.0043431334002 -0.117288330286 0)
(-0.00495476226988 -0.116169273369 0)
(-0.00552704235646 -0.114916269131 0)
(-0.00606071906202 -0.113538363401 0)
(-0.00655664170847 -0.112044405811 0)
(-0.0070157513728 -0.110443026432 0)
(-0.00743907178582 -0.108742614869 0)
(-0.00782769621688 -0.10695130239 0)
(-0.00818277712143 -0.105076946843 0)
(-0.00850551293396 -0.103127120771 0)
(-0.00879713737922 -0.101109102367 0)
(-0.00905890702492 -0.0990298695478 0)
(-0.00929209112254 -0.0968960967312 0)
(-0.00949796069102 -0.094714154427 0)
(-0.00967777967357 -0.0924901111868 0)
(-0.00983279622084 -0.0902297378949 0)
(-0.00996423583099 -0.0879385139131 0)
(-0.0100732953586 -0.085621634929 0)
(-0.0101611386409 -0.0832840219929 0)
(-0.0102288935442 -0.0809303315002 0)
(-0.0102776503127 -0.0785649656199 0)
(-0.0103084616557 -0.076192082856 0)
(-0.0103223437095 -0.0738156082909 0)
(-0.0103202787936 -0.0714392432093 0)
(-0.0103032184886 -0.0690664737655 0)
(-0.0102720883216 -0.0667005784434 0)
(-0.0102277921388 -0.064344634132 0)
(-0.0101712177227 -0.0620015206768 0)
(-0.0101032414534 -0.0596739239242 0)
(-0.010024733783 -0.0573643372313 0)
(-0.00993656320756 -0.0550750616353 0)
(-0.0098396006577 -0.0528082047685 0)
(-0.00973472201634 -0.0505656788514 0)
(-0.00962281078541 -0.0483491979067 0)
(-0.00950475873396 -0.0461602745989 0)
(-0.00938146658134 -0.0440002168537 0)
(-0.00925384273136 -0.0418701246802 0)
(-0.00912280206941 -0.0397708872945 0)
(-0.00898926304759 -0.0377031809332 0)
(-0.00885414495132 -0.0356674673835 0)
(-0.0087183637823 -0.0336639935554 0)
(-0.00858282847231 -0.0316927920321 0)
(-0.0084484360648 -0.0297536828492 0)
(-0.00831606735609 -0.027846276365 0)
(-0.00818658182424 -0.0259699774015 0)
(-0.00806081309312 -0.0241239904442 0)
(-0.00793956394677 -0.0223073260036 0)
(-0.00782360190218 -0.0205188078445 0)
(-0.00771365455727 -0.0187570810845 0)
(-0.00761040556933 -0.0170206206364 0)
(-0.00751449085074 -0.0153077397735 0)
(-0.007426496138 -0.0136165979998 0)
(-0.007346956799 -0.0119452075657 0)
(-0.00727636333148 -0.0102914385294 0)
(-0.00721517793574 -0.00865302759361 0)
(-0.00716386804872 -0.00702758744865 0)
(-0.00712287426779 -0.00541264677007 0)
(-0.00709088943772 -0.00380417802885 0)
(-0.00703238902478 -0.00222543156182 0)
(-0.00631020977137 -0.000655075722793 0)
(0.0345585958319 -0.00311359154593 0)
(0.0382956920615 -0.0105330986915 0)
(0.0381380841031 -0.0178942010324 0)
(0.0375775725478 -0.0252633053183 0)
(0.0368240423537 -0.0324798384541 0)
(0.0359027007719 -0.0395152323471 0)
(0.0348304188299 -0.0463366678857 0)
(0.0336250187181 -0.0529156228126 0)
(0.0323051104027 -0.0592280751371 0)
(0.0308894448283 -0.0652545252573 0)
(0.029396329154 -0.0709798047506 0)
(0.027843157654 -0.0763927715299 0)
(0.0262460647218 -0.081485918443 0)
(0.0246197009039 -0.0862549342354 0)
(0.0229771165229 -0.09069825046 0)
(0.0213297399631 -0.0948166009366 0)
(0.0196874268221 -0.0986126131648 0)
(0.018058564177 -0.102090443963 0)
(0.0164502071099 -0.105255465658 0)
(0.0148682356098 -0.108114004248 0)
(0.0133175143933 -0.110673127392 0)
(0.0118020497404 -0.112940477675 0)
(0.0103251319326 -0.114924145066 0)
(0.00888946275783 -0.116632571856 0)
(0.00749726166506 -0.118074483118 0)
(0.00615035389778 -0.119258836231 0)
(0.00485023770147 -0.120194783489 0)
(0.00359813615818 -0.120891642912 0)
(0.00239503278176 -0.121358873227 0)
(0.00124169704098 -0.12160605014 0)
(0.000138700883027 -0.121642838396 0)
(-0.000913578015807 -0.12147899421 0)
(-0.0019149340046 -0.121124264092 0)
(-0.00286534581688 -0.120588438766 0)
(-0.00376496529476 -0.11988127659 0)
(-0.00461411445713 -0.119012482001 0)
(-0.00541328042153 -0.117991671697 0)
(-0.00616310822363 -0.116828342605 0)
(-0.00686439268326 -0.115531840883 0)
(-0.00751806811691 -0.114111332723 0)
(-0.00812519700397 -0.112575777276 0)
(-0.00868695705707 -0.110933902241 0)
(-0.00920462751138 -0.109194182261 0)
(-0.00967957457984 -0.107364820501 0)
(-0.010113236506 -0.105453733359 0)
(-0.0105071085594 -0.103468538533 0)
(-0.0108627280136 -0.101416546276 0)
(-0.0111816597936 -0.0993047539004 0)
(-0.0114654824511 -0.0971398432911 0)
(-0.0117157754524 -0.0949281813583 0)
(-0.0119341071 -0.0926758231113 0)
(-0.0121220243361 -0.0903885171854 0)
(-0.0122810434337 -0.0880717134155 0)
(-0.0124126430248 -0.0857305721897 0)
(-0.0125182581855 -0.0833699751136 0)
(-0.01259927715 -0.0809945366305 0)
(-0.0126570390918 -0.0786086160903 0)
(-0.0126928345866 -0.0762163298715 0)
(-0.0127079069339 -0.073821563076 0)
(-0.0127034559391 -0.0714279804221 0)
(-0.0126806421103 -0.0690390359508 0)
(-0.0126405928284 -0.0666579812687 0)
(-0.0125844083052 -0.0642878721065 0)
(-0.01251316886 -0.0619315730708 0)
(-0.0124279412853 -0.0595917605619 0)
(-0.0123297858349 -0.0572709239089 0)
(-0.0122197616749 -0.0549713648884 0)
(-0.0120989323734 -0.0526951958227 0)
(-0.0119683694206 -0.0504443365632 0)
(-0.0118291554093 -0.0482205106433 0)
(-0.0116823850819 -0.0460252409748 0)
(-0.0115291659096 -0.0438598453845 0)
(-0.0113706166305 -0.0417254323556 0)
(-0.0112078654037 -0.0396228972214 0)
(-0.0110420462105 -0.0375529191118 0)
(-0.0108742950932 -0.035515958814 0)
(-0.0107057450278 -0.0335122577541 0)
(-0.0105375208984 -0.0315418381642 0)
(-0.010370733509 -0.0296045045528 0)
(-0.0102064739386 -0.0276998464531 0)
(-0.0100458072934 -0.0258272424872 0)
(-0.00988976698459 -0.0239858656526 0)
(-0.00973934870778 -0.0221746897959 0)
(-0.00959550508964 -0.0203924971161 0)
(-0.00945914033691 -0.0186378866027 0)
(-0.00933110577804 -0.0169092831324 0)
(-0.00921219595164 -0.0152049470976 0)
(-0.00910314635763 -0.0135229842822 0)
(-0.00900463333466 -0.011861356282 0)
(-0.00891727802466 -0.010217892428 0)
(-0.00884165585425 -0.0085903086921 0)
(-0.008778306841 -0.00697622992961 0)
(-0.00872762629502 -0.00537323339509 0)
(-0.00868760736891 -0.00377728023738 0)
(-0.00861408510747 -0.00221139760188 0)
(-0.00772475275987 -0.000651634379966 0)
(0.0413856782441 -0.00320705217018 0)
(0.0458554062648 -0.0108474299905 0)
(0.0456551253643 -0.0184227194606 1.21813020013e-27)
(0.0449667966039 -0.025998729873 0)
(0.0440428641364 -0.0334077438555 0)
(0.0429148315696 -0.0406185617556 0)
(0.0416042816984 -0.0475962560363 0)
(0.0401339016432 -0.0543110291783 0)
(0.038527205625 -0.0607383827517 0)
(0.0368076957554 -0.0668590534372 0)
(0.0349981213001 -0.0726586994919 0)
(0.0331198982451 -0.0781274566991 0)
(0.031192698407 -0.0832594055409 0)
(0.0292342008641 -0.0880520003563 0)
(0.0272599858094 -0.0925055018272 0)
(0.0252835457742 -0.0966224440043 0)
(0.0233163853381 -0.100407156444 0)
(0.0213681825571 -0.103865352922 0)
(0.0194469868075 -0.107003790418 0)
(0.0175594330938 -0.109829996593 0)
(0.0157109559343 -0.112352059973 0)
(0.0139059914794 -0.114578474871 0)
(0.0121481591311 -0.116518031795 0)
(0.0104404184033 -0.118179743936 0)
(0.00878519841347 -0.119572800534 0)
(0.00718450064829 -0.120706538814 0)
(0.0056399764293 -0.121590427197 0)
(0.00415298258542 -0.122234053907 0)
(0.00272461879922 -0.122647116557 0)
(0.00135575084713 -0.122839408356 0)
(4.70290922079e-05 -0.122820802 0)
(-0.00120112373245 -0.122601256489 0)
(-0.00238847939181 -0.122190705362 0)
(-0.00351502378214 -0.1215991356 0)
(-0.00458094985679 -0.120836493446 0)
(-0.00558665394108 -0.11991266722 0)
(-0.00653273044628 -0.11883745111 0)
(-0.00741996437159 -0.117620511315 0)
(-0.00824932136049 -0.116271353197 0)
(-0.00902193569159 -0.114799290255 0)
(-0.0097390961399 -0.113213415529 0)
(-0.0104022303992 -0.111522575854 0)
(-0.0110128880147 -0.109735349347 0)
(-0.0115727226744 -0.107860026292 0)
(-0.0120834737237 -0.105904593603 0)
(-0.0125469478284 -0.10387672286 0)
(-0.0129650005275 -0.101783761919 0)
(-0.0133395186363 -0.0996327299853 0)
(-0.0136724031244 -0.097430316022 0)
(-0.0139655534608 -0.0951828802979 0)
(-0.0142208529554 -0.0928964588456 0)
(-0.0144401561129 -0.0905767705266 0)
(-0.0146252774397 -0.0882292263973 0)
(-0.0147779827187 -0.0858589409544 0)
(-0.0148999820791 -0.0834707448539 0)
(-0.0149929258151 -0.0810691985946 0)
(-0.0150584021304 -0.0786586066903 0)
(-0.0150979376387 -0.0762430317755 0)
(-0.0151129996176 -0.0738263081657 0)
(-0.0151050006832 -0.0714120543581 0)
(-0.0150753047108 -0.0690036840852 0)
(-0.0150252345164 -0.0666044155382 0)
(-0.0149560800094 -0.0642172785469 0)
(-0.014869107233 -0.0618451195407 0)
(-0.0147655669835 -0.0594906043021 0)
(-0.0146467034167 -0.0571562185649 0)
(-0.0145137614188 -0.0548442666822 0)
(-0.0143679932241 -0.0525568686121 0)
(-0.0142106632315 -0.0502959556016 0)
(-0.0140430516257 -0.0480632649271 0)
(-0.0138664559711 -0.0458603341325 0)
(-0.01368219151 -0.0436884951405 0)
(-0.0134915895355 -0.0415488686484 0)
(-0.0132959946562 -0.0394423591168 0)
(-0.013096760478 -0.0373696506652 0)
(-0.0128952445373 -0.0353312040761 0)
(-0.0126928021064 -0.0333272551012 0)
(-0.0124907796608 -0.0313578141515 0)
(-0.0122905076758 -0.0294226674569 0)
(-0.0120932934563 -0.0275213796778 0)
(-0.0119004136913 -0.0256532979672 0)
(-0.0117131073361 -0.0238175573994 0)
(-0.0115325685421 -0.0220130876991 0)
(-0.0113599401539 -0.0202386211412 0)
(-0.0111963075558 -0.0184927015434 0)
(-0.0110426933679 -0.0167736941491 0)
(-0.0109000529321 -0.0150797964015 0)
(-0.01076927119 -0.0134090496045 0)
(-0.0106511611514 -0.0117593516765 0)
(-0.0105464646195 -0.0101284722409 0)
(-0.0104558544887 -0.00851407520077 0)
(-0.0103799291209 -0.006913738349 0)
(-0.0103190564477 -0.00532498134835 0)
(-0.0102706754732 -0.00374365195563 0)
(-0.0101823895567 -0.00219232184464 0)
(-0.00912927751014 -0.000646246848349 0)
(0.048435699878 -0.00332063451261 0)
(0.0536580289583 -0.0112295141015 0)
(0.0534067171866 -0.0190649844499 -1.2174816006e-27)
(0.0525764911342 -0.0268915911385 0)
(0.0514643440133 -0.0345327106029 0)
(0.0501090197286 -0.0419538632268 0)
(0.0485377705162 -0.0491175970526 0)
(0.0467790943057 -0.0559926948805 0)
(0.0448622753046 -0.0625542764691 0)
(0.0428163032819 -0.0687836047613 0)
(0.0406689480715 -0.0746675973441 0)
(0.0384460597368 -0.0801981895747 0)
(0.036171100097 -0.0853716111963 0)
(0.0338648884609 -0.0901876425562 0)
(0.0315455298146 -0.0946489017289 0)
(0.029228487218 -0.098760198122 0)
(0.0269267582618 -0.102527973687 0)
(0.024651118805 -0.105959840425 0)
(0.0224104018478 -0.1090642137 0)
(0.0202117863079 -0.111850034356 0)
(0.0180610762067 -0.114326568896 0)
(0.0159629571374 -0.116503275016 0)
(0.0139212212037 -0.118389719318 0)
(0.0119389562359 -0.119995534375 0)
(0.0100186977835 -0.121330403283 0)
(0.00816254553727 -0.122404061218 0)
(0.00637224729352 -0.12322630513 0)
(0.00464925548509 -0.123807004676 0)
(0.00299476154939 -0.124156109637 0)
(0.00140971369826 -0.124283645186 0)
(-0.000105170317566 -0.124199726508 0)
(-0.00154941986706 -0.123914507325 0)
(-0.00292278950454 -0.123438168693 0)
(-0.00422527445708 -0.122780913571 0)
(-0.00545711223782 -0.121952910866 0)
(-0.0066187786818 -0.120964266481 0)
(-0.00771098317792 -0.119824985791 0)
(-0.00873466043169 -0.118544936955 0)
(-0.00969095904653 -0.117133815413 0)
(-0.010581227141 -0.115601110491 0)
(-0.0114069954751 -0.113956074756 0)
(-0.0121699585092 -0.112207696676 0)
(-0.0128719539223 -0.110364676893 0)
(-0.0135149410738 -0.10843540837 0)
(-0.014100978879 -0.106427960484 0)
(-0.0146322035647 -0.104350067129 0)
(-0.0151108066759 -0.102209118705 0)
(-0.0155390137612 -0.100012157957 0)
(-0.015919064018 -0.0977658794222 0)
(-0.0162531913064 -0.0954766323525 0)
(-0.0165436067532 -0.093150426792 0)
(-0.0167924833579 -0.0907929425725 0)
(-0.0170019427676 -0.0884095408068 0)
(-0.0171740446093 -0.0860052775057 0)
(-0.0173107784533 -0.0835849187857 0)
(-0.0174140587064 -0.0811529571643 0)
(-0.0174857223425 -0.0787136283102 0)
(-0.0175275296001 -0.0762709276759 0)
(-0.0175411673317 -0.0738286263649 0)
(-0.0175282549215 -0.0713902856932 0)
(-0.0174903522231 -0.0689592699011 0)
(-0.01742896924 -0.066538756629 0)
(-0.0173455768304 -0.0641317448344 0)
(-0.0172416180502 -0.0617410600105 0)
(-0.0171185193642 -0.0593693566697 0)
(-0.0169777013541 -0.0570191182309 0)
(-0.016820588238 -0.0546926545489 0)
(-0.0166486159681 -0.0523920974581 0)
(-0.0164632384125 -0.0501193947601 0)
(-0.0162659315953 -0.0478763031536 0)
(-0.0160581957413 -0.0456643806077 0)
(-0.0158415553126 -0.0434849786774 0)
(-0.0156175569957 -0.0413392352121 0)
(-0.0153877659848 -0.0392280678573 0)
(-0.015153760659 -0.0371521686707 0)
(-0.0149171260697 -0.0351120001056 0)
(-0.0146794463911 -0.0331077925268 0)
(-0.0144422967377 -0.0311395433693 0)
(-0.0142072344941 -0.0292070179705 0)
(-0.0139757905024 -0.0273097520774 0)
(-0.0137494602142 -0.0254470559623 0)
(-0.0135296950831 -0.0236180200849 0)
(-0.0133178942677 -0.0218215221808 0)
(-0.0131153968703 -0.0200562356823 0)
(-0.0129234747714 -0.0183206393539 0)
(-0.0127433262653 -0.01661302803 0)
(-0.0125760705841 -0.0149315244247 0)
(-0.0124227435098 -0.0132740919915 0)
(-0.0122842941278 -0.0116385492208 0)
(-0.0121615825707 -0.0100225858932 0)
(-0.0120553775452 -0.00842378437759 0)
(-0.0119663426815 -0.00683963617854 0)