/*--------------------------------*- C++ -*----------------------------------*\
| =========                 |                                                 |
| \\      /  F ield         | OpenFOAM: The Open Source CFD Toolbox           |
|  \\    /   O peration     | Version:  v1906                                 |
|   \\  /    A nd           | Web:      www.OpenFOAM.com                      |
|    \\/     M anipulation  |                                                 |
\*---------------------------------------------------------------------------*/
FoamFile
{
    version     2.0;
    format      ascii;
    class       volVectorField;
    location    "538";
    object      U;
}
// * * * * * * * * * * * * * * * * * * * * * * * * * * * * * * * * * * * * * //

dimensions      [0 1 -1 0 0 0 0];


internalField   nonuniform List<vector> 
9216
(
(0.00271065494514 -0.00271277345411 0)
(0.00285800395437 -0.00875441330426 1.17100205598e-27)
(0.00284983796388 -0.0148900922868 1.84114389621e-31)
(0.00281256395891 -0.0210261535463 0)
(0.0027607951009 -0.027059419944 0)
(0.00269603427948 -0.0329656036369 0)
(0.00261991816387 -0.0387188850502 0)
(0.00253384573297 -0.0442962630336 0)
(0.00243905618799 -0.0496775664853 0)
(0.00233688933001 -0.054845366645 0)
(0.00222853603118 -0.0597850181802 0)
(0.00211528091496 -0.0644845205513 0)
(0.00199819524289 -0.0689344704806 0)
(0.00187842774931 -0.0731278323046 0)
(0.00175686379492 -0.0770598144637 0)
(0.00163446975888 -0.0807275913188 0)
(0.00151192016088 -0.0841301507238 0)
(0.0013899922908 -0.0872680125854 0)
(0.00126915980677 -0.0901430842841 0)
(0.00115003182531 -0.0927584058362 0)
(0.00103291090006 -0.0951180347329 0)
(0.000918271384913 -0.0972268324838 0)
(0.000806281429603 -0.0990903846508 0)
(0.000697315666096 -0.100714829993 0)
(0.000591441735253 -0.102106812842 0)
(0.000488963813807 -0.103273349788 0)
(0.000389876151017 -0.104221805335 0)
(0.000294434074093 -0.10495978714 0)
(0.000202577618588 -0.105495136764 0)
(0.000114528785228 -0.10583584788 0)
(3.01917053308e-05 -0.105990050994 0)
(-5.02507788317e-05 -0.1059660134 0)
(-0.000126957293515 -0.105771982945 0)
(-0.000199759998332 -0.105416217901 0)
(-0.000268823834642 -0.10490701439 0)
(-0.000334003407502 -0.104252622109 0)
(-0.000395498357855 -0.103461242074 0)
(-0.000453186848761 -0.102540981411 0)
(-0.000507294067934 -0.101499842269 0)
(-0.000557717937719 -0.100345687011 0)
(-0.000604704821294 -0.0990862253063 0)
(-0.000648169924642 -0.0977289894163 0)
(-0.000688375975555 -0.0962813189521 0)
(-0.000725252315624 -0.0947503459829 0)
(-0.000759073222155 -0.0931429787957 0)
(-0.000789779039933 -0.0914658976096 0)
(-0.0008176503346 -0.0897255368382 0)
(-0.000842635001403 -0.0879280906142 0)
(-0.000865015132414 -0.0860794943998 0)
(-0.000884743264877 -0.0841854403737 0)
(-0.000902098410606 -0.0822513573758 0)
(-0.000917035085584 -0.080282434708 0)
(-0.000929825635292 -0.0782836007273 0)
(-0.000940424889164 -0.0762595544692 0)
(-0.000949095564175 -0.0742147415165 0)
(-0.000955791767372 -0.0721533915687 0)
(-0.00096076492602 -0.0700794915975 0)
(-0.000963968556016 -0.0679968284348 0)
(-0.000965641899021 -0.0659089578448 0)
(-0.00096573865232 -0.063819250251 0)
(-0.00096448613401 -0.0617308558676 0)
(-0.000961839882003 -0.0596467527922 0)
(-0.000958015999348 -0.0575697073309 0)
(-0.000952973725996 -0.0555023230925 0)
(-0.000946919243183 -0.05344699722 0)
(-0.000939817591125 -0.0514059702839 0)
(-0.000931866156891 -0.0493812783705 0)
(-0.000923037451089 -0.0473748031617 0)
(-0.000913521114017 -0.0453882212263 0)
(-0.000903298416827 -0.0434230546479 0)
(-0.000892551662221 -0.0414806180997 0)
(-0.000881271364978 -0.0395620699289 0)
(-0.000869632479899 -0.0376683585912 0)
(-0.000857634652126 -0.0358002747215 0)
(-0.000845444791949 -0.0339583976365 0)
(-0.000833070821455 -0.0321431483812 0)
(-0.000820670566903 -0.0303547376027 0)
(-0.000808258948862 -0.0285932199026 0)
(-0.000795983245898 -0.0268584435184 0)
(-0.000783863670794 -0.0251501058469 0)
(-0.000772035355442 -0.0234677057476 0)
(-0.00076052187834 -0.0218106004268 0)
(-0.000749444304848 -0.0201779605669 0)
(-0.000738827165832 -0.0185688288141 0)
(-0.000728774739234 -0.0169820787221 0)
(-0.000719308280639 -0.0154164765726 0)
(-0.000710508308964 -0.0138706474773 0)
(-0.000702378618341 -0.0123431489405 0)
(-0.000694944321055 -0.0108324648737 0)
(-0.000688113723706 -0.00933714195715 0)
(-0.000681655246333 -0.00785593648832 0)
(-0.000674847869479 -0.00638840208721 0)
(-0.000665768044474 -0.00493640854046 0)
(-0.000645676054399 -0.00351797652771 0)
(-0.000609106668006 -0.00200575027982 0)
(-0.000929325678234 -0.00092903429767 0)
(0.00877533627533 -0.00288782502256 0)
(0.00970306494315 -0.00977235857219 0)
(0.00968064259362 -0.0166440543431 -1.22968782214e-27)
(0.00955120234136 -0.0235211343271 0)
(0.00937204303133 -0.0302737029989 0)
(0.00915058132078 -0.0368799944872 0)
(0.00889114397747 -0.0433125865932 0)
(0.00859802463533 -0.0495462232525 0)
(0.00827543855589 -0.0555584991149 0)
(0.00792780589588 -0.061330056559 0)
(0.00755930586587 -0.0668446466402 0)
(0.00717417763567 -0.072089039567 0)
(0.00677621702976 -0.0770529176071 0)
(0.00636917378417 -0.081728657246 0)
(0.0059562231835 -0.0861111310173 0)
(0.00554046605902 -0.0901974336128 0)
(0.00512437383482 -0.0939866553026 0)
(0.00471037995518 -0.0974796061084 0)
(0.00430028849508 -0.10067860458 0)
(0.003895940834 -0.103587233926 0)
(0.00349857745732 -0.106210169545 0)
(0.00310956539482 -0.108552981633 0)
(0.00272970685798 -0.110622007618 0)
(0.0023600159148 -0.112424201536 0)
(0.00200097170954 -0.113967046577 0)
(0.00165333690138 -0.115258443381 0)
(0.00131735775952 -0.116306652425 0)
(0.000993619217502 -0.117120210496 0)
(0.000682196721112 -0.117707891731 0)
(0.000383545452979 -0.118078640625 0)
(9.76129129705e-05 -0.118241549892 0)
(-0.000175261431096 -0.118205749602 0)
(-0.000435266638472 -0.11798051736 0)
(-0.000682146630553 -0.117575157176 0)
(-0.000916167821452 -0.116998941591 0)
(-0.00113715843344 -0.116261100531 0)
(-0.00134548077306 -0.115370795479 0)
(-0.00154104298173 -0.114337086188 0)
(-0.00172428872512 -0.113168907864 0)
(-0.00189519633638 -0.111875042064 0)
(-0.00205427857044 -0.1104640949 0)
(-0.00220157375231 -0.108944474327 0)
(-0.00233764968785 -0.107324370334 0)
(-0.00246259263089 -0.105611739303 0)
(-0.00257701036354 -0.103814286981 0)
(-0.00268102428481 -0.10193946025 0)
(-0.00277526633878 -0.0999944329768 0)
(-0.00285987998805 -0.0979861050633 0)
(-0.0029355063519 -0.095921091253 0)
(-0.00300229908262 -0.093805727061 0)
(-0.00306089474537 -0.0916460599269 0)
(-0.00311144691372 -0.0894478611591 0)
(-0.00315457650539 -0.0872166189056 0)
(-0.00319042958471 -0.0849575550768 0)
(-0.00321960310463 -0.0826756190141 0)
(-0.00324223106451 -0.0803755080387 0)
(-0.00325888177695 -0.0780616609355 0)
(-0.00326967613079 -0.0757382808102 0)
(-0.00327515229765 -0.0734093271597 0)
(-0.00327541987577 -0.0710785396593 0)
(-0.00327098860893 -0.068749428096 0)
(-0.00326196127128 -0.0664252960516 0)
(-0.00324882287974 -0.0641092279426 0)
(-0.00323167514558 -0.0618041117812 0)
(-0.00321098337477 -0.0595126232958 0)
(-0.00318685448328 -0.0572372474971 0)
(-0.0031597388701 -0.0549802599698 0)
(-0.00312975397814 -0.05274374725 0)
(-0.00309733921475 -0.050529586056 0)
(-0.00306262634651 -0.0483394629368 0)
(-0.00302604578346 -0.046174852183 0)
(-0.00298774508778 -0.0440370352703 0)
(-0.00294814571384 -0.0419270785679 0)
(-0.00290741030627 -0.0398458532737 0)
(-0.00286594925549 -0.037794013743 0)
(-0.00282393739968 -0.0357720184141 0)
(-0.00278177038594 -0.0337801096655 0)
(-0.00273963083384 -0.0318183361975 0)
(-0.00269789467504 -0.0298865348948 0)
(-0.00265674670934 -0.0279843548516 0)
(-0.00261653748155 -0.0261112417141 0)
(-0.00257744765465 -0.0242664635453 0)
(-0.00253979590132 -0.0224490977948 0)
(-0.00250375122747 -0.0206580591089 0)
(-0.00246959192509 -0.0188920892178 0)
(-0.0024374636383 -0.0171497869919 0)
(-0.00240758667616 -0.0154296011896 0)
(-0.00238005182371 -0.0137298617454 0)
(-0.0023549596551 -0.0120487704504 0)
(-0.00233221276086 -0.0103844121183 0)
(-0.00231149035034 -0.00873466163976 0)
(-0.00229180510453 -0.00709692584504 0)
(-0.00227064817485 -0.00546696073358 0)
(-0.00224089101711 -0.00383536863697 0)
(-0.00216550661875 -0.00216054297526 0)
(-0.00200451511387 -0.000606984478588 0)
(0.0150225741442 -0.00293369940207 0)
(0.0166336242499 -0.00993315804373 0)
(0.0165729118101 -0.0168951144314 -1.22764833054e-27)
(0.0163419201424 -0.023872849223 0)
(0.0160301861739 -0.030722405387 0)
(0.0156475077815 -0.0374205127842 0)
(0.0152003583782 -0.0439387054901 0)
(0.0146957072108 -0.0502511812181 0)
(0.0141408405575 -0.0563352050885 0)
(0.0135432553055 -0.0621712883782 0)
(0.0129102997323 -0.0677432059442 0)
(0.0122491497483 -0.0730379034139 0)
(0.0115664941331 -0.0780453419805 0)
(0.010868613053 -0.0827582708835 0)
(0.0101611155105 -0.0871719805248 0)
(0.00944911540482 -0.0912840220301 0)
(0.00873700844569 -0.0950939394946 0)
(0.00802872465611 -0.0986029957388 0)
(0.00732752208036 -0.101813929889 0)
(0.00663629014364 -0.104730723275 0)
(0.00595733815174 -0.107358404866 0)
(0.00529272775725 -0.109702869704 0)
(0.00464404057202 -0.111770735743 0)
(0.00401272490551 -0.113569212016 0)
(0.00339983433396 -0.115105999599 0)
(0.00280638090158 -0.116389199163 0)
(0.00223304305962 -0.11742724362 0)
(0.00168052264981 -0.118228832369 0)
(0.00114922490896 -0.118802883689 0)
(0.000639619316712 -0.119158484674 0)
(0.000151894761225 -0.119304856384 0)
(-0.000313664894281 -0.119251308746 0)
(-0.000757042349472 -0.119007211326 0)
(-0.00117812153045 -0.118581957176 0)
(-0.00157705446595 -0.117984929714 0)
(-0.00195387562931 -0.117225470124 0)
(-0.00230888310908 -0.116312847033 0)
(-0.0026422496356 -0.115256225997 0)
(-0.00295440696827 -0.114064642384 0)
(-0.00324565125695 -0.112746974396 0)
(-0.00351652976836 -0.111311918981 0)
(-0.00376744299146 -0.109767969723 0)
(-0.00399903174885 -0.108123396482 0)
(-0.00421177854714 -0.10638622881 0)
(-0.00440639338183 -0.104564240256 0)
(-0.00458341675503 -0.102664937827 0)
(-0.00474360250701 -0.100695550888 0)
(-0.00488752504316 -0.0986630265144 0)
(-0.00501595769216 -0.0965740231199 0)
(-0.00512948643391 -0.0944349114145 0)
(-0.00522888222479 -0.0922517719462 0)
(-0.00531472352227 -0.0900304007806 0)
(-0.00538776114822 -0.0877763104093 0)
(-0.00544855157486 -0.0854947392195 0)
(-0.00549781280611 -0.083190654406 0)
(-0.00553607029965 -0.080868763858 0)
(-0.00556400242612 -0.0785335201158 0)
(-0.00558210047607 -0.0761891334342 0)
(-0.00559100211563 -0.0738395752815 0)
(-0.00559116674144 -0.0714885911953 0)
(-0.00558319540407 -0.069139702993 0)
(-0.00556752232041 -0.0667962204721 0)
(-0.00554471964065 -0.0644612413307 0)
(-0.00551520577579 -0.0621376609559 0)
(-0.00547953355073 -0.0598281699551 0)
(-0.00543811568513 -0.0575352619107 0)
(-0.00539149496706 -0.0552612284457 0)
(-0.00534008723305 -0.05300816511 0)
(-0.00528443255206 -0.0507779647276 0)
(-0.00522495591379 -0.0485723220768 0)
(-0.00516219866909 -0.046392726158 0)
(-0.00509659724772 -0.0442404643908 0)
(-0.00502869452275 -0.0421166149064 0)
(-0.00495893679518 -0.0400220511407 0)
(-0.00488786499358 -0.0379574348743 0)
(-0.00481593022299 -0.0359232218849 0)
(-0.0047436650187 -0.033919656591 0)
(-0.00467151759891 -0.0319467793276 0)
(-0.00460000348938 -0.0300044229498 0)
(-0.00452955855647 -0.0280922220004 0)
(-0.00446067142848 -0.0262096116399 0)
(-0.00439375512374 -0.0243558388431 0)
(-0.00432926053479 -0.0225299635913 0)
(-0.00426756617821 -0.020730871944 0)
(-0.00420907256852 -0.0189572792244 0)
(-0.00415410870536 -0.0172077441135 0)
(-0.00410300560933 -0.0154806716833 0)
(-0.00405601579281 -0.0137743239878 0)
(-0.00401336074579 -0.0120868120194 0)
(-0.00397515673393 -0.0104160773461 0)
(-0.00394143892 -0.00875981746629 0)
(-0.00391214504445 -0.00711531431406 0)
(-0.00388728960399 -0.00547896020196 0)
(-0.00386705833711 -0.00384459092867 0)
(-0.00383653609039 -0.00222341487449 0)
(-0.00350937249723 -0.000639887824785 0)
(0.0214176558973 -0.00297904167808 0)
(0.0237327451426 -0.0100835875861 0)
(0.023643029729 -0.0171410921662 1.22707803108e-27)
(0.0233084381875 -0.0242150903931 0)
(0.0228577656737 -0.0311555593767 0)
(0.0223054725788 -0.0379377376168 0)
(0.0216609926884 -0.0445319798048 0)
(0.0209344261881 -0.0509117805495 0)
(0.0201364195113 -0.0570540507083 0)
(0.0192778397963 -0.0629392496864 0)
(0.0183694002015 -0.0685513489216 0)
(0.0174214348625 -0.0738776972841 0)
(0.016443635285 -0.0789088099108 0)
(0.0154449569057 -0.0836380977538 0)
(0.014433468699 -0.088061569463 0)
(0.01341637735 -0.0921775174223 0)
(0.0123999643729 -0.09598621205 0)
(0.0113896936295 -0.0994896086649 0)
(0.0103901985954 -0.102691082757 0)
(0.00940543509369 -0.105595191105 0)
(0.00843868417661 -0.10820746773 0)
(0.00749271946518 -0.110534247529 0)
(0.0065698013969 -0.112582522209 0)
(0.00567183968985 -0.114359819193 0)
(0.00480036603361 -0.115874105682 0)
(0.0039566829285 -0.117133708354 0)
(0.00314181138265 -0.118147250123 0)
(0.00235662498957 -0.118923595495 0)
(0.00160177529339 -0.119471806048 0)
(0.000877814505024 -0.119801099409 0)
(0.00018510368985 -0.119920812433 0)
(-0.00047606758824 -0.119840376756 0)
(-0.00110558063188 -0.119569256723 0)
(-0.00170338046659 -0.119116943139 0)
(-0.00226957888692 -0.118492914113 0)
(-0.00280433716868 -0.117706602276 0)
(-0.0033079752805 -0.116767363644 0)
(-0.00378085349779 -0.115684447257 0)
(-0.00422348128121 -0.114466966584 0)
(-0.00463639629472 -0.113123872515 0)
(-0.00502027241691 -0.111663928285 0)
(-0.00537579688613 -0.110095686871 0)
(-0.00570377711523 -0.108427470491 0)
(-0.00600501718626 -0.106667353346 0)
(-0.00628042347249 -0.104823146409 0)
(-0.00653088161611 -0.102902385902 0)
(-0.00675736096219 -0.100912323561 0)
(-0.00696079336852 -0.0988599209043 0)
(-0.00714217655218 -0.0967518447978 0)
(-0.00730245579648 -0.0945944670436 0)
(-0.00744262618523 -0.092393864644 0)
(-0.00756361837299 -0.0901558239749 0)
(-0.00766639970739 -0.0878858448706 0)
(-0.0077518648781 -0.085589148262 0)
(-0.00782093573923 -0.0832706828582 0)
(-0.00787445764715 -0.080935134976 0)
(-0.00791329771508 -0.0785869364954 0)
(-0.00793824718473 -0.076230275422 0)
(-0.0079501175508 -0.0738691036881 0)
(-0.00794964918046 -0.07150714712 0)
(-0.00793760458717 -0.0691479118986 0)
(-0.00791468302553 -0.0667946928002 0)
(-0.007881609939 -0.0644505773984 0)
(-0.00783905719225 -0.0621184519285 0)
(-0.00778772770748 -0.0598010028808 0)
(-0.00772828073175 -0.0575007203088 0)
(-0.00766141068613 -0.0552198969098 0)
(-0.0075877770554 -0.0529606291418 0)
(-0.00750807674115 -0.0507248144244 0)
(-0.00742297818204 -0.048514150785 0)
(-0.00733318675246 -0.046330133035 0)
(-0.00723938306916 -0.0441740518973 0)
(-0.00714228134828 -0.0420469901958 0)
(-0.00704257194458 -0.039949822409 0)
(-0.00694097281416 -0.0378832117597 0)
(-0.00683817658097 -0.0358476110061 0)
(-0.00673489547611 -0.0338432611864 0)
(-0.00663181317784 -0.0318701942123 0)
(-0.0065296236456 -0.0299282336871 0)
(-0.00642898802176 -0.0280169995996 0)
(-0.00633056778332 -0.0261359114306 0)
(-0.00623498678982 -0.0242841949846 0)
(-0.00614285901734 -0.0224608876469 0)
(-0.00605475567888 -0.0206648470197 0)
(-0.00597122755184 -0.0188947577162 0)
(-0.00589277673008 -0.0171491405557 0)
(-0.00581987326531 -0.0154263584862 0)
(-0.0057529313844 -0.0137246218855 0)
(-0.0056923222334 -0.0120419858899 0)
(-0.00563836160658 -0.0103763387576 0)
(-0.00559134260254 -0.00872537104016 0)
(-0.00555159941188 -0.00708652721049 0)
(-0.00551963936179 -0.00545694654436 0)
(-0.00549530882229 -0.00383218089284 0)
(-0.00545313709011 -0.00223402012068 0)
(-0.00491028768562 -0.00065432896231 0)
(0.0279195739521 -0.00303858464232 0)
(0.0309405894708 -0.0102813787487 0)
(0.0308192612324 -0.0174714309251 0)
(0.0303757364001 -0.0246748156133 0)
(0.0297788425423 -0.0317366550328 0)
(0.0290481630317 -0.0386304774233 0)
(0.028196570456 -0.045325204701 0)
(0.0272377441366 -0.0517934172308 0)
(0.0261860564157 -0.0580115825091 0)
(0.0250560887265 -0.0639601369235 0)
(0.0238621698269 -0.0696233825171 0)
(0.0226180203662 -0.0749892821067 0)
(0.0213364600187 -0.0800491721478 0)
(0.0200292320327 -0.0847974221091 0)
(0.0187068790534 -0.0892310696753 0)
(0.017378722448 -0.0933494528972 0)
(0.0160528647986 -0.097153858781 0)
(0.0147362719172 -0.100647199 0)
(0.0134348466679 -0.103833721961 0)
(0.0121535598589 -0.106718763203 0)
(0.0108965471198 -0.109308535949 0)
(0.00966724756433 -0.111609958304 0)
(0.00846849115579 -0.113630514724 0)
(0.00730262066352 -0.11537814587 0)
(0.00617155310245 -0.116861162986 0)
(0.00507687514379 -0.118088180571 0)
(0.00401987484039 -0.119068063616 0)
(0.00300161105707 -0.119809884286 0)
(0.00202291984253 -0.120322885528 0)
(0.00108446422172 -0.120616448183 0)
(0.000186723106596 -0.120700057351 0)
(-0.000669972368097 -0.120583290128 0)
(-0.00148545085565 -0.120275737649 0)
(-0.00225967836438 -0.119787023329 0)
(-0.00299277689864 -0.119126749403 0)
(-0.00368499222604 -0.118304468425 0)
(-0.00433671758231 -0.117329651237 0)
(-0.00494845894303 -0.116211656046 0)
(-0.00552085702655 -0.114959698746 0)
(-0.00605465016604 -0.113582825007 0)
(-0.00655069412383 -0.112089884369 0)
(-0.00700992294341 -0.110489506862 0)
(-0.00743336695668 -0.10879008206 0)
(-0.00782211250837 -0.106999741221 0)
(-0.00817731880757 -0.105126342156 0)
(-0.0085001775418 -0.103177457404 0)
(-0.00879192932592 -0.101160365065 0)
(-0.00905382424593 -0.0990820429511 0)
(-0.00928713858874 -0.0969491652257 0)
(-0.00949313723852 -0.0947681021317 0)
(-0.00967309131628 -0.0925449217164 0)
(-0.0098282432775 -0.0902853942777 0)
(-0.00995982595773 -0.0879949982761 0)
(-0.010069031035 -0.0856789283824 0)
(-0.0101570298386 -0.0833421042052 0)
(-0.0102249456515 -0.0809891804879 0)
(-0.0102738763669 -0.0786245572253 0)
(-0.0103048707487 -0.0762523904779 0)
(-0.0103189527019 -0.0738766022417 0)
(-0.0103171012555 -0.0715008903369 0)
(-0.0103002758262 -0.0691287367135 0)
(-0.0102693992713 -0.0667634152124 0)
(-0.0102253832249 -0.0644079972377 0)
(-0.0101691133304 -0.062065356626 0)
(-0.010101473553 -0.0597381723189 0)
(-0.0100233325736 -0.0574289302299 0)
(-0.00993556603431 -0.0551399230313 0)
(-0.00983904322474 -0.0528732494487 0)
(-0.00973464644824 -0.0506308119314 0)
(-0.00962325738417 -0.0484143142889 0)
(-0.00950577313456 -0.0462252582294 0)
(-0.00938309204349 -0.0440649404348 0)
(-0.00925612637502 -0.0419344491607 0)
(-0.00912578768433 -0.0398346618635 0)
(-0.00899299640736 -0.0377662428351 0)
(-0.00885866715027 -0.0357296422684 0)
(-0.00872371567166 -0.033725095734 0)
(-0.00858904453938 -0.0317526252961 0)
(-0.00845554804944 -0.0298120412298 0)
(-0.00832409871138 -0.0279029454604 0)
(-0.00819555060264 -0.026024735685 0)
(-0.00807072701768 -0.0241766111128 0)
(-0.00795042263582 -0.0223575787693 0)
(-0.00783539256751 -0.0205664611305 0)
(-0.00772635363344 -0.0188019039746 0)
(-0.00762397507145 -0.0170623847661 0)
(-0.00752887962477 -0.0153462201857 0)
(-0.00744163748788 -0.0136515728101 0)
(-0.00736277109398 -0.0119764546306 0)
(-0.00729276121768 -0.0103187288814 0)
(-0.00723207439602 -0.00867611621266 0)
(-0.00718121208761 -0.00704620456602 0)
(-0.00714071214051 -0.00542650864258 0)
(-0.00710947610134 -0.00381308779588 0)
(-0.00705215769884 -0.00222940770079 0)
(-0.00633045394469 -0.000655805453956 0)
(0.0345662326207 -0.00311403166182 0)
(0.0383041383644 -0.0105345745561 0)
(0.0381465872481 -0.0178966846788 0)
(0.0375861104053 -0.025266808791 0)
(0.0368326234701 -0.0324843706739 0)
(0.0359113338086 -0.0395208041674 0)
(0.034839110565 -0.0463432919587 0)
(0.0336337746218 -0.0529233130669 0)
(0.032313933635 -0.0592368465329 0)
(0.0308983371737 -0.0652643933261 0)
(0.0294052899434 -0.0709907852603 0)
(0.0278521850036 -0.0764048800606 0)
(0.0262551543564 -0.0814991700789 0)
(0.0246288476737 -0.0862693431941 0)
(0.0229863131032 -0.0907138298614 0)
(0.0213389786165 -0.094833362525 0)
(0.0196966979314 -0.0986305671724 0)
(0.0180678582211 -0.102109598915 0)
(0.0164595130103 -0.105275828329 0)
(0.0148775428892 -0.108135579558 0)
(0.0133268113066 -0.110695918444 0)
(0.0118113255947 -0.11296448572 0)
(0.0103343750066 -0.114949369596 0)
(0.00889866276221 -0.116659010629 0)
(0.00750640744112 -0.118102132299 0)
(0.00615943600915 -0.119287690445 0)
(0.00485924593733 -0.120224835974 0)
(0.00360706224384 -0.120922885601 0)
(0.00240386769167 -0.121391296918 0)
(0.00125043382335 -0.121639644629 0)
(0.000147331685189 -0.121677593275 0)
(-0.000905059474331 -0.1215148976 0)
(-0.00190653486439 -0.121161303952 0)
(-0.00285707086064 -0.120626601535 0)
(-0.00375682015443 -0.119920548098 0)
(-0.00460610254555 -0.119052847676 0)
(-0.00540540613893 -0.118033116683 0)
(-0.00615537381403 -0.116870851819 0)
(-0.00685680149717 -0.115575399097 0)
(-0.00751062143121 -0.114155924622 0)
(-0.00811789734085 -0.112621387517 0)
(-0.00867980498455 -0.110980515493 0)
(-0.00919762498191 -0.109241783235 0)
(-0.00967272174553 -0.107413393977 0)
(-0.0101065350789 -0.105503264191 0)
(-0.0105005586605 -0.103519011646 0)
(-0.0108563315189 -0.101467946627 0)
(-0.0111754172516 -0.0993570664503 0)
(-0.0114593964172 -0.0971930529187 0)
(-0.0117098474904 -0.0949822727848 0)
(-0.0119283410692 -0.0927307807481 0)
(-0.0121164235059 -0.0904443250038 0)
(-0.012275613722 -0.0881283547236 0)
(-0.012407390235 -0.0857880294258 0)
(-0.0125131911551 -0.0834282295283 0)
(-0.0125944051287 -0.0810535679952 0)
(-0.0126523747923 -0.078668402281 0)
(-0.0126883916975 -0.0762768464765 0)
(-0.0127037030243 -0.0738827828632 0)
(-0.0126995101085 -0.0714898728435 0)
(-0.0126769777263 -0.0691015665012 0)
(-0.0126372352884 -0.0667211108863 0)
(-0.012581387549 -0.0643515564243 0)
(-0.0125105172242 -0.0619957617303 0)
(-0.0124256957564 -0.059656396389 0)
(-0.0123279859536 -0.057335942172 0)
(-0.0122184514651 -0.0550366924343 0)
(-0.0120981582609 -0.0527607503288 0)
(-0.0119681818008 -0.0505100257052 0)
(-0.0118296065332 -0.0482862314163 0)
(-0.0116835302085 -0.0460908789703 0)
(-0.0115310611316 -0.0439252742713 0)
(-0.0113733195987 -0.0417905133781 0)
(-0.0112114330696 -0.0396874789528 0)
(-0.0110465351166 -0.0376168372848 0)
(-0.0108797590477 -0.035579036459 0)
(-0.0107122350068 -0.0335743054826 0)
(-0.010545082692 -0.0316026548018 0)
(-0.0103794073023 -0.0296638779604 0)
(-0.0102162920119 -0.0277575547186 0)
(-0.0100567934011 -0.0258830553333 0)
(-0.00990193421401 -0.0240395461938 0)
(-0.00975269879612 -0.0222259964853 0)
(-0.00961002659853 -0.0204411859283 0)
(-0.00947480813489 -0.0186837132402 0)
(-0.00934787983917 -0.0169520051342 0)
(-0.00923002155556 -0.0152443254862 0)
(-0.00912195452391 -0.0135587843328 0)
(-0.00902434372172 -0.0118933473814 0)
(-0.008937804523 -0.0102458473538 0)
(-0.0088629182948 -0.00861400227984 0)
(-0.00880025149737 -0.0069954468531 0)
(-0.00875025542446 -0.00538779891532 0)
(-0.00871100594523 -0.00378712368425 0)
(-0.00863827967394 -0.00221668198829 0)
(-0.00774760309389 -0.000653047546537 0)
(0.0413946938043 -0.00320748596309 0)
(0.0458653800213 -0.0108488859441 0)
(0.0456651680703 -0.0184251703691 1.21750501809e-27)
(0.0449768828345 -0.0260021891748 0)
(0.0440530047968 -0.0334122214136 0)
(0.042925037362 -0.0406240701832 0)
(0.0416145612747 -0.0476028097481 0)
(0.0401442615803 -0.0543186441464 0)
(0.0385376500515 -0.0607470760162 0)
(0.0368182265494 -0.066868842664 0)
(0.0350087378311 -0.0726696025316 0)
(0.033130597755 -0.0781394911336 0)
(0.0312034758341 -0.0832725882999 0)
(0.0292450493725 -0.0880663473431 0)
(0.0272708966476 -0.0925210276291 0)
(0.0252945089074 -0.0966391616269 0)
(0.0233273893015 -0.100425077125 0)
(0.0213792151502 -0.103884485985 0)
(0.0194580349004 -0.107024143187 0)
(0.0175704833468 -0.109851574345 0)
(0.015721994537 -0.112374865941 0)
(0.0139170048747 -0.114602510279 0)
(0.0121591336667 -0.11654329593 0)
(0.0104513410442 -0.118206234237 0)
(0.00879605630827 -0.119600512702 0)
(0.00719528182734 -0.120735466944 0)
(0.00565066928497 -0.121620563905 0)
(0.00416357655549 -0.122265390467 0)
(0.00273510377582 -0.122679643041 0)
(0.00136611784738 -0.122873113884 0)
(5.72695652141e-05 -0.122855674578 0)
(-0.00119101829065 -0.122637285552 0)
(-0.00237851650612 -0.122227877236 0)
(-0.0035052097073 -0.121637435929 0)
(-0.0045712903873 -0.120875907315 0)
(-0.00557715374944 -0.119953179382 0)
(-0.00652339384665 -0.118879046065 0)
(-0.00741079465276 -0.117663173405 0)
(-0.00824032156827 -0.116315066673 0)
(-0.00901310796786 -0.114844039348 0)
(-0.00973044251692 -0.113259184501 0)
(-0.0103937521495 -0.111569349063 0)
(-0.0110045864604 -0.109783111278 0)
(-0.0115645985622 -0.107908761594 0)
(-0.012075528047 -0.1059542871 0)
(-0.0125391812353 -0.103927359568 0)
(-0.01295741416 -0.101835327026 0)
(-0.0133321135862 -0.0996852088218 0)
(-0.013665181288 -0.0974836940063 0)
(-0.0139585170486 -0.0952371428663 0)
(-0.0142140053641 -0.0929515913345 0)
(-0.0144335014986 -0.0906327580367 0)
(-0.0146188216024 -0.0882860536057 0)
(-0.0147717327376 -0.0859165919042 0)
(-0.014893947202 -0.0835292026757 0)
(-0.0149871171562 -0.0811284451924 0)
(-0.0150528335495 -0.07871862236 0)
(-0.0150926254863 -0.0763037947843 0)
(-0.0151079635821 -0.0738877942502 0)
(-0.015100263566 -0.0714742361753 0)
(-0.0150708932108 -0.0690665305886 0)
(-0.0150211789993 -0.0666678913098 0)
(-0.0149524151892 -0.0642813430517 0)
(-0.014865871896 -0.0619097263397 0)
(-0.014762804517 -0.05955570021 0)
(-0.0146444614326 -0.0572217427831 0)
(-0.014512092072 -0.0549101498953 0)
(-0.0143669526805 -0.0526230320825 0)
(-0.0142103117187 -0.050362310274 0)
(-0.0140434526848 -0.0481297105697 0)
(-0.013867676188 -0.045926758535 0)
(-0.013684299507 -0.0437547733969 0)
(-0.0134946553513 -0.0416148625669 0)
(-0.0133000884519 -0.0395079167762 0)
(-0.0131019515626 -0.0374346061654 0)
(-0.0129015998043 -0.0353953774976 0)
(-0.012700384747 -0.0333904527336 0)
(-0.01249964739 -0.0314198289914 0)
(-0.0123007112243 -0.0294832800221 0)
(-0.0121048747034 -0.0275803591306 0)
(-0.011913404086 -0.0257104035835 0)
(-0.0117275261096 -0.0238725403535 0)
(-0.0115484212713 -0.0220656931724 0)
(-0.0113772173106 -0.0202885906829 0)
(-0.011214983545 -0.0185397756448 0)
(-0.0110627258516 -0.0168176148518 0)
(-0.0109213829803 -0.015120309789 0)
(-0.0107918243511 -0.0134459081668 0)
(-0.010674850163 -0.0117923161373 0)
(-0.0105711943674 -0.0101573138035 0)
(-0.0104815300068 -0.00853858124577 0)
(-0.0104064662151 -0.00693372189577 0)
(-0.0103463925305 -0.00534030410923 0)
(-0.0102987645651 -0.00375426750207 0)
(-0.01021103183 -0.00219836845677 0)
(-0.00915562510674 -0.000647992339552 0)
(0.0484460790162 -0.00332105956111 0)
(0.0536695147103 -0.0112309451919 0)
(0.0534182852221 -0.0190673952197 -1.21685655937e-27)
(0.052588112965 -0.0268949954279 0)
(0.0514760333088 -0.0345371203522 0)
(0.0501207895908 -0.0419592929274 0)
(0.0485496316167 -0.0491240635264 0)
(0.046791054592 -0.0560002165905 0)
(0.0448743398061 -0.0625628730888 0)
(0.042828474097 -0.0687932966005 0)
(0.0406812243572 -0.0746784048295 0)
(0.0384584378849 -0.0802101327443 0)
(0.0361835738672 -0.0853847092406 0)
(0.0338774492915 -0.0902019134144 0)
(0.0315581670431 -0.0946643617526 0)
(0.029241188467 -0.0987768618033 0)
(0.0269395096889 -0.102545853459 0)
(0.02466390551 -0.105978946514 0)
(0.0224232081065 -0.109084554055 0)
(0.0202245959628 -0.111871614612 0)
(0.0180738728504 -0.11434939241 0)
(0.0159757244611 -0.116527342913 0)
(0.0139339431152 -0.118415030599 0)
(0.0119516171535 -0.120022086028 0)
(0.0100312826803 -0.121358190437 0)
(0.00817504017862 -0.122433077279 0)
(0.00638463821503 -0.123256541952 0)
(0.00466153018017 -0.123838452712 0)
(0.00300690838653 -0.124188758126 0)
(0.00142172205352 -0.124317482462 0)
(-9.33103598199e-05 -0.124234740548 0)
(-0.00153771829617 -0.123950685157 0)
(-0.00291125476729 -0.123475496626 0)
(-0.00421391380554 -0.122819376299 0)
(-0.00544593205125 -0.121992492634 0)
(-0.00660778437668 -0.121004951237 0)
(-0.00770017940575 -0.119866757294 0)
(-0.00872405099593 -0.118587778859 0)
(-0.00968054710996 -0.117177711347 0)
(-0.0105710151519 -0.115646044131 0)
(-0.0113969853898 -0.114002029898 0)
(-0.0121601517318 -0.112254657289 0)
(-0.0128623515416 -0.11041262717 0)
(-0.0135055438259 -0.108484332774 0)
(-0.0140917874108 -0.106477843782 0)
(-0.0146232184261 -0.104400894406 0)
(-0.0151020286115 -0.102260875375 0)
(-0.0155304437441 -0.100064829748 0)
(-0.0159107035803 -0.0978194523463 0)
(-0.0162450426204 -0.0955310926442 0)
(-0.016535673 -0.0932057608226 0)
(-0.0167847688622 -0.0908491367304 0)
(-0.0169944534102 -0.0884665813371 0)
(-0.0171667880137 -0.0860631503081 0)
(-0.0173037644321 -0.0836436091595 0)
(-0.0174072994948 -0.0812124495061 0)
(-0.0174792330708 -0.0787739057453 0)
(-0.0175213285573 -0.0763319716333 0)
(-0.0175352764381 -0.0738904160758 0)
(-0.017522699997 -0.071452797631 0)
(-0.0174851634316 -0.0690224771359 0)
(-0.0174241813228 -0.0666026281239 0)
(-0.0173412294712 -0.0641962446522 0)
(-0.0172377560238 -0.0618061464743 0)
(-0.0171151927685 -0.0594349814388 0)
(-0.0169749656075 -0.0570852253476 0)
(-0.0168185041061 -0.0547591794195 0)
(-0.0166472493409 -0.0524589658374 0)
(-0.0164626600548 -0.0501865217027 0)
(-0.0162662166307 -0.0479435920154 0)
(-0.0160594230561 -0.045731722063 0)
(-0.0158438066884 -0.0435522498485 0)
(-0.0156209161228 -0.041406298882 0)
(-0.0153923172104 -0.0392947718686 0)
(-0.0151595875963 -0.0372183454866 0)
(-0.0149243099784 -0.0351774666361 0)
(-0.0146880644276 -0.0331723502017 0)
(-0.0144524200406 -0.0312029785497 0)
(-0.0142189261849 -0.0292691026777 0)
(-0.0139891036254 -0.0273702451129 0)
(-0.013764435679 -0.0255057043958 0)
(-0.0135463596855 -0.0236745611538 0)
(-0.0133362588485 -0.0218756855738 0)
(-0.0131354547461 -0.0201077461967 0)
(-0.0129452005054 -0.0183692198772 0)
(-0.0127666749868 -0.0166584027613 0)
(-0.0126009779747 -0.0149734222682 0)
(-0.0124491267617 -0.0133122498856 0)
(-0.0123120540832 -0.0116727158854 0)
(-0.0121906072242 -0.0100525263998 0)
(-0.0120855468026 -0.00844928450287 0)
(-0.0119975337743 -0.00686051339181 0)