/*--------------------------------*- C++ -*----------------------------------*\
| =========                 |                                                 |
| \\      /  F ield         | OpenFOAM: The Open Source CFD Toolbox           |
|  \\    /   O peration     | Version:  v1906                                 |
|   \\  /    A nd           | Web:      www.OpenFOAM.com                      |
|    \\/     M anipulation  |                                                 |
\*---------------------------------------------------------------------------*/
FoamFile
{
    version     2.0;
    format      ascii;
    class       volScalarField;
    location    "973";
    object      p;
}
// * * * * * * * * * * * * * * * * * * * * * * * * * * * * * * * * * * * * * //

dimensions      [0 2 -2 0 0 0 0];


internalField   nonuniform List<scalar> 
9216
(
273.416455464
273.496242687
273.6613363
273.913143424
274.250241838
274.671047068
275.173588386
275.755558874
276.414342916
277.147068942
277.950632935
278.82175313
279.75698888
280.752794835
281.805532617
282.911522327
284.067045696
285.268394073
286.511862984
287.793796795
289.110575445
290.458656563
291.834555581
293.234886244
294.656335325
296.095702403
297.549870271
299.015844576
300.490720779
301.971724027
303.45617338
304.941521524
306.425316658
307.905243555
309.379082977
310.844752169
312.3002629
313.743762214
315.173488977
316.587814496
317.985197928
319.364226677
320.723570989
322.062024014
323.378455915
324.671853513
325.941274257
327.185885369
328.40491799
329.597705761
330.763639473
331.902204992
333.012938688
334.095464622
335.149451031
336.174646647
337.170838439
338.137886961
339.075685535
339.984194464
340.86340178
341.713356179
342.534129446
343.325847927
344.088656702
344.822749437
345.528334369
346.205662383
346.854994851
347.47662981
348.070871724
348.638055642
349.178518943
349.692623421
350.180729069
350.643214054
351.080450619
351.492822925
351.880705159
352.24447725
352.584505259
352.901154993
353.194774757
353.465706904
353.714273022
353.94078347
354.14552511
354.328768926
354.490760508
354.631726194
354.751867254
354.851366864
354.930394129
354.989135289
355.02809806
355.045275057
273.336707869
273.416857212
273.582295056
273.835103925
274.173638604
274.596238264
275.100889276
275.685245438
276.346657377
277.082215706
277.888784167
278.763044585
279.701527504
280.700654785
281.756764502
282.866148886
284.02507207
285.22980265
286.476624235
287.761862981
289.081891763
290.433153633
291.812160788
293.215515064
294.639902889
296.082113792
297.53903235
299.007655434
300.485081872
301.968528893
303.45531991
304.942900717
306.4288258
307.910773354
309.386530585
310.854008786
312.311227218
313.756327587
315.187556989
316.603281912
318.001970357
319.382205364
320.742666494
322.082142911
323.39951442
324.693764157
325.963959388
327.209263858
328.428918561
329.622253801
330.788670122
331.92765012
333.038739713
334.121559729
335.17578765
336.201168986
337.197499604
338.164636859
339.102482587
340.01099394
340.890167086
341.740047671
342.560715251
343.352293282
344.114934274
344.848829233
345.554193514
346.23127562
346.880343753
347.501693893
348.095637046
348.66250655
349.202646039
349.716415944
350.204182197
350.666321938
351.103212997
351.515238815
351.902778769
352.266212337
352.605910323
352.922238306
353.215548832
353.486184196
353.734469656
353.960715608
354.165211881
354.348229351
354.510015364
354.650794761
354.770766156
354.870101182
354.948937973
355.007362624
355.045304988
355.062456383
273.170844977
273.252142571
273.419113406
273.674227183
274.015807338
274.442147537
274.951173659
275.540470826
276.207319119
276.94873541
277.761512475
278.642261279
279.587447722
280.593431177
281.656495496
282.772881502
283.938810924
285.150512315
286.404238064
287.696284355
289.023002259
290.380812917
291.76621402
293.175791494
294.606222613
296.054285279
297.516858751
298.990931317
300.473599307
301.962073631
303.453677488
304.945852099
306.436153343
307.922256536
309.401952151
310.873150035
312.333874156
313.7822661
315.216579018
316.635180468
318.036545657
319.419259706
320.782010313
322.123589527
323.44288597
324.738886235
326.010666834
327.257395316
328.478322099
329.672781427
330.840183225
331.98001399
333.091828791
334.175252179
335.229970435
336.25573253
337.252342698
338.219661472
339.157598605
340.06611417
340.945211834
341.794939981
342.615385316
343.406673944
344.168965264
344.902452944
345.607359053
346.283934864
346.932455184
347.553218932
348.146543652
348.712765821
349.252235536
349.765316558
350.25238118
350.713810018
351.149987092
351.561299397
351.948132248
352.310868663
352.649885033
352.96555037
353.25822235
353.528246482
353.775952582
354.001653903
354.205644087
354.388196264
354.549560452
354.689962491
354.809601487
354.908647765
354.98723845
355.045467736
355.083304101
355.101372762
272.915838116
272.998422749
273.167791221
273.426509653
273.772840443
274.205001355
274.720824646
275.317790256
275.993067283
276.743558695
277.565945129
278.456728637
279.412273144
280.428842993
281.502636646
282.62981785
283.806541495
285.028977187
286.293327787
287.5958464
288.932848933
290.30072602
291.69595115
293.115089019
294.554800614
296.011849183
297.483103296
298.965541253
300.456252758
301.952442233
303.45142945
304.950651919
306.447664654
307.94014184
309.425875644
310.902777067
312.368873989
313.822311253
315.261347936
316.684356728
318.089820511
319.476331123
320.842585355
322.187383207
323.509623451
324.808301501
326.082504687
327.331409881
328.55427862
329.750454628
330.919358921
332.060487336
333.173405742
334.257747668
335.313209708
336.33954931
337.336580436
338.304171541
339.242241511
340.150757821
341.029732738
341.879221634
342.699319398
343.490158852
344.25190732
344.984765069
345.688961977
346.364755935
347.012429557
347.632288501
348.224658175
348.78988195
349.328317859
349.840336688
350.326318687
350.786651554
351.22172719
351.631939619
352.017681828
352.379343673
352.717308861
353.031952895
353.323640254
353.592722434
353.839535375
354.064397642
354.267608133
354.449444405
354.610160623
354.749985933
354.869122438
354.967743245
355.045990191
355.103970145
355.141676649
355.159903599
272.570606177
272.65483976
272.82749792
273.091170482
273.4440265
273.884172894
274.409309939
275.016770917
275.703570055
276.466452537
277.301943514
278.206395465
279.176032138
280.206988792
281.295347651
282.437169076
283.62851785
284.865485602
286.144208997
287.460884985
288.811782761
290.193253788
291.601739437
293.033777558
294.486007359
295.955173847
297.438131016
298.931844974
300.433396045
301.939980989
303.44891428
304.957629449
306.463679664
307.964738537
309.458599687
310.943176635
312.416501707
313.876725131
315.322113158
316.751046416
318.162017329
319.553627825
320.924586161
322.273704107
323.599893322
324.90216216
326.17961174
327.431432528
328.656900256
329.855372417
331.026284179
332.169144918
333.283534248
334.369098698
335.42554794
336.452651692
337.450236197
338.418181376
339.356417588
340.264923024
341.143720716
341.992876138
342.812494417
343.602718072
344.363724347
345.095723021
345.798953785
346.473684045
347.120206289
347.738835819
348.329908071
348.893776247
349.430808563
349.941385793
350.425898457
350.884744292
351.318325424
351.727045807
352.111308425
352.471512767
352.808052107
353.121311072
353.41166307
353.679468001
353.925069893
354.148794794
354.350948648
354.531815401
354.691655096
354.830702143
354.949163591
355.047217689
355.125012552
355.182664578
355.220179416
355.238383908
272.133366399
272.219691725
272.396585863
272.666645694
273.027911212
273.478338435
274.015451059
274.636387976
275.337959231
276.116703339
276.968942811
277.890836631
278.878428222
279.927688193
281.034551362
282.194948237
283.404831047
284.660195034
285.957095406
287.291660794
288.660103666
290.058728501
291.483938027
292.932238221
294.400242162
295.884673299
297.382368043
298.890278098
300.405472323
301.925138444
303.446584321
304.967238921
306.484653042
307.996499936
309.500574919
310.994795026
312.477198068
313.945941428
315.399300302
316.835665726
318.253542083
319.651544446
321.028395473
322.382922209
323.714052513
325.020811477
326.302317555
327.557778752
328.786488619
329.98782238
331.161232932
332.306247045
333.422461503
334.509539494
335.567206977
336.595249341
337.593508068
338.561877681
339.500302721
340.408774981
341.287330759
342.136048331
342.955045415
343.744476803
344.504531947
345.235432665
345.937430752
346.610805677
347.255862145
347.872927717
348.46235028
349.024495556
349.559744458
350.068490497
350.551137042
351.008094642
351.439778248
351.846604492
352.228988925
352.587343329
352.922073025
353.233574284
353.522231772
353.788416127
354.032481593
354.25476381
354.455577692
354.635215451
354.793944731
354.932006902
355.049615492
355.146954874
355.224179496
355.281412655
355.318665697
355.336766701
271.601841462
271.690757708
271.872916448
272.150914818
272.522623902
272.985802474
273.537745451
274.175341754
274.895140669
275.693418742
276.566243543
277.509532667
278.519106467
279.590733788
280.720170482
281.903190989
283.135613562
284.413319932
285.732270263
287.088514306
288.478199547
289.897577124
291.343006101
292.810956642
294.298012451
295.800872781
297.316354172
298.841392041
300.373042136
301.908481872
303.445011431
304.980054595
306.51115949
308.035999124
309.552370951
311.058196452
312.551520176
314.030508387
315.493447255
316.938740678
318.364907699
319.770579601
321.154496685
322.515504795
323.852551613
325.164682799
326.451037974
327.710846657
328.943424118
330.148167269
331.324550563
332.472121986
333.590499134
334.679365442
335.738466534
336.767606772
337.766645953
338.735496204
339.674119034
340.582522569
341.46075892
342.308921689
343.127143567
343.915594025
344.674477034
345.404028825
346.104515623
346.776231372
347.419495401
348.034650033
348.622058121
349.182100518
349.715173458
350.221685888
350.702056727
351.156712093
351.586082482
351.990599959
352.370695328
352.726795345
353.059319965
353.368679651
353.655272756
353.919483008
354.16167709
354.382202354
354.581384656
354.759526334
354.916904341
355.053768523
355.170340096
355.266810541
355.343340627
355.400058955
355.436981158
355.454929272
270.973208669
271.065273532
271.253832591
271.541475841
271.925858068
272.404485387
272.974361556
273.63205971
274.373802345
275.195540559
276.093028177
277.061888727
278.097673717
279.195911594
280.352147472
281.561974303
282.821056484
284.125147077
285.470099863
286.851877408
288.266556173
289.710329591
291.179509809
292.670528709
294.179938581
295.704412756
297.240746318
298.78585698
300.336786074
301.890699621
303.444889147
304.99677272
306.543895597
308.083930621
309.614677916
311.134064382
312.640142678
314.131089766
315.605204977
317.060907663
318.496734424
319.911335992
321.303473766
322.672016106
324.015934365
325.334298781
326.62627421
327.891115813
329.128164686
330.336843529
331.516652343
332.667164255
333.788021438
334.878931214
335.939662325
336.970041409
337.969949677
338.93931981
339.878133052
340.786416503
341.664240576
342.511716607
343.328994576
344.116260916
344.873736362
345.601673825
346.300356234
346.970094355
347.611224516
348.224106277
348.80911998
349.366664223
349.897153224
350.401014107
350.878684107
351.330607718
351.757233797
352.159012653
352.536393127
352.889819702
353.219729648
353.526550232
353.810696011
354.072566216
354.312542261
354.530985374
354.728234371
354.904603586
355.060380956
355.1958263
355.311169801
355.406610711
355.482316545
355.538421404
355.574944775
355.592701206
270.244037598
270.339879073
270.536111176
270.835304741
271.234839897
271.731901934
272.323127411
273.004694424
273.77242045
274.621857387
275.548378536
276.547255108
277.613720709
278.743023441
279.930466246
281.171436695
282.461427822
283.796051698
285.171047432
286.582285103
288.025766932
289.49762678
290.994128801
292.511665873
294.04675824
295.596052598
297.15632174
298.724464716
300.297507439
301.872603568
303.44703518
305.018214022
306.583682244
308.14111269
309.688308724
311.223203682
312.743859817
314.248466724
315.735339262
317.202915
318.64975123
320.074521572
321.476012257
322.853118097
324.204838241
325.530271745
326.828613025
328.099147233
329.34124563
330.554360976
331.738023016
332.891834068
334.015464785
335.108650099
336.171185393
337.202922894
338.203768339
339.173677866
340.11265517
341.020748863
341.898050062
342.744690118
343.560838501
344.346700756
345.102516522
345.828557539
346.525125643
347.192550676
347.831188318
348.441417796
349.023639476
349.578272326
350.105751263
350.606524374
351.081050054
351.529794063
351.953226525
352.351818903
352.726040962
353.076357757
353.403226656
353.707094439
353.988394469
354.24754398
354.484941481
354.700964303
354.895966293
355.070275678
355.224193109
355.357989861
355.471906261
355.566150504
355.640897446
355.69628673
355.732342915
355.749872521
269.410214476
269.510548873
269.715901245
270.028804234
270.446289517
270.965135976
271.581518609
272.291123635
273.089269666
273.971022862
274.931299685
275.96495452
277.06685074
278.231915439
279.455179202
280.731802988
282.057094506
283.426516508
284.835689216
286.280388822
287.756543644
289.260229206
290.787663157
292.335200708
293.899330967
295.476674392
297.063981355
298.658131712
300.256135145
301.85513205
303.452394209
305.045326386
306.631467359
308.208490093
309.774201763
311.326543229
312.863587923
314.383540163
315.884732889
317.36562489
318.824797527
320.260951045
321.672900509
323.059571439
324.419995194
325.753304199
327.058727029
328.335583462
329.583279509
330.801302517
331.989216358
333.146656787
334.273326977
335.368993304
336.433481377
337.466672368
338.468499629
339.438945619
340.378039106
341.285852657
342.162500349
343.008135687
343.82294967
344.607168958
345.361054074
346.084897618
346.779022411
347.443779555
348.079546362
348.686724137
349.265735802
349.817023354
350.341045166
350.838273152
351.309189804
351.754285136
352.174053561
352.568990721
352.939590311
353.286340925
353.609722933
353.91020544
354.188243333
354.444274437
354.678716812
354.891966194
355.084393598
355.256343108
355.408129828
355.54003806
355.652319673
355.745192659
355.818840144
355.87340844
355.908927508
355.926195288
268.466846984
268.57250308
268.788645849
269.117740234
269.556374603
270.100812074
270.746647269
271.48895467
272.322440312
273.24158236
274.240752982
275.31431851
276.456716968
277.662514157
278.926440867
280.243414511
281.60854869
283.017153986
284.464732898
285.94697131
287.459728379
288.999026246
290.561040567
292.142092523
293.738642665
295.347286693
296.964753072
298.5879022
300.213726761
301.839352862
303.462040988
305.079188071
306.688329129
308.287137263
309.873424024
311.445138922
313.000368277
314.537333388
316.054388071
317.550015595
319.022825087
320.471547472
321.895031015
323.292236536
324.662232393
326.004189263
327.31737484
328.60114847
329.854955818
331.078323603
332.270854474
333.432222063
334.562166287
335.660488915
336.727049461
337.761761412
338.764588824
339.735543259
340.674681096
341.582101135
342.457942513
343.30238283
344.115636464
344.897952981
345.649615605
346.370939644
347.062270857
347.723983674
348.35647926
348.960183375
349.535544034
350.083028949
350.603122788
351.09632424
351.563142944
352.004096285
352.419706118
352.810495434
353.176985012
353.519690088
353.839117075
354.135760352
354.410099164
354.662594632
354.893686924
355.103792576
355.293301991
355.462577129
355.611949397
355.741717716
355.852146807
355.94346588
356.015867228
356.069504194
356.104413655
356.121384135
267.408142901
267.520094134
267.74898325
268.09716324
268.56065501
269.135064181
269.815253406
270.595535523
271.469865087
272.432010955
273.475700883
274.594735252
275.783070008
277.034871675
278.344548808
279.706764979
281.116438244
282.568731564
284.059037847
285.582962498
287.13630561
288.715045294
290.315323153
291.933432507
293.565809616
295.209027902
296.859794861
298.514951201
300.171471611
301.826466531
303.477183765
305.121011265
306.755479637
308.37826198
309.987174719
311.580177192
313.155370441
314.710995223
316.245429287
317.757183977
319.244900242
320.707344141
322.143401905
323.552074684
324.932473017
326.283811148
327.605401228
328.896647506
330.157040546
331.386151561
332.583626901
333.749182779
334.882600266
335.983720635
337.052441065
338.088710774
339.092527565
340.063934823
341.003018912
341.909906986
342.784765112
343.627796693
344.439241076
345.219372297
345.968497843
346.686957389
347.375121409
348.03338961
348.662189144
349.261972569
349.833215537
350.376414226
350.892082509
351.380748924
351.842953438
352.279244084
352.690173479
353.0762953
353.438160729
353.776314922
354.091293532
354.383619314
354.653798845
354.90231938
355.12964587
355.336218148
355.522448315
355.688718327
355.835377772
355.962741898
356.071089836
356.160663003
356.23166399
356.284254544
356.318478712
356.335114664
266.227254173
266.34666147
266.59062226
266.961311424
267.454017609
268.063502644
268.78370161
269.607976489
270.529359767
271.540766909
272.635167354
273.805711852
275.045818236
276.349221134
277.709992778
279.122542439
280.581601416
282.082199387
283.619636678
285.189455724
286.787414039
288.409460129
290.051713307
291.710447837
293.382081577
295.063168885
296.750397311
298.440587278
300.130693886
301.817809781
303.499168033
305.172146092
306.834269036
308.483209586
310.116789465
311.732979053
313.329896113
314.905803584
316.459106543
317.98834839
319.492206396
320.96948666
322.419118645
323.840149329
325.231737124
326.593145609
327.923737206
329.222966825
330.490375594
331.725584708
332.928289493
334.098253722
335.235304282
336.339326223
337.410258265
338.448088795
339.452852386
340.424626832
341.36353071
342.26972139
343.14339348
343.984777582
344.794139303
345.571778382
346.318027863
347.033253185
347.717851109
348.372248411
348.996900277
349.592288365
350.158918537
350.697318239
351.208033593
351.691626192
352.148669697
352.579746241
352.98544273
353.366347064
353.723044351
354.056113135
354.366121694
354.653624431
354.919158399
355.163239967
355.386361674
355.588989273
355.771558977
355.934474934
356.078106922
356.20278825
356.308813897
356.396439079
356.465877703
356.517300288
356.55075964
356.567022416
264.916075085
265.044345067
265.306184369
265.703491578
266.230600708
266.881181851
267.647987446
268.523188078
269.498683943
270.566366473
271.718318834
272.946955065
274.245103541
275.606044502
277.023512893
278.49167743
280.005105319
281.558720001
283.147757278
284.76772338
286.414357152
288.083597642
289.771557727
291.474504077
293.188843375
294.911114445
296.637985423
298.366254907
300.092855703
301.814859074
303.529480571
305.234085144
306.926190326
308.603467869
310.263745116
311.905004784
313.525383551
315.123169587
316.696799088
318.244851975
319.76604684
321.259235308
322.723395882
324.157627454
325.561142544
326.933260401
328.273400039
329.581073301
330.855878002
332.097491258
333.305663024
334.480209968
335.621009719
336.727995596
337.801151849
338.840509523
339.846142913
340.818166691
341.756733624
342.662032894
343.534288896
344.373760459
345.180740327
345.955554806
346.698563421
347.41015846
348.090764295
348.740836381
349.36085987
349.951347798
350.512838833
351.045894607
351.551096657
352.029043043
352.480344684
352.905621513
353.305498477
353.680601482
354.031553316
354.358969605
354.663454852
354.945598584
355.205971645
355.445122668
355.663574741
355.861822281
356.040328145
356.199520981
356.339792801
356.461496837
356.564945615
356.650409219
356.718114103
356.768241052
356.800851792
356.816700281
263.464978273
263.603843278
263.887002959
264.315932953
264.883708121
265.582572622
266.40376055
267.337943545
268.375630339
269.507487756
270.724572142
272.018475137
273.381395621
274.806154199
276.286167399
277.815397069
279.388287436
280.999698835
282.644844055
284.319230696
286.018611271
287.738941732
289.476348642
291.227104974
292.98761436
294.754403174
296.524119353
298.293536257
300.059559677
301.819234598
303.569754629
305.308468822
307.032884928
308.740672712
310.429665368
312.097859328
313.743412672
315.364642238
316.960019646
318.528166357
320.067847933
321.57796763
323.05755949
324.505781048
325.921905826
327.305315683
328.65549316
329.97201386
331.254538965
332.502807932
333.716631474
334.895884875
336.040501778
337.150468493
338.225818957
339.266630387
340.273019703
341.245140722
342.18318212
343.087366094
343.957947653
344.795214382
345.599486556
346.371117415
347.110493445
347.818034484
348.49419353
349.139456109
349.754339157
350.339389325
350.895180755
351.4223123
351.921404291
352.393094884
352.838036102
353.256889644
353.650322546
354.019002782
354.36359485
354.684755413
354.983129037
355.25934407
355.514008678
355.74770709
355.960996058
356.154401558
356.328415746
356.483494171
356.620053264
356.738468056
356.839070172
356.922146296
356.987936504
357.036632189
357.06830569
357.083696869
261.862465469
262.014096075
262.322866232
262.789608352
263.40571428
264.161546445
265.046375102
266.048978293
267.158154659
268.363114005
269.653737346
271.020718325
272.455608056
273.950789922
275.499409933
277.095284081
278.732798627
280.406813776
282.112576628
283.845645978
285.601829505
287.377132975
289.167720949
290.969888673
292.780044928
294.594705245
296.410493956
298.224152714
300.032552511
301.832704877
303.621774998
305.397091372
307.15614914
308.896614697
310.616327242
312.313298527
313.985710881
315.631913783
317.250419187
318.839895825
320.3991626
321.927181303
323.423048765
324.885988673
326.315343164
327.710564367
329.071205941
330.396914733
331.687422564
332.942538252
334.16213991
335.346167652
336.494616787
337.607531657
338.685000206
339.727149408
340.73414161
341.706171831
342.643466003
343.546280092
344.414899975
345.24964193
346.050853516
346.818914672
347.554238761
348.257273398
348.928500843
349.568437838
350.177634776
350.756674162
351.306168358
351.82675667
352.319101839
352.783886061
353.221806629
353.633571325
354.019893663
354.381488078
354.719065121
355.033326743
355.324961695
355.594641089
355.843014169
356.070704294
356.278305181
356.466377409
356.635445218
356.785993581
356.918465566
357.033260016
357.130729484
357.21117837
357.274861684
357.321983019
357.352625433
357.367513288
260.094698861
260.261864893
260.601685944
261.114016016
261.787964579
262.611383564
263.570984226
264.653143971
265.844562549
267.132729979
268.506205578
269.954734306
271.469239119
273.041731163
274.66517514
276.333338673
278.040645178
279.782041296
281.552883614
283.348845108
285.165839631
286.99996223
288.847443728
290.704619019
292.567909234
294.433817566
296.298936924
298.159965924
300.013728527
301.857191929
303.687484506
305.501908179
307.297941823
309.073246831
310.825668663
312.553236312
314.254159765
315.926825775
317.569792324
319.181781967
320.761674233
322.308497242
323.821418791
325.299737081
326.742871332
328.150352364
329.521813311
330.856980444
332.155664203
333.417750429
334.643191923
335.832000388
336.984238954
338.100015387
339.179476207
340.222801788
341.230202609
342.201916665
343.138208055
344.039366664
344.905708805
345.737578596
346.535349857
347.299428206
348.030253115
348.7282996
349.394079378
350.02814124
350.631070582
351.203487995
351.746046965
352.259430723
352.744348385
353.201530509
353.63172424
354.035688175
354.414187102
354.767986695
355.097848271
355.404523654
355.688750199
355.95124602
356.192705438
356.413794702
356.615147982
356.797363676
356.961001022
357.106577043
357.234563811
357.345385991
357.43941871
357.516985936
357.578358724
357.623753176
357.653264877
357.667601062
258.144862241
258.331168968
258.709067539
259.276916209
260.020680287
260.924824989
261.972703736
263.147643295
264.433776669
265.816589235
267.283193725
268.822384942
270.424539378
272.081424353
273.785969712
275.532039536
277.314226039
279.127675615
280.967948386
282.83090763
284.712633526
286.609356085
288.517404209
290.433170465
292.353092994
294.273655824
296.191405484
298.102978866
300.005133758
301.894777823
303.768992316
305.625044716
307.460393603
309.272693717
311.059797274
312.819753009
314.550802724
316.251375962
317.920083346
319.555708845
321.157200937
322.723662969
324.254342917
325.748622887
327.206008547
328.626118724
330.008675166
331.353492552
332.660468668
333.929574824
335.160846506
336.354374474
337.510296404
338.628789369
339.710063313
340.754355769
341.761927929
342.733062197
343.668061187
344.567248119
345.430968403
346.259592188
347.053517498
347.813173663
348.539024596
349.231571629
349.891355563
350.518957737
351.11499994
351.680143147
352.215085078
352.720556723
353.19731797
353.646152566
354.0678626
354.463262728
354.833174285
355.178419416
355.499815324
355.798168667
356.074270174
356.328889493
356.562770308
356.77662575
356.971134146
357.146935088
357.304625881
357.444758339
357.567835927
357.674311279
357.764584032
357.838998866
357.897844244
357.941350452
357.969625662
357.983358339
255.992273869
256.202517162
256.627749263
257.264018595
258.092886976
259.094201607
260.246884153
261.530383189
262.925715304
264.416075057
265.987059655
267.626600121
269.324705897
271.073120717
272.864963169
274.694397877
276.556359707
278.446336232
280.360203071
282.294101343
284.244345454
286.207351599
288.179581888
290.157504591
292.137575132
294.116242928
296.089981944
298.05533722
300.008972175
301.947714257
303.868584471
305.76880755
307.645817958
309.497262366
311.321000737
313.115104883
314.877853672
316.607726031
318.303392985
319.963708678
321.587700166
323.174556179
324.723615353
326.234354202
327.706375272
329.139395597
330.533235567
331.887808061
333.20310781
334.479200877
335.716214334
336.914326271
338.073756413
339.194757597
340.27760846
341.322607586
342.330069348
343.300321565
344.233705025
345.130574745
345.991302783
346.816282231
347.605932008
348.360701929
349.081077602
349.767584659
350.420791966
351.041313492
351.629808691
352.186981321
352.713576786
353.210378148
353.678201065
354.117887932
354.530301528
354.916318416
355.276822322
355.612697606
355.924822934
356.21406518
356.481273587
356.727274213
356.952864679
357.158809265
357.345834361
357.514624326
357.66581773
357.80000402
357.917720582
358.019450144
358.105618559
358.176593149
358.232680912
358.274126567
358.30105279
358.314127371
253.611128455
253.851845804
254.336867846
255.058623974
255.992402817
257.111694773
258.389550262
259.800500395
261.321825066
262.934183245
264.621702299
266.371683828
268.174098559
270.021016268
271.906068436
273.82399517
275.77029299
277.740957947
279.732306511
281.740852164
283.76321635
285.796057437
287.836009805
289.879635719
291.923401627
293.963693579
295.996869142
298.01933369
300.027616332
302.018435815
303.988737516
305.935697889
307.856724481
309.749454989
311.611758678
313.441735068
315.237706855
316.998210329
318.721985904
320.407968106
322.055273689
323.663188501
325.231153759
326.758752236
328.245694853
329.691808039
331.09702168
332.461357533
333.784917766
335.067873497
336.310453302
337.512931945
338.67561963
339.798852225
340.882982856
341.928375299
342.93539943
343.904429006
344.835841763
345.730021798
346.5873639
347.408279448
348.193203276
348.94260091
349.656975494
350.336873832
350.982891011
351.595673273
352.17591889
352.724377035
353.241844718
353.729162075
354.187206319
354.61688479
355.019127498
355.39487951
355.745093439
356.070722174
356.372711934
356.651995637
356.909486589
357.146072494
357.362609819
357.559918522
357.738777214
357.899918761
358.044026348
358.171730004
358.283603565
358.380162089
358.46185964
358.529087309
358.582171998
358.621374586
358.646832247
358.659190165
250.968668891
251.249024894
251.810999126
252.641241955
253.70595431
254.969816642
256.39809768
257.95913655
259.625824138
261.376160126
263.193059237
265.063667614
266.978466425
268.930377896
270.913996262
272.924990986
274.959681447
277.014756525
279.087101966
281.173696472
283.271541472
285.377598112
287.488719062
289.601581892
291.712649282
293.818194758
295.914387813
297.997419167
300.063623749
302.109576978
304.132135698
306.128427866
308.095834606
310.03198402
311.934756534
313.802285933
315.632947882
317.425345564
319.178299035
320.89083498
322.56217289
324.191709317
325.779001802
327.323752696
328.825793992
330.28507357
331.701642495
333.075642869
334.407295778
335.696888818
336.944763289
338.151301265
339.316913125
340.442026072
341.527074283
342.572491204
343.578704456
344.546133631
345.475191125
346.366285863
347.219829618
348.036245316
348.815976636
349.559498011
350.267324211
350.940018655
351.578199847
352.18254542
352.753793584
353.292741915
353.80024368
354.277202032
354.7245626
355.143305042
355.534434153
355.898970975
356.237944251
356.552382346
356.843305655
357.111719444
357.35860706
357.584923493
357.791589299
357.979484962
358.149445704
358.302256841
358.438649644
358.559297753
358.664814096
358.755748228
358.832584129
358.895738602
358.945559534
358.982324113
359.006185995
359.017765526
248.022452061
248.355723631
249.018919719
249.989247942
251.219541943
252.662251444
254.27237969
256.010570712
257.844729162
259.750332497
261.709707863
263.710696923
265.745159091
267.807628244
269.894258937
272.002081899
274.128528677
276.271162854
278.427551476
280.595214724
282.771599831
284.954037645
287.139660797
289.325295454
291.507375692
293.681981932
295.844978364
297.992220656
300.119763606
302.223999607
304.301693189
306.349939626
308.366099869
310.34778982
312.292901472
314.199612888
316.066365866
317.89184163
319.674950771
321.414825767
323.110804276
324.762409555
326.36933142
327.931406915
329.448602902
330.921001551
332.348787325
333.732234855
335.071696584
336.367589365
337.620380004
338.830570256
339.998682
341.125243518
342.210777632
343.255792505
344.260775665
345.22619176
346.15248418
347.040080515
347.889401363
348.700871816
349.474934574
350.212063601
350.912777109
351.577648827
352.207316669
352.802488234
353.363942828
353.892530039
354.389165067
354.854821369
355.2905213
355.697325629
356.076322736
356.428618155
356.755324825
357.057554179
357.336407956
357.592970561
357.828301818