/*--------------------------------*- C++ -*----------------------------------*\
| =========                 |                                                 |
| \\      /  F ield         | OpenFOAM: The Open Source CFD Toolbox           |
|  \\    /   O peration     | Version:  v1906                                 |
|   \\  /    A nd           | Web:      www.OpenFOAM.com                      |
|    \\/     M anipulation  |                                                 |
\*---------------------------------------------------------------------------*/
FoamFile
{
    version     2.0;
    format      ascii;
    class       volVectorField;
    location    "973";
    object      Ua;
}
// * * * * * * * * * * * * * * * * * * * * * * * * * * * * * * * * * * * * * //

dimensions      [0 1 -1 0 0 0 0];


internalField   nonuniform List<vector> 
9216
(
(-0.0103645713785 0.0103711742012 0)
(-0.010937770251 0.0334713303138 3.91401164746e-27)
(-0.0109338029749 0.0569277335677 -7.07811158189e-31)
(-0.010831223018 0.0803912188683 0)
(-0.010685022437 0.103464774146 0)
(-0.010499425149 0.126054015211 0)
(-0.0102789176494 0.148057563162 0)
(-0.0100268612796 0.169383268609 0)
(-0.00974606028628 0.189948393564 0)
(-0.00943963600662 0.209679540966 0)
(-0.00911038607635 0.228513021143 0)
(-0.00876150716548 0.246394766525 0)
(-0.00839575370539 0.263280457818 0)
(-0.00801625312528 0.279135136967 0)
(-0.00762555693204 0.293933021342 0)
(-0.00722657226678 0.307656866703 0)
(-0.00682152446258 0.320297558387 0)
(-0.00641300277107 0.331853329631 0)
(-0.00600284381912 0.342329233402 0)
(-0.00559328173688 0.351736317155 0)
(-0.00518575717436 0.360091068267 0)
(-0.00478216013947 0.367414627046 0)
(-0.00438356878518 0.373732269011 0)
(-0.00399157020001 0.379072704374 0)
(-0.00360693146709 0.383467631116 0)
(-0.00323098556409 0.386951140503 0)
(-0.00286424047675 0.38955934473 0)
(-0.00250781827681 0.391329883527 0)
(-0.00216201012213 0.392301619055 0)
(-0.00182776462119 0.392514239494 0)
(-0.00150520781911 0.392007958466 0)
(-0.00119506226943 0.390823444175 0)
(-0.000897199423685 0.389001036446 0)
(-0.000612268527467 0.386580813921 0)
(-0.000340070569767 0.383602531639 0)
(-8.11056815028e-05 0.380105290319 0)
(0.000164985750757 0.376127405603 0)
(0.000397835983962 0.371706244752 0)
(0.000617927432227 0.366878101177 0)
(0.000825005033657 0.361678086027 0)
(0.00101965551986 0.356140026389 0)
(0.00120172274464 0.350296402951 0)
(0.00137187929048 0.344178265818 0)
(0.00153005268376 0.337815212618 0)
(0.00167698248131 0.331235321314 0)
(0.00181266370985 0.324465166869 0)
(0.00193788185041 0.317529768018 0)
(0.00205268113394 0.310452638391 0)
(0.00215787172825 0.30325574744 0)
(0.0022535287631 0.29595960414 0)
(0.00234046534302 0.288583228677 0)
(0.00241876926802 0.281144263665 0)
(0.00248923720719 0.273658955229 0)
(0.00255195426573 0.266142287906 0)
(0.00260768394577 0.258607969787 0)
(0.00265649650956 0.251068584053 0)
(0.0026991107866 0.243535574759 0)
(0.00273557540341 0.236019409424 0)
(0.00276655776871 0.228529559042 0)
(0.00279208279234 0.221074664175 0)
(0.00281276561144 0.213662505657 0)
(0.00282861062853 0.206300169213 0)
(0.00284018395056 0.198994001921 0)
(0.0028474760375 0.191749769941 0)
(0.00285101100452 0.184572599597 0)
(0.00285077462907 0.177467126097 0)
(0.00284725733405 0.170437417691 0)
(0.00284044976659 0.163487113569 0)
(0.00283081745586 0.156619333227 0)
(0.00281836492833 0.1498368047 0)
(0.00280353994443 0.143141760819 0)
(0.00278636756557 0.136536058942 0)
(0.00276728296532 0.130021068414 0)
(0.00274633586436 0.123597784849 0)
(0.00272395093583 0.117266711951 0)
(0.002700203412 0.111027972763 0)
(0.00267550695561 0.104881190302 0)
(0.00264996046364 0.0988255989851 0)
(0.00262396325934 0.0928599268223 0)
(0.0025976334382 0.086982509179 0)
(0.00257135070912 0.081191175718 0)
(0.00254524605827 0.0754833689146 0)
(0.00251967234322 0.0698560374523 0)
(0.00249476515564 0.0643057614103 0)
(0.00247084093591 0.0588286551067 0)
(0.002448027532 0.0534205029707 0)
(0.00242658696336 0.0480766791428 0)
(0.00240660772664 0.0427923098547 0)
(0.00238823242023 0.0375622500573 0)
(0.00237135684871 0.0323813685193 0)
(0.00235561603763 0.0272448234124 0)
(0.00233968547346 0.0221492106623 0)
(0.00231989682933 0.0170953738546 0)
(0.00228025435511 0.0121120409511 0)
(0.00220561391684 0.00699406801185 0)
(0.0027222434349 0.0027218391004 0)
(-0.0335518902238 0.0110304566447 0)
(-0.0370888798534 0.0373741317085 0)
(-0.0370013673128 0.0636450185503 -4.10877578358e-27)
(-0.0364986812291 0.0899480078604 0)
(-0.0358002347063 0.115779347443 0)
(-0.0349328799868 0.141054103012 0)
(-0.0339113233209 0.165664508255 0)
(-0.0327500690157 0.189509157054 0)
(-0.031463736559 0.212495903845 0)
(-0.0300679810523 0.234542867289 0)
(-0.028578262981 0.255578990339 0)
(-0.0270106705563 0.275544155654 0)
(-0.0253804546697 0.294389219002 0)
(-0.0237030418978 0.312075679637 0)
(-0.0219924722592 0.328575335358 0)
(-0.0202626494304 0.343869652208 0)
(-0.0185257159866 0.357949174363 0)
(-0.0167935368862 0.370812724269 0)
(-0.015076019726 0.382466693114 0)
(-0.0133828069202 0.392924190173 0)
(-0.0117215341829 0.402204320426 0)
(-0.0100996968967 0.410331374944 0)
(-0.00852283406525 0.417334168983 0)
(-0.00699652902987 0.423245328127 0)
(-0.00552450546406 0.428100722146 0)
(-0.00411072744879 0.431938864463 0)
(-0.00275740308209 0.434800443857 0)
(-0.00146715808114 0.436727828507 0)
(-0.000240953261301 0.437764679413 0)
(0.000919680925879 0.43795553427 0)
(0.00201478841485 0.437345516777 0)
(0.00304376961073 0.435979773648 0)
(0.0040076007735 0.433903708492 0)
(0.00490640721121 0.431162457726 0)
(0.00574175638355 0.427800526468 0)
(0.0065143524296 0.423861680525 0)
(0.00722631133516 0.419388759403 0)
(0.00787880086466 0.414423523416 0)
(0.00847433876972 0.409006509668 0)
(0.00901443315151 0.403176919681 0)
(0.00950188591805 0.396972506222 0)
(0.00993844174899 0.390429501772 0)
(0.0103270834208 0.383582533447 0)
(0.0106696999178 0.376464588655 0)
(0.010969362616 0.369106955979 0)
(0.0112280219 0.361539225242 0)
(0.0114487531528 0.353789252092 0)
(0.0116334921963 0.345883189773 0)
(0.0117852421822 0.337845475962 0)
(0.0119058569553 0.329698893569 0)
(0.0119981999892 0.321464576976 0)
(0.0120639855033 0.31316209794 0)
(0.0121058824497 0.304809488001 0)
(0.0121254216617 0.296423344615 0)
(0.0121250375936 0.288018864439 0)
(0.0121060498961 0.279609963287 0)
(0.0120706368684 0.271209314696 0)
(0.0120198978438 0.262828476876 0)
(0.0119557516495 0.254477929814 0)
(0.0118790858503 0.246167202066 0)
(0.0117915744427 0.237904900746 0)
(0.0116939179616 0.229698832138 0)
(0.0115875741003 0.221556019411 0)
(0.0114730924066 0.213482812225 0)
(0.0113517526112 0.205484889412 0)
(0.0112239960381 0.197567355009 0)
(0.01109096639 0.189734724542 0)
(0.0109530400593 0.181991006653 0)
(0.0108112655309 0.174339674165 0)
(0.0106659937131 0.166783732612 0)
(0.0105182125329 0.159325678299 0)
(0.0103682787115 0.151967556143 0)
(0.0102171456283 0.144710908552 0)
(0.0100651972244 0.137556826106 0)
(0.00991336773281 0.130505891057 0)
(0.00976207870868 0.12355822439 0)
(0.00961225042389 0.116713428164 0)
(0.00946434242488 0.109970632569 0)
(0.00931925665589 0.103328440399 0)
(0.00917748215302 0.0967849769906 0)
(0.0090398905621 0.0903378398198 0)
(0.00890698501214 0.0839841538229 0)
(0.00877958835677 0.0777205280249 0)
(0.00865819598772 0.0715431179897 0)
(0.0085435562134 0.0654475912861 0)
(0.00843612421449 0.0594291985427 0)
(0.00833652890105 0.0534827483892 0)
(0.00824511378009 0.0476026852583 0)
(0.00816225902629 0.0417830647154 0)
(0.00808793060715 0.0360175963215 0)
(0.00802167333102 0.0302994663521 0)
(0.00796172332441 0.0246208581496 0)
(0.00790334252734 0.0189706383512 0)
(0.0078320874276 0.0133252518925 0)
(0.00765995316829 0.00764272918549 0)
(0.00698998302329 0.00219974318965 0)
(-0.0574406605658 0.0111776550127 0)
(-0.0635912311052 0.0379908764263 0)
(-0.0633726047689 0.0645938282438 -4.11251992586e-27)
(-0.0625009632949 0.0912801406994 0)
(-0.0613186810728 0.117483572601 0)
(-0.0598598802629 0.143113832734 0)
(-0.05814520886 0.16805929466 0)
(-0.0561971770478 0.192216266404 0)
(-0.0540399673806 0.215490891827 0)
(-0.051699235478 0.237800112193 0)
(-0.0492010746033 0.259072142727 0)
(-0.0465719460809 0.27924662226 0)
(-0.0438376616991 0.298274556217 0)
(-0.0410235021415 0.316117989569 0)
(-0.0381532669393 0.332749553489 0)
(-0.035249608908 0.348151822456 0)
(-0.0323331726791 0.362316615667 0)
(-0.0294231417719 0.375244183496 0)
(-0.0265364593054 0.386942400696 0)
(-0.0236885600946 0.397425909607 0)
(-0.0208926469214 0.40671531961 0)
(-0.0181605630157 0.414836404515 0)
(-0.0155020848593 0.421819384607 0)
(-0.0129258828839 0.42769823292 0)
(-0.010438791418 0.432510073141 0)
(-0.00804681268657 0.436294607524 0)
(-0.00575433860921 0.439093625765 0)
(-0.00356517127401 0.440950538265 0)
(-0.00148169085706 0.441909974364 0)
(0.000494117081906 0.4420173968 0)
(0.00236154704609 0.441318782548 0)
(0.00412012740856 0.439860277539 0)
(0.00577047072083 0.437687932816 0)
(0.0073133134372 0.434847472958 0)
(0.00875042713558 0.431384042465 0)
(0.0100835433709 0.427342001377 0)
(0.011315305974 0.422764743622 0)
(0.0124482176169 0.417694538247 0)
(0.0134855973347 0.412172390499 0)
(0.0144305295429 0.406237923976 0)
(0.015286826266 0.399929277286 0)
(0.0160579837919 0.393283023374 0)
(0.0167481437119 0.386334097436 0)
(0.0173610609074 0.37911574966 0)
(0.0179010577586 0.371659502378 0)
(0.0183720069299 0.363995134137 0)
(0.0187782737648 0.356150663587 0)
(0.0191237181802 0.34815236259 0)
(0.019412621629 0.340024765695 0)
(0.0196487126714 0.331790710301 0)
(0.019836075698 0.323471368582 0)
(0.0199782053853 0.315086311045 0)
(0.0200788953098 0.30665355768 0)
(0.0201413260931 0.298189660365 0)
(0.020168932039 0.289709767337 0)
(0.0201645274498 0.281227717929 0)
(0.0201311493711 0.272756114373 0)
(0.0200712252313 0.264306422017 0)
(0.0199873889667 0.255889040884 0)
(0.0198816921392 0.247513403936 0)
(0.0197563902234 0.239188042276 0)
(0.0196131978558 0.23092067538 0)
(0.0194540413198 0.222718264109 0)
(0.0192803578397 0.214587088007 0)
(0.0190938102615 0.206532783145 0)
(0.0188956294499 0.198560404119 0)
(0.0186872871551 0.190674445039 0)
(0.0184698805861 0.18287888566 0)
(0.0182447601691 0.175177196772 0)
(0.0180129552901 0.167572372206 0)
(0.0177757543111 0.160066920805 0)
(0.0175341710299 0.152662887157 0)
(0.017289475419 0.145361834178 0)
(0.0170427006139 0.138164856549 0)
(0.0167951236213 0.131072557758 0)
(0.0165478132325 0.124085060174 0)
(0.0163020608543 0.117201980912 0)
(0.0160589698892 0.110422442418 0)
(0.0158198372659 0.103745050446 0)
(0.015585785113 0.0971679081766 0)
(0.0153580939284 0.0906885993147 0)
(0.0151378771755 0.0843042080993 0)
(0.0149263667756 0.0780113091526 0)
(0.0147246308841 0.0718059946054 0)
(0.0145338115674 0.0656838714535 0)
(0.0143548842566 0.0596400951233 0)
(0.0141888445743 0.0536693708791 0)
(0.0140365032274 0.047765985368 0)
(0.0138986124533 0.0419237911704 0)
(0.0137756840563 0.0361361868696 0)
(0.0136680609293 0.0303959826425 0)
(0.0135758522217 0.0246950782522 0)
(0.0134991933493 0.0190235471498 0)
(0.0134368962262 0.0133638477926 0)
(0.0133295210281 0.00777359913862 0)
(0.0120832608424 0.00226501387245 0)
(-0.0818878510619 0.0113074252682 0)
(-0.0907268691667 0.0385711725411 0)
(-0.0904060317978 0.0655206970853 4.11060947054e-27)
(-0.0891471370788 0.0925744269785 0)
(-0.0874424199559 0.119129129789 0)
(-0.0853419825481 0.145089501815 0)
(-0.0828755773334 0.170339578586 0)
(-0.080075522487 0.194772680775 0)
(-0.0769768840126 0.218292885823 0)
(-0.0736166802911 0.240815893872 0)
(-0.0700328107286 0.262269401558 0)
(-0.0662633849963 0.282593198624 0)
(-0.0623458033096 0.301739012172 0)
(-0.0583163106342 0.319670109695 0)
(-0.0542092719181 0.336360734795 0)
(-0.0500569768196 0.351795386538 0)
(-0.0458891224859 0.365968011663 0)
(-0.0417328620012 0.378881119434 0)
(-0.0376124759149 0.390544881262 0)
(-0.0335496275491 0.400976220778 0)
(-0.0295631768891 0.41019794521 0)
(-0.0256695816774 0.418237915539 0)
(-0.0218827880644 0.425128291096 0)
(-0.0182147043968 0.43090483517 0)
(-0.0146751019147 0.435606301185 0)
(-0.0112720996438 0.439273877307 0)
(-0.00801203096478 0.441950698246 0)
(-0.0048999075943 0.443681400474 0)
(-0.00193924005423 0.444511726241 0)
(0.000867521829054 0.444488157451 0)
(0.00351920699753 0.443657588693 0)
(0.00601550282034 0.442067047926 0)
(0.0083571236169 0.439763311764 0)
(0.0105454780929 0.43679278435 0)
(0.0125828875939 0.433201219491 0)
(0.0144721601252 0.429033519049 0)
(0.0162168538893 0.424333556921 0)
(0.0178208657844 0.419144022482 0)
(0.0192887035597 0.413506285085 0)
(0.0206250819778 0.407460278453 0)
(0.0218352022426 0.401044401665 0)
(0.0229243561913 0.394295438602 0)
(0.0238982094703 0.387248490994 0)
(0.0247624136393 0.379936929593 0)
(0.0255228898927 0.37239235682 0)
(0.0261854490101 0.364644587629 0)
(0.0267560732756 0.356721640223 0)
(0.0272405457934 0.348649745334 0)
(0.0276447298918 0.340453363749 0)
(0.0279742100668 0.332155222187 0)
(0.0282345691994 0.323776355333 0)
(0.0284310446715 0.315336165368 0)
(0.0285688046872 0.306852484793 0)
(0.0286526228788 0.298341654768 0)
(0.0286871548199 0.289818603027 0)
(0.0286766342628 0.281296934572 0)
(0.0286251503879 0.272789017679 0)
(0.028536367177 0.264306079305 0)
(0.0284138005049 0.255858291373 0)
(0.028260560963 0.247454863222 0)
(0.0280796286837 0.239104120968 0)
(0.0278736180569 0.230813590204 0)
(0.0276450468562 0.222590062497 0)
(0.027396120498 0.214439663448 0)
(0.027128991527 0.206367902695 0)
(0.026845560182 0.198379724742 0)
(0.0265477200885 0.190479541102 0)
(0.026237172231 0.182671263775 0)
(0.0259156533307 0.174958320647 0)
(0.0255847605816 0.167343673577 0)
(0.0252461599765 0.159829819849 0)
(0.0249014202789 0.152418798371 0)
(0.0245521997766 0.145112181315 0)
(0.0242000886778 0.137911072731 0)
(0.0238467737612 0.130816094807 0)
(0.023493889466 0.123827383353 0)
(0.0231431608983 0.116944573089 0)
(0.022796264338 0.110166794033 0)
(0.0224549496024 0.103492659441 0)
(0.0221209112447 0.0969202663415 0)
(0.021795891634 0.0904471889632 0)
(0.0214815640413 0.0840704856472 0)
(0.0211796176698 0.0777866993495 0)
(0.0208916536906 0.071591871832 0)
(0.0206192530425 0.0654815513302 0)
(0.0203638857573 0.0594508126035 0)
(0.0201269617844 0.0534942677308 0)
(0.0199097543292 0.0476060837245 0)
(0.0197134379114 0.0417799815632 0)
(0.0195390398029 0.0360092257041 0)
(0.019387511015 0.0302865768462 0)
(0.0192598229363 0.0246042028015 0)
(0.0191570991887 0.0189535665462 0)
(0.0190768058136 0.0133203117551 0)
(0.0189265633397 0.00778146305496 0)
(0.0170095072384 0.00229015038135 0)
(-0.106735787735 0.0114743152452 0)
(-0.118270886565 0.0393321957492 0)
(-0.117841467926 0.066761183851 0)
(-0.116179988247 0.0943076222827 0)
(-0.113931092095 0.121330726725 0)
(-0.111162090298 0.147729683721 0)
(-0.107913115957 0.173383266871 0)
(-0.104227460038 0.1981808387 0)
(-0.100152029532 0.222023712467 0)
(-0.0957361566755 0.244825956034 0)
(-0.0910303124067 0.266514661116 0)
(-0.086085028956 0.287029937771 0)
(-0.0809498522006 0.306324632165 0)
(-0.0756725570637 0.324363805609 0)
(-0.0702983990407 0.341124030252 0)
(-0.0648696513568 0.356592539195 0)
(-0.0594251632209 0.370766283327 0)
(-0.0540002056149 0.383650929189 0)
(-0.0486263059798 0.395259844244 0)
(-0.0433313534369 0.40561309769 0)
(-0.0381396441705 0.414736513069 0)
(-0.0330721628552 0.422660788847 0)
(-0.0281467440212 0.429420706893 0)
(-0.023378427923 0.43505442869 0)
(-0.0187796405005 0.439602881515 0)
(-0.0143605380376 0.443109220488 0)
(-0.0101291423139 0.445618357956 0)
(-0.00609163496525 0.447176542846 0)
(-0.00225243491484 0.447830982089 0)
(0.00138555196993 0.447629492343 0)
(0.00482089525543 0.446620179617 0)
(0.00805344321657 0.444851190733 0)
(0.0110841922695 0.44237026779 0)
(0.0139151996335 0.439224729714 0)
(0.0165495214688 0.435461129659 0)
(0.018991008267 0.431125078595 0)
(0.0212443075575 0.426261073896 0)
(0.0233146672024 0.420912348048 0)
(0.0252079507107 0.415120738126 0)
(0.026930452138 0.408926574341 0)
(0.0284889217047 0.402368585559 0)
(0.0298903902793 0.395483821449 0)
(0.0311422018504 0.388307589195 0)
(0.0322518450955 0.380873405823 0)
(0.0332269895795 0.373212964133 0)
(0.0340753228524 0.365356113987 0)
(0.0348045888393 0.357330856528 0)
(0.0354224307502 0.349163353794 0)
(0.0359364319988 0.3408779508 0)
(0.0363539669263 0.332497212539 0)
(0.0366822463055 0.324041972068 0)
(0.0369281792833 0.315531392213 0)
(0.0370984264627 0.306983036177 0)
(0.0371992767887 0.298412949228 0)
(0.0372367111349 0.289835745726 0)
(0.0372162972284 0.281264703727 0)
(0.0371432654871 0.272711860821 0)
(0.0370224233614 0.264188113359 0)
(0.0368582433172 0.255703312316 0)
(0.0366547959577 0.247266358498 0)
(0.0364158479821 0.238885290451 0)
(0.0361448113806 0.230567368251 0)
(0.0358448475075 0.22231914681 0)
(0.0355188282716 0.214146542846 0)
(0.0351694414461 0.206054889728 0)
(0.0347991590534 0.198048985047 0)
(0.034410338874 0.190133125637 0)
(0.0340051954785 0.182311135818 0)
(0.0335858935002 0.174586384118 0)
(0.0331545175665 0.1669617947 0)
(0.0327131540732 0.159439849075 0)
(0.032263857618 0.1520225848 0)
(0.0318087194458 0.144711586926 0)
(0.031349829328 0.137507978922 0)
(0.0308893302435 0.130412408798 0)
(0.0304293759544 0.123425037178 0)
(0.0299721726351 0.116545522919 0)
(0.0295199332724 0.109773012738 0)
(0.029074907721 0.103106130177 0)
(0.0286393356635 0.0965429701721 0)
(0.0282154669669 0.090081094281 0)
(0.0278055150848 0.0837175324316 0)
(0.0274116696262 0.0774487859206 0)
(0.0270360520686 0.0712708371372 0)
(0.0266807223813 0.0651791603742 0)
(0.0263476389589 0.0591687382887 0)
(0.0260386618338 0.0532340774564 0)
(0.0257555210936 0.0473692270673 0)
(0.0254998251794 0.0415677917448 0)
(0.0252730557245 0.0358229454358 0)
(0.0250766173549 0.0301274583347 0)
(0.0249119092393 0.0244737167893 0)
(0.0247801650174 0.0188538396439 0)
(0.0246763893256 0.0132543866923 0)
(0.0244765898328 0.00775442205585 0)
(0.021959659154 0.00229041793777 0)
(-0.132124649846 0.0116826670388 0)
(-0.146398345718 0.0403016440089 0)
(-0.14584783133 0.068350131812 0)
(-0.143760197639 0.0965291316835 0)
(-0.140935923644 0.12415164944 0)
(-0.137460691713 0.151110292001 0)
(-0.133386346554 0.17727744981 0)
(-0.128768539908 0.202537583955 0)
(-0.123667328988 0.226788599872 0)
(-0.118145615882 0.249942616232 0)
(-0.112267546895 0.271926118034 0)
(-0.106097087073 0.292679809131 0)
(-0.0996967468633 0.312158164021 0)
(-0.0931265413909 0.330328732556 0)
(-0.0864431209431 0.347171254126 0)
(-0.0796991444138 0.362676630596 0)
(-0.0729428145288 0.376845809612 0)
(-0.0662176440534 0.389688622898 0)
(-0.0595623545078 0.401222625888 0)
(-0.0530109721493 0.41147197681 0)
(-0.0465930041338 0.420466391292 0)
(-0.0403337543505 0.428240196282 0)
(-0.0342546477038 0.434831499807 0)
(-0.0283736255185 0.440281477852 0)
(-0.0227054812354 0.444633771538 0)
(-0.0172622172409 0.44793397652 0)
(-0.0120533063133 0.45022920501 0)
(-0.00708596305107 0.451567698746 0)
(-0.00236532258499 0.451998477608 0)
(0.00210535355274 0.451571011507 0)
(0.00632454293587 0.450334913872 0)
(0.0102923344227 0.448339726279 0)
(0.0140101583314 0.445634391568 0)
(0.0174807926496 0.442267370742 0)
(0.0207081765534 0.438286210288 0)
(0.0236972624105 0.433737403653 0)
(0.0264539216249 0.428666222402 0)
(0.0289847998981 0.423116572088 0)
(0.0312972395082 0.417130868531 0)
(0.0333991501476 0.410749932354 0)
(0.035298944879 0.404012899736 0)
(0.0370054226129 0.396957148534 0)
(0.0385277129584 0.389618238609 0)
(0.0398751660633 0.382029866525 0)
(0.0410573024539 0.374223833935 0)
(0.0420837075219 0.366230030423 0)
(0.0429639846442 0.35807643025 0)
(0.0437076542557 0.349789103947 0)
(0.0443241112086 0.341392243872 0)
(0.044822530726 0.33290820446 0)
(0.0452118331748 0.324357555684 0)
(0.0455006011907 0.315759149953 0)
(0.0456970564166 0.307130200092 0)
(0.0458089925641 0.298486367969 0)
(0.0458437684727 0.289841860651 0)
(0.0458082610723 0.281209533145 0)
(0.0457088775603 0.272600994015 0)
(0.0455515299074 0.264026712729 0)
(0.0453416663143 0.255496124912 0)
(0.0450842662215 0.24701773458 0)
(0.0447838884704 0.238599209747 0)
(0.0444446830279 0.230247471061 0)
(0.0440704509345 0.221968770459 0)
(0.0436646671957 0.2137687603 0)
(0.0432305463105 0.205652550708 0)
(0.0427710698881 0.197624756457 0)
(0.0422890513002 0.189689531894 0)
(0.0417871619994 0.18185059605 0)
(0.0412679896993 0.174111247066 0)
(0.0407340584939 0.166474368659 0)
(0.0401878764855 0.158942428195 0)
(0.0396319466442 0.151517469451 0)
(0.0390688017104 0.144201099807 0)
(0.0385010045216 0.136994475004 0)
(0.0379311697952 0.129898281191 0)
(0.0373619543629 0.122912717279 0)
(0.0367960669061 0.116037477136 0)
(0.0362362496703 0.109271734326 0)
(0.0356852781651 0.102614128691 0)
(0.0351459366984 0.0960627571138 0)
(0.034621010555 0.0896151674582 0)
(0.0341132579159 0.0832683576367 0)
(0.033625397143 0.0770187784775 0)
(0.0331600777366 0.070862341925 0)
(0.0327198654209 0.0647944329709 0)
(0.0323072150283 0.0588099262575 0)
(0.0319244569106 0.0529032053911 0)
(0.0315737766562 0.0470681856185 0)
(0.0312572105199 0.0412983393735 0)
(0.0309766436538 0.0355867284468 0)
(0.0307338308777 0.0299260541292 0)
(0.0305304103247 0.0243087211055 0)
(0.0303675085768 0.0187269707477 0)
(0.0302379081538 0.0131673137549 0)
(0.029987949675 0.00770693530455 0)
(0.0268914148029 0.00228179087985 0)
(-0.15818865809 0.0119376659911 0)
(-0.175262252767 0.041497442774 0)
(-0.17457312866 0.0703121931663 4.13413067177e-27)
(-0.172027725541 0.0992722716629 0)
(-0.168587107636 0.127633179186 0)
(-0.164356822511 0.155279369818 0)
(-0.159402028484 0.182075479726 0)
(-0.153792443309 0.207900076313 0)
(-0.147602949709 0.23264706178 0)
(-0.140911607262 0.256226393996 0)
(-0.133797664136 0.278564087866 0)
(-0.126339778198 0.299601876015 0)
(-0.118614473603 0.319296542519 0)
(-0.110694865639 0.337618999054 0)
(-0.102649638947 0.354553166921 0)
(-0.0945422949458 0.370094722639 0)
(-0.0864306400517 0.38424976182 0)
(-0.0783665235528 0.397033433197 0)
(-0.0703957845429 0.408468593547 0)
(-0.0625584047979 0.418584530507 0)
(-0.0548888082039 0.42741579475 0)
(-0.0474162874628 0.435001171987 0)
(-0.0401654831707 0.441382811495 0)
(-0.0331568921323 0.446605510679 0)
(-0.026407335694 0.450716139657 0)
(-0.0199303860659 0.453763177501 0)
(-0.0137367094889 0.455796327 0)
(-0.00783435695012 0.456866176761 0)
(-0.00222898673953 0.457023888103 0)
(0.0030759352333 0.456320888741 0)
(0.00807895250975 0.45480858879 0)
(0.012780531675 0.452538191063 0)
(0.0171826924642 0.449560078893 0)
(0.0212890487298 0.445924069359 0)
(0.025104567853 0.441678893518 0)
(0.0286354147247 0.436872094217 0)
(0.031888812801 0.431549861544 0)
(0.034872899837 0.425756898184 0)
(0.0375966097505 0.419536304558 0)
(0.0400695484717 0.412929481013 0)
(0.0423018932165 0.405976045051 0)
(0.0443042823931 0.398713762317 0)
(0.0460877253445 0.391178490742 0)
(0.0476634998437 0.383404137803 0)
(0.0490430669219 0.375422631159 0)
(0.0502379722039 0.367263903173 0)
(0.0512597637381 0.358955889768 0)
(0.052119896891 0.350524544231 0)
(0.0528296565348 0.341993866231 0)
(0.0534000685438 0.333385946183 0)
(0.0538418307669 0.324721024555 0)
(0.0541652367152 0.31601756549 0)
(0.0543801215297 0.307292343395 0)
(0.05449580431 0.298560540894 0)
(0.0545210551402 0.289835855798 0)
(0.0544640612931 0.281130614781 0)
(0.0543324191813 0.272455890788 0)
(0.0541331267041 0.263821621489 0)
(0.0538726005465 0.255236725687 0)
(0.0535566932378 0.246709215173 0)
(0.0531907325095 0.238246299381 0)
(0.05277955818 0.229854480915 0)
(0.0523275773161 0.221539640057 0)
(0.0518388136859 0.213307107271 0)
(0.0513169707668 0.205161722803 0)
(0.0507654855405 0.197107883338 0)
(0.050187591198 0.189149575752 0)
(0.0495863675573 0.18129039885 0)
(0.0489647964274 0.173533573918 0)
(0.0483258025614 0.16588194557 0)
(0.0476722966966 0.158337974232 0)
(0.0470072032748 0.150903722088 0)
(0.046333488604 0.143580834027 0)
(0.04565417398 0.136370515427 0)
(0.0449723487096 0.12927350821 0)
(0.0442911693545 0.122290066856 0)
(0.0436138591414 0.115419935521 0)
(0.0429436955028 0.108662327619 0)
(0.0422839985491 0.102015908625 0)
(0.0416381099338 0.0954787831114 0)
(0.0410093736209 0.0890484863802 0)
(0.0404011094054 0.0827219813042 0)
(0.03981658934 0.076495660379 0)
(0.0392590092732 0.0703653532381 0)
(0.0387314642929 0.0643263394018 0)
(0.0382369217274 0.0583733660544 0)
(0.0377781993516 0.0525006704411 0)
(0.037357944199 0.0467020075787 0)
(0.0369786186233 0.0409706816763 0)
(0.0366424907966 0.0352995867991 0)
(0.0363516317751 0.029681274482 0)
(0.0361078837697 0.0241080024745 0)
(0.0359123214319 0.0185718190386 0)
(0.0357559098285 0.0130589288518 0)
(0.035456457314 0.00764376528206 0)
(0.0317901191891 0.00226796533631 0)
(-0.185074275192 0.0122435653807 0)
(-0.205024603313 0.0429395068734 0)
(-0.204174680668 0.0726777139635 -4.13192881162e-27)
(-0.201131299125 0.102578117998 0)
(-0.197022428211 0.131825801819 0)
(-0.191975580753 0.160295172829 0)
(-0.186071318574 0.18784153715 0)
(-0.179395592774 0.214336534697 0)
(-0.172040229916 0.239669535085 0)
(-0.164100427262 0.263748264868 0)
(-0.155672307494 0.286498592404 0)
(-0.146850758975 0.307863927911 0)
(-0.137727596934 0.327804272591 0)
(-0.128390058362 0.346295002905 0)
(-0.118919621008 0.363325462867 0)
(-0.109391142697 0.378897427187 0)
(-0.0998723043631 0.393023493882 0)
(-0.0904233493756 0.405725463321 0)
(-0.0810970935014 0.41703276212 0)
(-0.0719391819744 0.426980968948 0)
(-0.0629885430487 0.435610494571 0)
(-0.0542779867707 0.442965455501 0)
(-0.0458348736017 0.449092761689 0)
(-0.0376817904048 0.454041413843 0)
(-0.0298371662899 0.457861982432 0)
(-0.0223157960411 0.460606222179 0)
(-0.0151292492305 0.46232676969 0)
(-0.00828618310518 0.463076877059 0)
(-0.00179257744544 0.462910150745 0)
(0.00434807150955 0.461880260946 0)
(0.0101345755282 0.460040752928 0)
(0.0155678740452 0.457444600764 0)
(0.0206507977524 0.454144008291 0)
(0.0253879417969 0.450190309149 0)
(0.0297854605537 0.445633608196 0)
(0.0338508741413 0.440522654664 0)
(0.0375928985894 0.434904692214 0)
(0.0410212858333 0.428825336033 0)
(0.0441466821521 0.422328469304 0)
(0.0469804945447 0.415456155154 0)
(0.0495347710996 0.408248561493 0)
(0.0518220839787 0.400743897604 0)
(0.053855421256 0.392978362074 0)
(0.0556480772368 0.384986102569 0)
(0.0572135484922 0.376799188082 0)
(0.0585654265482 0.368447594767 0)
(0.0597172954671 0.359959206254 0)
(0.0606826265791 0.351359829603 0)
(0.0614746794757 0.342673227466 0)
(0.0621064027536 0.333921167119 0)
(0.0625903442898 0.325123486127 0)
(0.0629385654284 0.31629817422 0)
(0.0631625689132 0.307461469921 0)
(0.0632732351567 0.298627970223 0)
(0.0632807760037 0.289810750614 0)
(0.0631947001244 0.281021492729 0)
(0.0630237978798 0.272270616105 0)
(0.0627761389049 0.263567410862 0)
(0.0624590887215 0.25492016766 0)
(0.0620793367156 0.246336301968 0)
(0.0616429403328 0.237822469504 0)
(0.0611553771786 0.229384670646 0)
(0.0606216088039 0.221028341661 0)
(0.0600461476833 0.21275843166 0)
(0.059433130525 0.204579464295 0)
(0.0587863897325 0.196495584317 0)
(0.058109526 0.188510589132 0)
(0.0574059746257 0.180627946561 0)
(0.0566790686938 0.172850799803 0)
(0.0559320927713 0.165181961577 0)
(0.0551683306546 0.157623898969 0)
(0.0543911019991 0.150178711312 0)
(0.05360379174 0.14284810279 0)
(0.052809868259 0.135633352056 0)
(0.0520128944555 0.128535280417 0)
(0.0512165286328 0.121554220571 0)
(0.0504245193756 0.114689987105 0)
(0.0496406920627 0.107941850312 0)
(0.0488689310288 0.101308514089 0)
(0.0481131555653 0.0947880990084 0)
(0.0473772934409 0.0883781309145 0)
(0.0466652505357 0.082075535653 0)
(0.0459808798583 0.0758766399598 0)
(0.0453279488712 0.0697771786783 0)
(0.0447101079401 0.0637723081557 0)
(0.0441308591559 0.0578566256091 0)
(0.043593527927 0.0520241942501 0)
(0.0431012368758 0.0462685738223 0)
(0.0426568838909 0.040582857929 0)
(0.0422631228941 0.0349597189047 0)
(0.0419223451971 0.029391465621 0)
(0.041636625038 0.0238700970442 0)
(0.0414070780399 0.0183873631082 0)
(0.0412231053147 0.0129290779073 0)
(0.0408746163545 0.00756658842631 0)
(0.0366454389845 0.00225020564894 0)
(-0.212941936707 0.0126050036808 0)
(-0.235860891725 0.0446519629261 0)
(-0.234822379518 0.0754846032371 0)
(-0.231230842878 0.106498078228 0)
(-0.226389110119 0.136792488961 0)
(-0.220449491719 0.166230008298 0)
(-0.213510691163 0.19465487863 0)
(-0.205677658491 0.221930772476 0)
(-0.197061820082 0.247942116256 0)
(-0.187777949342 0.27259453778 0)
(-0.177941196053 0.295814336458 0)
(-0.16766451526 0.31754752891 0)
(-0.157056521053 0.337758529591 0)
(-0.146219756338 0.356428570684 0)
(-0.135249358373 0.373553940587 0)
(-0.124232103163 0.389144105692 0)
(-0.113245814519 0.403219773878 0)
(-0.10235912774 0.415810960851 0)
(-0.0916315903059 0.42695512632 0)
(-0.0811140700486 0.436695452171 0)
(-0.070849417111 0.445079331963 0)
(-0.0608733044542 0.452157127068 0)
(-0.0512151502972 0.457981217403 0)
(-0.0418990230778 0.462605338413 0)
(-0.0329444402532 0.466084158032 0)
(-0.0243670067052 0.468473019608 0)
(-0.0161788778134 0.469827767236 0)
(-0.00838907410364 0.470204582102 0)
(-0.00100369560638 0.469659787097 0)
(0.00597391158572 0.468249576493 0)
(0.0125430202662 0.466029890096 0)
(0.0187052315967 0.463055783679 0)
(0.0244643529494 0.459381460276 0)
(0.0298261678932 0.455060000042 0)
(0.0347982012053 0.450143055107 0)
(0.0393894986527 0.444680728976 0)
(0.0436104275769 0.438721442648 0)
(0.0474724972209 0.432311828126 0)
(0.050988199159 0.42549663997 0)
(0.0541708628669 0.418318679439 0)
(0.057034523593 0.410818728342 0)
(0.0595937969664 0.403035491509 0)
(0.0618637585385 0.395005548273 0)
(0.0638598243882 0.386763313931 0)
(0.0655976327581 0.378341012765 0)
(0.0670929244655 0.369768664103 0)
(0.0683614234833 0.361074083232 0)
(0.0694187168312 0.352282898617 0)
(0.0702801365325 0.343418586936 0)
(0.0709606441562 0.334502526729 0)