/*--------------------------------*- C++ -*----------------------------------*\
| =========                 |                                                 |
| \\      /  F ield         | OpenFOAM: The Open Source CFD Toolbox           |
|  \\    /   O peration     | Version:  v1906                                 |
|   \\  /    A nd           | Web:      www.OpenFOAM.com                      |
|    \\/     M anipulation  |                                                 |
\*---------------------------------------------------------------------------*/
FoamFile
{
    version     2.0;
    format      ascii;
    class       volScalarField;
    location    "15";
    object      alpha;
}
// * * * * * * * * * * * * * * * * * * * * * * * * * * * * * * * * * * * * * //

dimensions      [0 0 -1 0 0 0 0];


internalField   nonuniform List<scalar> 
24444
(
150.044806653
11.8150804569
16.0721590556
40.3410392746
34.1215001857
22.4352192391
47.3081199489
151.915397164
84.1147472004
152.377652675
54.9007758429
82.9180489847
76.008125113
16.8068239118
40.2705179306
149.957219527
71.8934652927
12.5507290059
149.721397773
29.4077442662
149.734701487
154.24641509
154.24641509
14.657258071
14.5433570036
84.3566781591
84.2428709637
100.758259781
96.4693819834
28.0236653562
149.448174738
73.6933397151
22.266753506
150.798568386
149.977949314
43.9997081724
1.21994642424
12.4329042088
110.282397542
134.025626753
102.359441802
142.887445487
11.5932568839
11.5007597141
149.482676951
11.5131430458
28.0172730979
76.3932061612
50.9626087812
7.15250871431
150.473769103
30.2755904841
6.82252243918
27.6882756687
19.9505876681
94.6252258869
27.0950074481
106.133234494
151.13223732
19.9496354497
18.7872705222
18.6540226043
21.7542056666
12.0718362129
71.3563090606
52.383930089
28.1616111052
19.8449097671
16.2884959954
20.824899284
18.8597272018
99.9320672847
142.594646626
12.0393174102
9.95438530996
18.7175010851
41.7972781276
11.7799520246
95.0521250662
45.0431762672
22.3034496629
0
12.8950484749
4.82748046355
41.898747778
96.4940013211
151.618969799
10.83950049
90.1688347197
18.5447660994
17.0993374226
44.1380907912
153.038452452
75.4204173309
34.8799045938
18.5291950337
151.191526729
14.4989121172
19.1404869405
26.2944419078
24.6819074372
27.3551488694
26.6594445096
41.5310972891
67.5664871306
77.4357175565
73.3003024959
5.78334144508
5.97215459422
29.1450959214
16.9862798486
22.3167927763
150.458347338
17.7444610572
18.5259236762
151.326940593
14.1029230564
149.935608627
149.78289163
17.2501930118
17.0968162746
12.6509678186
12.9760673593
10.1106276866
10.0277316626
7.14005090108
89.9527795461
26.7398519423
12.2294064303
58.9276052646
73.9366031992
13.5941096953
26.1875402548
146.608684271
148.549162388
99.9375010066
95.2124312974
52.9162359682
10.3915549404
12.8355558227
150.212566464
13.9601536343
82.7501488911
104.919907911
19.3315546829
17.5454730443
25.9446237212
150.533809852
36.2054408643
21.2020531113
45.6247654539
151.375257668
151.579241431
25.1390096071
35.7594219803
38.8151756128
37.7298326513
40.2859464284
40.0870436216
146.429943759
145.431450728
33.4031014732
21.1962657206
36.2697432421
21.2118704603
41.746542629
54.9772278909
29.0744991127
25.740675038
8.23867796423
57.4876709899
44.9764514817
43.9133784784
148.231435056
140.799982729
107.204587402
107.855400833
12.8849071431
12.423575389
14.3590022148
14.9029761173
150.168843486
22.8499060013
47.7212610405
20.1375301689
35.1910952476
6.01896965941
6.18136614692
118.674563659
47.5450434852
47.9773391691
10.0869949506
12.362679003
85.9564403493
33.1241936725
14.2351070588
16.8193448719
36.8003636066
20.1891683476
21.5742663913
11.8652432644
30.1481178375
19.8646861195
154.24641509
82.4526907238
132.550733961
133.278112508
76.6632388464
76.8994167823
13.7714774095
62.8887531051
20.6129401064
150.254028894
44.9989907121
149.502067589
16.747135355
94.5245610064
35.1761379404
150.981893479
85.0523682567
150.387496687
18.2306605497
99.4958931305
38.6015508929
6.51354978608
6.65967315758
86.4254942518
21.0596293672
140.246237164
144.463575811
90.4943061557
90.5885741735
72.7043926167
77.3628119484
4.62371416607
91.4036735827
68.3829404988
22.4854823434
18.9569443082
43.3741421173
150.27162306
26.103469759
6.57507091203
87.8756023546
7.27396794954
68.6448214061
24.1514185987
14.6356416448
34.3407638585
99.6300034285
17.07624564
45.8039055445
12.677041952
19.2108379529
17.3782190984
6.71975215099
6.5907535876
45.3803770484
6.47947647837
37.0608290126
149.883250478
87.4755911923
150.048194475
15.5139063722
87.1384299125
150.051762815
39.8171870285
15.8749391085
6.69326403575
5.80559941888
7.21899136216
9.66558848343
101.083926141
143.976344452
12.1554258325
10.016791916
27.1331865209
148.632987933
64.5788862104
60.4983242614
149.811966889
149.980928116
77.3668229148
3.11573594697
56.2770393985
3.4188407966
55.9786186009
150.024969854
2.62149333234
63.9239743629
61.6449337996
149.93742665
149.900953012
148.92871134
12.4544119087
22.3402515612
47.2537187221
31.8766848781
31.1935399137
15.6218275375
14.4392067719
83.2378108694
152.190584871
152.232786735
65.716681769
23.7121307405
23.4243567781
56.8530298339
44.6011270275
41.8029571646
57.3763371306
21.6514391831
39.786479938
111.282408074
76.6663549019
12.5729437167
93.0020194602
78.7441522185
37.1539323624
59.0412646156
44.7407573643
149.90098845
14.1435236619
91.077473119
31.8768829005
13.7065609237
20.1113119035
27.7264309588
28.230383571
60.3906890644
59.7092819704
43.515459429
15.1106054754
41.9391864866
120.648539067
120.621445945
112.622901999
112.735260757
11.0666268861
11.6087710675
34.5973338858
46.7104641138
150.574573338
21.7248025706
34.2392905224
31.4365133366
31.0618539725
19.1749144573
14.5610125831
15.9335789542
16.0501385104
35.1257796983
149.456680611
22.7947058252
55.912486646
150.201098386
43.6511914616
149.549736283
11.2363527162
13.0553767845
112.105245827
111.069844085
28.0901474489
71.8250204753
17.3973220442
70.2334416492
17.4023409189
17.0689738012
24.6176392012
25.9474773174
25.507188797
50.7593945788
13.6033906273
16.5375304854
20.6312560117
22.7777462735
8.5623702281
44.6510630815
45.6095214956
23.7338788071
23.3240043563
63.7823398302
91.1650378793
148.671235111
77.8221302569
150.040398135
85.0145995403
45.1755463505
44.1309165025
32.8298112618
35.6799299466
32.5213858461
18.6053489737
52.7392905609
52.0989679313
149.188292816
63.3002641691
150.01992941
15.8416981126
14.4848152656
79.9308254038
23.2404972238
22.1847599026
150.63598781
148.976208543
113.463674232
27.5776369996
19.0836169094
19.6280082083
15.5865141755
15.6734533014
57.9728378435
150.218885553
99.0449147196
102.732926842
2.41643279145
24.8885690325
23.6569154768
100.946423989
149.82096251
40.3014565611
59.9318671593
76.4541003902
146.402310775
68.5575422186
66.0527132163
150.494850764
88.6017761703
24.5106521139
62.6163494702
24.0937561026
59.1739724353
147.931040773
150.385072212
150.115484757
18.3758449139
101.520021355
98.2485402615
92.0982382227
149.395108819
133.69930263
8.11920837301
74.1825395506
20.1407380427
19.5904185554
63.6152380989
129.574275002
111.056373064
12.3883239297
89.8710918463
38.1191618686
33.9536012151
27.0786407584
13.427922518
13.5941807478
154.24641509
154.24641509
112.629921587
114.874726806
84.3391518631
87.1669030525
21.5644518132
24.2951050147
52.9233297597
96.0502262561
141.388555202
86.6789429138
21.1375034233
26.731555264
78.940446098
93.8551466011
150.187942256
149.850560135
11.3245604735
31.7038989921
3.00086884241
3.76873172514
73.3860766086
57.4895124893
16.6977715308
31.7411259191
24.0535976582
34.4191046323
33.9043409063
29.9453249252
148.81672948
32.0487148314
33.7913208392
43.8108601027
42.9737504055
24.2439608815
119.475063544
20.1060917155
30.1698250481
31.3819763863
20.1637188359
20.5434099384
59.4023621401
20.2934131062
71.0516334699
12.6376592476
93.5744223862
34.4697306024
25.9361428196
34.1644014125
17.5756393048
150.132848698
45.4833187279
20.0614531121
150.637427089
17.5994801358
53.0663745412
148.054519053
84.0690097087
146.480433997
82.2824230109
9.01052947062
8.35101879323
110.812125845
112.368222273
134.976796645
135.133239422
14.0771450579
13.9218951664
35.555935593
22.4335940115
22.6155594422
20.0272235049
29.3932633957
21.7777507904
107.641685181
78.504939442
93.4860574627
34.798144617
150.039906628
4.4602360554
90.4258684747
67.2442480163
27.8914224387
10.6115007937
28.0403637631
81.6525931661
37.3505175325
18.0125796673
16.3956570625
95.1016900769
150.591708215
13.8485799421
19.2099679182
10.7889525742
88.3912513208
149.494697595
8.39784965795
10.5940097612
33.5182638535
29.9961133018
149.46333171
35.1010386221
27.7871219095
19.8171754893
69.6651764441
45.5739634624
35.6446238777
18.8074897538
36.3284943947
18.9313368258
138.527795648
106.249752773
150.686783259
14.3406856548
20.2781268038
11.0699072773
44.7006754887
36.3527324235
42.4010913152
39.4797916344
147.094645163
6.78894524091
17.6552520144
17.4191601048
0
13.6444174733
4.53231664042
30.7184411955
150.484908856
31.9614731795
10.4896226187
30.0721385248
23.5439077926
149.914310779
85.0082801214
121.764732232
39.6262119606
10.235454326
25.2203470498
31.1541573848
63.5637110271
38.6326806402
151.83252631
71.94700822
22.7888043621
19.818047903
39.9231162141
120.561732722
121.603824365
127.778397857
16.9195523561
151.061502248
35.4512664209
34.7987465715
149.382851984
102.592641535
13.0799105049
150.402472324
150.13066819
77.5707863937
18.0068484977
16.0207155256
13.6678172513
150.215898597
81.2319571391
61.578244919
150.86694941
11.3834994138
91.8832692608
89.2295494632
47.6446799772
78.1336190759
76.8416283926
41.7453391199
1.2671457462
33.4560526073
41.5660908905
154.24641509
152.9979575
55.9738558499
50.4878368274
16.4773910854
26.4387769602
98.156702206
19.4561940101
20.4520017304
18.5258572576
150.32857621
150.192606444
79.808078965
80.4538342323
55.0141961531
21.9059214237
139.519101894
108.283855342
10.183695051
13.9127300989
149.749580373
13.5595511256
9.480418305
23.7510184302
149.685682257
43.019931692
20.9567769598
36.4630140164
89.1821981561
104.128687829
18.9405005869
18.1772559551
48.0643049887
48.4519177736
19.7496187493
19.9492988041
153.086923718
29.1811283972
150.533475895
37.8624816143
28.2499081459
92.3209269487
57.7951740577
105.422685422
140.55618888
101.610503129
42.1531977457
56.797775754
22.298612736
19.0941715974
63.4145899957
146.728046262
27.7659259825
48.426613889
57.8650300664
9.4850366693
15.4051434832
26.7479500794
149.768822325
2.31893105546
57.5920933407
52.2479086034
66.6117273626
18.9151739507
136.004432152
9.2043547012
54.9682180117
147.919274215
16.7348279265
149.76063017
87.0644858676
13.9126767812
7.20969806383
89.2200307004
46.6045052231
20.9146522977
49.8498540504
20.5673987296
65.4330517498
149.838308772
16.2522356711
23.5718447394
23.6276199948
2.23534267788
54.3912082685
49.6743155317
98.7009582134
61.2235178913
23.9805954982
149.576514354
11.0677484105
150.032545573
16.512224306
149.877013131
149.997939763
92.9383502741
87.2577296165
70.3427493152
24.0040912368
150.665495627
150.364473224
18.6910325045
18.8214350014
149.814014199
16.4308695691
98.2439544023
40.1379351085
40.3120591667
22.217837269
22.6658355372
53.6234216262
135.076463796
12.4780637295
111.549730176
84.0598315223
149.770284773
86.0746128365
13.846095429
95.299463632
67.3569185844
19.932901917
22.5111995588
71.4348930886
154.24641509
16.9059491236
150.185117404
73.5586477155
149.644243253
112.872561404
151.421074635
146.916269763
83.7624140134
8.76097659325
74.7996048842
100.61142
33.4132420468
26.7137048079
13.6589884007
7.97442321321
87.9000499979
76.7902211282
98.1974487454
115.887674209
143.78882366
59.6864118264
26.2253514535
49.3055156677
75.783699986
32.7616009496
81.3863380996
151.156945548
149.164147497
94.6705217648
12.0218189895
25.2617751778
150.102099952
118.573028405
117.787934167
12.2340306848
37.9884100249
19.0251699494
19.0159833228
14.389881734
23.837887121
14.4629978938
19.0173600648
62.9822803903
21.7817857214
21.4280838973
33.657507935
149.6656861
13.3733255498
27.577480924
95.920474394
35.6491103115
29.3599807079
30.4879422552
150.540595568
150.627454559
22.6867250268
1.62352482447
19.6433076431
19.6490043405
150.668109722
142.450967809
149.586682625
11.9883987522
95.325296086
101.538410376
106.298771174
42.1242616938
40.8948667779
4.15744223637
4.47268036602
31.172475508
20.8594805186
149.493078504
19.3577065295
37.0793834347
82.9628367241
14.7504247705
46.7266560436
78.4296056862
16.5983834896
35.8848839107
111.184653309
55.9530908568
22.1533573406
48.6347914977
26.6856510638
59.9849048181
22.1316598675
35.9696373759
22.0022280945
4.689448486
4.74939708077
10.8636895572
32.7995090336
31.9089688047
150.662690817
149.507980078
149.282406149
96.502957036
95.2428241326
21.2304101586
102.512099755
101.289094886
3.18421195564
3.9371778053
72.930975836
57.8786888081
21.3203154732
44.7691587089
44.8228849824
20.9791271149
20.4623635589
149.542360446
30.0805940661
17.2297466
71.8518886837
22.7665339531
38.9397054943
69.5635700532
57.6647624727
23.2754868316
24.0969353386
29.1175209794
37.9510676159
18.6389853855
66.6567011392
90.2934593522
88.7597560645
7.82751334739
7.83189727046
150.228217458
150.188536588
149.651775325
67.8244649755
71.8531953483
150.73395206
89.4912968827
97.1642224213
149.585036824
150.032035842
149.993485678
149.927550425
75.9116899891
85.4193252337
150.21529591
150.169575949
150.099408316
89.2058377683
13.7691601296
13.1829068137
149.997427931
58.6268545811
30.0462661849
127.70522098
79.1412622151
149.602976181
10.1277857191
14.7931445432
16.424469006
20.0426696276
23.8043636209
51.8552876495
26.5997766545
19.7079012771
23.2081317655
90.2603383543
23.7927048024
29.1364816648
149.640281044
12.1428950984
94.9262203047
19.5236717302
17.4298638775
25.0673497467
151.315505665
31.3287634769
149.643665721
81.9310437888
150.239208053
92.1591377401
67.9751049626
79.7954300469
108.399089976
4.95790196679
93.1460714537
26.6918654778
21.8941284097
19.7511484185
59.5813747871
19.0857790666
107.488999766
109.183980425
89.3028512419
8.96979478639
154.24641509
27.5845496114
7.66311440786
31.9386155873
21.9094118014
71.8092020077
18.6649297599
105.163503192
149.232113843
12.7041131845
20.836878741
154.24641509
82.2785767848
142.486215765
86.8024840711
149.456077192
149.450944763
82.7721783222
75.7800098962
35.3616240719
21.5017187923
19.0260032798
13.9980682883
31.3882893085
17.5700332541
10.2472685783
74.7877539813
64.8740860562
153.71722379
2.91125469234
69.1655187175
53.5600330812
86.9333913963
18.0205642235
11.302816012
115.740736739
117.101124194
22.2038170425
146.492329048
149.412017613
84.5148302745
30.564178628
36.8615938086
21.6883511915
26.6874364774
149.534455536
45.6218698758
22.6157682546
19.3107886059
19.3496764812
28.0123490208
27.0093676214
5.59638471015
154.24641509
94.1256008936
73.3912578223
35.4874317959
54.8288045504
45.3351456691
16.9278160272
51.0202565813
33.6079453088
4.48994729004
46.2863136264
48.6170175436
18.4972295692
19.0586670434
18.9928399154
21.52133606
44.7265625753
42.745174081
71.8045948622
72.0010270814
124.039291954
52.9672201758
17.6143252239
151.222757417
150.364317244
115.868438837
99.0454483513
9.43391548315
79.9824148223
27.3743284353
15.0206814836
100.176043493
40.1966262527
24.5458925892
29.928065767
24.6538031838
28.5374755543
16.6835199457
35.3762989336
32.0960827873
93.1954460853
79.0706242686
7.26148578843
29.9672864555
30.7062956108
32.5398173648
19.900325347
20.2253714758
20.9277201346
121.197468627
7.46226601438
149.935959839
25.4292037835
9.62167354715
68.2113639271
104.908364659
4.66965269248
71.4007123861
94.2329118562
18.312208992
150.239858532
45.1169561978
24.2294277457
70.2755955479
97.0461047262
18.9671676133
35.1748067372
23.4262799401
81.5185962389
16.0745586275
18.3017908539
50.3426332633
25.9176810003
14.4289403591
72.6211226433
21.9344729515
73.5865113544
52.3318378446
25.0703503566
25.2434589521
100.708876891
55.1125515294
74.4217354131
67.143139777
65.8913236709
64.9050067382
17.9875273969
16.9626040573
130.901072192
131.437606395
107.783695545
106.895531964
84.2189672344
78.8223006663
16.0630427159
150.46589483
23.8023520738
147.171529086
104.267675727
36.5404689471
59.0422563153
17.538456879
32.9167985708
149.130037666
97.7207573336
14.4003002187
16.0310791245
151.54413424
12.7599428652
149.869033583
40.8453271469
41.1557235806
19.3059083244
19.0460797668
91.0055520141
15.217865271
14.974332774
17.0593744335
145.163949217
43.1402789554
12.4404144772
17.8492122933
115.709868412
41.2549339576
52.975459075
149.785783665
65.9644973987
15.8068186017
19.81569309
26.6665378648
26.0317289659
65.8886471365
92.1396619099
75.2079445541
150.901221201
92.9810113413
151.670397775
21.0138448895
47.9373179101
19.0574589824
111.306550167
17.7181474906
23.0096678444
86.5574768741
45.2531057769
45.6984869008
20.4986012649
51.2156032302
88.1833677437
15.6692890867
51.9105477263
26.2294147365
74.8528865119
149.86446779
77.1512823284
95.3417965303
89.1638813554
36.5055676675
13.1425038858
151.253990896
14.8652213157
86.3466911446
21.9799046871
129.222450344
7.58790273336
102.5628222
133.628840798
10.9754452987
106.731407198
36.1032095549
17.8219585535
24.6952970294
62.3556188952
148.028312318
87.8419991032
8.79403496915
11.1427355775
39.267350051
150.840799679
14.7074412585
86.269746543
39.7210508225
18.9621087025
1.85590949864
35.3364560296
151.634041523
64.5063204981
150.234774526
87.7901923361
13.5998102187
122.931050628
123.837376759
44.6491130989
18.1807316488
150.990594506
3.74040075213
20.0564442684
16.5506599579
22.9027596788
150.393400308
149.529830632
84.3751914454
18.8139107618
18.4583329029
149.592191789
12.0120113763
92.1770275018
31.7212008944
25.955601741
154.201090005
154.24641509
149.770256418
18.904480464
22.1206629214
21.8713073494
19.0223465064
31.4835246887
28.7831586873
15.0416104298
32.8604667795
31.5637653526
31.4512306158
29.4071915542
32.595842686
33.6020461685
91.5644861689
42.5172903594
22.6658238247
77.1593851202
36.6985887037
150.918676232
29.531429591
47.8080264547
102.600521858
150.059610017
23.3612610378
150.280977057
30.4495583376
88.0726549635
93.0803483279
34.2328602634
28.8753336698
30.7355060761
27.5522466745
57.177021842
39.9339265593
29.7496734134
30.096883652
86.4362301385
51.4452131022
150.884516629
151.031005726
68.1670496176
69.0222512972
65.9021067014
12.8626815611
90.5202129326
28.0885895033
19.2638538318
57.7377695629
118.234813301
117.442757488
12.7132555742
29.0620106526
29.2297870905
82.6795532211
113.882687288
13.8046729198
19.907218834
30.0644860605
23.0491702691
46.3521396301
48.589828978
23.0254166151
23.4217928072
15.7098078472
15.794047729
49.1480241971
26.4650794029
35.0159313281
150.411444981
14.1631631858
45.9956461403
58.7026567484
148.983981623
29.5239564336
148.215441933
12.4706173224
124.17366865
151.098044693
13.8645537194
73.7459398898
99.8195895482
37.2671194249
32.8605821454
71.3636598993
23.9351564301
24.4517318608
149.377364477
33.5792176122
34.8682920101
48.841208048
149.703968126
18.4891378767
17.7671305359
20.3181060303
20.5921417431
34.9961386976
125.653680224
127.866776439
86.9862792939
48.5950854114
65.5637617268
20.3799245855
18.697519058
25.4720912133
25.3944745615
15.3986859375
15.7125919975
149.55284345
103.823408664
77.825694917
119.944458073
42.6289475561
18.9054550659
151.195833309
31.6009879829
24.7467066097
43.9800927712
25.1165260482
19.4193087594
18.5667035625
149.728333277
3.50051650084
63.6116221575
19.5955800008
29.3693665266
151.081637416
149.103101578
84.918311959
7.91727275654
9.91612466139
149.476837247
83.2590681866
22.3719787246
47.3306324994
22.7575506233
149.52508744
21.1076095862
19.3845340606
21.2229223857
21.7128646667
40.8373081898
26.2463344311
9.76990050927
46.2068452359
70.2365997141
59.6041475684
17.4625517729
62.392263719
33.3037447466
20.2079587775
59.1974104967
92.8499040404
68.4075031941
5.20847886324
150.085168499
93.7812794626
28.8706865821
48.5651054594
19.2312166795
19.4263651605
24.0322967768
0.981363561125
32.0080841077
33.4342737971
8.56355597561
8.5350433077
93.2758680333
150.784042517
82.4715725028
150.482826471
19.9261858544
37.5783217721
28.1461293157
109.36724677
31.4036696686
40.3230286903
2.8483636403
91.4371606692
55.7450661426
23.0254924672
96.7248457094
154.24641509
33.0466911578
17.3092087887
71.3049146741
60.4050320931
28.6933759712
16.7994969521
28.4290148148
28.8956443606
37.4046191087
15.5586863572
5.03658068576
23.0666052639
33.306262454
33.3614259386
70.6545723103
17.2123671817
29.116827787
29.4161780279
17.4744743384
14.8348414644
40.6331138617
90.9118670971
55.0463138025
12.2209189197
149.679781919
19.7257466539
150.298244873
7.96642578657
10.3496220007
7.17072161761
6.53036117335
82.942796328
7.57418688672
24.5152990459
101.335007946
149.431705741
100.324708192
149.495334855
7.55623457839
10.2832492702
6.09059321742
86.604149507
12.5707893761
36.848034988
25.4794800324
42.3703481985
151.931118697
149.587670038
154.24641509
33.4613735372
28.6889139198
149.827754506
14.3414868335
88.6695367535
13.6027131114
82.9823839381
82.549440397
54.8537857651
149.564939599
22.1087820744
16.7494072879
150.262748612
78.5511039517
23.7357569615
70.6884388412
154.24641509
149.61202515
94.0342176819
12.4455760481
29.5534743045
13.4061708396
14.4834147775
74.4735942646
23.0963870023
22.65269702
149.8507012
81.6404809437
104.253885308
28.4949225489
29.4250768598
29.5071122935
40.3960196034
42.4276614052
20.328522555
20.4156012894
31.144054699
85.4551002529
8.32610335229
84.360402859
151.007470222
17.5835132361
19.1393301128
17.758917887
149.674742481
74.3065217095
6.05893311438
32.1364386312
147.177979983
137.792777072
87.893797627
11.6193028238
11.1353105247
23.3642817067
12.8443007515
26.9162800159
17.8016618657
57.4733320242
17.2986092438
17.0256633133
19.3216104038
20.5389202683
19.3729672758
19.8026100242
14.8267279279
38.4101559731
98.8839965891
105.439099434
80.2130056865
82.1009219237
7.79724898698
7.91155759424
24.2341589936
14.967306947
46.9061338667
17.8798062803
82.6393993413
46.3614495192
43.0940192623
28.2183411716
40.9182840804
149.53188812
80.711494767
13.5955833188
53.6419356517
64.477833688
44.2274162571
16.5921453552
149.730367396
21.4492807864
21.5677131892
68.8915244676
20.7439551263
21.1661102424
33.3981239505
149.516167739
99.4268865592
12.7969250406
76.9542140113
83.9230632493
150.713155694
41.525768104
89.5831205241
46.478595738
46.9648917634
7.22260585994
145.080093704
51.8888582935
19.778985897
32.1281057735
30.5103565853
23.3530228127
72.7354582721
85.3149520235
6.33414272392
18.4468430078
110.858316633
24.8398566777
17.954074051
150.132425416
76.6090792697
18.6987840522
14.8521263913
126.941908524
34.3320730281
18.5157854541
95.3600958686
123.931105591
40.9882729386
17.9943085578
78.5643437616
150.304993834
44.1314408625
97.1661520829
149.453950833
88.0195659866
11.6920987108
149.821153116
16.0539943091
149.900820784
149.966508668
153.339264781
32.1367665237
94.7956298745
148.653754121
29.4307768748
15.8638694604
18.4623010055
58.3200876185
22.5042927887
22.105947587
80.4968103669
133.149380698
135.954279874
150.1669032
50.2325939713
149.731044028
75.073385777
130.322267199
36.7294224976
154.24641509
22.9027792648
24.1137542664
8.38839028116
16.8409954579
150.716951273
26.6375269347
96.8501842578
42.1690131829
3.62487035198
20.2668854244
149.802701933
15.5804712768
17.5945599372
17.7157073186
92.1390557141
12.0629577235
150.546994773
26.9367090458
61.815199055
18.3173849177
103.631676591
27.6848235911
2.30280849087
85.2425802856
17.0949862969
18.1371914329
124.643464807
111.428692492
11.2866233506
150.746295319
6.29360001067
17.1008640744
17.3225600534
57.3013547078
47.7234422333
45.7774759299
92.3653495472
87.4601273421
119.455650352
111.420091793
93.5597912061
8.97313831968
14.1054745144
14.1252284691
18.6062100372
18.0739388679
128.439368175
124.583905791
16.1169871204
16.6616276533
108.392689422
93.6878935718
11.0549067762
150.037414804
23.1750539503
14.2859212412
9.09853917542
97.5804773364
17.2365291206
150.366439354
17.9619086789
17.7026583858
31.2457069593
100.051050574
16.3783596065
20.9878564808
6.53568558523
25.2279530459
29.3203653375
21.5504253707
21.9935010941
39.6492953032
65.4139768772
68.2147648833
149.648749697
123.100049951
37.1579940847
57.4758087916
6.58669135035
146.652437411
24.2200316643
16.530313504
33.7371321015
20.818731457
30.8476242776
31.0081971942
30.0584904418
149.766444281
71.7598004544
50.1373895868
47.3553882387
16.5144471205
152.192467018
42.2203560428
11.6298749233
16.8859045921
26.6944625538
31.5588207293
30.8511668405
29.6921138085
0.638066678689
31.0188303128
35.0180721637
67.8045848005
17.8897168725
134.377707711
25.562760435
25.0454197024
150.585047325
150.160178165
95.9586153749
88.6379795934
29.0779604553
150.780140085
56.0740495074
41.2335558465
151.012029889
18.0840948479
34.0603868115
35.2978679346
122.292744954
150.769192878
34.5215476377
25.2382225705
119.082471723
82.1331536506
22.6050701987
120.046310365
35.7532459055
4.02837054369
74.187030385
96.499694296
15.5961481999
40.1316131229
32.1208083654
102.097652071
152.083254009
154.24641509
83.4977193913
81.7494634755
63.181557262
15.054464844
84.5287243913
33.4864979157
149.762681236
0.333856965218
0.323308480075
23.1884449329
25.6705668195
0.416578006775
0.390898054825
23.8756428109
25.7954794098
137.341569716
109.106679552
36.687849066
149.901679442
7.72760086207
104.748075358
94.4174446838
150.039885207
11.024511749
89.9707650494
44.0442112731
91.7927238662
27.0260127996
30.7356353251
21.9656304862
149.667610367
12.3181905889
9.2571875715
7.47976619633
29.3338056996
150.356865329
63.1416932231
41.4997621538
17.990964305
3.71992644227
70.8777640113
6.11647289168
110.676621857
69.7188325573
17.3569874869
153.025245203
88.268710721
29.0201659951
13.4627917733
13.5718120137
21.7462762391
83.1340413918
26.3960089402
28.193456108
0.45932958331
0.569270776238
0.601870352927
36.9768402178
94.250449543
80.0450210612
30.4153346227
77.5435008507
16.0593107018
13.0626131185
68.2006512377
68.0717049724
25.0403815375
24.6470579008
154.24641509
24.4781072473
48.9054430154
13.0472937938
150.340189812
16.1860890831
16.3907709006
30.4281383807
71.9172775396
30.0261150364
12.3935663851
98.469457613
6.06274929501
103.763245258
69.1518690605
38.4865317838
90.7346623968
0.732544768809
103.541867543
0.514082491159
0.825424432451
43.8589681568
0.648246200448
7.48445849349
44.4278834245
28.8977165184
74.0236807628
7.52968652808
7.66860927739
14.8439682006
35.9413329681
36.1965979268
149.848165601
24.4284202238
19.3507496188
104.289425129
150.155870676
81.7870500339
3.39891793349
64.1092471423
93.0784935746
66.9566302268
27.911554484
37.9925771134
77.6644242396
73.6721412534
88.9324297082
55.7409305332
150.473264523
80.0467350347
23.5766347294
97.1950991941
22.0999146438
10.2347797023
154.24641509
38.2608428154
13.8146572086
47.6556394426
149.624877949
80.6332901561
142.488757752
138.06938258
15.5671795399
15.6130145881
57.2390766946
150.248018396
148.051684508
93.1930019119
153.288212828
13.6413630484
26.9346063281
148.317558993
93.3439409701
10.9668137873
62.4329719437
18.4548774358
59.4217493737
149.544004347
28.7126819894
5.89888402432
65.4202778284
149.962889395
90.6311149653
149.757623047
149.814871249
18.7052479651
18.7973551063
60.1895079419
150.677310525
80.9355799819
78.7875348917
94.5833580714
11.9618670929
149.47081976
21.6406536178
30.2430906183
14.2204104851
31.3351612694
31.3502530654
11.5543319645
149.834835146
81.6465274705
29.9197520687
23.7913500011
43.8601426394
75.0514618685
53.3703880601
55.8115146035
150.801091293
73.7523944452
47.8723744643
147.996945197
35.8313888899
149.536154493
150.09504198
88.31683576
13.6151894926
26.1720083946
9.46156943798
52.2171555653
16.3027953873
16.3585192081
28.3544219522
14.6098327286
9.22155315846
14.889052992
97.9185513288
21.6874044396
100.54612202
55.0328153301
51.9576944596
148.512890174
149.797668211
148.768368666
108.110116279
100.484733829
83.5989350155
83.6678897592
8.0045305491
8.23990507055
19.1642525841
76.7477923448
42.1762764474
35.6719385325
29.1666733248
154.24641509
26.226734197
15.5089144182
91.509887889
150.578042136
9.98263154369
15.6593228322
154.24641509
79.6164967731
85.2539081863
149.98073726
18.42646932
15.4516776935
28.7262612967
24.9409351818
150.710999273
7.3421425879
149.562913468
88.2315348846
45.0197582299
153.0662429
32.196830243
18.9913777475
47.2384313864
51.3769997948
86.2138777412
30.0710426562
152.134417302
153.089822099
23.1740351752
37.0751702418
21.7737888374
21.3817294023
111.326122751
149.549707602
14.0452311157
29.3681197933
40.3035780294
70.7318556923
36.2737967186
22.8628646867
29.2051763775
24.8361067954
36.0946944281
18.0955456131
106.117774175
154.24641509
22.2703071647
9.01617847875
34.8154098709
128.497429192
110.13221338
33.0693348822
117.054529619
22.8981982801
43.0797904511
44.4035146023
22.3604128551
147.512458159
95.7738092269
9.38738348124
11.6059056881
149.482725063
91.9258215771
17.7671578608
92.9136024736
149.223712297
70.279072258
11.7072898057
6.3068920935
27.1550522567
31.5828559626
23.5661910476
12.1820514132
35.8778683349
23.1191207615
82.8597696671
22.4638326593
129.633288379
63.6267917934
39.8749883283
39.2401461144
20.8382387791
21.0353587593
36.7769096463
37.3528950913
89.8133891468
19.9359317352
74.3465541903
7.0166856824
146.186560299
2.25524527194
36.1172253288
150.932928076
68.0157834117
15.8463994042
55.5475259114
27.4405177747
32.3943220343
33.1898612138
42.2308056667
149.904352047
33.3910823616
149.945851142
11.1641123336
7.50286034279
18.2094157
88.8049269796
25.5453140881
73.0341327039
34.9502172589
17.6548587176
149.543761348
79.5519383998
6.52156629553
29.0797471195
59.2610019257
68.5773381979
34.8571370715
56.0101580929
154.24641509
40.5551883176
119.57169554
110.122226088
45.3455247491
1.20916129483
1.09328095574
56.4197361647
1.40027528306
1.52224800187
45.6193669961
55.053837791
16.8378733049
27.4255863656
27.4802310171
3.86973889795
105.641699693
69.3913359155
57.6055964341
37.9143270361