/*--------------------------------*- C++ -*----------------------------------*\
| =========                 |                                                 |
| \\      /  F ield         | OpenFOAM: The Open Source CFD Toolbox           |
|  \\    /   O peration     | Version:  v1906                                 |
|   \\  /    A nd           | Web:      www.OpenFOAM.com                      |
|    \\/     M anipulation  |                                                 |
\*---------------------------------------------------------------------------*/
FoamFile
{
    version     2.0;
    format      ascii;
    class       surfaceScalarField;
    location    "15";
    object      phi;
}
// * * * * * * * * * * * * * * * * * * * * * * * * * * * * * * * * * * * * * //

dimensions      [0 3 -1 0 0 0 0];
oriented        oriented;


internalField   nonuniform List<scalar> 
18240
(
-0.00061102900754
0.000631815353244
-0.00113856214477
0.000547260143332
-0.00166729746566
0.000543135512133
-0.00213939857029
0.000492248865485
-0.00256821652532
0.000442171521207
-0.00295155996215
0.000403258255696
-0.00330312344655
0.000363886530316
-0.00362516578783
0.000342684994765
-0.00396237405217
0.000348543617977
-0.00430898567771
0.000368794619191
-0.00469483392062
0.000397256694302
-0.00483820561207
0.000168602472118
-0.00467481499208
-0.000150514724053
-0.00425249304116
-0.000392919255563
-0.00405816776204
-0.00018095880139
-0.00401074841806
-1.99058154508e-05
-0.00379290379493
-0.00020742770924
-0.00353006503888
-0.000239290158157
-0.00333838897198
-0.000181899414835
-0.00331364878641
3.38327643292e-06
-0.00339567466713
9.28652188392e-05
-0.00328611098873
-8.5259921638e-05
-0.00324221771575
-3.37867601693e-05
-0.00331630799657
9.5187714431e-05
-0.00343055059172
0.000119823645629
-0.00356484056499
0.000156782962926
-0.00369668825928
0.000134587872342
-0.00386487117763
0.000205946604103
-0.00428949620514
0.000425900313856
-0.00491106514965
0.000670259246835
-0.0056136003957
0.000697990557008
-0.00598845399304
0.000429722234005
-0.00590287808293
-9.39630028275e-05
-0.00563649687264
-0.000217798737484
-0.00550229915669
-0.000138541205854
-0.00539783023651
-6.67808915413e-05
-0.00537374392713
-9.07896290123e-06
-0.00541673707171
6.33675379932e-05
-0.00555875374037
0.000178054110906
-0.00558990376648
3.67501109616e-05
-0.00548451250806
-6.55635087685e-05
-0.00535370376728
-0.000138876425892
-0.00527269433664
-4.74221733505e-05
-0.00529477447309
7.56081598625e-06
-0.00533359688633
6.82832034744e-05
-0.00543166654747
7.99948317885e-05
-0.00551523809131
0.00011036036908
-0.0056409940211
0.000105366240369
-0.00574513118303
0.000128917402601
-0.00588410838488
0.000116820113808
-0.00599116675148
0.000130115351764
-0.00612187059865
0.000106996949184
-0.00621121441956
0.00011073331508
-0.0063180249848
8.16043559872e-05
-0.00638069359667
8.22306735798e-05
-0.00645994820399
5.25923049939e-05
-0.00649650553614
5.41448755875e-05
-0.00655152003758
2.70257839396e-05
-0.00656706452612
3.11064400128e-05
-0.00660289747143
6.91568383443e-06
-0.00660259183636
1.32900641094e-05
-0.00662657441162
-4.92125685357e-06
-0.00663391781996
1.81735068026e-05
-0.00673371947019
7.14786512952e-05
-0.00686837917566
0.000142876111177
-0.00691901515344
1.87442204066e-05
-0.00668775838509
-0.000235435601496
-0.00646031513882
-0.000254966289609
-0.00647051691341
-1.37628789396e-05
-0.00643473243497
-5.09907181775e-05
-0.00646662187925
1.04063048659e-05
-0.00657764458323
9.91619158439e-05
-0.00663905382169
3.92247972947e-05
-0.00661905215049
-3.16510378265e-05
-0.00654790491337
-9.78543679043e-05
-0.00642385263534
-0.000132550184379
-0.00642311246745
-3.66758454681e-05
-0.00636686010229
-5.93286532225e-05
-0.00617906070281
-0.000220560736409
-0.00594968106431
-0.00023093034758
-0.00573356867358
-0.000248934586924
-0.0055820473225
-0.000151014854696
-0.00544083058155
-0.000170488178233
-0.00508582881209
-0.000357333398968
-0.00463605800775
-0.000473815464936
-0.00425557355569
-0.000386748099856
-0.00412686156713
-0.000145675932063
-0.00409308110718
-4.2214043217e-05
-0.0039461189732
-0.000163641752783
-0.00351593292758
-0.000442291726188
-0.00297194779169
-0.000564772230783
-0.00247128958706
-0.000518126999903
-0.00188667531613
-0.000604689922233
-0.0012668300411
-0.000642089703836
-0.000670459692225
-0.000620347235476
-0.000681678212561
-0.000563342696775
0.00121281404295
-0.00120705395189
0.00120901350013
-0.00183075748026
0.00118403168108
-0.00238932073746
0.00106890234296
-0.00298349554845
0.00105339063659
-0.00357503705776
0.00101359557534
-0.00416720828033
0.00097298402893
-0.00469386889909
0.000889170200688
-0.00509750399189
0.000768906055389
-0.00536194776415
0.000652496046848
-0.00554317596112
0.000595926287135
-0.00586205678822
0.000508754194727
-0.00626425014958
0.000272240165233
-0.00633376100135
-0.000298642028079
-0.00644449212416
-4.54676529329e-05
-0.0065998712074
0.000161627645714
-0.006645903614
-0.000140127095525
-0.00660592196604
-0.000254838534238
-0.0064128392545
-0.000352700819625
-0.00575410093688
-0.000628834872358
-0.00515534000621
-0.000489002284538
-0.00527440637514
5.85332327275e-05
-0.00554126220515
0.00024765414773
-0.00558769267811
0.00016849462364
-0.00552114668336
6.83189541737e-05
-0.00542906902086
9.55570209714e-05
-0.00504484009847
-0.000224011076395
-0.00443664674269
-0.000363219228282
-0.00375090969484
-0.000221312836733
-0.00328725798011
0.000231962887525
-0.00285745983779
0.000319465943234
-0.00189453858972
-0.000508818207717
-0.000911339859085
-0.00102964722969
0.000132153148199
-0.00124474932538
0.00142329634051
-0.00138826066394
0.00316678157854
-0.00179192563626
0.00578998427995
-0.00259581490213
0.00960409958824
-0.00371597222479
0.0148064212073
-0.00499456989323
0.0205558404561
-0.00566496628549
0.0252961428269
-0.0047902483527
0.0285575300542
-0.00336560339238
0.030852032157
-0.00233661977491
0.0325147633793
-0.00162893168449
0.033716737193
-0.00113518484947
0.0345872350766
-0.000769896160837
0.0351751165606
-0.000483745027351
0.0355439570624
-0.000246978871464
0.0356974426041
-3.43607448449e-05
0.0356544531855
0.000173015109103
0.0354116299671
0.000360200961141
0.0350081295583
0.000520705960109
0.0344437299493
0.000659785207799
0.033748432003
0.000784052267899
0.0329180406201
0.000894648058592
0.0319791978393
0.000995271033328
0.0309268483291
0.00108587210541
0.0297849709226
0.00116930818595
0.0285480620718
0.00124492505685
0.0272373793441
0.00131477429273
0.0258466574798
0.00137893552761
0.0243938951126
0.00144200273683
0.0228765384556
0.00150856405139
0.0213535822958
0.00158512834221
0.0197856613145
0.00168164358084
0.0179267546737
0.00185868334935
0.015396766325
0.0022591429739
0.01201247478
0.00308968347942
0.0081198234409
0.0038483321438
0.00420925771072
0.0038249372599
0.00126121609062
0.00293910982893
-0.000566770864841
0.00189226538928
-0.00178057234124
0.00123214019963
-0.00267809020357
0.000828210329943
-0.0033980305842
0.000599280748338
-0.00402940311623
0.00045383829684
-0.00414708071317
5.9045582875e-05
-0.00425963415541
1.51883299111e-05
-0.00456703100893
6.94605077445e-05
-0.00474423877599
-9.06962973382e-05
-0.00476681062678
-0.000244698628324
-0.00442650915026
-0.000524668439396
-0.00411361781481
-0.000502778610809
-0.00404396377441
-0.000455472236047
-0.00408587152582
-0.000460194984968
-0.00400253115566
-0.000488086082832
-0.00378109936045
-0.000390190471585
-0.00359429007235
-0.000242784316394
-0.0034755201538
-0.00029956995771
-0.00328999788791
-0.000644232664808
-0.00278549620042
-0.00109122453369
-0.00233238578993
-0.000989291047603
-0.00182597903079
-0.00113228637451
-0.00127004805928
-0.00122223411754
-0.000615835582803
-0.00129791015169
-0.00130797428746
-0.000570764837973
0.00180046775768
-0.00126402278728
0.00192031078908
-0.00192635632826
0.00186416053927
-0.00260936371337
0.00177003978836
-0.00337055473185
0.00183355007836
-0.00403638450229
0.00169886018789
-0.00458773904871
0.00154311447484
-0.00505288121732
0.00137321204842
-0.0055337888092
0.00126803503893
-0.00602585124728
0.00116418990336
-0.00633983558907
0.000929214139496
-0.00638560302646
0.000575742618344
-0.00667022680532
0.000576484911466
-0.00828859492793
0.00134537093246
-0.00950596147965
0.00120049085132
-0.00947543741019
0.0001582363419
-0.00934034745986
-0.000249553923493
-0.00896599806171
-0.000601981722575
-0.00831877473063
-0.000974438331135
-0.00760165909067
-0.00131938860966
-0.00678823143923
-0.00127909070429
-0.00581478336823
-0.000889564408372
-0.00499064594728
-0.000548283114567
-0.00425146709905
-0.000541138905827
-0.00322236144734
-0.000926442290346
-0.00202761894998
-0.00106503947389
-0.000170520547256
-0.00202136850391
0.00286825501913
-0.00334257666212
0.00762164948836
-0.00492350655505
0.0146705358771
-0.00676461129868
0.0230598253893
-0.00802149142069
0.0306588869128
-0.00805032036736
0.037225071827
-0.00756059032527
0.0432520727622
-0.00722386973498
0.0489773547007
-0.00708660885539
0.0544709010722
-0.00724581341115
0.059731581668
-0.0078312495868
0.0645973023722
-0.00855024997871
0.0689082991458
-0.00928219429119
0.0726290656262
-0.00936225627529
0.076033955116
-0.00818063858674
0.0793502180251
-0.00666355608567
0.0823562920156
-0.00533328800372
0.0849730508778
-0.00423202355796
0.0871651709548
-0.00332224233083
0.0889518182741
-0.00254694979567
0.0903379180122
-0.00186837876798
0.0913503764172
-0.00125322978177
0.0920042283774
-0.000689651500713
0.0923329922008
-0.000152362786427
0.0923318561756
0.000357349677056
0.0920219323692
0.000831655463639
0.0914076578251
0.00126792878818
0.0905144044806
0.00167603243705
0.0893470203642
0.00205370400364
0.0879320816187
0.00240651947556
0.0862764004619
0.00273094260352
0.0844070422593
0.00303248484548
0.082330932206
0.00330817922661
0.0800731472063
0.00356396326934
0.0776387007336
0.00379844480685
0.0750495098214
0.00402016565103
0.0723077354149
0.00423317576478
0.0694272919303
0.00445216058149
0.066386614023
0.00470299200651
0.0631674483732
0.0050609592956
0.0597745884977
0.00562653871832
0.0563432617161
0.00649987276431
0.0525944853241
0.00756469952997
0.0486705061194
0.00772767639772
0.0447747194513
0.00680317017141
0.0409119347697
0.0057302467875
0.0372023240458
0.00490674881337
0.033674082845
0.00432774728125
0.0302985071425
0.00393568356261
0.0270325205099
0.00368679314757
0.0235336052636
0.00351427667132
0.0202245969568
0.00328971729149
0.0172946944489
0.00295589505992
0.0145410021854
0.00262589883427
0.0118956498601
0.00235632659089
0.00915270557497
0.00217847472376
0.00645248449509
0.00215275474448
0.00370266859219
0.00224340328827
0.00119881898266
0.00200324095003
-0.00103059055058
0.00170122636904
-0.00236047514094
0.000908445474628
-0.00294348824826
0.000308602891252
-0.00309129624749
-0.000181010857032
-0.00332129178145
-0.000438472688494
-0.00291400677344
-0.00152293104095
-0.00228642618415
-0.00163906078907
-0.00184856701868
-0.00159178549378
-0.00124959086652
-0.00184425696582
-0.000654074214681
-0.0019157173769
-0.00197348586946
-0.000595763542659
0.00241285392057
-0.00130207348557
0.00264440714994
-0.00198004474625
0.00255986637884
-0.00278641705584
0.00259489890916
-0.00358503157845
0.00265159792551
-0.00428453167907
0.00241777339271
-0.00492214511064
0.00219982525159
-0.00568181604494
0.00215241632396
-0.00637400339775
0.00198024860016
-0.00675817112944
0.00156824340155
-0.00688985614391
0.00108121453777
-0.00703177711186
0.000737549778663
-0.00806096779854
0.00162918660901
-0.00901077967366
0.00232063089331
-0.00930026139624
0.00151671039216
-0.00947607280057
0.000361686545318
-0.00917647513969
-0.000522085082614
-0.00862019531899
-0.00112994844204
-0.00793984703226
-0.00162731988415
-0.00729045353398
-0.00194258414394
-0.00698926611081
-0.00154820804776
-0.00631514569988
-0.00153082082866
-0.00473916083169
-0.00208412270575
-0.00204228066773
-0.00319864953943
0.00307922005538
-0.00599466095889
0.0108088065287
-0.00872653203596
0.0203317750841
-0.0114735935806
0.0298808125161
-0.01282478724
0.0388548341276
-0.0138491656643
0.0473978235217
-0.0152635949344
0.0555960392042
-0.0161815462866
0.0635942829704
-0.016010301993
0.0715327519756
-0.0154672832271
0.0792516765854
-0.0149111059326
0.0866372726494
-0.0144475497046
0.093551919558
-0.0141362685615
0.099757599665
-0.0140185882994
0.105166815865
-0.0139416134457
0.109682790407
-0.0137840474603
0.113529811897
-0.0131964006182
0.117311076751
-0.0119511944109
0.121080991002
-0.0104225050408
0.124662450614
-0.00890626426196
0.127931940413
-0.00749296878622
0.130811182355
-0.00619574980703
0.133268495024
-0.00499855874292
0.135285312484
-0.00388226272115
0.136861192649
-0.00282611163715
0.137993681953
-0.00182172794437
0.138705643744
-0.000863801928476
0.138998783358
6.23527649521e-05
0.138877489315
0.000951433910532
0.138358366843
0.00178332624663
0.137463203633
0.00256781597056
0.136205608614
0.0033057131841
0.134607612589
0.0039992313835
0.132684272002
0.00464677363557
0.130458801029
0.00525072491932
0.127946740023
0.00581082211163
0.125170399641
0.00633114989306
0.122143695102
0.00681384151255
0.118886433999
0.00726630527103
0.115410022145
0.00769629252761
0.111729352433
0.00811989861008
0.107854987562
0.00856239934371
0.103831138027
0.00907069362272
0.0997490966585
0.0096917614164
0.0957907642409
0.0104411579121
0.0921331096961
0.011202469673
0.0883921041186
0.0114503435565
0.0841553108811
0.0110177603649
0.0795088495355
0.0103544904193
0.0746562916037
0.00973335940611
0.0697328891806
0.00922578201137
0.0648092782328
0.00883044027515
0.0599354057423
0.00853194235777
0.0551236966309
0.00829418192318
0.050365714312
0.00801715833073
0.0456223079926
0.00766555593355
0.0409024314892
0.00731250624984
0.0362203338376
0.00700280370809
0.031581170178
0.00678232051681
0.0270170664491
0.00667767953473
0.0225177544051
0.00670364614794
0.0177060393798
0.00677100490941
0.0130088707699
0.00635589125823
0.00838999296681
0.00548033357149
0.00409250843865
0.00455595526791
0.000725082231498
0.00313954840915
-0.00114267891249
0.00139440745797
-0.00229899951151
-0.000393747416647
-0.0021411667375
-0.00182185250542
-0.0015052306961
-0.00224963415794
-0.00115210688721
-0.00221900768016
-0.000661677381251
-0.00243010570971
-0.00264732885619
-0.000658647847731
0.00308829687313
-0.00141275328754
0.0034163479532
-0.00216672136295
0.00333200991819
-0.0030768492029
0.00352430755317
-0.00387664830699
0.00347082259169
-0.00463813750962
0.00319878756684
-0.00552787163892
0.00310941958866
-0.00636662891072
0.00301156418891
-0.00694298166636
0.0025767809918
-0.00734113773051
0.00198675321337
-0.00765760373546
0.00141743644839
-0.00868546667119
0.00178814351463
-0.0096741848635
0.00264344442747
-0.00954079362994
0.0022147838929
-0.00939504445162
0.00139724260791
-0.009425117899
0.000420438183526
-0.00919966680979
-0.000718620731883
-0.00891190668662
-0.00138772571962
-0.00898590453599
-0.00152413770171
-0.00863226008306
-0.00225788799419
-0.00707617957379
-0.00307157729105
-0.00473239711861
-0.0038332499631
-0.000783549652673
-0.0059963123626
0.00742701802744
-0.0113489577021
0.0180500050662
-0.0165451927169
0.0290297089225
-0.0196438692931
0.0392438396855
-0.0216338166006
0.0491412028962
-0.0226754701153
0.058803963611
-0.0234744978052
0.0678413316642
-0.0242674864877
0.0763716875078
-0.0246811171464
0.0848501666089
-0.0244595009514
0.0932798918124
-0.0238698341747
0.101520754611
-0.0231270265019
0.10943604141
-0.0223412419538
0.116889009984
-0.021570555197
0.123719528246
-0.0208340282347
0.129856461204
-0.0200656092443
0.135264313684
-0.01918112244
0.140100698548
-0.0180234705625
0.144671155051
-0.0165129054564
0.149052542977
-0.0147958200982
0.153181626309
-0.0130279757563
0.156983788676
-0.0112886751866
0.160400618555
-0.00960722700204
0.163395380468
-0.00798907158167
0.165945136117
-0.00642899718371
0.168037535321
-0.00491657507935
0.169662225194
-0.0034456667587
0.170816500794
-0.00201847829528
0.171499237178
-0.000621866640295
0.171710724561
0.000737678628393
0.171466252962
0.00202453427778
0.170787355959
0.00324269423394
0.169691822272
0.00439628142791
0.168198935907
0.00548641395348
0.166326802804
0.00651224522778
0.164095779725
0.00747435647569
0.161524680347
0.00837358105097
0.15863373926
0.00921303757889
0.155440956369
0.00999660314503
0.151965494089
0.0107310269678
0.148224937438
0.0114250952778
0.144240157777
0.0120924247785
0.140037880767
0.0127515527708
0.135668688648
0.0134267745592
0.131213712073
0.01413289501
0.126788338597
0.0148519033586
0.122483295257
0.0154917532266
0.118094376182
0.0158228356656
0.113334027963
0.0157595516929
0.108188379631
0.0154802848982
0.102756719865
0.0151431129474
0.0971381710666
0.0148216848766
0.0914059804255
0.0145384099685
0.0856189244647
0.0142939346818
0.0798162288196
0.014070362552
0.0739839594697
0.0138223808435
0.0680892029742
0.0135315460586
0.0621437657779
0.013228440438
0.0561729192044
0.0129426803113
0.050219095824
0.0127048021358
0.0443294761335
0.0125342025847
0.0385597331442
0.0124391525366
0.0329409812479
0.012353799633
0.027294393119
0.0119652585556
0.0214948726137
0.0112396734056
0.0156289128848
0.0103783291149
0.00947883377327
0.00924406317399
0.00395671987114
0.00687196934558
0.000175825378778
0.00335475025947
-0.00150601738202
-0.000171953369212
-0.00127118750298
-0.00250940665907
-0.000763728456631
-0.00274910382126
-0.000471436736343
-0.00274448735543
-0.003130663048
-0.000727551798852
0.00383271735842
-0.00156725477841
0.00427398128844
-0.00243163069659
0.00421490329048
-0.00339955288904
0.00451174328473
-0.00426306091417
0.00435402506065
-0.00529524502415
0.00425098520147
-0.00621178782838
0.00404675091453
-0.00691057231117
0.00373092979343
-0.00750580814309
0.00319215155209
-0.00795710236409
0.00245830504149
-0.00855734448086
0.00203891557244
-0.00978425791118
0.00303948428452
-0.0103865545089
0.00327355812427
-0.0103528343366
0.00220743518419
-0.0106321616778
0.00170737539029
-0.0111385112327
0.000956427166742
-0.0119840896427
0.000159268580789
-0.012211212542
-0.0011270516647
-0.0108451754568
-0.00285340791845
-0.0086242359459
-0.00444381809037
-0.0057947026606
-0.00585854280366
-0.00186196420289
-0.00773059765565
0.00733613936369
-0.0151366429778
0.0190576788715
-0.0230014958259
0.0300906090206
-0.0275207380055
0.0404736029587
-0.0299781840738
0.0504981952027
-0.0316157889217
0.060465423573
-0.0326053750478
0.0702638092883
-0.0332406184558
0.0796527574106
-0.0336273114494
0.0886472607902
-0.0336484266119
0.097436172616
-0.0332228226323
0.10604528995
-0.0324546896538
0.1144070729
-0.0314666312212
0.122431879601
-0.030346184595
0.130025358883
-0.0291469501899
0.137095094832
-0.0278894013296
0.143592968285
-0.0265514601735
0.149511734821
-0.025089620849
0.154936864834
-0.023439837063
0.160010014784
-0.0215778773509
0.164788911906
-0.0195674435898
0.169259423976
-0.0174917305357
0.173384743254
-0.0154082623108
0.177129108179
-0.0133466417532
0.180463785148
-0.0113199856657
0.183368581404
-0.00933092932297
0.185828452079
-0.00737479879001
0.187830546556
-0.00544708169177
0.189361147686
-0.00354974577797
0.19042262366
-0.00168482378449
0.1910049166
0.000152833598629
0.191103418838
0.00192270963213
0.190740083359
0.0036016997873
0.189932608858
0.00519875420537
0.188697954455
0.00671512711487
0.187053923633
0.00814966362356
0.18501910552
0.00950166242115
0.182612776142
0.0107717377809
0.179854405471
0.011962369227
0.176763563723
0.0130777275898
0.173360045967
0.0141239776162
0.169664630414
0.0151092415628
0.165701084772
0.0160439967217
0.161499704019
0.0169403979257
0.157103826162
0.0178097253696
0.152570842142
0.0186525699937
0.147963082703
0.0194456136125
0.143311896376
0.0201281152605
0.138520343631
0.0205985339851
0.133444643889
0.0208179354489
0.12804920815
0.0208570254651
0.122370816337
0.0208013931789
0.116465118128
0.0207062326762
0.110383507135
0.0205978265193
0.104169816485
0.020484486225
0.0978550656055
0.0203609778675
0.0914420396198
0.0202103906696
0.0849219004787
0.020025471242
0.0783043630538
0.0198188166052
0.071611675445
0.0196071180999
0.0648802065684
0.0194073724617
0.0581533978864
0.019231106125
0.051485623555
0.0190761122196
0.0449169024897
0.018890680018
0.0383308682994
0.0185184968895
0.0316270471205
0.0179083830551
0.0248682951474
0.0171000045248
0.0181288773372
0.0159429007867
0.0111553600168
0.0138033504773
0.00464821424014
0.00981736190283
0.000547727481131
0.00388561114313
-0.000548516165944
-0.00144001810928
-0.000365063697336
-0.00295693799615
-0.000310437091361
-0.0028210919486
-0.00345327786058
-0.000786829390194
0.00463646711646
-0.00173232625029
0.00523740315425
-0.00272345810951
0.00522447100929
-0.00376568679262
0.0055736619567
-0.00490857265534
0.0055166625293
-0.0059671146303
0.0053300979292
-0.00665203029856
0.00475220646327
-0.00745551937277
0.0045549946481
-0.00822293401905
0.00398020988509
-0.00891185225915
0.00316806222356
-0.0103495375319
0.00349992487653
-0.011735033533
0.00445302271095
-0.0126010552556
0.00416721667321
-0.0147479239331
0.00438603485852
-0.01666347429
0.00365715830277
-0.0169662759487
0.00129411666887
-0.0158849995925
-0.000888415920431
-0.0138516192182
-0.00312816405091
-0.0111668382491
-0.00550321745304
-0.00788129527264
-0.007691775003
-0.0036754422294
-0.0100271938955
0.00405105855587
-0.0154067240126
0.0164258848381
-0.0274446527801
0.0274694750404
-0.033987549246
0.0377322532089
-0.0377359950184
0.0478530179997
-0.0400578007157
0.057866802595
-0.0415928969314
0.0678174009971
-0.0425229740912
0.0776045077311
-0.0429979004374
0.0870935994992
-0.0430891009219
0.0962572012235
-0.042786413297
0.105146175587
-0.0420878671102
0.11376920048
-0.0410550230255
0.122091101221
-0.0397677326421
0.130058433637
-0.0382945715103
0.137612602805
-0.0366845105074
0.144701103249
-0.0349635117819
0.151295282866
-0.0331333659265
0.15739666662
-0.0311803775442
0.163050456665
-0.0290844902505
0.168324955261
-0.0268440811324
0.173257637363
-0.0244928674135
0.177850895228
-0.0220783957262
0.182088793182
-0.0196406028246
0.185951448953
-0.017204528119
0.189419535972
-0.0147844233353
0.192477615341
-0.0123862495975
0.195112570866
-0.0100081402968
0.197312947603
-0.0076468303206
0.199066617982
-0.00530411442335
0.200371591006
-0.00299133408998
0.201215016029
-0.000693178296616
0.201579943829
0.0015542902249
0.20148078074
0.00369637299201
0.200930687068
0.00574363832784
0.199943343435
0.00769634804247
0.198534485383
0.00955172363345
0.196721121776
0.0113073597366
0.194521858362
0.012962694214
0.191955799582
0.0145192930608
0.189042949452
0.0159808067587
0.18580368675
0.0173526668684
0.182259848076
0.0186418616749
0.178435493319
0.0198564156708
0.174359149978
0.0210042638201
0.170065331712
0.022090493664
0.165592845958
0.0231116010086
0.160975202735
0.0240490696836
0.156221727515
0.0248667135371
0.151286253239
0.0255181338608
0.146100824325
0.0259863476402
0.140637609085
0.0263020213328
0.134908074183
0.0265115635287
0.12894141355
0.0266525063356
0.122770073912
0.026747884762
0.116423586964
0.0268087897741
0.109924325485
0.026837206286
0.103281679091
0.0268291256819
0.096498938106
0.026783334698
0.0895858913209
0.026706089702
0.082559905798
0.0266064074767
0.0754467808053
0.0264930768947
0.0682787896771
0.0263709271
0.061092907063
0.0262330732812
0.0539102808739
0.0260436204554
0.0466745880608
0.0257237222117
0.0393265658447
0.0252243823036
0.031884014133
0.0245088827986
0.0243953161487
0.0233950347803
0.0168117993514
0.0213483384991
0.0091696589122
0.017416959897
0.00273664389675
0.0102789249058
0.000170591884556
0.00110111465774
-3.08258336586e-06
-0.00281092534828
-0.000142561232426
-0.00270248496581
-0.00360694512404
-0.000807530769654
0.00546073474507
-0.0018783176169
0.00632615098964
-0.00300359982158
0.00636814245166
-0.00393035080645
0.00651952896143
-0.00498732388565
0.00659292372645
-0.00588787331018
0.00624985948729
-0.00683494737886
0.00571901050811
-0.00806448331508
0.00580570177618
-0.00919764390638
0.00513478309482
-0.010559291216
0.00455164623332
-0.0122610722439
0.0052286653026
-0.0136820422548
0.00590202813455
-0.0166472504629
0.00716436018153
-0.0192031784222
0.006976462976
-0.0195986330745
0.00408666857156
-0.0188191871921
0.000547782047973
-0.0169497119648
-0.002728031386
-0.0142555234474
-0.00578797956555
-0.0110216980878
-0.00870591439755
-0.00707991745497
-0.0115946417146
-0.0010397688036
-0.0160301163938
0.0114478584052
-0.0278388986809
0.0229919642752
-0.0389314137756
0.0334212516159
-0.0443689282529
0.0435058145299
-0.0477793994852
0.0535685478245
-0.0500838835985
0.0635960543904
-0.0515870547908
0.0735386898565
-0.0524348688246
0.0833054839245
-0.0527363523484
0.0928061538727
-0.0525634559293
0.101999211608
-0.0519548596169
0.110881910653
-0.0509475452476
0.119446711684
-0.0495982148547
0.127670307328
-0.0479713605049
0.135520129461
-0.0461261333297
0.142961294488
-0.0441093179559
0.149964357396
-0.0419521280393
0.156514020556
-0.0396704050676
0.162614069539
-0.037269374604
0.168289913222
-0.0347507025215
0.17357740765
-0.0321229961799
0.178500751227
-0.0294087130766
0.183067000676
-0.0266380032302
0.187271031172
-0.0238390056709
0.191103034009
-0.0210317829741
0.194551532889
-0.0182292253837
0.197605844436
-0.0154377922657
0.200256118917
-0.0126567265702
0.202493766086
-0.00988385452547
0.204310343512
-0.00712130058541
0.205697690552
-0.00438013433721
0.20664815385
-0.00164619196903
0.207142474885
0.00105640925684
0.207184175785
0.00365008584267
0.20678057512
0.00614188064717
0.205941747863
0.00852890672292
0.204680990037
0.0108055034957
0.20301375324
0.0129667766594
0.200957682577
0.0150102826132
0.198531481194
0.0169362253768
0.195755069895
0.0187473081583
0.192648947598
0.0204481252238
0.189234852729
0.0220446582923
0.185535872967
0.023543388048
0.181577446951
0.0249501107625
0.177386946626
0.0262677729099
0.172991467704
0.0274933471538
0.168411009184
0.0286150818912
0.16364941402
0.0296131700416
0.158685100237
0.0304664040267
0.15348609345
0.0311683476189
0.148035410209
0.0317346512037
0.142336099003
0.0321918421449
0.136403556803
0.0325650567857
0.130257835648
0.0328727852802
0.123918555876
0.0331263952813
0.11740189583
0.033331414191
0.110718115982
0.033489627363
0.10387437908
0.0336029682448
0.0968798409483
0.0336756975445
0.0897474541661
0.0337130777718
0.0824945293274
0.0337195581741
0.0751420753583
0.0336962760246
0.067711352457
0.0336360274956
0.0602109994269
0.0335155143212
0.0526135686445
0.0332919020379
0.044884654365
0.0329229621009
0.0370192745479
0.0323423131103
0.0290309167642
0.0313493871411
0.0209067634051
0.0294360163711
0.0126712300822
0.0256134505903
0.00495509972397
0.0179585240259
0.000503745773008
0.00552175924807
-0.000111872128097
-0.00222278747866
-4.03773091247e-05
-0.00279319336905
-0.0036575932898
-0.000787467862283
0.00626446725391
-0.00193987762585
0.00749642163803
-0.00307920218782
0.00752538748859
-0.0040069709133
0.00746539819642
-0.00522992827013
0.00783497063778
-0.00639875795906
0.0074380004774
-0.0075551177504
0.0068952910335
-0.00885471369382
0.00712729884938
-0.010045931473
0.0063471629049
-0.0116103722789
0.00613986923288
-0.0138076041763
0.00745177066511
-0.0171333980333
0.00925871340709
-0.0206216810094
0.0106870101441
-0.0215532197359
0.00794225343564
-0.0210578881484
0.00362425212253
-0.0196651149811
-0.000814500076832
-0.0174283882131
-0.00493103170919
-0.0144631445706
-0.00872180745211
-0.0108594065405
-0.012269239554
-0.00603805420745
-0.0163833689681
0.00557905657723
-0.027595255827
0.0185473984254
-0.0407489378017
0.02869624636
-0.0490311728482
0.0386184514904
-0.0542495818079
0.048661471736
-0.0577854373123
0.0587854882953
-0.0601742941086
0.0688908597714
-0.0616612134517
0.0788817795999
-0.0623966980022
0.0886682268006
-0.0624956031676
0.0981767135779
-0.0620465696893
0.10736322526
-0.0611175770432
0.116207091169
-0.0597692141964
0.124693657505
-0.0580639791834
0.132805454211
-0.0560639221783
0.140522578949
-0.053825547695
0.147825323128
-0.0513960160474
0.154698467533
-0.048810869641
0.161135609714
-0.0460947486492
0.167141826847
-0.0432642503938
0.172733371159
-0.0403322565192
0.177931601378
-0.0373123645815
0.182753205754
-0.0342225689518
0.187206284602
-0.0310842885487
0.191291235247
-0.0279181874393
0.19500445437
-0.0247401636938
0.198340135308
-0.0215610898597
0.201291503047
-0.0183863099018
0.203851769831
-0.0152151915818
0.206014750927
-0.0120461175973
0.207773849483
-0.00888084706006
0.209120390013
-0.00572799041416
0.210051868909
-0.00258007610223
0.210548719915
0.000555998744273
0.210607734503
0.00358649500264
0.210231773885
0.00651240081896
0.209428026529
0.00932632201526
0.208207723971
0.0120187011893
0.20658509068
0.0145814897997
0.204576939371
0.0170098089808
0.202201628074
0.0193021581244
0.199478835989
0.021460057254
0.196428922489
0.0234872803769
0.193073088262
0.0253890866956
0.18943315433
0.0271712265751
0.185531744461
0.0288388169338
0.181391333781
0.0303948104899
0.177032395119
0.0318383329376
0.172469170412
0.033163637911
0.167705586554
0.0343613918051
0.162732821522
0.0354229725469
0.157536555708
0.0363475529329
0.152108040105
0.0371451846843
0.146448404357
0.0378326060164
0.140566401877
0.0384273085812
0.134474695244
0.0389439428819
0.128186556524
0.0393931848911
0.121713829467
0.0397820472386
0.115065620858
0.0401149813445
0.108249356623
0.0403956293807
0.101272821602
0.0406278915876
0.0941453098218
0.0408155397474
0.0868779117953
0.0409612408515
0.0794828998466
0.0410649564005
0.0719707904795
0.0411211776723
0.0643433125005
0.0411153823015
0.0565846968637
0.0410221169953
0.0486730776606
0.0408052198514
0.0405980192693
0.0403867156977
0.0323659538864
0.0395490816718
0.0240056717617
0.0377622821638
0.0156233081796
0.0339596235985
0.00740902098563
0.0261340627295
0.00134308317926
0.0115534469525
-9.43518164401e-05
-0.000805757000237
7.5423657638e-05
-0.00298247805601
-0.00359116702978
-0.000853251595143
0.00713354476666
-0.00204343438464
0.00870440627004
-0.00324814156647
0.00874789777767
-0.00441091925242
0.00864619040448
-0.00575748493219
0.00920062902292
-0.00707362106072
0.00877342396477
-0.00834950511384
0.00819153310715