/*--------------------------------*- C++ -*----------------------------------*\
| =========                 |                                                 |
| \\      /  F ield         | OpenFOAM: The Open Source CFD Toolbox           |
|  \\    /   O peration     | Version:  v1906                                 |
|   \\  /    A nd           | Web:      www.OpenFOAM.com                      |
|    \\/     M anipulation  |                                                 |
\*---------------------------------------------------------------------------*/
FoamFile
{
    version     2.0;
    format      ascii;
    class       volVectorField;
    location    "269";
    object      U;
}
// * * * * * * * * * * * * * * * * * * * * * * * * * * * * * * * * * * * * * //

dimensions      [0 1 -1 0 0 0 0];


internalField   nonuniform List<vector> 
9216
(
(0.00165091811455 -0.00165243958028 0)
(0.00157213302466 -0.00483926276015 6.56722975894e-28)
(0.00157410629445 -0.00816628790437 1.09492974449e-31)
(0.00155595419422 -0.0114326086164 0)
(0.00152632698123 -0.0146494219588 0)
(0.00148847266378 -0.0177949162484 0)
(0.00144388876913 -0.0208539964664 0)
(0.00139357385686 -0.0238138001739 0)
(0.0013384422505 -0.0266633704392 0)
(0.00127928629254 -0.0293935159392 0)
(0.00121692209197 -0.0319967104423 0)
(0.00115204902983 -0.0344670154637 0)
(0.0010853766982 -0.0367999627009 0)
(0.00101747721808 -0.0389924215107 0)
(0.000948917252155 -0.0410424543638 0)
(0.000880119989286 -0.0429491483473 0)
(0.000811497385075 -0.0447124712039 0)
(0.000743327523628 -0.0463330946727 0)
(0.000675878103799 -0.0478122742629 0)
(0.000609303187992 -0.0491516829572 0)
(0.00054374895321 -0.0503533268425 0)
(0.000479273961936 -0.0514193973871 0)
(0.000415929328858 -0.0523522261719 0)
(0.000353707329089 -0.0531541566181 0)
(0.000292589176606 -0.0538275359165 0)
(0.000232527434865 -0.0543746039095 0)
(0.000173455680552 -0.0547975186294 0)
(0.000115310516587 -0.0550982593889 0)
(5.79979025811e-05 -0.0552786834034 0)
(1.46123610424e-06 -0.0553404393552 0)
(-5.44050507093e-05 -0.0552850661524 0)
(-0.000109633853506 -0.0551138884257 0)
(-0.000164317319655 -0.0548281635085 0)
(-0.000218437074361 -0.054429012486 0)
(-0.0002720563428 -0.0539175636277 0)
(-0.000325086745391 -0.0532949127774 0)
(-0.000377542259223 -0.0525622893875 0)
(-0.000429245306222 -0.0517210348857 0)
(-0.000480144142254 -0.0507727861199 0)
(-0.000529958576105 -0.0497194693976 0)
(-0.000578560709697 -0.0485634906278 0)
(-0.000625562607712 -0.0473077427657 0)
(-0.00067075615885 -0.0459557881176 0)
(-0.000713648623208 -0.0445118781699 0)
(-0.000753952939179 -0.0429811142092 0)
(-0.000791082139538 -0.0413694825382 0)
(-0.000824676842478 -0.039683977324 0)
(-0.000854077352228 -0.0379326488788 0)
(-0.000878874367679 -0.0361246649932 0)
(-0.000898385756985 -0.0342703504693 0)
(-0.000912215355573 -0.0323811402935 0)
(-0.000919763970695 -0.0304695518113 0)
(-0.000920774829708 -0.0285489667816 0)
(-0.000914893247457 -0.026633465886 0)
(-0.000902163544384 -0.0247374101785 0)
(-0.00088262871769 -0.0228751339082 0)
(-0.000856741061543 -0.0210603936942 0)
(-0.000824992769462 -0.0193060216389 0)
(-0.000788221780977 -0.0176233842716 0)
(-0.000747278998187 -0.0160221406341 0)
(-0.000703226890915 -0.0145098644021 0)
(-0.000657059875687 -0.0130920292223 0)
(-0.000609822211296 -0.0117718987739 0)
(-0.000562412164978 -0.010550749405 0)
(-0.000515661251618 -0.00942799661609 0)
(-0.000470226380855 -0.00840153525947 0)
(-0.000426650907526 -0.00746798458874 0)
(-0.000385314819694 -0.0066230239668 0)
(-0.000346488211325 -0.00586165476825 0)
(-0.000310312236593 -0.00517846410494 0)
(-0.000276853759578 -0.00456783302752 0)
(-0.000246094397937 -0.004024096659 0)
(-0.000217984504849 -0.00354167358149 0)
(-0.000192419658389 -0.00311513943279 0)
(-0.00016929345018 -0.0027392999303 0)
(-0.000148457974632 -0.00240922000581 0)
(-0.000129780149043 -0.00212026448813 0)
(-0.000113090233913 -0.00186810845711 0)
(-9.82391411441e-05 -0.00164876046524 0)
(-8.50298032776e-05 -0.00145857700625 0)
(-7.32482380677e-05 -0.0012943157749 0)
(-6.24890801842e-05 -0.00115339843506 0)
(-5.16665700197e-05 -0.00103377679987 0)
(-4.02595196027e-05 -0.00092216132181 0)
(-3.80519207479e-05 -0.000860535262283 0)
(-3.77734152992e-05 -0.000779726759911 0)
(-3.31287138741e-05 -0.000703440908778 0)
(-2.80671009382e-05 -0.000643459707971 0)
(-2.860870014e-05 -0.00059358076803 0)
(-3.17684881098e-05 -0.000533405979067 0)
(-3.21906009313e-05 -0.000472318011277 0)
(-3.29865959327e-05 -0.000406071253334 0)
(-3.79634540766e-05 -0.00033320631037 0)
(-4.31364672746e-05 -0.000252788004403 0)
(-4.81000263846e-05 -0.000155113149971 0)
(-5.08986987033e-05 -4.91764668582e-05 0)
(0.00485130254855 -0.00159016979373 0)
(0.005090933039 -0.00513086480491 0)
(0.00506920035254 -0.00867275391669 -6.75289314861e-28)
(0.00499840723593 -0.0121725610478 0)
(0.00489929689468 -0.0156038502379 0)
(0.00477612087431 -0.0189548292447 0)
(0.00463208748617 -0.0222114689124 0)
(0.00446994988476 -0.0253607964163 0)
(0.00429243710233 -0.0283914178492 0)
(0.00410211099493 -0.0312936953284 0)
(0.00390152742802 -0.034059749037 0)
(0.00369299673092 -0.0366833977942 0)
(0.00347874012024 -0.0391600405344 0)
(0.00326065756548 -0.0414865119514 0)
(0.0030405072828 -0.0436609174784 0)
(0.00281970276552 -0.0456824556948 0)
(0.00259950496668 -0.0475512480297 0)
(0.00238085233631 -0.0492681618636 0)
(0.00216454758108 -0.050834661381 0)
(0.00195112134016 -0.0522526510483 0)
(0.00174099589933 -0.0535243602843 0)
(0.00153438457533 -0.0546522147774 0)
(0.00133141795655 -0.0556387577373 0)
(0.00113208377007 -0.056486548874 0)
(0.000936304562526 -0.057198119488 0)
(0.000743925277015 -0.0577758954775 0)
(0.000554733967967 -0.0582221821598 0)
(0.000368505800581 -0.0585391076768 0)
(0.000184959848711 -0.0587286339709 0)
(3.86915102194e-06 -0.0587925200533 0)
(-0.000175056074254 -0.0587323480155 0)
(-0.000351982115043 -0.0585495319806 0)
(-0.000527139632941 -0.0582453523811 0)
(-0.000700561951965 -0.0578209667756 0)
(-0.000872357993663 -0.05727749697 0)
(-0.00104236212684 -0.0566160518039 0)
(-0.00121049696518 -0.0558378399428 0)
(-0.00137633694323 -0.0549442129093 0)
(-0.00153956506214 -0.053936797041 0)
(-0.0016994523194 -0.052817552782 0)
(-0.00185540902659 -0.0515889164538 0)
(-0.00200638452574 -0.0502538690383 0)
(-0.0021515064956 -0.0488160761101 0)
(-0.00228940896428 -0.047279960429 0)
(-0.00241894581493 -0.0456508305741 0)
(-0.00253846245675 -0.0439349558372 0)
(-0.00264656483293 -0.0421396746713 0)
(-0.00274136638267 -0.0402734688522 0)
(-0.00282129936262 -0.0383460350664 0)
(-0.00288438910796 -0.0363683341467 0)
(-0.00292910170145 -0.0343525789149 0)
(-0.00295370059599 -0.0323121896828 0)
(-0.00295710716436 -0.0302616154826 0)
(-0.00293834857742 -0.0282161065463 0)
(-0.00289734889292 -0.0261913133353 0)
(-0.00283441013688 -0.0242028688613 0)
(-0.0027508241792 -0.0222658376417 0)
(-0.00264833950585 -0.0203942363162 0)
(-0.00252955092164 -0.0186004987952 0)
(-0.00239735480836 -0.01689510566 0)
(-0.00225512214227 -0.0152862397976 0)
(-0.00210618110101 -0.0137796849184 0)
(-0.00195386579023 -0.01237879788 0)
(-0.00180114061282 -0.0110847034962 0)
(-0.00165065320704 -0.00989652259111 0)
(-0.00150454476015 -0.00881171326298 0)
(-0.00136453022758 -0.0078263935651 0)
(-0.00123183392008 -0.00693568897504 0)
(-0.00110728684355 -0.00613404396814 0)
(-0.000991332541423 -0.00541550195406 0)
(-0.000884149511607 -0.00477393545844 0)
(-0.000785671817932 -0.00420321404805 0)
(-0.000695710412253 -0.0036973289125 0)
(-0.000613936298542 -0.00325046862097 0)
(-0.000539981946199 -0.00285708024753 0)
(-0.000473389421774 -0.00251190325875 0)
(-0.00041370689227 -0.00221000047218 0)
(-0.000360416852498 -0.0019467695079 0)
(-0.000313030885932 -0.00171794933464 0)
(-0.00027099289176 -0.00151960525297 0)
(-0.000233738506971 -0.0013480858779 0)
(-0.000200492428728 -0.00119988951511 0)
(-0.000169931790743 -0.00107162187575 0)
(-0.000140811945157 -0.000951406118107 0)
(-0.000124174583236 -0.000843393954065 0)
(-0.000116733849323 -0.000766545228542 0)
(-9.85367529687e-05 -0.000683632002049 0)
(-8.4027196838e-05 -0.000628412872394 0)
(-8.34607899261e-05 -0.000568925653948 0)
(-9.1383557152e-05 -0.000522252191408 0)
(-9.59118904476e-05 -0.000471583109826 0)
(-0.000102232693009 -0.000401967408617 0)
(-0.000113482593371 -0.000327670413276 0)
(-0.000140839283006 -0.000261021984233 0)
(-0.000171132188748 -0.00016678983241 0)
(-0.000151867998765 -4.50545599235e-05 0)
(0.00824320706565 -0.00162490229778 0)
(0.00866554451792 -0.00521410349763 0)
(0.00859023960248 -0.00877425058074 -6.74346428478e-28)
(0.00845843003121 -0.0123127174823 0)
(0.00828518307177 -0.0157814965951 0)
(0.0080736098774 -0.0191672490434 0)
(0.00782756793643 -0.0224552275725 0)
(0.00755127755741 -0.0256322548496 0)
(0.00724916370006 -0.0286868886023 0)
(0.00692560643463 -0.0316095423495 0)
(0.006584893983 -0.034392475974 0)
(0.00623102512347 -0.0370297193659 0)
(0.00586771683359 -0.0395169395125 0)
(0.0054982541966 -0.0418512773758 0)
(0.00512554979386 -0.0440311642164 0)
(0.00475204116943 -0.0460561308099 0)
(0.00437978738436 -0.0479266203768 0)
(0.0040104033475 -0.0496438074791 0)
(0.00364517294476 -0.0512094353749 0)
(0.00328500782142 -0.052625663774 0)
(0.00293055853896 -0.0538949420744 0)
(0.00258218930588 -0.0550198914607 0)
(0.00224007407356 -0.056003214757 0)
(0.00190418427951 -0.056847610443 0)
(0.00157436237792 -0.0575557146459 0)
(0.00125032428573 -0.0581300419098 0)
(0.000931706854391 -0.058572954054 0)
(0.000618089635378 -0.0588866230884 0)
(0.00030901497242 -0.0590730233005 0)
(4.03447016705e-06 -0.0591339142305 0)
(-0.000297297363065 -0.0590708563561 0)
(-0.000595346697428 -0.0588852103351 0)
(-0.000890439346377 -0.0585781789825 0)
(-0.00118274811011 -0.0581508313757 0)
(-0.00147236337166 -0.0576041657979 0)
(-0.00175914840468 -0.0569391596241 0)
(-0.00204284745758 -0.0561568574196 0)
(-0.00232290975284 -0.0552584438405 0)
(-0.00259864109109 -0.0542453525266 0)
(-0.00286900101352 -0.0531193560766 0)
(-0.0031328011503 -0.0518826867364 0)
(-0.00338847870745 -0.050538133702 0)
(-0.00363433851138 -0.0490891638736 0)
(-0.00386830408391 -0.0475400180718 0)
(-0.00408819397957 -0.0458958246295 0)
(-0.00429145343896 -0.0441626926455 0)
(-0.00447545773823 -0.0423478177903 0)
(-0.00463724440938 -0.0404595755722 0)
(-0.00477385721364 -0.0385076146555 0)
(-0.00488213103031 -0.0365029341433 0)
(-0.00495911629863 -0.0344579179675 0)
(-0.0050019793564 -0.0323863164204 0)
(-0.00500852017127 -0.0303031083317 0)
(-0.00497717321095 -0.0282242532788 0)
(-0.00490750606276 -0.0261662829234 0)
(-0.00480016795292 -0.0241457923393 0)
(-0.00465718453503 -0.022178843477 0)
(-0.00448173942279 -0.020280370956 0)
(-0.00427821656175 -0.0184635988631 0)
(-0.00405181618491 -0.0167395633118 0)
(-0.00380834662562 -0.0151167415415 0)
(-0.00355372286191 -0.0136009084741 0)
(-0.00329367696075 -0.0121951649864 0)
(-0.00303338476326 -0.0109001758265 0)
(-0.00277733456669 -0.00971449301496 0)
(-0.00252919180433 -0.00863494262329 0)
(-0.00229181113646 -0.00765701273071 0)
(-0.00206723730669 -0.00677522597808 0)
(-0.00185679129791 -0.00598348947959 0)
(-0.00166116038697 -0.00527539922711 0)
(-0.00148054834251 -0.00464447660288 0)
(-0.00131479325837 -0.00408433673402 0)
(-0.0011635031687 -0.00358878851106 0)
(-0.00102610859345 -0.00315189247227 0)
(-0.000901940018528 -0.00276800325702 0)
(-0.000790232232565 -0.00243179551889 0)
(-0.000690183650616 -0.00213828718419 0)
(-0.000600946282097 -0.00188284861096 0)
(-0.000521682009672 -0.00166120208685 0)
(-0.00045154659461 -0.00146940128573 0)
(-0.000389749393885 -0.00130378055954 0)
(-0.000335547788924 -0.0011608231442 0)
(-0.000288419888104 -0.00103752899353 0)
(-0.000248608030305 -0.000922036371906 0)
(-0.000218732560638 -0.000822960310251 0)
(-0.000195753090242 -0.000744230676425 0)
(-0.000172854996079 -0.000680794877714 0)
(-0.000147607998217 -0.000597781681463 0)
(-0.000133541121236 -0.000526754266357 0)
(-0.000140033741713 -0.000486302534615 0)
(-0.000164222110883 -0.000456082804896 0)
(-0.000169442206057 -0.000363206520617 0)
(-0.00019465394885 -0.000301545955432 0)
(-0.000228398473581 -0.000221193533285 0)
(-0.000256764988361 -0.000133844849736 0)
(-0.000247182924633 -4.10552037772e-05 0)
(0.0116602866282 -0.0016564635012 0)
(0.0122886861389 -0.00530248148483 0)
(0.012179655202 -0.00891051314725 6.74257406614e-28)
(0.0119886489088 -0.0124995374 0)
(0.0117385299354 -0.0160161802081 0)
(0.0114342023191 -0.0194458407527 0)
(0.0110811252413 -0.0227729321217 0)
(0.010685340861 -0.0259838773711 0)
(0.0102531895589 -0.0290671019478 0)
(0.00979101086637 -0.0320130875181 0)
(0.00930496302517 -0.034814321578 0)
(0.00880081763681 -0.0374651832339 0)
(0.00828387177516 -0.039961776979 0)
(0.00775882774146 -0.0423017362989 0)
(0.00722978718978 -0.0444840108302 0)
(0.00670020224251 -0.0465086512613 0)
(0.00617292849872 -0.0483766018986 0)
(0.0056502232781 -0.0500895068471 0)
(0.00513382935786 -0.0516495361808 0)
(0.00462499645556 -0.0530592310873 0)
(0.0041245722804 -0.0543213724078 0)
(0.00363303071002 -0.0554388667667 0)
(0.00315055555689 -0.0564146546898 0)
(0.0026770677487 -0.0572516319547 0)
(0.0022122954606 -0.0579525899105 0)
(0.00175579959744 -0.0585201644001 0)
(0.00130702966645 -0.0589568012417 0)
(0.000865351086757 -0.0592647269128 0)
(0.000430089100809 -0.0594459348402 0)
(5.63110508478e-07 -0.0595021748651 0)
(-0.000423878349405 -0.0594349630633 0)
(-0.000843811214137 -0.059245583255 0)
(-0.0012597096171 -0.0589351247087 0)
(-0.00167188571052 -0.0585045116725 0)
(-0.00208047184587 -0.0579545585089 0)
(-0.00248534959635 -0.0572860299894 0)
(-0.00288614678691 -0.0564997230015 0)
(-0.00328216089375 -0.0555965531384 0)
(-0.00367237899289 -0.0545776600964 0)
(-0.00405540298987 -0.0534445137545 0)
(-0.00442949852787 -0.0521990325876 0)
(-0.0047925256701 -0.0508436961792 0)
(-0.00514201542846 -0.049381663084 0)
(-0.00547510181905 -0.0478168777281 0)
(-0.00578861488659 -0.0461541799677 0)
(-0.0060790068895 -0.0443994069875 0)
(-0.00634245347599 -0.0425595026447 0)
(-0.00657478791968 -0.0406426322187 0)
(-0.00677163881275 -0.0386583069336 0)
(-0.0069284412446 -0.036617513559 0)
(-0.00704069847809 -0.0345328178142 0)
(-0.00710417163482 -0.0324184128884 0)
(-0.00711533608665 -0.0302900410297 0)
(-0.00707172893586 -0.0281647463594 0)
(-0.0069724418504 -0.0260604210213 0)
(-0.00681834194691 -0.0239951828426 0)
(-0.00661227029778 -0.0219866565273 0)
(-0.00635894380786 -0.0200512409501 0)
(-0.00606482111104 -0.0182034079646 0)
(-0.00573772026812 -0.016455080539 0)
(-0.0053863135895 -0.0148151705016 0)
(-0.00501946756536 -0.0132893954222 0)
(-0.00464564181236 -0.011880379081 0)
(-0.00427241383721 -0.0105880047374 0)
(-0.00390623589503 -0.00940988159965 0)
(-0.00355232489742 -0.00834183000094 0)
(-0.00321467194028 -0.00737834086107 0)
(-0.002896079155 -0.0065129977616 0)
(-0.00259826685071 -0.0057388783023 0)
(-0.00232203419132 -0.00504889850732 0)
(-0.00206748632574 -0.00443607122118 0)
(-0.00183424492391 -0.00389365969901 0)
(-0.00162164118667 -0.00341523716207 0)
(-0.00142880392554 -0.00299470452518 0)
(-0.00125472983334 -0.00262630346296 0)
(-0.00109830907701 -0.00230463217883 0)
(-0.000958371009638 -0.00202466208147 0)
(-0.00083370473133 -0.00178174619877 0)
(-0.000723106225753 -0.00157161980944 0)
(-0.000625404577797 -0.0013903888611 0)
(-0.000539536804062 -0.00123449723505 0)
(-0.000464628280837 -0.00110069968346 0)
(-0.000400556971277 -0.000986361231301 0)
(-0.000345514751207 -0.000875837247302 0)
(-0.000306531145233 -0.000793392399795 0)
(-0.000273318075509 -0.000717120360566 0)
(-0.000243222536421 -0.000643074583344 0)
(-0.000213930878498 -0.000560778450627 0)
(-0.000202158654434 -0.000507540248654 0)
(-0.000194236918787 -0.000433994302669 0)
(-0.000210146893304 -0.000374368273562 0)
(-0.000252097585952 -0.000336354495336 0)
(-0.000264404197849 -0.000244202281584 0)
(-0.000300368164159 -0.000171787249392 0)
(-0.00033745364719 -0.000105810818184 0)
(-0.00033439256571 -3.46876509581e-05 0)
(0.0151491162911 -0.00169350611354 0)
(0.0159716639292 -0.00541679136931 0)
(0.0158276799066 -0.00909647270619 0)
(0.0155746622814 -0.0127551477151 0)
(0.0152434255847 -0.0163367973367 0)
(0.0148410468747 -0.0198256676028 0)
(0.0143750204229 -0.0232052759855 0)
(0.0138535391357 -0.026461545267 0)
(0.013285132976 -0.0295827346464 0)
(0.0126783083923 -0.0325594392409 0)
(0.0120412696144 -0.0353844864538 0)
(0.0113816776144 -0.0380527670132 0)
(0.0107064993751 -0.0405610169796 0)
(0.0100218908218 -0.0429075725698 0)
(0.00933316137046 -0.0450921151432 0)
(0.00864475570523 -0.047115421494 0)
(0.00796029826382 -0.0489791296733 0)
(0.00728263501917 -0.0506855271183 0)
(0.00661391808082 -0.0522373647874 0)
(0.00595567196715 -0.0536376975676 0)
(0.00530888747508 -0.0548897508335 0)
(0.0046740890584 -0.0559968098025 0)
(0.0040514204546 -0.0569621304001 0)
(0.0034407027012 -0.0577888668854 0)
(0.00284150553737 -0.0584800155565 0)
(0.00225319509058 -0.0590383697603 0)
(0.00167499251876 -0.0594664869355 0)
(0.0011060158683 -0.0597666634749 0)
(0.000545331120029 -0.0599409197857 0)
(-8.00515205362e-06 -0.0599909918132 0)
(-0.000554897190347 -0.0599183376625 0)
(-0.00109615994745 -0.0597241386612 0)
(-0.00163246930156 -0.0594093341583 0)
(-0.00216430440096 -0.0589746515229 0)
(-0.00269189621688 -0.0584206585225 0)
(-0.00321516540063 -0.0577478280687 0)
(-0.00373367725352 -0.0569566206996 0)
(-0.00424658407477 -0.0560475803985 0)
(-0.00475259814819 -0.0550214453286 0)
(-0.00524995018652 -0.0538792667643 0)
(-0.00573639046462 -0.0526225352482 0)
(-0.00620916960989 -0.0512533055067 0)
(-0.00666506695002 -0.0497743185997 0)
(-0.00710038517875 -0.0481891146179 0)
(-0.00751098774039 -0.0465021404335 0)
(-0.0078922858819 -0.0447188510848 0)
(-0.00823926493175 -0.0428458236657 0)
(-0.00854646583383 -0.0408908870834 0)
(-0.00880803554068 -0.0388632923528 0)
(-0.00901779446137 -0.0367739138297 0)
(-0.00916946097874 -0.0346354621392 0)
(-0.00925699295786 -0.0324626603785 0)
(-0.00927515437913 -0.0302722641186 0)
(-0.00922016018404 -0.0280828500068 0)
(-0.00909036647559 -0.0259142805282 0)
(-0.00888670457438 -0.0237869009501 0)
(-0.00861289468272 -0.0217206237837 0)
(-0.00827534563214 -0.0197340019175 0)
(-0.00788295969045 -0.0178433612341 0)
(-0.00744667251359 -0.0160619520625 0)
(-0.0069786540526 -0.0143993005016 0)
(-0.0064912977307 -0.0128609690809 0)
(-0.00599624985566 -0.011448769872 0)
(-0.0055037386488 -0.0101613603163 0)
(-0.0050222878076 -0.00899493179236 0)
(-0.00455867249033 -0.00794384907499 0)
(-0.00411797998439 -0.00700118526046 0)
(-0.00370367029885 -0.00615919195123 0)
(-0.00331770493086 -0.0054097730144 0)
(-0.00296078564949 -0.00474490898247 0)
(-0.00263270193916 -0.00415694343854 0)
(-0.00233268383223 -0.00363871725141 0)
(-0.00205967538122 -0.00318354614731 0)
(-0.00181244009529 -0.00278515585592 0)
(-0.00158960285678 -0.00243766208408 0)
(-0.0013896715617 -0.00213557187052 0)
(-0.00121107724144 -0.00187380181659 0)
(-0.00105220832103 -0.00164768866893 0)
(-0.000911455033944 -0.00145299447585 0)
(-0.000787250942668 -0.00128591371024 0)
(-0.000678139739298 -0.00114307604858 0)
(-0.00058284677335 -0.00102188492586 0)
(-0.00050112088022 -0.000917899278445 0)
(-0.000433056086027 -0.000820769083271 0)
(-0.000390174896198 -0.000754553133201 0)
(-0.00035453359808 -0.000683361433121 0)
(-0.000326687320972 -0.000614289519038 0)
(-0.000293845819807 -0.000534584986271 0)
(-0.000261246423661 -0.000442024545088 0)
(-0.000259659461417 -0.000384727153795 0)
(-0.000263330862566 -0.00031089377237 0)
(-0.000306912018404 -0.000270195370663 0)
(-0.000356491696639 -0.000215692850316 0)
(-0.000367734151971 -0.000137018411926 0)
(-0.000389348858864 -8.034126995e-05 0)
(-0.000386808620752 -2.67425464261e-05 0)
(0.0187233743764 -0.0017394637223 0)
(0.0197400013998 -0.00556175790973 0)
(0.019557781692 -0.00933575010085 0)
(0.0192379106023 -0.0130846607659 0)
(0.0188192981716 -0.0167498465758 0)
(0.0183114765754 -0.0203142774659 0)
(0.0177243794679 -0.0237604758655 0)
(0.0170687378291 -0.0270738058085 0)
(0.0163556214051 -0.0302423784876 0)
(0.0155959901648 -0.033257001267 0)
(0.0148003259064 -0.0361110071122 0)
(0.0139783399506 -0.0388000123658 0)
(0.0131387776226 -0.041321626565 0)
(0.0122892957063 -0.043675140755 0)
(0.011436421342 -0.0458612158136 0)
(0.0105855594104 -0.0478815874035 0)
(0.00974105300878 -0.0497387985455 0)
(0.008906263653 -0.051435965672 0)
(0.00808367786464 -0.0529765803171 0)
(0.00727501146532 -0.0543643449822 0)
(0.0064813223024 -0.0556030405799 0)
(0.0057031088251 -0.0566964207967 0)
(0.00494040845876 -0.0576481295817 0)
(0.00419287862736 -0.0584616367139 0)
(0.00345987559356 -0.0591401884592 0)
(0.00274051827901 -0.0596867692449 0)
(0.00203375157672 -0.0601040729759 0)
(0.0013383998114 -0.0603944813095 0)
(0.000653222722121 -0.0605600491316 0)
(-2.30321539698e-05 -0.0606024961578 0)
(-0.00069157303811 -0.0605232107996 0)
(-0.0013535032289 -0.0603232479233 0)
(-0.00200975790922 -0.060003361122 0)
(-0.00266103507093 -0.0595640297461 0)
(-0.00330772417895 -0.0590055096635 0)
(-0.00394983228806 -0.0583278999778 0)
(-0.0045869152522 -0.0575312292272 0)
(-0.00521801188073 -0.0566155599898 0)
(-0.00584159442458 -0.0555811103796 0)
(-0.0064555287222 -0.05442838827 0)
(-0.00705706077504 -0.0531583320558 0)
(-0.00764281361573 -0.051772450378 0)
(-0.00820881154395 -0.0502729538657 0)
(-0.00875050032245 -0.0486628710686 0)
(-0.0092627790999 -0.0469461504085 0)
(-0.0097400006613 -0.0451277509675 0)
(-0.0101759641857 -0.0432137463211 0)
(-0.0105638717679 -0.0412114633953 0)
(-0.0108963005775 -0.0391296929113 0)
(-0.0111652363503 -0.0369789930986 0)
(-0.0113622528887 -0.0347720671657 0)
(-0.0114789639401 -0.0325241539218 0)
(-0.0115077841513 -0.0302532527117 0)
(-0.0114429619048 -0.0279799997876 0)
(-0.0112816839524 -0.0257270036898 0)
(-0.0110247427979 -0.0235177463585 0)
(-0.0106768188506 -0.0213753300285 0)
(-0.0102462226768 -0.01932133565 0)
(-0.00974478061234 -0.0173747619173 0)
(-0.00918731531677 -0.0155507995067 0)
(-0.00859047372712 -0.0138598180335 0)
(-0.0079710990317 -0.0123070114339 0)
(-0.00734467385032 -0.0108928382857 0)
(-0.00672437694914 -0.00961405922764 0)
(-0.00612086300103 -0.0084648303886 0)
(-0.00554242373176 -0.00743753566822 0)
(-0.00499517870623 -0.00652335081406 0)
(-0.00448312427148 -0.00571273359962 0)
(-0.00400822928781 -0.00499600337803 0)
(-0.00357077367323 -0.00436390416177 0)
(-0.00316988564858 -0.00380797706392 0)
(-0.00280414140502 -0.0033206399099 0)
(-0.00247196513045 -0.00289499939616 0)
(-0.00217170913468 -0.00252463726146 0)
(-0.00190159596387 -0.00220353956079 0)
(-0.00165971706854 -0.00192611063982 0)
(-0.00144406946628 -0.00168720242962 0)
(-0.00125259852944 -0.00148212715339 0)
(-0.00108324362034 -0.00130666521516 0)
(-0.000933977853558 -0.00115707581912 0)
(-0.000802857945612 -0.00103008841439 0)
(-0.000688072564061 -0.000923463040462 0)
(-0.000588879374625 -0.000829491607221 0)
(-0.000511024388053 -0.000746140768737 0)
(-0.000460536923707 -0.00067821797891 0)
(-0.000423842477782 -0.000613294442383 0)
(-0.000383707347841 -0.000534502560744 0)
(-0.000363536404703 -0.000477487201304 0)
(-0.000349226488712 -0.000414481503287 0)
(-0.000346439757796 -0.000352351021374 0)
(-0.000323731989183 -0.000262001470705 0)
(-0.000345301413874 -0.000203356244782 0)
(-0.000408948114484 -0.000170373742011 0)
(-0.000432282936106 -0.000116696171683 0)
(-0.000438423109025 -6.55532097912e-05 0)
(-0.000437157831715 -2.18091993094e-05 0)
(0.0224039328377 -0.00179612292064 0)
(0.0236173615777 -0.00574147424254 0)
(0.0233921394588 -0.00963344262106 6.69530050209e-28)
(0.0229985833717 -0.013494681363 0)
(0.0224840842805 -0.0172632637208 0)
(0.0218610077341 -0.0209205881228 0)
(0.0211422018689 -0.0244480156876 0)
(0.02034141595 -0.0278303043061 0)
(0.0194727003814 -0.0310554833317 0)
(0.0185498375345 -0.0341147358082 0)
(0.0175858752433 -0.037002137791 0)
(0.0165927748676 -0.039714316481 0)
(0.015581181171 -0.0422500624762 0)
(0.0145602988203 -0.044609930176 0)
(0.013537864647 -0.0467958528422 0)
(0.0125201892884 -0.0488107913088 0)
(0.0115122532982 -0.0506584269919 0)
(0.0105178323463 -0.0523429039022 0)
(0.00953964129857 -0.0538686186928 0)
(0.00857947864736 -0.0552400549235 0)
(0.00763836827894 -0.0564616553427 0)
(0.00671668739556 -0.0575377255893 0)
(0.00581428333502 -0.0584723626148 0)
(0.00493057345573 -0.0592694018412 0)
(0.00406463398488 -0.0599323780699 0)
(0.0032152751656 -0.0604644960173 0)
(0.00238110969785 -0.0608686077199 0)
(0.00156061357538 -0.0611471947236 0)
(0.000752186119157 -0.0613023541922 0)
(-4.57905464932e-05 -0.061335789741 0)
(-0.000834888671554 -0.0612488108098 0)
(-0.00161656366485 -0.0610423255071 0)
(-0.00239207902403 -0.0607168678543 0)
(-0.00316242221323 -0.0602726195069 0)
(-0.00392821440863 -0.0597094572955 0)
(-0.0046896174464 -0.059027020521 0)
(-0.00544624192931 -0.0582248014765 0)
(-0.00619706291777 -0.0573022605431 0)
(-0.0069403503411 -0.0562589629139 0)
(-0.00767362058365 -0.0550947336145 0)
(-0.00839361611812 -0.053809820382 0)
(-0.00909631360212 -0.0524050562404 0)
(-0.00977695976292 -0.0508820049798 0)
(-0.0104301192596 -0.049243081539 0)
(-0.0110497220107 -0.0474916398138 0)
(-0.0116290753208 -0.0456320348761 0)
(-0.0121608262609 -0.0436696931375 0)
(-0.0126368548787 -0.0416112215115 0)
(-0.0130481238914 -0.0394646546725 0)
(-0.0133845755081 -0.0372398636353 0)
(-0.0136351930042 -0.0349491870548 0)
(-0.0137884858994 -0.0326081888782 0)
(-0.0138335225403 -0.0302362593037 0)
(-0.0137615624879 -0.0278567470548 0)
(-0.0135679379506 -0.0254960587312 0)
(-0.0132530580292 -0.0231820332476 0)
(-0.0128227322853 -0.0209421011816 0)
(-0.0122873512272 -0.0188019613229 0)
(-0.0116622255521 -0.0167844516483 0)
(-0.0109672083904 -0.0149076431103 0)
(-0.0102249848226 -0.0131830823501 0)
(-0.00945830054755 -0.0116151675818 0)
(-0.00868739906966 -0.0102020464468 0)
(-0.00792867215114 -0.00893754842768 0)
(-0.0071947660434 -0.00781297785041 0)
(-0.00649534699289 -0.00681816435302 0)
(-0.00583749411741 -0.0059418856205 0)
(-0.00522563159493 -0.00517224252893 0)
(-0.0046614253146 -0.00449742251431 0)
(-0.00414421784134 -0.00390656548627 0)
(-0.0036719091392 -0.00339031132559 0)
(-0.00324202711729 -0.00294079688726 0)
(-0.00285235587146 -0.00255111402464 0)
(-0.00250086307638 -0.00221478682738 0)
(-0.00218537967123 -0.00192567014404 0)
(-0.0019035472758 -0.00167804548623 0)
(-0.00165289143811 -0.001466683378 0)
(-0.00143087214587 -0.00128686291072 0)
(-0.00123493345881 -0.00113437386042 0)
(-0.00106254531511 -0.00100552757908 0)
(-0.00091123175236 -0.000897154283493 0)
(-0.000778647102198 -0.000807380139488 0)
(-0.000663572917987 -0.000724265739125 0)
(-0.00059090367714 -0.000665076013221 0)
(-0.000531879750443 -0.00059764306341 0)
(-0.000490480233894 -0.000536960854534 0)
(-0.000453135983353 -0.000474598339476 0)
(-0.000420283865556 -0.000407676706891 0)
(-0.000412895413097 -0.000354283797281 0)
(-0.000399871342519 -0.000285696796744 0)
(-0.00041030032375 -0.000234478977044 0)
(-0.000398429802144 -0.000163257007291 0)
(-0.000428969134692 -0.000123362752936 0)
(-0.000476234214865 -9.42638765848e-05 0)
(-0.000478270680138 -5.31496972635e-05 0)
(-0.00047774747525 -1.77048330798e-05 0)
(0.0262147647506 -0.00186507631512 0)
(0.0276291810884 -0.00596042743774 0)
(0.0273548190749 -0.00999626090039 -6.69427447388e-28)
(0.0268786091962 -0.0139939717669 0)
(0.0262571050514 -0.0178874600795 0)
(0.0255060828792 -0.0216561609967 0)
(0.0246419398056 -0.025280067541 0)
(0.0236820676678 -0.0287433070247 0)
(0.0226440600714 -0.0320339565103 0)
(0.0215449857864 -0.0351438259089 0)
(0.0204008093191 -0.0380680692005 0)
(0.0192259746781 -0.0408047057977 0)
(0.018033151729 -0.0433541019297 0)
(0.0168331254562 -0.0457184565696 0)
(0.0156348037238 -0.0479013246224 0)
(0.0144453114167 -0.0499071980249 0)
(0.0132701434728 -0.0517411547636 0)
(0.0121133490066 -0.0534085769565 0)
(0.0109777275666 -0.054914933315 0)
(0.00986502056398 -0.0562656173194 0)
(0.00877608965357 -0.0574658311729 0)
(0.00771107498445 -0.0585205051102 0)
(0.00666953293763 -0.0594342429251 0)
(0.0056505523861 -0.0602112855075 0)
(0.00465285313428 -0.0608554862393 0)
(0.00367486841563 -0.0613702930752 0)
(0.00271481665199 -0.0617587341701 0)
(0.00177076544358 -0.0620234045589 0)
(0.000840693369292 -0.062166452939 0)
(-7.74469172211e-05 -0.0621895704353 0)
(-0.000985661197225 -0.0620939831022 0)
(-0.00188583352082 -0.0618804373663 0)
(-0.002779639479 -0.061549218653 0)
(-0.00366844534963 -0.0611001639912 0)
(-0.00455319660766 -0.0605327036206 0)
(-0.005434300184 -0.0598459260717 0)
(-0.00631150479551 -0.0590386731074 0)
(-0.00718378969169 -0.0581096666336 0)
(-0.0080492700163 -0.0570576660887 0)
(-0.008905132387 -0.05588165189 0)
(-0.00974760868946 -0.0545810227053 0)
(-0.0105719955867 -0.0531557914289 0)
(-0.0113727175616 -0.0516067566886 0)
(-0.0121434162689 -0.0499356302216 0)
(-0.0128770444793 -0.0481451030927 0)
(-0.0135659007666 -0.0462388515361 0)
(-0.0142015861556 -0.0442215218778 0)
(-0.0147747824548 -0.0420987567073 0)
(-0.0152749324756 -0.0398774089364 0)
(-0.0156898165561 -0.0375660573929 0)
(-0.0160053337611 -0.0351759726301 0)
(-0.0162058510429 -0.0327224785436 0)
(-0.0162755267642 -0.0302263244955 0)
(-0.0162009150279 -0.0277144105365 0)
(-0.0159744553156 -0.0252184947413 0)
(-0.0155959106209 -0.0227725363911 0)
(-0.0150727436364 -0.0204096191713 0)
(-0.0144173536615 -0.0181608250782 0)
(-0.0136489434389 -0.0160546154453 0)
(-0.0127941495959 -0.0141135553792 0)
(-0.0118842343927 -0.0123509070923 0)
(-0.0109502668444 -0.0107694229306 0)
(-0.0100185740569 -0.00936320751288 0)
(-0.0091086941392 -0.0081214242387 0)
(-0.00823468112245 -0.0070315037202 0)
(-0.00740715839737 -0.00608026269141 0)
(-0.00663422394356 -0.00525363476349 0)
(-0.00592075623866 -0.00453666443202 0)
(-0.00526773996066 -0.00391458942693 0)
(-0.00467273240429 -0.00337438786584 0)
(-0.00413142443885 -0.00290578625135 0)