/*--------------------------------*- C++ -*----------------------------------*\
| =========                 |                                                 |
| \\      /  F ield         | OpenFOAM: The Open Source CFD Toolbox           |
|  \\    /   O peration     | Version:  v1906                                 |
|   \\  /    A nd           | Web:      www.OpenFOAM.com                      |
|    \\/     M anipulation  |                                                 |
\*---------------------------------------------------------------------------*/
FoamFile
{
    version     2.0;
    format      ascii;
    class       surfaceScalarField;
    location    "485";
    object      phia;
}
// * * * * * * * * * * * * * * * * * * * * * * * * * * * * * * * * * * * * * //

dimensions      [0 3 -1 0 0 0 0];
oriented        oriented;


internalField   nonuniform List<scalar> 
18240
(
0.00134465842066
-0.00134476123134
0.00281676360538
-0.00147222259709
0.00428786019419
-0.00147120382083
0.0057402910767
-0.00145254987613
0.00716610293294
-0.00142591623247
0.00855854706544
-0.00139256370862
0.00991162637789
-0.00135318013573
0.0112198710089
-0.00130836419755
0.0124784549022
-0.00125868077141
0.0136830730932
-0.00120473714335
0.0148300982098
-0.00114711768347
0.0159164242555
-0.00108644379195
0.01693962689
-0.00102329063041
0.017897766678
-0.000958255754166
0.0187895520141
-0.000891868495843
0.0196141084493
-0.000824670072901
0.0203711483342
-0.000757118044785
0.0210607149623
-0.000689677398008
0.0216833630531
-0.000622721066156
0.0222398861425
-0.000556630468425
0.022731510889
-0.000491692453974
0.023159614797
-0.000428207376649
0.0235259351283
-0.000366382668045
0.0238322822944
-0.000306446226111
0.0240807621087
-0.000248536790211
0.0242734885443
-0.000192820606685
0.0244128161365
-0.000139379213797
0.0245010549001
-8.83276116132e-05
0.0245407090463
-3.97005462405e-05
0.0245341970798
6.42882690833e-06
0.0244840945316
5.00612222674e-05
0.0243928542174
9.11631890417e-05
0.0242630401534
0.000129777535088
0.0240970729084
0.000165896362455
0.0238974634187
0.000199577456076
0.0236665616249
0.000230837274638
0.0234067780316
0.000259755636755
0.0231203505188
0.000286369375061
0.0228095532158
0.000310772985579
0.0224764825696
0.000333018792765
0.0221232500991
0.000353211271349
0.0217517899104
0.0003714144197
0.0213640326701
0.000387738636437
0.0209617365102
0.000402256173498
0.0205466402157
0.000415079724308
0.0201203189856
0.000426286641317
0.019684315323
0.000435988584619
0.0192400206231
0.000444265050811
0.0187887828405
0.000451223661263
0.0183318142816
0.000456943339766
0.0178702755876
0.000461525033037
0.0174052095447
0.000465044707351
0.0169376013921
0.000467594498514
0.0164683378773
0.000469245497962
0.0159982443052
0.000470079520762
0.0155280675687
0.000470161470441
0.0150584907244
0.000469562058458
0.0145901382877
0.000468339362372
0.0141235695019
0.000466552977376
0.0136593038683
0.000464254212594
0.0131977945844
0.000461492241646
0.0127394720463
0.000458312256678
0.0122846993021
0.000454754297065
0.0118338311291
0.000450858550088
0.0113871535942
0.000446657586257
0.0109449562446
0.000442187934196
0.010507458182
0.000437476542988
0.010074890882
0.000432557676984
0.00964741333551
0.000427454453899
0.00922520302232
0.000422200100156
0.00880836288575
0.000416815487662
0.0083970179943
0.000411333748107
0.00799121713215
0.000405774740072
0.00759103271153
0.000400172051861
0.00719645984837
0.000394545377198
0.00680751710037
0.000388928920417
0.00642414579395
0.000383342641015
0.00604630921546
0.000377821126469
0.00567389492353
0.000372384671453
0.00530681007296
0.000367067689001
0.00494488926052
0.000361890535557
0.00458798378982
0.000356886588866
0.00423587751532
0.000352075668696
0.00388836806001
0.000347488893093
0.00354519308809
0.000343144360839
0.00320610213198
0.000339068724166
0.00287079658716
0.000335275128617
0.00253899359828
0.000331779048839
0.00221038896161
0.000328574613713
0.00188473133585
0.000325632346233
0.00156186046044
0.00032284202835
0.00124192761192
0.000319907203368
0.000925893963977
0.000316007560885
0.000617578076041
0.000308291503715
0.000331391087665
0.000286157862892
0.0003313746183
0.00148653725228
-0.00283141017585
0.00314592810091
-0.00313173365515
0.00479628424228
-0.00312167842806
0.00642294624351
-0.00307933284532
0.00801853765793
-0.00302162435515
0.00957613470714
-0.00295028082954
0.0110891906918
-0.00286635052122
0.0125516608314
-0.00277095286554
0.013958139412
-0.00266527097888
0.0153038482281
-0.00255056239034
0.0165847188743
-0.00242809674219
0.0177973312799
-0.00229917001585
0.0189389743044
-0.00216503842461
0.0200075502776
-0.00202694245134
0.0210016227522
-0.00188604173082
0.0219202963487
-0.00174345085383
0.0227632589768
-0.00160017707022
0.023530645892
-0.00145716753479
0.0242230830666
-0.00131524997292
0.0248415434612
-0.00117518972378
0.0253873967093
-0.00103763247524
0.0258622638039
-0.000903168591907
0.026268075978
-0.000772276414008
0.0266069317272
-0.000645391008146
0.0268811653199
-0.000522846533411
0.0270932079481
-0.000404946865765
0.0272456643574
-0.000291906199243
0.0273411786246
-0.000183919848284
0.0273825163806
-8.110319934e-05
0.0273724348556
1.64382426197e-05
0.0273137655362
0.000108671342437
0.0272092967102
0.000195565883161
0.0270618668371
0.000277153855268
0.0268742378115
0.000353465266727
0.0266491791371
0.000424588074026
0.0263893604036
0.000490601828283
0.0260974363121
0.000551636934268
0.0257759452865
0.000607811996783
0.0254273902166
0.000659290201833
0.0250541461913
0.000706219927415
0.024658536086
0.000748788067474
0.02424274831
0.000787164470064
0.0238089060944
0.000821551629256
0.0233589959189
0.000852133364585
0.0228949296011
0.000879120398956
0.0224184838968
0.00090270361998
0.0219313547108
0.000923095174395
0.0214351081693
0.000940486601039
0.0209312265046
0.000955085226478
0.0204210706463
0.000967077392079
0.0199059174776
0.000976660059493
0.0193869337169
0.000984009291879
0.018865204391
0.000989307111323
0.0183417174977
0.000992715296741
0.0178173836344
0.000994397612049
0.0172930306795
0.000994498886716
0.0167694146442
0.000993162806371
0.0162472234151
0.000990516113329
0.0157270790177
0.000986682171615
0.0152095493405
0.00098177001654
0.0146951421669
0.000975883937018
0.0141843237539
0.000969116986244
0.0136775051701
0.000961556827366
0.0131750666117
0.000953283244568
0.0126773367799
0.000944370529125
0.0121846218754
0.000934888464958
0.0116971789344
0.000924901552396
0.0112152485144
0.000914472926393
0.0107390230595
0.000903660763204
0.0102686823656
0.000892524578421
0.00980435817152
0.000881119199234
0.009346171541
0.000869502914447
0.00889419493508
0.000857729444341
0.00844849068683
0.000845857432224
0.00800907184303
0.000833940875118
0.0075759409155
0.000822039482378
0.00714905074492
0.000810208055657
0.00672834272161
0.000798507260825
0.00631370888277
0.000786992448863
0.00590502879509
0.000775724415216
0.00550213400365
0.000764758134922
0.00510484279253
0.000754153088607
0.00471292803767
0.000743962329854
0.00432614911174
0.000734241922196
0.00394422411078
0.000725040592933
0.00356685826518
0.000716407601849
0.00319372136006
0.000708382701274
0.00282447157687
0.000701000832122
0.00245873627956
0.00069428016293
0.00209612111174
0.00068821884538
0.00173615981055
0.000682774198375
0.00137819249967
0.000677846459331
0.00102092249713
0.000673249749648
0.000660515894841
0.000668671438083
0.000285348939762
0.000661298837208
0.000616710702326
0.00151275651716
-0.00434427933375
0.00319334865341
-0.00481244691399
0.00486736064176
-0.00479581018989
0.00651756994249
-0.00472966259592
0.00813585586348
-0.00464002895189
0.00971497882693
-0.00452952272315
0.0112482102688
-0.00439969875716
0.0127293909963
-0.00425225054295
0.0141530170849
-0.00408901144168
0.0155142609534
-0.00391192072629
0.0168090136775
-0.00372296091487
0.018033863681
-0.00352413152177
0.0191861098166
-0.00331739264168
0.020263710074
-0.0031046507957
0.0212652754615
-0.00288771141015
0.0221899986137
-0.00266827826666
0.023037637351
-0.00244791594339
0.0238084322933
-0.00222806252267
0.0245030879858
-0.00201000128196
0.0251226874098
-0.00179488461875
0.0256686769247
-0.00158371277374
0.0261427834632
-0.00137736568465
0.0265470069732
-0.00117658556448
0.0268835434174
-0.000982012783806
0.0271547857054
-0.000794169068883
0.0273632531117
-0.000613494107879
0.0275115995504
-0.000440327266217
0.0276025486235
-0.000274943048722
0.0276389073545
-0.000117530797245
0.027623505923
3.17714092398e-05
0.0275592155182
0.000172898733045
0.0274488917818
0.000305827283492
0.0272953966196
0.000430591844204
0.0271015458387
0.000547259625561
0.0268701313241
0.000655951167157
0.0266038737418
0.000756808779358
0.0263054462061
0.000850018597488
0.0259774317599
0.000935781388816
0.0256223474996
0.00101433385957
0.0252426066605
0.00108592097831
0.024840542582
0.00115081643754
0.024418375477
0.0012092966651
0.0239782356947
0.00126166016144
0.0235221352737
0.00130820329373
0.0230519901214
0.0013492382595
0.022569596426
0.00138507073388
0.0220766514477
0.00141601628789
0.0215747348281
0.00144238000525
0.0210653277754
0.00146447128564
0.0205497991937
0.00148258556732
0.0200294230327
0.00149701754229
0.0195053690304
0.00150804513917
0.0189787179894
0.00151594124622
0.0184504567591
0.0015209600836
0.017921491159
0.00152334756021
0.0173926446928
0.00152333010949
0.0168646688333
0.00152112378999
0.0163382448604
0.00151692556917
0.0158139912515
0.00151092124197
0.0152924680068
0.00150327904151
0.0147741809657
0.00149415639172
0.0142595880132
0.0014836956326
0.0137491002753
0.00147202958737
0.0132430896814
0.0014592791103
0.0127418871323
0.00144555741991
0.0122457910073
0.00143096914663
0.011755062569
0.00141561339921
0.0112699351138
0.00139958397458
0.0107906070014
0.00138297114874
0.0103172512527
0.00136586274642
0.00985000671359
0.00134834470698
0.00938898796777
0.00133050274193
0.00893427518651
0.00131242177526
0.00848592426748
0.0012941879779
0.0080439559622
0.00127588724215
0.00760836614612
0.00125760741494
0.00717911477975
0.00123943599823
0.0067561362076
0.00122146244982
0.00633932848513
0.0012037753285
0.00592856356494
0.00118646454062
0.00552367744214
0.00116961814213
0.00512448006029
0.00115332442125
0.00473074666195
0.00113766854011
0.00434222718032
0.00112273429916
0.00395863900809
0.00110860070512
0.00357967543279
0.0010953431561
0.00320499947232
0.00108302982322
0.00283424960189
0.00107172180426
0.00246703110322
0.00106146920852
0.00210290982034
0.00105231082694
0.00174138039683
0.00104427429421
0.00138180665148
0.00103739173332
0.00102329138222
0.00103173746862
0.000664563810956
0.00102737146844
0.000305906978018
0.00101992874141
0.000922604848968
0.0015359893031
-0.00588038180058
0.00323950216777
-0.00651607935827
0.00493655893267
-0.00649298762696
0.00660914227788
-0.00640236594269
0.00824866119313
-0.00627966715681
0.00984755688096
-0.00612853699964
0.0113988753666
-0.00595113461172
0.0128963047238
-0.00574979642891
0.014334235794
-0.0055270574812
0.0157077904826
-0.00528558935475
0.0170128451158
-0.00502812763923
0.0182460199109
-0.00475741718489
0.019404670337
-0.00447615182052
0.020486847629
-0.00418693544255
0.0214912684083
-0.00389223719468
0.0224172567181
-0.00359437001579
0.0232647018589
-0.00329546195211
0.0240339917082
-0.00299745151951
0.0247259677029
-0.00270207365477
0.0253418577993
-0.00241086921948
0.0258832356329
-0.00212518215295
0.0263519590585
-0.00184617864028
0.0267501376268
-0.00157485054004
0.0270800794197
-0.00131203883191
0.027344267661
-0.00105843829542
0.0275453155301
-0.000814620693002
0.0276859503138
-0.000581037385859
0.0277689743434
-0.000358040046117
0.027797254467
-0.000145880431121
0.0277736874722
5.52713301688e-05
0.027701193585
0.000245329029071
0.0275826844053
0.00042427534506
0.0274210605469
0.000592158047772
0.027219183443
0.000749081540133
0.0269798749819
0.000895207817705
0.0267058932916
0.0010307410748
0.0263999341716
0.00115593156336
0.0260646104079
0.00127106132105
0.0257024551672
0.00137644831538
0.0253159043936
0.00147243315818
0.0249073016577
0.00155938338571
0.0244788834396
0.0016376811206
0.0240327850919
0.0017077272713
0.0235710289226
0.00176993005621
0.0230955310615
0.00182470892779
0.0226080923099
0.00187248390992
0.0221104057676
0.00191367913909
0.0216040504222
0.00194871305
0.0210904994109
0.00197800154161
0.020571116258
0.00200194912582
0.0200471635923
0.0020209518227
0.0195198018307
0.00203538944835
0.0189900980944
0.00204562841175
0.0184590269994
0.00205201532348
0.0179274794166
0.00205487986254
0.01739626491
0.00205452984605
0.0168661199284
0.00205125429058
0.0163377113631
0.00204531997803
0.0158116437427
0.00203697473922
0.0152884633787
0.00202644543815
0.014768664198
0.00201394140923
0.0142526920107
0.00199965366517
0.013740948723
0.00198375832769
0.0132337963754
0.00196641678797
0.0127315596333
0.00194777892831
0.0122345293893
0.00192798392249
0.0117429635806
0.00190716303487
0.0112570902877
0.00188544076161
0.0107771070729
0.00186293703503
0.0103031836276
0.00183976844885
0.00983545992608
0.00181604975399
0.0093740485493
0.00179189498341
0.00891903200943
0.00176741820605
0.00847046491544
0.00174273443715
0.00802837083829
0.00171795968372
0.007592744478
0.00169321159389
0.00716354841763
0.00166860888622
0.00674071542468
0.00164427173544
0.00632414539861
0.00162032070906
0.00591370788744
0.00159687691488
0.00550923946757
0.00157406058138
0.00511054649438
0.00155199099594
0.00471740306394
0.00153078485393
0.00432955390742
0.00151055600345
0.00394671289341
0.00149141366369
0.00356856570313
0.00147346198623
0.00319476831954
0.00145679829527
0.00282494819022
0.00144151273063
0.0024587004128
0.00142768736402
0.00209558334297
0.00141539822645
0.00173510754358
0.00140472085761
0.0013767246099
0.0013957459316
0.00101983754155
0.00138859604069
0.000664032174505
0.00138314934232
0.00031120353956
0.00137273036103
0.00123379502175
0.00156581112827
-0.00744630584753
0.00330103781983
-0.00825142735
0.00502922053287
-0.00822129061285
0.00673171414249
-0.00810497987108
0.00839948657374
-0.00794755889134
0.0100246113788
-0.00775378040042
0.0115998474377
-0.00752648815253
0.0131186754488
-0.00726874087456
0.0145753493542
-0.00698384647485
0.0159649236358
-0.00667527741708
0.0172832652254
-0.00634658141149
0.0185270413878
-0.00600130399988
0.0196936973905
-0.00564291664657
0.0207814150062
-0.00527476014987
0.0217890672172
-0.00489999445185
0.0227161588159
-0.0045215647493
0.0235627692991
-0.00414217332785
0.024329486294
-0.00376426732331
0.0250173466455
-0.00339003038392
0.0256277718845
-0.00302138859269
0.0261625154667
-0.00266001726501
0.0266236067568
-0.00230735905982
0.0270133088826
-0.00196463902783
0.0273340736873
-0.00163288745689
0.0275885104718
-0.00131295599284
0.0277793504915
-0.00100553895485
0.0279094238431
-0.000711185955395
0.0279816303515
-0.000430319002855
0.0279989215009
-0.000163240925088
0.0279642753172
8.98510103956e-05
0.0278806817581
0.00032885922824
0.0277511194519
0.000553777157946
0.0275785461674
0.000764673975374
0.0273658783181
0.000961694878313
0.0271159827968
0.00114505190141
0.0268316612373
0.00131501396463
0.0265156439456
0.00147190314176
0.0261705771461
0.00161608505064
0.025799019282
0.00174796590117
0.0254034307991
0.0018679838311
0.0249861723777
0.0019766065792
0.0245494969458
0.0020743235803
0.0240955495685
0.00216164401336
0.0236263615535
0.00223908944467
0.0231438518806
0.00230719203832
0.0226498233576
0.00236648761157
0.0221459655371
0.00241751391252
0.0216338529102
0.00246080408947
0.0211149492587
0.00249688508229
0.0205906078152
0.00252627163499
0.0200620769119
0.00254946497163
0.019530501922
0.00256694758265
0.0189969319447
0.00257918242695
0.0184623231924
0.00258660874836
0.017927546308
0.00258964204159
0.0173933907339
0.00258867110473
0.0168605721659
0.00258405891601
0.0163297373601
0.0025761410085
0.0158014711982
0.00256522727211
0.0152763013986
0.0025516015793
0.0147547047195
0.00253552437609
0.014237111125
0.00251723334522
0.0137239087778
0.0024969465304
0.0132154473524
0.00247486371882
0.0127120416352
0.00245116977034
0.0122139738445
0.00242603636065
0.0117214958338
0.00239962518241
0.0112348304446
0.00237208970483
0.0107541724572
0.00234357795881
0.010279689133
0.00231423403857
0.00981152017566
0.0022842002724
0.00934977770107
0.00225361828262
0.00889454552381
0.00222263044247
0.00844587882654
0.0021913804138
0.00800380310294
0.0021600138885
0.0075683137823
0.00212867860377
0.00713937512519
0.00209752443718
0.00671692001982
0.0020667029632
0.00630084907848
0.00203636701825
0.00589103075697
0.00200666989189
0.00548730082258
0.00197776449724
0.00508946287412
0.00194980230579
0.00469728825962
0.00192293226406
0.00431051695942
0.00189729958495
0.0039288578656
0.00187304456425
0.00355198980159
0.0018503014008
0.00317956180512
0.00182919720216
0.00281119367371
0.00180985132434
0.00244647565757
0.00179237558173
0.00208496812823
0.00177687587342
0.0017262023622
0.00176345679618
0.00136968952095
0.00175222973755
0.00101495669406
0.00174330085574
0.00066174125616
0.00173633640804
0.000311843405691
0.00172260035827
0.00154562524781
0.00160351673805
-0.00904993603002
0.00337973960303
-0.0100277696563
0.00514797128563
-0.00998964331942
0.00688880072617
-0.00984592933823
0.00859267495924
-0.00965155268136
0.010251226708
-0.0094124507068
0.0118568619563
-0.00913224096049
0.0134028036388
-0.00881479894737
0.0148831397166
-0.00846429764029
0.0162928467342
-0.00808509811969
0.0176277918691
-0.00768163868054
0.0188847131019
-0.00725833573388
0.020061184219
-0.00681949649401
0.0211555643891
-0.0063692472092
0.0221669394163
-0.00591147440316
0.0230950538138
-0.0054497820363
0.0239402408131
-0.00498746106952
0.0247033488768
-0.0045274739153
0.0253856717404
-0.00407244945841
0.0259888798114
-0.00362469048736
0.0265149594133
-0.00318618820701
0.0269661564453
-0.00275864488195
0.0273449297955
-0.00234349852908
0.0276539094569
-0.00194195056721
0.0278958634621
-0.00155499066334
0.028073667432
-0.00118342075671
0.0281902804517
-0.000827873903203
0.0282487210155
-0.000488831556188
0.0282520473127
-0.000166636216787
0.028203336246
0.000138496090447
0.0281056664998
0.000426466029369
0.027962098779
0.000697284969469
0.0277756635136
0.0009510523761
0.0275493437846
0.00118796074988
0.0272860643135
0.00140828049929
0.0269886791001
0.00161235122961
0.0266599629212
0.00180057424134
0.0263026018191
0.00197340386298
0.0259191870501
0.00213134108056
0.0255122078926
0.00227492600646
0.0250840475545
0.00240473241971
0.0246369779511
0.00252136107032
0.024173157316
0.00262543476547
0.0236946268252
0.00271759218172
0.0232033098525
0.0027984832052
0.0227010104539
0.00286876305678
0.0221894142945
0.00292908776706
0.0216700890386
0.00298010860395
0.0211444869662
0.00302246775551
0.0206139472475
0.00305679322727
0.0200797001603
0.0030836949725
0.0195428710825
0.00310376056205
0.019004486059
0.00311755210144
0.0184654771584
0.00312560301761
0.0179266889561
0.00312841609104
0.0173888847371
0.00312646163692
0.0168527533308
0.00312017686605
0.0163189155503
0.00310996557098
0.0157879307725
0.00309619884184
0.0152603030099
0.00307921616859
0.0147364866924
0.00305932733614
0.0142168918728
0.00303681466427
0.0137018888096
0.00301193574236
0.0131918119796
0.00298492639958
0.0126869632564
0.00295600385063
0.0121876146078
0.00292536993649
0.0116940098632
0.00289321424074
0.0112063661661
0.00285971717307
0.0107248745009
0.00282505268163
0.0102497001193
0.00278939084285
0.00978098211576
0.00275289990655
0.00931883313681
0.00271574818518
0.00886333835225
0.00267810530224
0.00841455478397
0.0026401433037
0.00797251001861
0.00260203709949
0.0075372014676
0.00256396483024
0.007108595125
0.00252610758476
0.00668662501586
0.00248864912648
0.00627119223635
0.00245177502551
0.0058621647716
0.00241567189114
0.00545937697712
0.00238052608306
0.00506262986166
0.00234652261282
0.0046716910749
0.00231384361085
0.00428629565262
0.00228266707343
0.0039061464586
0.00225316528946
0.00353091528807
0.00222550366499
0.0031602436404
0.00219983943835
0.00279374411989
0.00217632104631
0.00243100172199
0.00215508778663
0.00207157648115
0.00213627080715
0.00171500863141
0.00211999485537
0.00136082973463
0.00210637926758
0.00100859166976
0.00209550964681
0.000658008839156
0.00208689105084
0.000310681324951
0.00206990012659
0.00185629279867
0.00164993195665
-0.0106999809833
0.00347688150124
-0.0118548409143
0.00529461545343
-0.011807497631
0.00708272617399
-0.0116341605332
0.00883101139057
-0.0113999572935
0.0105305637106
-0.0111121216418
0.0121733627876
-0.0107751575328
0.0137523240599
-0.0103938765483
0.0152613450294
-0.00997343360163
0.0166953219903
-0.00951918863147
0.0180501408319
-0.00903656949917
0.0193226449352
-0.00853095014565
0.0205105856166
-0.00800754569293
0.0216125579992
-0.00747132624255
0.022627927308
-0.0069269483731
0.0235567477122
-0.00637870505841
0.0243996784526
-0.00583049225427
0.0251578989033
-0.00528579260053
0.0258330272706
-0.00474767370894
0.0264270439701
-0.00421880069984
0.0269422238046
-0.00370145903258
0.0273810765025
-0.00319758604165
0.0277462981496
-0.00270880595177
0.0280407308846
-0.00223646639717
0.028267331569
-0.00178167160762
0.0284291452518
-0.00134531187943
0.0285292835867
-0.000928086715561
0.0285709042401
-0.000530523753627
0.0285571924161
-0.000152992880706
0.0284913416663
0.000204281365877
0.0283765368108
0.000541208518527
0.0282159371368
0.00085782532541
0.0280126594507
0.00115427385563
0.0277697657779
0.00143080123889
0.0274902504105
0.00168774573458
0.0271770288772
0.00192552556629
0.0268329293457
0.00214462951099
0.0264606843439
0.00234560739425
0.0260629245815
0.00252906213749
0.0256421728044
0.00269564167092
0.0252008394746
0.00284603218543
0.0247412183445
0.0029809509866
0.0242654837661
0.0031011404245
0.0237756879027
0.00320736119822
0.0232737596977
0.00330038657664
0.0227615038147
0.00338099587864
0.0222406013962
0.00344996884018
0.0217126108653
0.00350807925048
0.0211789705814
0.00355608956775
0.0206410015559
0.00359474493102
0.020099911975
0.00362476834521
0.0195568017015
0.00364685547565
0.0190126684161
0.00366167085401
0.0184684135384
0.00366984392699
0.0179248494991
0.0036719667212
0.0173827065012
0.00366859153013
0.0168426402617
0.00366023031582
0.0163052389147
0.00364735419967
0.0157710305041
0.00363039463022
0.0152404893406
0.00360974457725
0.0147140426002
0.00358576122596
0.0141920755746
0.00355876853006
0.0136749369089
0.0035290609855
0.0131629423958
0.00349690703099
0.0126563786184
0.0034625533403
0.0121555051824
0.00342622849859
0.0116605567728
0.00338814724789
0.011171743942
0.00334851390958
0.010689253792
0.00330752610596
0.0102132496078
0.00326537752304
0.00974387051164
0.0032222607839
0.00928123032352
0.00317836931045
0.00882541659147
0.0031338991964
0.00837648907702
0.00308905009451
0.00793447855399
0.00304402609088
0.00749938527758
0.00299903567818
0.00707117788184
0.00295429174526
0.00664979211688
0.00291001078356
0.00623513009574
0.00286641217166
0.00582705949669
0.00282371680641
0.00542541331957
0.00278214588916
0.00502998966089
0.0027419191923
0.00464055204926
0.00270325356464
0.00425682981719
0.00266636105422
0.00387851899887
0.0026314473669
0.00350528329293
0.00259871010488
0.00313675554104
0.00256833746895
0.0027725394005
0.00254050695522
0.00241221195757
0.00251538474172
0.00205532706745
0.00249312510327
0.00170142092638
0.00247387038253
0.00135002165988
0.00245774874227
0.00100066765284
0.00244483497971
0.000653018907035
0.00243451055402
0.000308533877153
0.00241435645157
0.00216481315273
0.00170586503765
-0.0124059596339
0.00359400107803
-0.0137430961835
0.00547138007705
-0.0136849978153
0.00731634561519
-0.0134792460659
0.00911788625148
-0.0132016174917
0.0108664389952
-0.01286079284
0.0125534756187
-0.0124623115718
0.0141715558899
-0.0120120729723
0.0157143687632
-0.0115163612734
0.0171767385939
-0.0109816717663
0.0185546007687
-0.0104145433813
0.0198449527595
-0.00982141212557
0.0210457863414
-0.00920848746297
0.0221560056504
-0.0085816518222
0.0231753353997
-0.00794638241491
0.0241042228408
-0.00730769469294
0.0249437371344
-0.0066701065991
0.0256954696367
-0.00603762288362
0.0263614387737
-0.00541373832552
0.0269440029371
-0.00480145790394
0.0274457843352
-0.00420333100955
0.0278696057254
-0.00362149540635
0.0282184405355
-0.00305772611431
0.0284953753465
-0.00251348379597
0.028703582333
-0.00198995840512
0.0288462984703
-0.00148810491751
0.0289268083179
-0.00100867054989
0.0289484278385
-0.000552214230382
0.0289144878783
-0.000119120854961
0.0288283169109
0.000290387513235
0.0286932212355
0.000676242459058
0.0285124740174
0.00103851396255
0.0282892942583
0.00137739813063
0.0280268346325
0.00169320850728
0.0277281695859
0.00198636146178
0.0273962852488
0.00225736362195
0.0270340710491
0.0025068003453
0.0266443126458
0.00273532532155
0.0262296859265
0.00294365111452
0.0257927518839
0.00313254065883
0.0253359522065
0.00330279930749
0.0248616056356
0.0034552674431
0.0243719049485
0.00359081322079
0.0238689148072
0.0037103256093
0.0233545702735
0.00381470729918
0.0228306763704
0.00390486782903
0.0222989083818
0.00398171647477
0.0217608133816
0.00404615544292
0.0212178125407
0.00409907287561
0.020671204776
0.00414133639771
0.0201221711179
0.00417378666328
0.0195717803965
0.00419723179136
0.0190209954377
0.00421244206475
0.0184706803891
0.00422014587919
0.0179216082022
0.00422102619296
0.0173744689155
0.00421571849406
0.0168298776548
0.00420480938624
0.0162883830348
0.00418883678971
0.0157504748345
0.00416829071454
0.0152165916937
0.00414361555806
0.0146871277127
0.00411521277209
0.0141624387823
0.00408344480468
0.013642847577
0.00404863909956
0.0131286481195
0.00401109302426
0.0126201089234
0.00397107850073
0.0121174756907
0.00392884719301
0.0116209726488
0.00388463506624
0.0111308035499
0.00383866717245
0.0106471514848
0.00379116155487
0.0101701785523
0.00374233313584
0.00970002458078
0.00369239658006
0.00923680593414
0.00364156900704
0.00878061362516
0.00359007164545
0.00833151173183
0.00353813130654
0.00788953535049
0.00348598085381
0.00745468903492
0.0034338595376
0.00702694495529
0.00338201243749
0.00660624167505
0.00333068985893
0.0061924827802
0.00328014597527
0.00578553620532
0.0032306375329
0.0053852334991
0.00318242194637
0.00499136981363
0.00313575557004
0.00460370388101
0.00309089150437
0.00422195870318
0.00304807769216
0.00384582224999
0.00300755469532
0.00347494887298
0.00296955387187
0.00310896078876
0.00293429539108
0.00274745041723
0.0029019867446
0.00238998298804
0.00287282114799
0.00203610038632
0.00284697653708
0.00168532621496
0.00282461395485
0.00133717179394
0.00280587293524
0.000991148632913
0.0027908278718
0.000646869218211
0.0027787609433
0.000305698793451
0.00275549832467
0.00247049771467
0.00177226317316
-0.014178335643
0.00373299955808
-0.0157039545011
0.00568105374608
-0.0156331721505
0.00759322680433
-0.0153915394959
0.00945751848138
-0.0150660283166
0.0112635775124
-0.0146669701944
0.0130022821501
-0.0142011333184
0.0146657918732
-0.0136756985537
0.0162475793902
-0.0130982632258
0.0177424198625
-0.0124766251468
0.0191463456604
-0.0118185804379
0.0204565748045
-0.0111317507855
0.0216714203673
-0.0104234406902
0.0227901862456
-0.00970052344429
0.0238130538456
-0.00896935372776
0.0247409631872
-0.00823570567186
0.0255754923638
-0.00750473521486
0.0263187389698
-0.00678096670599
0.0269732083108
-0.00606830251875
0.0275417123701
-0.00537005444346
0.02802728415
-0.00468899273785
0.028433109396
-0.00402740807199
0.02876247714
-0.00338717857656
0.0290187464823
-0.00276983516737
0.029205326613
-0.00217661770015
0.0293256640288
-0.00160851865229
0.0293832328967
-0.00106631272569
0.0293815239099
-0.000550575570235
0.0293240308389
-6.16949859472e-05
0.0292142338402
0.000400120391223
0.0290555792664
0.000834836108218
0.0288514686121
0.00124256682588
0.0286052365856
0.0016235755749
0.0283201385552
0.00197825506898
0.0279993394064
0.00230711229138
0.0276459041661
0.00261075356603
0.0272627908055
0.0028898714335
0.0268528439916
0.00314523272786
0.0264187901192
0.00337766841655
0.0259632326474
0.00358806420557
0.0254886483503
0.00377735227762
0.024997383727
0.00394650311496
0.0244916523797
0.00409651793522
0.0239735326534
0.00422842077145
0.0234449664626
0.00434325093701
0.022907758542
0.0044420549367
0.022363577139
0.00452587875402
0.0218139552846
0.00459575957626
0.0212602937244
0.00465271807958
0.0207038644981
0.00469775033744
0.0201458162677
0.00473182065573
0.0195871801967
0.00475585437599
0.0190288774577
0.00477073206726
0.018471726987
0.00477728407015
0.017916454537
0.00477628683792
0.0173637015087
0.00476845990828
0.0168140346123
0.00475446489611
0.0162679547789
0.00473490519371
0.015725906401
0.00471032767287
0.0151882853442
0.00468122495097
0.0146554468611
0.00464803941232
0.0141277119338
0.00461116747403
0.0136053732335
0.00457096520106
0.0130886993512
0.00452775374901
0.0125779385354
0.0044818256801
0.012073320731
0.00443345068222
0.01157505918
0.00438288170528
0.0110833505155
0.00433036014644
0.0105983745937
0.00427612108973
0.0101202931173
0.00422039736495
0.00964924823844
0.00416342343382
0.009185360288
0.004105438009
0.00872872573321
0.00404668641374
0.00827941457503
0.0039874217147
0.00783746818587
0.0039279056216
0.00740289684261
0.00386840828531
0.00697567785528
0.00380920795868
0.00655575357697
0.00375058972217
0.00614303010849
0.00369284419875
0.0057373760037
0.00363626550963
0.00533862172152
0.00358114935324
0.00494655914117
0.00352779049691
0.00456094183661
0.00347648052182
0.00418148544033
0.00342750514336
0.00380786874635
0.00338114190399
0.00343973495493
0.00333765759396
0.00307669364875
0.0032973061282
0.00271832299543
0.00326032626077
0.00236417291489
0.00322693981497
0.00201376839067
0.00319734951766
0.00166661364595
0.00317173705499
0.00132219741527
0.00315025838475
0.000980001817086
0.00313299390932
0.000639597017161
0.00311913543682
0.000302280772467
0.00309278486219
0.00277276454234
0.0018502762639
-0.0160287253251
0.00389623400029
-0.0177500308134
0.00592709366671
-0.0176641527503
0.00791778423224
-0.017382349575
0.00985510391345
-0.0170034670848
0.0117277681385