/*--------------------------------*- C++ -*----------------------------------*\
| =========                 |                                                 |
| \\      /  F ield         | OpenFOAM: The Open Source CFD Toolbox           |
|  \\    /   O peration     | Version:  v1906                                 |
|   \\  /    A nd           | Web:      www.OpenFOAM.com                      |
|    \\/     M anipulation  |                                                 |
\*---------------------------------------------------------------------------*/
FoamFile
{
    version     2.0;
    format      ascii;
    class       surfaceScalarField;
    location    "80";
    object      phi;
}
// * * * * * * * * * * * * * * * * * * * * * * * * * * * * * * * * * * * * * //

dimensions      [0 3 -1 0 0 0 0];
oriented        oriented;


internalField   nonuniform List<scalar> 
18240
(
0.0119447030048
-0.0119447090704
0.0244855207788
-0.0125408260465
0.0369772291975
-0.0124917142476
0.0493300158692
-0.0123527953933
0.0614912537119
-0.012161243016
0.0734142051754
-0.0119229604765
0.085056053918
-0.0116418531965
0.096377579012
-0.0113215343014
0.107343272355
-0.0109656970669
0.117921451739
-0.0105781887057
0.128084411141
-0.0101629623937
0.137808431838
-0.00972403006512
0.147073807134
-0.00926537758021
0.15586471542
-0.00879091764044
0.164169128303
-0.00830441447824
0.171978574751
-0.00780945574291
0.17928796882
-0.00730939501521
0.186095304803
-0.00680734517355
0.192401443102
-0.00630613862547
0.198209773725
-0.00580833967604
0.203525993129
-0.00531621915647
0.208357765653
-0.00483178140844
0.212714515407
-0.0043567489625
0.216607106082
-0.00389259936638
0.220047663067
-0.00344055569652
0.223049283649
-0.00300162905672
0.225625896949
-0.00257661154262
0.227792009996
-0.00216612128706
0.229562607981
-0.00177059580282
0.230952938454
-0.00139033846058
0.231978454956
-0.00102551391891
0.23265465177
-0.000676204542155
0.232997092121
-0.000342437410155
0.233021509749
-2.44250902175e-05
0.232743021711
0.000278491319419
0.232175876046
0.000567138488654
0.231334299956
0.000841579678894
0.230232279718
0.00110201337179
0.228883498163
0.0013487854402
0.227301206462
0.00158228516542
0.225498264853
0.00180294575747
0.223487054369
0.00201120429994
0.221279537338
0.00220752142452
0.218887182663
0.00239234885573
0.216321034633
0.00256615263492
0.213591646071
0.00272938312093
0.210709151565
0.00288249930166
0.207683206226
0.00302594028553
0.204523061125
0.00316015005199
0.201237506303
0.00328555016583
0.197834946782
0.00340256460664
0.194323348928
0.00351159359752
0.190710315859
0.00361303825705
0.187003036542
0.00370727546496
0.183208359696
0.00379468211321
0.179332745267
0.00387561098112
0.175382336167
0.00395041441452
0.171362911935
0.00401942118745
0.167279957822
0.00408295945521
0.163138620562
0.00414133461382
0.158943774488
0.00419485141189
0.154699979422
0.00424379281466
0.150411543569
0.00428844116872
0.146082483605
0.00432905810142
0.14171658421
0.00436590466131
0.137317360456
0.0043992222748
0.132888113867
0.00442925178887
0.128431897241
0.00445621552422
0.123951567186
0.0044803351671
0.119449751509
0.00450181494802
0.114928898189
0.00452085832997
0.110391245474
0.00453765235388
0.105838867277
0.00455238308515
0.101273646119
0.00456522115642
0.0966973149366
0.00457633593393
0.0921114329877
0.00458588229513
0.087517424093
0.00459401348836
0.0829165556009
0.00460086916989
0.0783099730841
0.00460658693233
0.0736986824447
0.00461129162479
0.0690835811199
0.00461510553486
0.064465443389
0.00461813899594
0.0598449481673
0.00462049920213
0.0552226676063
0.00462228208364
0.0505990916524
0.00462357969056
0.0459746202251
0.00462447320892
0.0413495851357
0.00462503859286
0.0367242472006
0.00462533998714
0.0320988187774
0.00462543169607
0.0274734740621
0.00462534699613
0.0228483946914
0.0046250823482
0.0182238541426
0.00462454296418
0.0136004935282
0.00462336324354
0.00897998388229
0.00462051216934
0.0043751970086
0.00460478933675
0.0043751981914
0.0126155274571
-0.0245602434074
0.026005887825
-0.0259311941741
0.0393020105639
-0.025787844119
0.0524374905422
-0.0254882831858
0.0653640872104
-0.0250878465153
0.0780348127988
-0.0245936937752
0.0904049919436
-0.0240120388023
0.102433204064
-0.023349753958
0.114081796375
-0.0226142954265
0.125317161017
-0.0218135606591
0.136109913354
-0.0209557203453
0.146434942134
-0.0200490658929
0.156271408048
-0.0191018486596
0.165602635186
-0.018122151535
0.174415976632
-0.01711776064
0.18270259157
-0.0160960771283
0.190457222378
-0.0150640300905
0.197677902117
-0.0140280310372
0.204365685774
-0.0129939261117
0.210524328105
-0.0119669878043
0.216160004516
-0.0109518989678
0.221280990353
-0.00995277271028
0.225897397147
-0.0089731587441
0.230020874466
-0.00801608181813
0.233664377556
-0.00708406137382
0.236841903788
-0.00617916008984
0.239568299565
-0.00530300952335
0.241859036181
-0.00445686237586
0.243730057508
-0.00364161896189
0.245197593861
-0.0028578789603
0.246278043781
-0.00210596531796
0.246987806656
-0.00138597124354
0.247343138416
-0.000697770312637
0.247359695901
-4.09860905267e-05
0.247053389807
0.000584796597036
0.246440488811
0.00118003628659
0.245536592732
0.00174547526325
0.244356731201
0.00228187202619
0.242915478963
0.00279003749597
0.241226935574
0.00327082600195
0.239304744148
0.00372513730928
0.23716205491
0.00415389131117
0.234811545472
0.00455803128427
0.232265390641
0.00493850178363
0.229535289169
0.00529625481433
0.22663244015
0.0056322305588
0.223567574708
0.00594736572078
0.220350937296
0.00624257643352
0.216992320466
0.00651876811739
0.213501049591
0.00677682008653
0.209886019257
0.00701759641806
0.206155680305
0.00724193189817
0.202318076758
0.00745064350843
0.198380834421
0.00764451744406
0.194351197542
0.00782432090613
0.190236018457
0.0079907899921
0.18604179343
0.00814464154827
0.181774653024
0.00828656179029
0.177440396737
0.00841721802451
0.173044483909
0.00853724789801
0.16859206692
0.00864727084087
0.164087982557
0.00874787788117
0.159536783611
0.00883964269471
0.154942730703
0.00892311194537
0.150309822212
0.00899881585608
0.14564178659
0.00906725905587
0.140942110584
0.00912893060694
0.136214032124
0.00918429535358
0.131460566843
0.00923380335602
0.126684501612
0.00927788174836
0.12188841939
0.00931694354159
0.1170746935
0.00935138000441
0.112245510836
0.00938156880715
0.107402866987
0.00940786694477
0.102548587833
0.00943061819966
0.0976843256045
0.00945014662789
0.0928115789161
0.00946676332468
0.0879316898412
0.00948076049446
0.0830458624289
0.00949241750612
0.0781551608615
0.00950199556285
0.0732605265088
0.00950974303548
0.068362777231
0.0095158907368
0.063462623031
0.00952065650954
0.0585606665688
0.00952424107903
0.0536574174941
0.00952683181928
0.0487532942565
0.00952859905121
0.0438486371707
0.00952969869182
0.0389437114019
0.00953026844542
0.0340387178386
0.00953042823056
0.0291337933031
0.00953027427093
0.0242290043443
0.00952987414418
0.0193242928906
0.00952925708723
0.0144192629082
0.00952839592905
0.00951282702024
0.00952695069428
0.00460768706766
0.00950993181374
0.00898288648092
0.0127557255062
-0.0373159759651
0.0262518927463
-0.0394273690177
0.0396673766098
-0.0392033353924
0.0529214380247
-0.0387423521283
0.0659619858812
-0.038128401572
0.0787404131457
-0.0373721283615
0.091211105187
-0.0364827377577
0.103331966599
-0.0354706224323
0.115064844373
-0.0343471797857
0.126375802614
-0.0331245256598
0.137235287601
-0.0318152115557
0.147618179574
-0.030431964294
0.157503766151
-0.0289874410805
0.16687562729
-0.02749401875
0.175721468436
-0.025963607236
0.184032889483
-0.0244075038887
0.19180512806
-0.0228362737228
0.199036761627
-0.0212596699501
0.205729407042
-0.0196865761861
0.211887397946
-0.0181249836859
0.217517477632
-0.0165819829256
0.222628483371
-0.0150637830605
0.227231058497
-0.0135757377575
0.231337364287
-0.0121223918583
0.234960826729
-0.0107075273319
0.238115886982
-0.00933422423812
0.240817789787
-0.00800491547823
0.243082376182
-0.00672145231791
0.244925914277
-0.00548515985412
0.246364932533
-0.00429690042099
0.247416088926
-0.00315712416105
0.248096039614
-0.00206592480306
0.2484213444
-0.00102307721945
0.248408434567
-2.80788063499e-05
0.248073429985
0.000919799387727
0.247432121417
0.00182134263315
0.246499987964
0.00267760724831
0.245292097803
0.00348976028994
0.243823080388
0.00425905376514
0.242107097419
0.00498680739521
0.240157836964
0.0056743969325
0.237988494253
0.00632323276594
0.235611774555
0.0069347504612
0.233039882103
0.00751039329157
0.230284529983
0.00805160671288
0.227356935275
0.00855982462995
0.224267833914
0.0090364671521
0.221027480182
0.00948292982563
0.217645664804
0.00990058384407
0.214131717283
0.0102907675565
0.210494525863
0.0106547884557
0.206742541608
0.0109939163798
0.202883799235
0.0113093867519
0.198925922148
0.0116023950227
0.194876143429
0.0118741007383
0.190741311279
0.0121256228863
0.186527909696
0.0123580444686
0.182242063978
0.0125724084913
0.177889560756
0.0127697227944
0.17347585336
0.0129509565015
0.169006081018
0.0131170449236
0.164485073983
0.013268886333
0.159917371795
0.013407346804
0.155307228129
0.0135332572232
0.150658628097
0.0136474179725
0.145975292832
0.0137505961135
0.14126069583
0.0138435298437
0.136518067322
0.0139269258244
0.131750409685
0.0140014633647
0.126960501679
0.0140677918742
0.122150912974
0.014126534745
0.117324008318
0.0141782869272
0.112481961243
0.0142236184924
0.107626758253
0.0142630723364
0.102760211751
0.0142971674125
0.0978839643237
0.0143263965745
0.092999500963
0.0143512294776
0.0881081535043
0.0143721105725
0.0832111121908
0.0143894616718
0.078309430338
0.0144036801095
0.0734040352873
0.0144151409706
0.0684957333456
0.0144241954185
0.0635852201687
0.0144311725762
0.0586730860059
0.0144363780055
0.053759825514
0.0144400951941
0.0488458432373
0.0144425841169
0.0439314626156
0.0144440822028
0.0390169310667
0.0144448028247
0.0341024265686
0.0144449356191
0.0291880584625
0.0144446452067
0.024273862657
0.0144440727691
0.0193597802011
0.0144433422492
0.0144456139699
0.0144425648214
0.00953124938502
0.0144413179505
0.00462406908585
0.0144171146617
0.0136069567662
0.0129135569333
-0.0502295399798
0.0265634608653
-0.0530772804542
0.0401325362455
-0.0527724182425
0.05353577836
-0.0521456016678
0.0667184593226
-0.0513110897994
0.0796301059487
-0.0502837821876
0.0922237252702
-0.0490763640767
0.104456198297
-0.0477031023814
0.116288649463
-0.0461796376386
0.127686701875
-0.044522584679
0.138620620687
-0.0427491367136
0.149065346523
-0.0408766963914
0.159000438109
-0.0389225386479
0.168409930513
-0.0369035170526
0.177282131211
-0.0348358135412
0.185609360383
-0.0327347385879
0.193387657675
-0.030614576239
0.200616459532
-0.028488476959
0.207298267419
-0.0263683889173
0.213438307467
-0.0242650285113
0.21904419906
-0.0221878789843
0.224125629168
-0.0201452175737
0.228694047168
-0.0181441598515
0.232762373668
-0.0161907223985
0.236344735839
-0.0142898932299
0.239456220237
-0.0124457123172
0.242112654063
-0.0106613526747
0.244330404068
-0.00893920565242
0.246126203091
-0.00728096189547
0.247516992368
-0.00568769268201
0.248519789309
-0.00415992377874
0.249151569255
-0.00269770739544
0.249429171238
-0.00130068154694
0.249369257865
3.18322469134e-05
0.2489881403
0.00130091493968
0.248301757731
0.00250772321519
0.247325686479
0.00365367681608
0.24607508151
0.00474036359856
0.244564641446
0.00576949246804
0.242808583562
0.00674286394082
0.240820632359
0.00766234709355
0.238614008206
0.00852985589864
0.236201426052
0.00934733188449
0.233595092373
0.01011672626
0.230806710738
0.0108399879233
0.227847484503
0.0115190504561
0.224728127077
0.0121558244472
0.221458868478
0.0127521883099
0.218049468579
0.0133099838971
0.214509226099
0.0138310102038
0.210846993568
0.0143170214132
0.207071187678
0.0147697227084
0.203189805048
0.0151907700693
0.199210433177
0.0155817675907
0.195140266384
0.0159442684659
0.19098611684
0.0162797733703
0.186754430261
0.016589732216
0.182451296686
0.0168755432372
0.17808246565
0.0171385552145
0.173653356537
0.0173800670013
0.16916907306
0.0176013299873
0.164634413099
0.0178035478799
0.160053882434
0.0179878792435
0.155431704023
0.0181554374058
0.150771830985
0.0183072929562
0.146077955351
0.0184444736912
0.141353520305
0.0185679669955
0.136601728459
0.0186787197715
0.131825553422
0.0187776406541
0.127027747651
0.0188655998944
0.122210853403
0.0189434313809
0.117377210251
0.019011932464
0.112528965484
0.0190718657703
0.10766808136
0.0191239589687
0.10279634502
0.0191689063736
0.0979153755494
0.0192073686605
0.0930266334767
0.0192399742627
0.0881314277058
0.0192673190474
0.0832309246475
0.0192899675124
0.078326155088
0.0193084524365
0.0734180230001
0.0193232758835
0.0685073123866
0.0193349088346
0.0635946957995
0.0193437920037
0.0586807411677
0.0193503354522
0.0537659199919
0.0193549192141
0.0488506140425
0.0193578928958
0.0439351229813
0.0193595761261
0.0390196704029
0.0193602582628
0.0341044098727
0.0193601990269
0.0291894286284
0.0193596293041
0.0242747497847
0.0193587544037
0.019360333697
0.0193577610524
0.0144460937518
0.0193568074682
0.00953219493669
0.0193552193984
0.00462668389915
0.0193226282144
0.0182336418841
0.0131209630894
-0.0633505101361
0.0269843448398
-0.0669406697035
0.0407627719804
-0.0665508528245
0.0543679086514
-0.065750745715
0.0677423994346
-0.0646855878296
0.0808335317961
-0.0633749216879
0.0935925016441
-0.0618353409105
0.105974803959
-0.0600854115536
0.117940587702
-0.058145428066
0.129454893548
-0.0560368970647
0.140487770445
-0.0537820199591
0.151014276626
-0.0514032087676
0.161014380524
-0.0489226485392
0.170472775308
-0.0463619176694
0.179378626431
-0.0437416702887
0.187725266566
-0.0410813841858
0.195509856299
-0.0383991712212
0.202733022196
-0.0357116479463
0.209398487309
-0.0330338589046
0.215512701566
-0.030379247485
0.221084483195
-0.0277596651157
0.226124674502
-0.0251854132275
0.230645819571
-0.0226653090549
0.234661863897
-0.020206770708
0.238187880779
-0.0178159138853
0.241239822102
-0.0154976572674
0.24383429656
-0.0132558305501
0.245988371417
-0.0110932837843
0.247719399895
-0.00901199344278
0.249044869482
-0.00701316519973
0.249982272966
-0.00509732998894
0.250548997638
-0.00326443465837
0.250762233307
-0.00151391961016
0.250638898062
0.000155165229144
0.250195548624
0.00174426231978
0.24944835232
0.00325491759299
0.248413046861
0.00468898054748
0.247104910409
0.00604849845323
0.245538734484
0.00733566699168
0.243728804991
0.00855279216013
0.241688892105
0.00970225889725
0.239432243841
0.0107865032062
0.236971585605
0.0118079893526
0.234319121608
0.0127691896093
0.231486540816
0.0136725682511
0.228485023577
0.0145205673485
0.225325251761
0.0153155960952
0.222017418738
0.0160600212783
0.218571242095
0.0167561606563
0.214995975594
0.0174062769307
0.211300423288
0.0180125741097
0.20749295246
0.0185771940303
0.20358150832
0.0191022148612
0.199573627243
0.0195896494176
0.195476451455
0.0200414451536
0.19129674212
0.0204594836967
0.187040893666
0.0208455818034
0.182714946421
0.0212014917014
0.178324600356
0.0215289026314
0.173875227122
0.0218294416659
0.169371883094
0.0221046755703
0.164819320737
0.0223561118652
0.160222000913
0.0225852008108
0.155584103577
0.0227933365528
0.150909539355
0.0229818590953
0.146201959603
0.023152055422
0.141464767308
0.023305161368
0.136701126564
0.0234423626502
0.13191397286
0.0235647965834
0.127106022052
0.0236735529812
0.122279780109
0.0237696756874
0.117437551653
0.0238541633307
0.11258144925
0.0239279706617
0.107713401592
0.0239920091582
0.102835162396
0.0240471481687
0.0979483183143
0.0240942153779
0.0930542975048
0.0241339977653
0.0881543773272
0.0241672419457
0.0832496926522
0.0241946549523
0.0783412433944
0.0242169044755
0.0734299026012
0.0242346194862
0.0685164238706
0.0242483903784
0.0636014492405
0.0242587694608
0.0586855164914
0.0242662710239
0.0537690668182
0.0242713717202
0.0488524519406
0.024274510608
0.0439359414066
0.0242760895134
0.0390197292824
0.0242764732517
0.0341039408008
0.024275990376
0.0291886385649
0.0242749343882
0.0242738294941
0.0242735662854
0.0193594751111
0.0242721181438
0.0144455184817
0.0242707667406
0.00953215899422
0.0242685815448
0.00462742628934
0.0242273634553
0.0228610693618
0.0133834264401
-0.0767339436171
0.0275208836121
-0.0810781342906
0.0415672694618
-0.0805972460922
0.0554300983633
-0.0796135819383
0.0690488673437
-0.0783043640213
0.0823681292998
-0.0766941907324
0.0953368221889
-0.0748040407489
0.107908701986
-0.0726572981598
0.120042705712
-0.070279438441
0.131703174579
-0.0676973724242
0.142859937585
-0.0649387892844
0.153488266625
-0.0620315439584
0.163568721015
-0.0590031088955
0.173086900741
-0.0558801031884
0.182033129883
-0.052687905034
0.190402089537
-0.0494503492672
0.198192419381
-0.0461895062987
0.205406303123
-0.0429255367457
0.212049052156
-0.0396766128022
0.218128697334
-0.0364588973518
0.223655598043
-0.0332865703219
0.228642073638
-0.0301718931446
0.233102062142
-0.0271253016933
0.237050807621
-0.0241555201495
0.240504578115
-0.0212696881557
0.243480413135
-0.0184734958957
0.245995900806
-0.0157713216458
0.248068982295
-0.0131663685323
0.249717782711
-0.0106607969361
0.250960465557
-0.00825585095982
0.25181510961
-0.00595197677798
0.252299605229
-0.0037489328513
0.25243156657
-0.00164588335364
0.252228242544
0.000358487011038
0.251706497073
0.0022660057257
0.250882747649
0.00407866511295
0.24977292788
0.0057987985862
0.248392465625
0.00742895913411
0.246756263866
0.00897186734756
0.244878688167
0.0104303666091
0.242773560621
0.0118073853605
0.240454158055
0.0131059048394
0.237933214597
0.0143289320412
0.235222926883
0.0154794766992
0.232334962267
0.0165605324025
0.229280468526
0.0175750607667
0.226070085601
0.0185259788502
0.222713958035
0.0194161488108
0.219221748743
0.0202483700635
0.215602652906
0.0210253730144
0.211865412709
0.0217498146942
0.208018331814
0.022424275439
0.204069290326
0.0230512569971
0.200025759236
0.0236331812755
0.195894815149
0.0241723901362
0.191683154309
0.0246711455452
0.187397106771
0.0251316304704
0.183042649803
0.0255559499032
0.178625421338
0.0259461324431
0.174150732628
0.0263041318203
0.169623580912
0.0266318288357
0.165048661293
0.0269310331247
0.160430378613
0.0272034852277
0.155772858577
0.0274508584094
0.151079958877
0.0276747607056
0.146355279612
0.0278767366751
0.141602173727
0.0280582693236
0.136823756808
0.0282207817112
0.132022916915
0.0283656386948
0.127202323833
0.0284941483481
0.122364438382
0.0286075634928
0.117511521215
0.0287070829142
0.112645641685
0.0287938526711
0.10776868627
0.0288689671079
0.102882367085
0.0289334699445
0.0979882299981
0.0289883551026
0.0930876628582
0.0290345675897
0.0881819033801
0.0290730041453
0.0832720471362
0.0291045139524
0.0783590552677
0.0291298991248
0.0734437622928
0.0291499152619
0.0685268836751
0.0291652718075
0.06360902348
0.0291766324741
0.0586906818165
0.0291846155073
0.0537722623383
0.0291897940228
0.0488540795349
0.0291926962423
0.0439363660462
0.0291938058479
0.0390192797938
0.0291935623626
0.0341029112279
0.029192361807
0.0291872908273
0.0291905576382
0.024272397729
0.0291884621597
0.0193581713118
0.0291863472668
0.0144445345247
0.0291844062222
0.00953164312114
0.0291814755584
0.00462741787734
0.0291315911913
0.0274884884512
0.0137054776476
-0.0904394282643
0.0281803534156
-0.0955530174751
0.0425563945265
-0.094973294562
0.0567357428596
-0.0937929375531
0.070653965793
-0.0922225941168
0.0842522546982
-0.0902924866777
0.0974767890823
-0.0880285820364
0.110279220924
-0.0854597367613
0.122617051901
-0.0826172760242
0.134453838241
-0.0795341652103
0.145759230168
-0.0762441874905
0.156508864187
-0.0727811840841
0.166684132032
-0.0691783826717
0.176271852004
-0.0654678289136
0.185263868838
-0.06167992744
0.193656606156
-0.0578430919771
0.201450593278
-0.0539834986291
0.20864998434
-0.0501249328348
0.215262084618
-0.0462887179244
0.221296895037
-0.0424937124341
0.226766683204
-0.0387563629713
0.231685586076
-0.0350908003195
0.236069247624
-0.0315089673636
0.239934492519
-0.0280207689917
0.243299035986
-0.0246342353914
0.246181228418
-0.0213556919244
0.248599833186
-0.0181899298335
0.250573835052
-0.0151403736481
0.252122276945
-0.0122092419042
0.253264122164
-0.00939769908626
0.254018139692
-0.00670599703898
0.254402809622
-0.00413360534708
0.254436243933
-0.00167932006394
0.254136073
0.000658655708713
0.253519524864
0.00288255180181
0.252603296884
0.00499489120064
0.251403542283
0.00699855146345
0.249935857062
0.00889664279438
0.248215267991
0.0106924550234
0.246256226718
0.0123894066463
0.244072609126
0.0139910018777
0.241677718628
0.0155007944192
0.239084292894
0.0169223570139
0.236304513071
0.0182592559124
0.233350015179
0.0195150298379
0.230231902935
0.0206931727001
0.226960761877
0.0217971197458
0.223546674169
0.0228302364975
0.21999923409
0.0237958102635
0.216327563701
0.0246970436607
0.212540328768
0.0255370500207
0.208645754531
0.0263188501995
0.204651641449
0.0270453707321
0.200565380577
0.0277194429237
0.196393968749
0.0283438028632
0.192144023267
0.0289210920425
0.187821796303
0.0294538585658
0.183433188745
0.0299445587011
0.178983763718
0.0303955588185
0.174478759532
0.0308091374559
0.169923102299
0.0311874876183
0.165321417997
0.0315327190701
0.160678044218
0.031846860744
0.155997041395
0.0321318630544
0.15128220376
0.0323896002498
0.146537069812
0.0326218726119
0.14176493256
0.0328304086438
0.13696884934
0.0330168670732
0.132151651435
0.0331828388151
0.127315953332
0.0333298487347
0.12246416182
0.0334593573562
0.117598484783
0.0335727623646
0.112720939866
0.0336714000633
0.107833362887
0.0337565466172
0.102937416163
0.0338294192541
0.0980345966193
0.0338911772798
0.0931262438444
0.0339429230432
0.0882135479669
0.0339857027388
0.0832975575028
0.0340205071663
0.0783791870542
0.0340482723478
0.0734592249972
0.0340698801128
0.0685383410473
0.034086158562
0.0636170938197
0.0340978825126
0.0586959382884
0.0341057738509
0.0537752332415
0.0341105018866
0.048855248649
0.0341126836577
0.0439361730525
0.0341128842819
0.0390181209391
0.0341116173287
0.0341011402934
0.0341093453048
0.0291852205286
0.0341064802364
0.0242703012554
0.0341033842325
0.0193562826512
0.0341003685646
0.0144430442208
0.0340976472715
0.00953068106337
0.0340938413582
0.00462702190812
0.0340352528656
0.0321155115352
0.0140918469148
-0.104531282144
0.028971781107
-0.110432958986
0.0437432924298
-0.109744813212
0.0583017822332
-0.10835143458
0.0725779547579
-0.106498773758
0.0865089040898
-0.104223442998
0.100037492312
-0.101557177112
0.113112886028
-0.0985351371878
0.125690944833
-0.0951953413867
0.137734396785
-0.0915776235611
0.149212815627
-0.0877226125635
0.16010242717
-0.0836708016911
0.170385777481
-0.0794617388697
0.180051296778
-0.0751333539242
0.189092791927
-0.0707214281224
0.197508897021
-0.0662592024279
0.205302507477
-0.061777114261
0.212480218074
-0.0573026484282
0.219051780799
-0.0528602854668
0.225029593798
-0.0484715300718
0.230428228998
-0.044155002631
0.235264002689
-0.0399265782934
0.239554590865
-0.0357995596456
0.243318689113
-0.031784871172
0.246575715552
-0.0278912655871
0.249345554217
-0.0241255341735
0.251648335886
-0.0204927149149
0.253504252866
-0.0169962938684
0.254933404342
-0.0136383964495
0.255955668862
-0.0104199665063
0.256590600919
-0.00734093182494
0.256857348401
-0.00440035538613
0.256774587385
-0.00159656144162
0.256360369338
0.00107287152985
0.25563233352
0.00361058556671
0.254607481201
0.00601974163758
0.253302202319
0.00830382863051
0.25173227236
0.010466571205
0.249912847742
0.0125118782561
0.247858467097
0.0144437860681
0.245583056973
0.0162664109375
0.243099940861
0.0179839096253
0.240421850886
0.019600446238
0.237560941485
0.0211201647155
0.234528804606
0.0225471662697
0.23133648593
0.0238854910767
0.227994501835
0.0251391036874
0.224512856734
0.0263118815882
0.220901060632
0.027407606495
0.217168146634
0.0284299579242
0.213322688333
0.0293825087222
0.209372816873
0.0302687221909
0.205326237689
0.0310919505747
0.201190246775
0.0318554346214
0.196971746491
0.0325623040512
0.192677260845
0.0332155787097
0.188312950256
0.0338181702888
0.183884625757
0.0343728844449
0.179397762687
0.034882423238
0.174857513836
0.0353493877601
0.170268722095
0.0357762809096
0.165635932601
0.0361655102093
0.160963404432
0.0365193906492
0.156255121834
0.0368401474763
0.151514805063
0.0371299189281
0.146745920811
0.0373907588522
0.1419516923
0.0376246392205
0.137135109019
0.0378334524942
0.132298936188
0.0380190138583
0.127445723919
0.0381830632842
0.122577816155
0.038327267467
0.117697359356
0.0384532215734
0.112806311023
0.0385624508657
0.107906448009
0.0386564121583
0.102999374698
0.0387364951431
0.0980865310377
0.0388040235685
0.093169200454
0.038860256298
0.0882485176632
0.0389063882395
0.0833254764001
0.0389435511709
0.0784009370614
0.0389728144542
0.0734756342948
0.0389951856645
0.0685501845257
0.0390116111281
0.0636250934443
0.0390229763955
0.0587007634502
0.0390301066492
0.0537775010766
0.0390337670671
0.048855524389
0.0390346631598
0.0439349704108
0.0390334410879
0.0390159025941
0.0390306879862
0.0340983184519
0.0390269322945
0.0291821574705
0.0390226440501
0.0242673094581
0.0390182349992
0.019353623714
0.0390140569965
0.014440924836
0.0390103488313
0.00952924384612
0.0390055249325
0.00462633369815
0.0389381654803
0.0367418464375
0.0145480982395
-0.119079387297
0.0299062788239
-0.125791146895
0.0451442854054
-0.124982827053
0.0601492401571
-0.123356396514
0.0748459079388
-0.1211954486
0.0891664430735
-0.11854398507
0.103049771676
-0.115440512516
0.116442180533
-0.111927552701
0.129297707854
-0.108050875214
0.141578270227
-0.10385819228
0.153253550648
-0.0993978991672
0.164300687328
-0.0947179443847
0.174703807892
-0.0898648652773
0.184453453699
-0.0848830053984
0.193545935761
-0.0798139156783
0.201982658375
-0.0746959303582
0.209769440047
-0.0695639010735
0.21691585463
-0.0644490679745
0.223434609242
-0.0593790448655
0.229340969942
-0.0543778953828
0.234652241513
-0.0494662786381
0.23938730396
-0.0446616450007
0.243566205584
-0.0399784653571
0.247209810479
-0.0354284799817
0.250339496984
-0.0310209558342
0.25297690282
-0.0267629435806
0.255143712292
-0.0226595277881
0.256861480816
-0.0187140656228
0.258151492219
-0.014928410913
0.259034644577
-0.0113031217576
0.259531361157
-0.00783765112711
0.259661522761
-0.00453051954058
0.259444428798
-0.00137946986274
0.25889858634
0.00161871177055
0.258042075298
0.00446709456475
0.256892214801
0.00716960026271
0.255465641311
0.00973040041694
0.253778313768
0.0121538972112
0.251845517051
0.0144446736002
0.249681871338
0.0166074305692
0.247301345025
0.0186469361993
0.244717270171
0.0205679835848
0.241942359832
0.0223753558379
0.238988726679
0.024073797282
0.235867902472
0.0256679900411
0.232590857998
0.0271625352618
0.229168023208
0.028561938334
0.225609307287
0.0298705975076
0.221924118507
0.0310927954136
0.218121383692
0.0322326930135
0.214209567219
0.033294325604
0.210196689442
0.034281600506
0.206090344525
0.035198296158
0.201897717606
0.0360480623289
0.197625601318
0.036834421248
0.193280411622
0.0375607694312
0.188868202985
0.038230380065
0.184394682898
0.0388464057785
0.179865225778
0.0394118817121
0.175284886238
0.039929728754
0.17065841181
0.0404027568905
0.165990255094
0.0408336685709
0.161284585418
0.0412250620617
0.156545300003
0.0415794347145
0.151776034696
0.0418991861421
0.146980174288
0.0421866212464
0.142160862466
0.0424439531065
0.137321011413
0.0426733056839
0.132463311115
0.0428767163651
0.127590238369
0.0430561383063
0.122704065569
0.0432134426097
0.117806869245
0.0433504203021
0.112900538426
0.0434687841498
0.107986782817
0.0435701702868
0.103067140843
0.0436561396906
0.0981429875432
0.0437281794887
0.0932155423757
0.04378770413
0.0882858769104
0.0438360564062
0.0833549224571
0.0438745083584
0.0784234776144
0.0439042620553
0.0734922157772
0.0439264502787
0.0685616925898
0.0439421371027
0.0636323533752
0.0439523184029
0.0587045405333
0.043957922285
0.0537785009336
0.0439598094647
0.0488543933031
0.0439587735936
0.0439322956506
0.0439555415577
0.0390122127349
0.0439507737345
0.0340940836475
0.0439450642124
0.0291777895728
0.0439389409363
0.0242631617357
0.0439328656185
0.0193499896136
0.0439272317918
0.014438035457
0.0439223055784
0.00952726403424
0.043916298978
0.00462535760551
0.0438400744084
0.0413672052053
0.0150809519454
-0.134160346121
0.0309974335136
-0.141707635678
0.0467793844148
-0.14076478518
0.0623038672094
-0.138880886428
0.0774884590569
-0.136380047458
0.0922594124081
-0.133314945303
0.106551037036
-0.12973214389
0.120306340891
-0.125682863158
0.133477407356
-0.121221948129
0.146025444199
-0.116406235416
0.157920543625
-0.111293004722
0.169141210105
-0.105938616828
0.179673716934
-0.100397377898
0.189511350183
-0.0947206442693
0.198653592461
-0.0889561634048
0.207105290129
-0.0831476333013
0.214875838189
-0.0773344542345
0.22197840779
-0.0715516425035
0.228429233033
-0.0658298748619
0.234246966792
-0.0601956337234
0.239452109778
-0.0546714260319
0.244066512876
-0.0492760523356
0.248112949916
-0.044024906463
0.25161475606
-0.0389302900213
0.254595525916
-0.0340017294158
0.257078864953
-0.0292462861744
0.259088187732
-0.0246688539551
0.26064655666
-0.0202724377708
0.2617765554
-0.0160584127042
0.262500191524
-0.0120267607655
0.26283882435
-0.00817628666846
0.262813110783
-0.00450480851472
0.262443028381
-0.00100938983672
0.261747589847
0.00231414809782
0.260745299919
0.00546938245912
0.259453799879
0.00846109844157
0.257889976552
0.0112942220529
0.25606996844
0.0139739037986
0.254009179912
0.016505460767
0.251722300116
0.0188943091677
0.249223324058
0.0211459112174
0.246525575223
0.0232657315381
0.243641729121
0.0252592012131
0.24058383731
0.0271316885187
0.237363351523
0.0288884754032
0.233991147612
0.0305347388954
0.230477549095
0.0320755367168
0.226832350143
0.0335157964693
0.223064837869
0.0348603078344
0.219183813864
0.0361137173021
0.215197614888
0.0372805249965
0.211114132707
0.0383650832333
0.206940833056
0.0393715964809
0.202684773725
0.0403041224547
0.198352621788
0.0411665740994
0.193950669989
0.0419627222613
0.189484852326
0.0426961988707
0.184960758861
0.043370500495