/*--------------------------------*- C++ -*----------------------------------*\
| =========                 |                                                 |
| \\      /  F ield         | OpenFOAM: The Open Source CFD Toolbox           |
|  \\    /   O peration     | Version:  v1906                                 |
|   \\  /    A nd           | Web:      www.OpenFOAM.com                      |
|    \\/     M anipulation  |                                                 |
\*---------------------------------------------------------------------------*/
FoamFile
{
    version     2.0;
    format      ascii;
    class       surfaceScalarField;
    location    "736";
    object      phi;
}
// * * * * * * * * * * * * * * * * * * * * * * * * * * * * * * * * * * * * * //

dimensions      [0 3 -1 0 0 0 0];
oriented        oriented;


internalField   nonuniform List<scalar> 
18240
(
-0.000352235992765
0.00035226626282
-0.000737912050695
0.000385712783662
-0.00112324327135
0.000385362059613
-0.00150360638398
0.00038040121387
-0.0018769351904
0.000373358269508
-0.00224148003912
0.000364584234091
-0.00259573324317
0.000354281235277
-0.00293832569929
0.000342633120251
-0.00326810572173
0.000329806570031
-0.00358404604302
0.000315982237153
-0.00388534272268
0.000301321644724
-0.00417129800834
0.000285998412187
-0.00444143254751
0.000270157856286
-0.00469534351813
0.000253955245329
-0.00493283247887
0.000237510517404
-0.00515374146176
0.000220954322147
-0.0053580995423
0.000204377809959
-0.00554593943627
0.000187886186311
-0.00571746480849
0.000171543157633
-0.00587284909994
0.000155431404949
-0.00601242452314
0.00013959121023
-0.00613646406907
0.000124087323985
-0.00624539193865
0.000108941554662
-0.00633954918316
9.42055172234e-05
-0.00641942473541
7.98871096379e-05
-0.00648540495841
6.60288025273e-05
-0.00653802382828
5.26282241538e-05
-0.00657769677043
3.97216363994e-05
-0.00660498855203
2.72989461279e-05
-0.00662033216056
1.5392214944e-05
-0.00662431321257
3.98598738959e-06
-0.00661737266244
-6.89223192479e-06
-0.00660010374893
-1.72661517948e-05
-0.00657294581795
-2.71101103882e-05
-0.00653649548869
-3.64497425876e-05
-0.00649118622631
-4.52621387273e-05
-0.00643760985674
-5.35778602311e-05
-0.00637618689061
-6.13767379671e-05
-0.00630749728154
-6.86931385895e-05
-0.00623194292878
-7.55092032959e-05
-0.00615008585286
-8.18625079914e-05
-0.00606230475912
-8.77372016021e-05
-0.00596913863174
-9.31733889374e-05
-0.00587093933129
-9.81568255157e-05
-0.00576821879102
-0.000102729464294
-0.00566129960705
-0.00010687827874
-0.00555066377343
-0.000110646318807
-0.00543660322983
-0.000114021339454
-0.00531956827851
-0.000117046808192
-0.00519981998851
-0.000119710908887
-0.00507777623509
-0.000122056859201
-0.00495366782972
-0.00012407294673
-0.0048278803649
-0.000125801616027
-0.00470061583986
-0.000127231077597
-0.00457222834325
-0.000128402556065
-0.00444289289033
-0.000129304082586
-0.00431293325072
-0.000129975398625
-0.00418249959228
-0.00013040442012
-0.00405188666843
-0.000130629238841
-0.00392122179604
-0.000130637799535
-0.00379077192017
-0.000130466542923
-0.00366064332259
-0.000130103714128
-0.00353107604548
-0.000129584156
-0.00340215665121
-0.000128896706083
-0.00327409880389
-0.00012807475035
-0.00314697026116
-0.00012710804923
-0.00302095841681
-0.00012602864523
-0.00289611261616
-0.000124827487552
-0.00277259376732
-0.000123535385974
-0.00265043291812
-0.000122144697906
-0.00252976406447
-0.000120685020186
-0.0024105998211
-0.000119150222397
-0.00229304682201
-0.000117568658608
-0.00217709915411
-0.000115935737141
-0.00206283576624
-0.000114278442479
-0.00195023222375
-0.000112593642327
-0.00183933975957
-0.000110906784008
-0.00173011575383
-0.0001092160592
-0.00162258407798
-0.000107545149952
-0.00151668461115
-0.000105893374259
-0.00141241469338
-0.000104282408473
-0.00130969787648
-0.000102712472491
-0.00120850631745
-0.000101202959759
-0.00110874892818
-9.97547139399e-05
-0.00101037468178
-9.8384502804e-05
-0.000913280334785
-9.70933489437e-05
-0.000817394830344
-9.58946756019e-05
-0.000722607229861
-9.47883624588e-05
-0.000628833779039
-9.37816457299e-05
-0.000535969639724
-9.2866545442e-05
-0.000443949392254
-9.20272823863e-05
-0.000352749433638
-9.12036396233e-05
-0.000262519075256
-9.02356185143e-05
-0.000173969801344
-8.85543958756e-05
-9.00467172703e-05
-8.39296383463e-05
-9.00499108402e-05
-0.000389341222933
0.000741640824993
-0.000824014288716
0.000820422698102
-0.00125621720713
0.000817600261434
-0.00168211439978
0.000806335653412
-0.00209978435223
0.000791063112317
-0.00250744048345
0.000772277884744
-0.0029034315128
0.000750306734018
-0.00328625723932
0.000725496622787
-0.00365462118589
0.000698204508135
-0.00400740078575
0.000668799824232
-0.00434368683274
0.000637641150146
-0.00466273299783
0.000605082716226
-0.00496399342741
0.000571451123964
-0.0052470578684
0.000537057899714
-0.00551169234598
0.000502177135093
-0.00575776402329
0.000467064195007
-0.00598528865371
0.000431933770776
-0.00619434822773
0.000396983826393
-0.00638514760881
0.000362372962814
-0.00655792680934
0.000328248419156
-0.00671302788984
0.000294721682555
-0.00685080262567
0.000261899484878
-0.00697168968829
0.000229856875732
-0.00707611776143
0.000198670487494
-0.00716459234506
0.000168388694543
-0.00723759403245
0.000139066714116
-0.00729567394222
0.000110733787544
-0.00733934684016
8.34299455748e-05
-0.00736919410167
5.71704063169e-05
-0.00738575135018
3.19839218111e-05
-0.00738961721703
7.87452823788e-06
-0.00738133798859
-1.51380846854e-05
-0.00736152423805
-3.70588380064e-05
-0.00733072616039
-5.78760232083e-05
-0.00728955340255
-7.76030894232e-05
-0.00723854922516
-9.62354736131e-05
-0.00717831529888
-0.000113794082641
-0.00710938164845
-0.00013028097106
-0.00703233493497
-0.00014572386695
-0.00694768550486
-0.000160130726467
-0.00685599862299
-0.000173535144693
-0.00675775944009
-0.000185950062983
-0.00665350647417
-0.000197413830586
-0.0065436953007
-0.000207943319548
-0.00642883356398
-0.000217580387679
-0.00630934416148
-0.000226344689763
-0.00618570101526
-0.000234280315586
-0.00605829251529
-0.000241408563516
-0.00592755728874
-0.000247774510834
-0.00579384861894
-0.000253400035248
-0.005657569414
-0.000258330094374
-0.00551903829937
-0.000262586249856
-0.00537862301684
-0.000266212419813
-0.00523660883345
-0.000269229170771
-0.0050933295851
-0.000271678725391
-0.00494903902135
-0.000273580250836
-0.00480403876359
-0.000274973894033
-0.00465855315153
-0.000275877296209
-0.00451285339548
-0.000276328443838
-0.00436713647235
-0.000276343597979
-0.00422164483648
-0.000275958742892
-0.00407654986933
-0.00027518911393
-0.00393206655051
-0.000274069043007
-0.00378834195374
-0.000272613230389
-0.00364556438634
-0.000270854790227
-0.00350385738532
-0.000268808408683
-0.00336338288336
-0.000266506417242
-0.00322424114178
-0.000263963950816
-0.00308656760731
-0.000261212893726
-0.00295043917046
-0.000258269153139
-0.00281596441788
-0.000255164352643
-0.00268319656997
-0.000251915315498
-0.002552216921
-0.00024855340439
-0.00242305474657
-0.000245096309764
-0.00229576374555
-0.000241574960732
-0.00217034915944
-0.000238007694234
-0.00204683709531
-0.000234424682766
-0.00192520903353
-0.000230844554797
-0.00180546391829
-0.000227296300552
-0.00168756018459
-0.000223798393305
-0.00157147055417
-0.000220378147404
-0.00145713166457
-0.000217053377843
-0.00134449150998
-0.000213849182939
-0.00123346673114
-0.00021078215205
-0.00112398268395
-0.000207874529473
-0.00101593842176
-0.000205140923774
-0.000909239350238
-0.000202599708603
-0.000803769782335
-0.00020026197709
-0.00069941775772
-0.000198139708508
-0.000596053140388
-0.000196235981552
-0.000493537524752
-0.000194548473752
-0.000391685641927
-0.000193060340771
-0.00029018938949
-0.000191737674621
-0.000188245800434
-0.000190503686338
-8.36738862886e-05
-0.000188507341158
-0.000173726966015
-0.000396298717771
0.00113797331776
-0.000836615975986
0.00126077633755
-0.00127507412055
0.00125609454701
-0.00170715706481
0.00123845519316
-0.00213073673188
0.00121467878731
-0.00254394241097
0.00118552017213
-0.00294507269626
0.00115147286646
-0.00333260626077
0.00111306678771
-0.00370522610922
0.00107086001429
-0.00406181352848
0.00102542378879
-0.00440145807785
0.000977321102084
-0.00472343621616
0.000927097281097
-0.00502721368032
0.000875263670449
-0.00531241483969
0.000822295285703
-0.005578822865
0.000768619824898
-0.00582634455881
0.000714621820522
-0.00605501239638
0.000660635762456
-0.00626494813048
0.000606955084892
-0.00645636918012
0.000553827531024
-0.00662955278846
0.000501467024097
-0.006784847812
0.000450049478781
-0.00692263995851
0.000399725968624
-0.00704336891416
0.000350617720228
-0.00714749440181
0.00030282952253
-0.00723551801424
0.000256443200008
-0.00730794945952
0.000211530782572
-0.00736533218864
0.000168146279382
-0.00740820916778
0.000126338498882
-0.00743715147352
8.6141245036e-05
-0.00745272308317
4.75859324118e-05
-0.00745551183374
1.06904619313e-05
-0.00744609296451
-2.4527836123e-05
-0.00742506193844
-5.80641117438e-05
-0.00739299668699
-8.99135477861e-05
-0.00735049179991
-0.000120083752493
-0.00729811965679
-0.000148581366157
-0.00723646599265
-0.000175425102081
-0.00716609016122
-0.000200632106365
-0.00708756182523
-0.000224231204963
-0.00700142056785
-0.000246248898689
-0.00690821359501
-0.000266722786859
-0.00680845496772
-0.000285687264807
-0.00670266412046
-0.000303187051462
-0.00659132499072
-0.000319262710052
-0.0064749251972
-0.000333964249805
-0.0063539152973
-0.000347336555822
-0.00622874837533
-0.000359433008502
-0.00609983965522
-0.000370300952597
-0.00596760629416
-0.000379995308181
-0.00583242752808
-0.000388564164117
-0.00569468438069
-0.000396062323194
-0.00555472051788
-0.000402537139728
-0.00541288163474
-0.000408041968045
-0.0052694771471
-0.000412622315034
-0.00512481894857
-0.000416329128075
-0.00497918407103
-0.000419205361282
-0.00483285256831
-0.000421299058306
-0.00468607124027
-0.000422650376923
-0.00453909035183
-0.000423304386926
-0.00439212853365
-0.000423298616732
-0.00424540812866
-0.000422675500211
-0.00409912136349
-0.000421470455672
-0.00395346409436
-0.000419723885555
-0.00380860337707
-0.000417469817853
-0.00366470948028
-0.0004147473815
-0.00352192497382
-0.000411590000746
-0.0033803948713
-0.00040803625588
-0.0032402373889
-0.00040411965074
-0.00310157216604
-0.000399878798657
-0.00296449283046
-0.000395347761293
-0.00282909323249
-0.000390565501934
-0.00269544196561
-0.000385566828363
-0.00256360661037
-0.000380391088231
-0.00243363032541
-0.000375073733664
-0.00230555407039
-0.000369654237978
-0.002179395377
-0.000364168326086
-0.00205516855621
-0.000358655113741
-0.00193286571663
-0.000353150029355
-0.00181247493022
-0.000347691174999
-0.00169396355557
-0.000342312977823
-0.00157729435989
-0.000337051779235
-0.00146241116847
-0.000331940231195
-0.00134925291467
-0.000327012109504
-0.00123774162445
-0.000322297466849
-0.00112779436521
-0.000317826651754
-0.00101931350117
-0.000313626189416
-0.000912196377487
-0.000309721950473
-0.000806327539738
-0.000306135701144
-0.000701585345316
-0.000302887330503
-0.000597834316789
-0.000299992245783
-0.000494924820983
-0.000297463598766
-0.000392677070514
-0.000295313152344
-0.000290860117597
-0.000293559469631
-0.000189177340182
-0.000292192824381
-8.77949494543e-05
-0.00028989630277
-0.000261524671373
-0.000402502547694
0.00154050975417
-0.000848937506047
0.00170724761972
-0.00129349719946
0.00170069057116
-0.00173143929475
0.0016764337257
-0.00216049888741
0.00164377464893
-0.00257871591208
0.00160377358336
-0.00298433015447
0.00155712329502
-0.00337578956721
0.00150456252562
-0.00375176286481
0.00144686937884
-0.00411113849214
0.00138483563538
-0.00445302274353
0.00131924125009
-0.00477672506329
0.00125083565033
-0.00508174673591
0.00118032098998
-0.00536775867369
0.00110834302128
-0.00563458669514
0.00103548315931
-0.00588218717683
0.00096225775127
-0.00611063342154
0.000889116874252
-0.00632009270129
0.000816449351902
-0.00651081626591
0.0007445854055
-0.00668311942862
0.000673804589851
-0.00683737605435
0.000604339723789
-0.00697400191456
0.00053638551683
-0.00709345337534
0.000470101986517
-0.00719621342813
0.000405622416934
-0.00728279371323
0.000343055339144
-0.00735372230313
0.000282491235964
-0.00740954807219
0.000224002832121
-0.00745082934923
0.000167650536911
-0.00747813977374
0.000113481255944
-0.00749205717371
6.15328703105e-05
-0.00749317038802
1.18319606268e-05
-0.00748206770888
-3.56023090461e-05
-0.00745934433383
-8.07606155766e-05
-0.00742559078212
-0.000123640327321
-0.00738140068525
-0.000164248471831
-0.007327358872
-0.000202597923397
-0.0072640494771
-0.00023871069346
-0.00719204393416
-0.000272613979833
-0.00711190951703
-0.000304343442705
-0.00702419732773
-0.000333939057814
-0.00692945127535
-0.000361448334025
-0.00682819618209
-0.000386922007438
-0.00672094720714
-0.000410417215387
-0.00660819818498
-0.000431993083536
-0.0064904314666
-0.000451713870735
-0.00636810656434
-0.000469644521652
-0.00624167036153
-0.00048585381835
-0.00611154612212
-0.000500409961051
-0.00597814398754
-0.000513383744556
-0.00584185037254
-0.000524844235797
-0.005703038652
-0.000534862004541
-0.00556205895238
-0.000543504950174
-0.00541924890843
-0.000550841595731
-0.00527492382799
-0.000556937117374
-0.00512938738888
-0.00056185671482
-0.00498292215055
-0.000565661875895
-0.00483580005141
-0.000568413810314
-0.00468827322339
-0.000570169971451
-0.00454058415589
-0.000570987535075
-0.00439295678309
-0.000570920171595
-0.00424560619609
-0.000570021520306
-0.00409872997838
-0.000568342192302
-0.00395251737605
-0.000565933185016
-0.00380714089101
-0.000562843074081
-0.00366276485506
-0.000559121295309
-0.00351953731048
-0.000554815484703
-0.00337759796891
-0.000549974566167
-0.00323707044336
-0.000544646198651
-0.00309806960571
-0.000538879613402
-0.00296069424374
-0.00053272314669
-0.00282503384867
-0.000526226796815
-0.0026911617837
-0.0005194398349
-0.00255914154426
-0.000512413067848
-0.00242902051187
-0.000505196541109
-0.00230083572312
-0.000497841516411
-0.00217460827421
-0.000490398289349
-0.00205034862923
-0.000482917898733
-0.00192805171609
-0.000475450089857
-0.00180770178687
-0.000468044779245
-0.00168926823179
-0.00046075019107
-0.00157270999694
-0.00045361409776
-0.00145797211967
-0.000446682152186
-0.00134498968909
-0.000439998918661
-0.00123368508381
-0.000433606413055
-0.00112397143315
-0.000427544930818
-0.00101575047221
-0.000421851803068
-0.000908915346281
-0.000416562032763
-0.000803348784385
-0.00041170731022
-0.000698924808598
-0.000407316662095
-0.000595506458229
-0.000403416079447
-0.000492945003205
-0.000400030174573
-0.000391077912745
-0.00039718528076
-0.000289732903335
-0.000394910423713
-0.000188780449578
-0.000393151021438
-8.87044865756e-05
-0.000389978247453
-0.00035023250719
-0.00041050146259
0.00195104509985
-0.000865426019201
0.0021622084056
-0.00131825027559
0.00215355120943
-0.00176404005704
0.00212225989872
-0.00220039532136
0.00208016624702
-0.00262525095011
0.00202866555618
-0.00303677334636
0.00196868196152
-0.00343336893592
0.00190119439919
-0.00381369183491
0.00182722846152
-0.0041766413168
0.00174782129919
-0.00452135316848
0.00166398914189
-0.00484718304744
0.00157670154383
-0.00515368767169
0.00148686144021
-0.00544060141972
0.0013952925334
-0.00570781447555
0.00130273173195
-0.00595534893381
0.00120982762228
-0.00618333896834
0.00111714201241
-0.00639201021621
0.00102515554608
-0.00658166447954
0.000934274234477
-0.0067526638064
0.000844838270194
-0.00690542022962
0.000757130049739
-0.00704038435273
0.000671383268259
-0.00715803941239
0.000587790147969
-0.00725889335143
0.00050650912463
-0.0073434760021
0.000427670162217
-0.00741233339454
0.000351380405025
-0.00746602682425
0.000277727370455
-0.00750512829448
0.000206782665399
-0.0075302205157
0.000138603404712
-0.00754189272636
7.32345002405e-05
-0.00754074106213
1.07089217283e-05
-0.00752736406199
-4.89512401259e-05
-0.00750236339966
-0.00010573405634
-0.00746633936827
-0.000159637741325
-0.00741989137132
-0.000210670747266
-0.00736361346579
-0.0002588507455
-0.00729809487512
-0.000304205131534
-0.0072239155918
-0.00034676978173
-0.00714164709766
-0.000386589418526
-0.00705184813519
-0.00042371619322
-0.00695506572783
-0.000458209895895
-0.00685183121843
-0.000490136381726
-0.00674266163886
-0.00051956765689
-0.00662805608788
-0.000546580212852
-0.00650849748531
-0.000571255050705
-0.00638444932225
-0.00059367598385
-0.00625635778289
-0.00061392965511
-0.0061246488754
-0.000632103880488
-0.00598973089655
-0.000648287720235
-0.00585199191962
-0.000662569916707
-0.0057118025337
-0.000675039063535
-0.00556951364798
-0.000685782197141
-0.00542545943611
-0.000694885110812
-0.00527995538992
-0.000702431136332
-0.00513330136172
-0.00070850162878
-0.00498577979081
-0.000713174973155
-0.00483765874578
-0.000716527256034
-0.00468919023281
-0.000718631497839
-0.00454061312161
-0.000719558494483
-0.00439215145789
-0.000719376259923
-0.00424401718878
-0.000718151001909
-0.00409640841513
-0.000715946720913
-0.00394951184433
-0.00071282625257
-0.00380350095687
-0.000708850960986
-0.00365853816809
-0.000704081774876
-0.00351477291414
-0.000698578896509
-0.0033723435276
-0.000692402754154
-0.00323137528863
-0.000685613667297
-0.00309198206529
-0.000678272660338
-0.00295426439284
-0.000670441036836
-0.00281831093432
-0.000662181019844
-0.00268419666647
-0.000653555224057
-0.00255198423204
-0.000644627120283
-0.0024217222999
-0.000635460411896
-0.00229344686019
-0.000626119339377
-0.00216717981719
-0.000616667992847
-0.0020429302722
-0.000607170489158
-0.00192069338285
-0.000597690254033
-0.00180045165015
-0.000588290105122
-0.00168217406411
-0.000579031543014
-0.00156581740203
-0.000569974772234
-0.00145132565649
-0.000561178029207
-0.00133863132756
-0.000552697565401
-0.00122765510979
-0.000544587039074
-0.00111830713897
-0.000536897482323
-0.00101048686229
-0.000529676782918
-0.000904084123883
-0.000522969682213
-0.000798979105649
-0.000516817448922
-0.000695043006094
-0.000511258036231
-0.000592138009341
-0.000506326389713
-0.000490118305478
-0.000502055493728
-0.000388831485356
-0.0004984771961
-0.000288127879954
-0.000495618645547
-0.000187908313885
-0.000493377099618
-8.86344332423e-05
-0.000489258934745
-0.000438869671436
-0.000420672275591
0.00237175127334
-0.000886623731441
0.0026281961185
-0.00135012744041
0.00261709129227
-0.00180600852915
0.00257817736532
-0.00225170366083
0.00252589772858
-0.00268501998197
0.00246201821218
-0.00310403501688
0.00238773330758
-0.00350710604901
0.00230430171977
-0.00389287447499
0.00221303313421
-0.00426025915627
0.0021152421826
-0.00460844110921
0.00201220722537
-0.00493684117373
0.00190513765978
-0.00524509397618
0.00179515017945
-0.00553301954815
0.00168325392138
-0.00580059547244
0.0015703433071
-0.00604792993529
0.00145719756308
-0.00627523780237
0.00134448513052
-0.00648281907721
0.00123277184255
-0.0066710412674
0.00112253115402
-0.00684032424839
0.0010141556878
-0.00699112886343
0.000907968736815
-0.00712394738208
0.00080423550308
-0.0072392970331
0.000703173079819
-0.00733771447631
0.000604959426873
-0.00741975257322
0.000509740609481
-0.00748597720486
0.000417636903579
-0.00753696573583
0.000328747192291
-0.00757330482777
0.00024315250394
-0.00759558947706
0.000160918157719
-0.00760442096641
8.20954925635e-05
-0.00760040598724
6.72274310319e-06
-0.00758415397145
-6.51751099532e-05
-0.0075562763197
-0.000133584323753
-0.00751738370243
-0.000198503673046
-0.00746808469566
-0.000259943874617
-0.00740898310083
-0.000317927198039
-0.00734067656695
-0.000372487369355
-0.00726375395212
-0.000423668866144
-0.00717879410944
-0.000471526605656
-0.00708636344605
-0.000516124990541
-0.00698701499571
-0.000557537378814
-0.00688128628708
-0.000595844926252
-0.00676969878736
-0.000631135903338
-0.006652756149
-0.000663504410261
-0.0065309440595
-0.000693049617463
-0.00640472889192
-0.00071987444048
-0.00627455796418
-0.000744084786506
-0.00614085858855
-0.000765788266617
-0.00600403870932
-0.000785093516612
-0.00586448631688
-0.000802109019534
-0.00572257041283
-0.000816942566738
-0.00557864073341
-0.000829700251529
-0.00543302896405
-0.000840486122284
-0.0052860486915
-0.000849401401875
-0.00513799677293
-0.000856544377213
-0.0049891534201
-0.0008620098787
-0.00483978360899
-0.000865889423506
-0.00469013718767
-0.000868270964291
-0.00454045021376
-0.000869239276931
-0.00439094498535
-0.000868875949668
-0.00424183120647
-0.000867259963725
-0.00409330586177
-0.00086446786141
-0.00394555414491
-0.000860574440439
-0.00379874913921
-0.000855653010607
-0.00365305248591
-0.000849776101328
-0.00350861387616
-0.000843015711027
-0.00336557148303
-0.000835443933497
-0.00322405131385
-0.000827133114717
-0.0030841674652
-0.000818156322785
-0.0029460214102
-0.000808587358104
-0.00280970215613
-0.000798501029005
-0.00267528555286
-0.000787972996069
-0.00254283443385
-0.000777079850108
-0.00241239802241
-0.000765898806353
-0.0022840121233
-0.000754507612646
-0.00215769868582
-0.000742984130856
-0.002033466092
-0.000731406118383
-0.00191130891052
-0.000719850744075
-0.0017912083035
-0.000708394291602
-0.00167313198405
-0.000697111654982
-0.00155703474534
-0.000686076006562
-0.00144285861366
-0.000675358310402
-0.00133053348555
-0.000665026990672
-0.0012199774493
-0.000655147493892
-0.00111109749642
-0.000645781990597
-0.0010037899595
-0.00063698902481
-0.000897941241886
-0.000628823297835
-0.000793428292766
-0.000621335470981
-0.00069011942549
-0.000614572215329
-0.00058787507227
-0.000608576241909
-0.000486548851167
-0.000603386694448
-0.000385991157383
-0.000599039869357
-0.000286056125269
-0.000595559747937
-0.000186636418537
-0.000592802452267
-8.81515622544e-05
-0.000587749702492
-0.000527024642685
-0.000433278716341
0.00280506384533
-0.000912962104263
0.00310791569369
-0.00138973889247
0.00309390444319
-0.00185811879646
0.00304659363259
-0.00231533117628
0.00298314645566
-0.00275902583384
0.00290574921217
-0.00318717455896
0.00281591835779
-0.00359808049598
0.00271524397523
-0.00399037847747
0.00260536740016
-0.00436302177775
0.00248792173957
-0.00471525838491
0.00236448002316
-0.00504659990532
0.00223651530942
-0.00535678677437
0.0021053730703
-0.00564575227361
0.00197225533516
-0.0059135880327
0.00183821482132
-0.00616051220167
0.001704157325
-0.00638684172554
0.00157085002975
-0.00659296871968
0.00143893398614
-0.00677934145792
0.0013089387589
-0.00694644924508
0.00118129804778
-0.00709481121748
0.00105636493252
-0.00722496803462
0.000934426177817
-0.0073374763642
0.000815714848098
-0.00743290508365
0.000700421148176
-0.00751183313791
0.000588701180108
-0.00757484807587
0.000480683850163
-0.00762254533452
0.000376475908574
-0.00765552746978
0.000276165523554
-0.00767440356959
0.000179824530551
-0.00767978821021
8.75097677554e-05
-0.00767230063267
-7.35869777436e-07
-0.00765256279116
-8.48846843095e-05
-0.00762119790731
-0.000164921662818
-0.00757882873027
-0.000240846054629
-0.00752607535657
-0.000312671218522
-0.00746355303145
-0.000380424283721
-0.00739187011535
-0.000444145845455
-0.0073116258925
-0.000503889474255
-0.00722340866338
-0.000559721047575
-0.00712779378371
-0.000611717933403
-0.00702534205433
-0.000659968017284
-0.00691659812148
-0.00070456863722
-0.00680208926022
-0.000745625401055
-0.00668232420605
-0.000783250978733
-0.00655779237825
-0.000817563820902
-0.00642896316336
-0.000848686911534
-0.00629628557759
-0.000876746487292
-0.00616018798765
-0.000901870845606
-0.0060210781864
-0.000924189154697
-0.00587934350901
-0.000943830395933
-0.00573535126637
-0.000960922340375
-0.00558944919159
-0.000975590699453
-0.00544196615627
-0.000987958339384
-0.00529321285624
-0.000998144701372
-0.00514348270525
-0.00100626530901
-0.00499305264631
-0.00101243150461
-0.00484218410239
-0.00101675028217
-0.00469112378428
-0.00101932434837
-0.00454010456766
-0.00102025227089
-0.00438934617451
-0.00101962883094
-0.00423905586662
-0.00101754543025
-0.00408942890383
-0.00101409065138
-0.00394064897829
-0.00100935082185
-0.00379288840125
-0.00100341066661
-0.00364630826007
-0.000996353906337
-0.00350105833999
-0.00098826387294
-0.00335727703709
-0.000979224020394
-0.00321509107349
-0.000969318394254
-0.00307461524665
-0.000958631964939
-0.00293595202832
-0.000947250879163
-0.00279919124823
-0.000935262569641
-0.00266440967877
-0.000922755767782
-0.00253167075263
-0.000909820393195
-0.00240102422169
-0.000896547348932
-0.00227250598543
-0.000883028229199
-0.00214613788903
-0.00086935494985
-0.00202192771304
-0.000855619333183
-0.00189986914509
-0.000841912634733
-0.00177994195027
-0.000828325065702
-0.00166211212725
-0.000814945275727
-0.00154633225816
-0.000801859865702
-0.00143254183924
-0.000789152874655
-0.0013206677914
-0.000776905324067
-0.00121062494068
-0.000765194749185
-0.00110231666202
-0.000754094810024
-0.00099563546909
-0.000743674902232
-0.000890463752655
-0.000733999878544
-0.000786674516394
-0.000725129804803
-0.000684132161413
-0.000717119783323
-0.000582693607587
-0.000710020024359
-0.000482210060813
-0.000703875868102
-0.000382528530602
-0.000698726447
-0.000283497607387
-0.000694595040271
-0.000184998937564
-0.000691307664515
-8.74186258802e-05
-0.00068533687197
-0.000614445902209
-0.000448599143774
0.00325369684219
-0.000944977275538
0.00360433000729
-0.00143785683932
0.00358682033894
-0.00192134430581
0.00353011743741
-0.00239240760799
0.00345424609798
-0.0028485042834
0.00336188222212
-0.00328748307669
0.00325493349495
-0.00370759176851
0.0031353890014
-0.00410747108698
0.00300528304937
-0.00448613176723
0.0028666187183
-0.00484291904428
0.00272130356649
-0.00517746953137
0.00257110199372
-0.00548966484774
0.00241760450928
-0.0057795857537
0.00226221224764
-0.00604746942292
0.00210613436964
-0.00629367168427
0.00195039529256
-0.00651863507089
0.00179584893236
-0.00672286296534
0.00164319716096
-0.00690689953666
0.00149301035198
-0.00707131492597
0.00134574815538
-0.00721669491856
0.00120177931158
-0.00734363428234
0.00106139955567
-0.00745273297587
0.000924847150195
-0.00754459440753
0.00079231574628
-0.00761982510856
0.000663964568037
-0.00767903512717
0.000539926046731
-0.00772283875826
0.000420311167948
-0.00775185510502
0.000305212925635
-0.00776670838045
0.000194708244447
-0.00776802763996
8.88588313196e-05
-0.00775644581138
-1.22885750315e-05
-0.0077325990114
-0.000108703053094
-0.00769712463634
-0.000200368346804
-0.00765065929909
-0.000287284440215
-0.00759383682864
-0.000369467523955
-0.00752728589989
-0.000446949826157
-0.00745162780569
-0.00051977937953
-0.00736747410433
-0.00058801942496
-0.00727542455116
-0.000651747706502
-0.00717606499736
-0.000711055426225
-0.0070699656715
-0.000766046161437
-0.00695767947998
-0.000816834495222
-0.00683974074726
-0.00086354469285
-0.00671666399172
-0.000906309149474
-0.00658894316423
-0.0009452669623
-0.00645705091661
-0.000980562328779
-0.00632143833364
-0.00101234313582
-0.00618253467442
-0.00104075941938
-0.0060407475612
-0.00106596206924
-0.0058964631485
-0.00108810144486
-0.00575004671126
-0.00110732628361
-0.00560184317378
-0.00112378255838
-0.00545217801199
-0.00113761266996
-0.00530135804486
-0.00114895462698
-0.0051496725363
-0.00115794159421
-0.00499739412168
-0.00116470145539
-0.00484477996593
-0.00116935675857
-0.00469207267596
-0.00117202468324
-0.00453950136253
-0.00117281737464
-0.00438728239281
-0.00117184227686
-0.00423562021894
-0.00116920278358
-0.00408470785669
-0.0011649988374
-0.00393472739126
-0.00115932776875
-0.00378585012654
-0.0011522850144
-0.00363823674409
-0.00114396498307
-0.0034920371367
-0.00113446173266
-0.00334739026627
-0.00112386970689
-0.00320442375865
-0.0011122842332
-0.00306325355841
-0.00109980201353
-0.00292398340096
-0.0010865213578
-0.00278670438743
-0.00107254237442
-0.00265149445904
-0.00105796691789
-0.00251841801006
-0.00104289848623
-0.00238752547028
-0.00102744191853
-0.0022588530459
-0.00101170305449
-0.0021324224819
-0.000995788251269
-0.00200824098406
-0.000979803882855
-0.00188630119497
-0.000963855755905
-0.00176658131605
-0.000948048527318
-0.00164904530126
-0.000932485090524
-0.00153364317347
-0.000917265976882
-0.00142031141924
-0.000902488768172
-0.00130897348014
-0.000888247532089
-0.00119954031888
-0.000874632301634
-0.00109191105831
-0.000861728582741
-0.000985973686814
-0.000849616935427
-0.000881605826876
-0.000838372582346
-0.000778675538733
-0.000828065102806
-0.000677042341146
-0.000818758233992
-0.00057655829168
-0.000810509529066
-0.000477068899726
-0.000803370079099
-0.000378415957281
-0.000797384269489
-0.00028044104291
-0.000792576117156
-0.000183011568833
-0.000788742613172
-8.64917325973e-05
-0.000781862440619
-0.000700941057448
-0.000466972271224
0.0037207028929
-0.000983351604728
0.00412074545484
-0.00149547027152
0.00409897528883
-0.00199692794274
0.00403161141666
-0.00248436675296
0.0039417212178
-0.00295501236749
0.00383256416526
-0.00340657434128
0.00370653180673
-0.00383724983563
0.00356610085355
-0.00424570741435
0.00341377698197
-0.00463104964381
0.00325199730159
-0.00499276120592
0.00308305144715
-0.00533064920302
0.00290902627364
-0.00564478175579
0.00273177326576
-0.00593542935947
0.00255289597013
-0.00620301233838
0.00237375333355
-0.00644805602392
0.00219547481858
-0.00667115449628
0.00201898304915
-0.00687294253705
0.00184502063376
-0.00705407523197
0.00167417821479
-0.00721521402629
0.00150692183256
-0.00735701822789
0.00134361806144
-0.00748014065636
0.00118455617183
-0.00758522647093
0.00102996674612
-0.00767291406933
0.000880036689844
-0.00774383727824
0.000734920645709
-0.00779862801639
0.00059474914305
-0.00783791890336
0.000459633868868
-0.00786234535288
0.000329670608766
-0.00787254692079
0.000204940438488
-0.00786916779033
8.55096779456e-05
-0.00785285605182
-2.85710064953e-05
-0.00782426356626
-0.000137266945122
-0.00778404358597
-0.000240560458181
-0.00773284882815
-0.000338452096194
-0.0076713291059
-0.000430960913053
-0.00760012884412
-0.000518124565672
-0.00751988449001
-0.000599999015606