/*--------------------------------*- C++ -*----------------------------------*\
| =========                 |                                                 |
| \\      /  F ield         | OpenFOAM: The Open Source CFD Toolbox           |
|  \\    /   O peration     | Version:  v1906                                 |
|   \\  /    A nd           | Web:      www.OpenFOAM.com                      |
|    \\/     M anipulation  |                                                 |
\*---------------------------------------------------------------------------*/
FoamFile
{
    version     2.0;
    format      ascii;
    class       volVectorField;
    location    "828";
    object      Ua;
}
// * * * * * * * * * * * * * * * * * * * * * * * * * * * * * * * * * * * * * //

dimensions      [0 1 -1 0 0 0 0];


internalField   nonuniform List<vector> 
9216
(
(-0.00666733278081 0.00667068725746 0)
(-0.00685411161266 0.0208035072514 2.37614549295e-27)
(-0.00684003044066 0.035016239949 -4.61491669486e-31)
(-0.00679183115908 0.0492201371609 0)
(-0.00672445713593 0.0632781056907 0)
(-0.00663933988093 0.077154987183 0)
(-0.00653802905384 0.0908113611013 0)
(-0.00642141360086 0.104210768729 0)
(-0.00629057241054 0.117319037127 0)
(-0.00614631083673 0.130104492497 0)
(-0.00598976086993 0.142537869834 0)
(-0.00582173670521 0.154592511294 0)
(-0.00564339884338 0.166244233168 0)
(-0.00545550838389 0.177471419512 0)
(-0.00525917405784 0.188254805492 0)
(-0.00505502619298 0.198577459176 0)
(-0.00484404327948 0.208424490982 0)
(-0.00462665941458 0.21778293895 0)
(-0.00440366210415 0.226641431738 0)
(-0.00417524768029 0.234990006589 0)
(-0.00394198081739 0.242819760432 0)
(-0.00370381108931 0.250122634802 0)
(-0.00346108130536 0.256891095379 0)
(-0.00321351872979 0.263117920596 0)
(-0.00296127792271 0.268795944814 0)
(-0.00270391878133 0.273917880396 0)
(-0.00244146737717 0.278476154592 0)
(-0.00217339461069 0.282462789225 0)
(-0.00189967960026 0.285869352405 0)
(-0.00161980423877 0.288686907029 0)
(-0.0013337980099 0.29090612025 0)
(-0.00104124787164 0.292517275314 0)
(-0.000742334145991 0.293510456797 0)
(-0.000436901355426 0.293875764645 0)
(-0.000125410899546 0.29360365287 0)
(0.000191938428759 0.292685165796 0)
(0.000514313251591 0.291112436877 0)
(0.000841065273523 0.288878982225 0)
(0.00117092902251 0.285980288291 0)
(0.00150276971481 0.282414112189 0)
(0.00183489555804 0.278181087825 0)
(0.00216571932112 0.273284961471 0)
(0.00249319633405 0.26773314275 0)
(0.00281537647142 0.261536826911 0)
(0.0031299624972 0.254711451992 0)
(0.00343472302013 0.247276735874 0)
(0.00372714770723 0.239257081384 0)
(0.00400470318669 0.230681675484 0)
(0.00426455157279 0.221584965029 0)
(0.00450368116593 0.212007044198 0)
(0.00471866788983 0.201994296271 0)
(0.00490581198913 0.191600186659 0)
(0.00506095710079 0.180885900792 0)
(0.00517987106345 0.169921215209 0)
(0.00525815318816 0.158784453616 0)
(0.00529205799261 0.147562478551 0)
(0.00527839888281 0.136349010981 0)
(0.00521566756378 0.125242812187 0)
(0.00510359389749 0.114344223711 0)
(0.00494419931891 0.10375190423 0)
(0.00474089766878 0.0935586417785 0)
(0.0044991356477 0.0838479918732 0)
(0.00422506004915 0.0746913818031 0)
(0.00392581328006 0.0661463154642 0)
(0.00360803400864 0.0582563927515 0)
(0.00328014850014 0.0510499409825 0)
(0.00295165997255 0.0445369272147 0)
(0.00263225041148 0.0387068089639 0)
(0.00232938120311 0.0335311856564 0)
(0.00204820791597 0.0289683752677 0)
(0.00179122222978 0.0249692029085 0)
(0.00155926537236 0.0214811933734 0)
(0.00135177208253 0.0184520571291 0)
(0.00116746000073 0.0158315495379 0)
(0.00100454462759 0.013572969776 0)
(0.000861193279256 0.0116334359903 0)
(0.000735749238363 0.00997388266333 0)
(0.000626726941236 0.00855840825864 0)
(0.000532645099752 0.00735423145412 0)
(0.000451735736131 0.00633192928193 0)
(0.000382254689374 0.0054658436493 0)
(0.000322384571298 0.00473397576222 0)
(0.000270219678827 0.00411793615139 0)
(0.000222212954522 0.00360757831248 0)
(0.000171516606843 0.00314804170622 0)
(0.000149933853759 0.00285314649602 0)
(0.000141157261051 0.00255133195609 0)
(0.000122477873818 0.00228630370683 0)
(0.000118910217249 0.0020616273876 0)
(0.00012263108486 0.00181835274086 0)
(0.000119048289818 0.0015815039326 0)
(0.000116653439048 0.00133906065956 0)
(0.0001268565174 0.00108651700947 0)
(0.000139836438845 0.000819366926314 0)
(0.000155523484916 0.000504746787628 0)
(0.000166152882436 0.000161968101363 0)
(-0.0208329654375 0.00689445876603 0)
(-0.0219945019092 0.0220968336533 0)
(-0.0219210295167 0.0372115915054 -2.44243129586e-27)
(-0.0217351187764 0.0523298085212 0)
(-0.0214821111365 0.0672807876516 0)
(-0.0211670327263 0.0820351257757 0)
(-0.0207936827497 0.0965526107636 0)
(-0.0203654113093 0.110794962932 0)
(-0.0198860812364 0.124726001342 0)
(-0.0193593144614 0.138312062575 0)
(-0.0187893007947 0.151522095851 0)
(-0.0181798094314 0.164327808616 0)
(-0.0175350965864 0.176703627715 0)
(-0.0168587750737 0.188626712574 0)
(-0.0161548471903 0.200076805362 0)
(-0.0154264668582 0.211036128705 0)
(-0.014677097597 0.2214891433 0)
(-0.0139091923413 0.231422351895 0)
(-0.0131254690378 0.240823993165 0)
(-0.0123275320283 0.249683784495 0)
(-0.0115172535058 0.257992590105 0)
(-0.01069535696 0.265742142489 0)
(-0.00986288565866 0.272924727324 0)
(-0.00901976545643 0.279532924043 0)
(-0.0081663362631 0.28555934607 0)
(-0.0073019083006 0.290996434272 0)
(-0.0064263289094 0.295836282701 0)
(-0.00553854812392 0.30007050946 0)
(-0.00463819497175 0.303690188275 0)
(-0.00372417152724 0.30668581557 0)
(-0.00279621534405 0.309047351723 0)
(-0.00185352203362 0.310764329793 0)
(-0.000896275709561 0.311826067033 0)
(7.56322056469e-05 0.312221803191 0)
(0.00106117599412 0.31194107116 0)
(0.00205941937061 0.310974012244 0)
(0.00306818732257 0.309311843776 0)
(0.00408521949562 0.306947269369 0)
(0.00510700382844 0.303875027543 0)
(0.00612985544599 0.300092329131 0)
(0.00714894851869 0.295599409861 0)
(0.00815930169415 0.29039990978 0)
(0.00915501707937 0.284501342617 0)
(0.0101301209386 0.277915348484 0)
(0.0110779712449 0.270658032702 0)
(0.0119918706177 0.262750102925 0)
(0.0128645579949 0.254217134201 0)
(0.013688521777 0.245089737279 0)
(0.0144554888598 0.235403932685 0)
(0.0151564819601 0.22520160523 0)
(0.0157813145666 0.214531192157 0)
(0.0163186930277 0.20344858677 0)
(0.0167559286084 0.192018071037 0)
(0.0170796882762 0.18031333785 0)
(0.0172762588351 0.168417905516 0)
(0.0173334790444 0.156425112474 0)
(0.0172413897783 0.144436638581 0)
(0.016994869796 0.132560223815 0)
(0.0165933953436 0.120905925761 0)
(0.0160431673381 0.109582177855 0)
(0.0153557603968 0.0986909113141 0)
(0.0145483644931 0.0883235316153 0)
(0.0136415107871 0.0785574889228 0)
(0.0126574443603 0.0694542316945 0)
(0.0116165426674 0.0610613198573 0)
(0.0105448255081 0.0534117912249 0)
(0.00947411927974 0.0465175573343 0)
(0.0084361618073 0.0403653108136 0)
(0.00745548847121 0.034920169313 0)
(0.0065479345368 0.0301326798602 0)
(0.0057208566644 0.0259461363355 0)
(0.00497599569118 0.0223016647171 0)
(0.00431098679498 0.0191415883233 0)
(0.00372109878177 0.0164113618563 0)
(0.00320018751163 0.0140609128504 0)
(0.00274204438069 0.0120449317346 0)
(0.00234127291378 0.0103223825466 0)
(0.00199328332438 0.00885539341921 0)
(0.0016934049292 0.00760891816819 0)
(0.00143590461982 0.0065514882965 0)
(0.00121508689616 0.00565584972045 0)
(0.00102552855501 0.00489846632329 0)
(0.000862072648425 0.00425862075938 0)
(0.000718811060606 0.0037185216724 0)
(0.00058607675939 0.00324292865297 0)
(0.000491563637962 0.00279693284007 0)
(0.00042867738565 0.0024880773145 0)
(0.000370973314657 0.00222532789234 0)
(0.000352023709658 0.00197023186454 0)
(0.000358736514738 0.00176393121182 0)
(0.000356739357276 0.0015544566361 0)
(0.000360554137977 0.00130295926882 0)
(0.000380037987265 0.0010462700791 0)
(0.000451846312449 0.000818470197655 0)
(0.000540326829465 0.000519057172038 0)
(0.000486087801489 0.000142289795784 0)
(-0.0352053940163 0.00694977153379 0)
(-0.0371898971528 0.0222795475599 0)
(-0.0370391236233 0.0374863220996 -2.44580439832e-27)
(-0.0367192555253 0.0527139603388 0)
(-0.0362926963536 0.0677722625863 0)
(-0.0357645478987 0.0826304306233 0)
(-0.0351396271978 0.0972472762843 0)
(-0.0344232826619 0.111583991736 0)
(-0.0336215503684 0.125604014626 0)
(-0.0327406869405 0.139273379387 0)
(-0.0317873820673 0.152560858819 0)
(-0.0307682380507 0.165438074498 0)
(-0.0296900334335 0.177879499579 0)
(-0.028559151857 0.18986243129 0)
(-0.0273819057423 0.201366870083 0)
(-0.0261639363872 0.212375373557 0)
(-0.0249106081113 0.222872831734 0)
(-0.0236264010247 0.232846226147 0)
(-0.0223153832885 0.242284331509 0)
(-0.0209806156658 0.251177415316 0)
(-0.0196247041624 0.259516906096 0)
(-0.0182492288395 0.26729507705 0)
(-0.01685536973 0.274504726816 0)
(-0.01544336367 0.281138891466 0)
(-0.0140131871927 0.287190578386 0)
(-0.0125640386502 0.292652541911 0)
(-0.0110950578384 0.297517100441 0)
(-0.00960483158445 0.301775999548 0)
(-0.00809213319238 0.305420331561 0)
(-0.00655545392129 0.308440500007 0)
(-0.00499376046977 0.31082626731 0)
(-0.00340604854094 0.312566839268 0)
(-0.00179208028649 0.313651025528 0)
(-0.000151994069292 0.314067476281 0)
(0.00151298907474 0.313805003025 0)
(0.00320095239799 0.312852939707 0)
(0.00490864892755 0.311201600376 0)
(0.00663190058408 0.30884275545 0)
(0.00836508825852 0.3057701789 0)
(0.010101594054 0.301980168668 0)
(0.0118334544728 0.297472094094 0)
(0.0135518480376 0.2922488568 0)
(0.0152469037097 0.28631732785 0)
(0.0169081739385 0.279688649768 0)
(0.0185245113867 0.272378490598 0)
(0.020084391455 0.26440717055 0)
(0.0215756963301 0.255799788623 0)
(0.0229857276769 0.246586327636 0)
(0.0243007548749 0.236801900658 0)
(0.0255056937162 0.22648716965 0)
(0.0265834946098 0.215689071293 0)
(0.027514850115 0.204461876628 0)
(0.0282779721731 0.192868521055 0)
(0.028849229513 0.180982081101 0)
(0.0292043072014 0.168886917131 0)
(0.0293206443641 0.156679048433 0)
(0.0291801913054 0.144465079581 0)
(0.0287725488461 0.132359372474 0)
(0.0280967597479 0.12047986506 0)
(0.0271624929212 0.108943485362 0)
(0.0259911797214 0.0978598123187 0)
(0.0246122226441 0.0873265717672 0)
(0.0230639438061 0.0774246898351 0)
(0.0213844819125 0.0682150777189 0)
(0.0196040174112 0.0597478144689 0)
(0.017765355135 0.0520644630349 0)
(0.0159288802191 0.0451813513878 0)
(0.0141538065384 0.0390799813691 0)
(0.0124844719696 0.0337142408673 0)
(0.010946701819 0.0290226243723 0)
(0.00955097789989 0.0249387555379 0)
(0.00829803752974 0.0213971405631 0)
(0.00718246601594 0.0183357444885 0)
(0.00619489114131 0.0156974105595 0)
(0.00532374724269 0.0134310572689 0)
(0.00455766054936 0.0114918929262 0)
(0.00388747492199 0.00984005117133 0)
(0.00330636481257 0.00843812895617 0)
(0.00280708033629 0.00725016199888 0)
(0.00237943456729 0.00624387254939 0)
(0.00201330764989 0.00539231970526 0)
(0.00170003298874 0.00467267389583 0)
(0.00143211132579 0.00406490206778 0)
(0.00120291859338 0.00355317302476 0)
(0.00101112653369 0.00310223864922 0)
(0.000857610366944 0.00268970667556 0)
(0.000753311374178 0.00243440640607 0)
(0.000643134454298 0.00209265110016 0)
(0.000569394118503 0.0018046227771 0)
(0.000565519994413 0.00161830600358 0)
(0.000609734629671 0.00146461100301 0)
(0.000597457090816 0.00115176128568 0)
(0.00065054807376 0.000931485357035 0)
(0.000730893334799 0.000667957673967 0)
(0.000801907406044 0.000396833504777 0)
(0.000773582820653 0.000122288947626 0)
(-0.0497752860097 0.00700704685582 0)
(-0.0526047857152 0.0224829727375 0)
(-0.0523890940827 0.0378133231362 2.44547921751e-27)
(-0.0519324258745 0.0531697993069 0)
(-0.0513241285109 0.0683532838508 0)
(-0.0505719028958 0.0833317629168 0)
(-0.0496824713264 0.0980628826438 0)
(-0.0486635055949 0.112507021287 0)
(-0.0475235474711 0.126627024127 0)
(-0.046271679678 0.140388514071 0)
(-0.0449174215481 0.153760038796 0)
(-0.043470392559 0.166713165446 0)
(-0.0419402312652 0.179222492684 0)
(-0.0403362525182 0.191265603853 0)
(-0.038667400376 0.202822945879 0)
(-0.0369419186414 0.213877656293 0)
(-0.0351673560322 0.224415327942 0)
(-0.0333502728151 0.234423734386 0)
(-0.0314963165512 0.243892511617 0)
(-0.0296099854904 0.252812819873 0)
(-0.0276947869266 0.26117698701 0)
(-0.0257530677796 0.268978156063 0)
(-0.0237862538419 0.276209941655 0)
(-0.0217947433394 0.282866113039 0)
(-0.0197782109818 0.28894030865 0)
(-0.0177355491997 0.294425792392 0)
(-0.0156652153388 0.299315255659 0)
(-0.013565206974 0.303600668115 0)
(-0.011433437692 0.307273183426 0)
(-0.00926774265005 0.310323092574 0)
(-0.00706628780243 0.312739863113 0)
(-0.00482759004517 0.314512215348 0)
(-0.00255093628902 0.315628265378 0)
(-0.000236458472307 0.316075780348 0)
(0.00211446516518 0.315842496624 0)
(0.00449915684596 0.314916512488 0)
(0.00691329231668 0.313286768665 0)
(0.00935091277376 0.310943584036 0)
(0.0118042067857 0.307879248169 0)
(0.0142636491235 0.304088622713 0)
(0.0167179671338 0.299569740222 0)
(0.019154431206 0.294324339563 0)
(0.0215589955136 0.288358321549 0)
(0.0239166693459 0.281682070451 0)
(0.0262116998718 0.274310643065 0)
(0.0284278190596 0.266263813405 0)
(0.0305482092854 0.25756602865 0)
(0.0325553422133 0.248246341812 0)
(0.0344304648668 0.238338452646 0)
(0.0361528998058 0.22788100254 0)
(0.0376990916326 0.216918292617 0)
(0.0390418183956 0.205501577357 0)
(0.0401495934021 0.193690928382 0)
(0.0409872530497 0.181557640364 0)
(0.0415174811108 0.169186446537 0)
(0.0417047058856 0.156677111311 0)
(0.0415196614815 0.144143651363 0)
(0.0409450310618 0.131711085181 0)
(0.0399781076188 0.119509728816 0)
(0.0386316645426 0.107670592441 0)
(0.0369396477932 0.0963155197203 0)
(0.0349443070849 0.0855529664024 0)
(0.0327097643711 0.0754692570841 0)
(0.0302941079221 0.0661178083497 0)
(0.0277223714783 0.0575509214088 0)
(0.0250513573825 0.0498318857433 0)
(0.0223849965459 0.0429890422995 0)
(0.0198223464896 0.0369930214719 0)
(0.0174317366187 0.031775502682 0)
(0.0152464742241 0.0272530989749 0)
(0.0132753793321 0.023343922099 0)
(0.0115145330151 0.0199731004517 0)
(0.00995316692737 0.0170727474388 0)
(0.0085753131539 0.0145820707694 0)
(0.00736173117944 0.0124489076376 0)
(0.00629403476902 0.0106302768171 0)
(0.00535922897207 0.00908961714824 0)
(0.00455039431893 0.00779089619182 0)
(0.00385956859193 0.00669564590939 0)
(0.00327007867807 0.00576947323834 0)
(0.00276595557362 0.00498659625223 0)
(0.00233525951259 0.00432605716821 0)
(0.00196797417505 0.00376912339622 0)
(0.0016545903987 0.00330340743404 0)
(0.00139316029052 0.00287745335716 0)
(0.00120537784878 0.00254179683825 0)
(0.00105684238776 0.00224509908403 0)
(0.000919690391826 0.0019139131716 0)
(0.000845897972713 0.00168107440295 0)
(0.000784399904454 0.00140364612673 0)
(0.00079277627617 0.00117525428755 0)
(0.000878099082664 0.00101290288554 0)
(0.000880924554452 0.000719204453706 0)
(0.000955304971843 0.000490152551992 0)
(0.00103497894751 0.000292888138074 0)
(0.00101827714914 9.55942506658e-05 0)
(-0.0644917391373 0.00708099055832 0)
(-0.0681625028875 0.0227517546713 0)
(-0.0678804501194 0.0382536184893 0)
(-0.0672836998516 0.0537840595707 0)
(-0.0664888327009 0.0691358470043 0)
(-0.0655063571742 0.0842757484652 0)
(-0.0643452416837 0.0991600219306 0)
(-0.0630157011529 0.113747959758 0)
(-0.0615290417812 0.128001583834 0)
(-0.0598973446784 0.141885947772 0)
(-0.0581332091378 0.155369283959 0)
(-0.0562494299044 0.16842309079 0)
(-0.0542587509552 0.181022142079 0)
(-0.0521735523554 0.193144425698 0)
(-0.0500056330555 0.20477100963 0)
(-0.0477659305378 0.215885843656 0)
(-0.0454643578281 0.226475498653 0)
(-0.0431095844022 0.236528855047 0)
(-0.0407089552553 0.246036747749 0)
(-0.0382683600871 0.254991583048 0)
(-0.0357922548096 0.26338693966 0)
(-0.0332836321152 0.271217171364 0)
(-0.0307441460443 0.278477024766 0)
(-0.0281741740718 0.285161286408 0)
(-0.0255730228454 0.291264468957 0)
(-0.0229390547099 0.29678054364 0)
(-0.020269944668 0.301702723279 0)
(-0.0175628473649 0.306023296797 0)
(-0.0148146882992 0.309733518691 0)
(-0.012022365863 0.312823544727 0)
(-0.0091830882434 0.31528246 0)
(-0.00629459414995 0.317098337382 0)
(-0.003355523588 0.318258366336 0)
(-0.000365704538107 0.318749111949 0)
(0.00267348281889 0.318556839834 0)
(0.00575884381512 0.317667937763 0)
(0.00888505702765 0.316069438629 0)
(0.0120445092438 0.313749625641 0)
(0.0152271402356 0.310698706363 0)
(0.0184204747142 0.306909517652 0)
(0.0216097139774 0.302378224687 0)
(0.0247780229876 0.297104956317 0)
(0.0279068746121 0.291094323089 0)
(0.0309765171238 0.284355761425 0)
(0.0339663971568 0.276903663308 0)
(0.0368555196718 0.268757285912 0)
(0.0396225594656 0.259940470215 0)
(0.0422456469945 0.250481266516 0)
(0.0447017190164 0.240411642049 0)
(0.0469653632073 0.229767459828 0)
(0.0490073545019 0.218589115357 0)
(0.0507928879423 0.206922951133 0)
(0.0522804080442 0.194823962698 0)
(0.0534212183809 0.182359397788 0)
(0.0541617444982 0.16961320874 0)
(0.0544483373246 0.156689465754 0)
(0.0542359392795 0.143713030821 0)
(0.0534968552786 0.130824830017 0)
(0.0522258575373 0.118172897377 0)
(0.0504354404502 0.105910820645 0)
(0.0481799508009 0.0941776668416 0)
(0.0455083893676 0.0831013423435 0)
(0.0425338610915 0.0727786255828 0)
(0.0393493486632 0.0632313528156 0)
(0.0359265805933 0.0545083036228 0)
(0.0323272301115 0.0467299225475 0)
(0.0287373936553 0.0399547952277 0)
(0.0253206104781 0.0341288315075 0)
(0.0221745051436 0.0291401767928 0)
(0.0193314356484 0.0248678167971 0)
(0.0167881548722 0.0212081448798 0)
(0.0145300298558 0.0180760731157 0)
(0.0125387064031 0.0153975121101 0)
(0.010789379991 0.0131068281227 0)
(0.009251322746 0.0111505169825 0)
(0.00789530853827 0.00949002854265 0)
(0.00670418898583 0.00809695999486 0)
(0.00567670507511 0.00693893965752 0)
(0.00480972643842 0.00597025027415 0)
(0.00407398463578 0.00515060733446 0)
(0.00344420816236 0.00445780136813 0)
(0.00290637538084 0.00387495157031 0)
(0.00244899767866 0.00338439030587 0)
(0.00205804399307 0.00297627026815 0)
(0.00172277558646 0.00257824860947 0)
(0.00154631176371 0.0023340582877 0)
(0.00139291110157 0.00204526744777 0)
(0.00122979551286 0.0017362043756 0)
(0.00107425629051 0.00140360224694 0)
(0.00102964110818 0.00117506178844 0)
(0.00099437564064 0.000915755040214 0)
(0.00107068287594 0.000756859253743 0)
(0.00115906957759 0.000574633003854 0)
(0.0011486591534 0.00035313572696 0)
(0.00117576784703 0.000200679106003 0)
(0.00115468649096 6.63181451795e-05 0)
(-0.0794046672231 0.00717319817152 0)
(-0.0839235379645 0.0230913111863 0)
(-0.0835718262222 0.0388126423727 0)
(-0.0828296045267 0.0545645509594 0)
(-0.0818409941965 0.0701300714075 0)
(-0.0806194607186 0.085474585927 0)
(-0.0791764942366 0.100552689365 0)
(-0.0775251244535 0.115322320563 0)
(-0.0756797226962 0.129744454589 0)
(-0.0736556427282 0.143783419077 0)
(-0.0714688664123 0.157407045138 0)
(-0.0691356297395 0.170586751773 0)
(-0.0666720726353 0.183297548663 0)
(-0.0640938796411 0.195517960567 0)
(-0.0614159600942 0.207229873651 0)
(-0.0586521321498 0.218418308425 0)
(-0.0558148656894 0.229071123269 0)
(-0.052915046373 0.23917865778 0)
(-0.0499618199996 0.248733326192 0)
(-0.0469624743516 0.257729176686 0)
(-0.0439224158906 0.266161433319 0)
(-0.0408451885489 0.274026040445 0)
(-0.0377325850727 0.281319227545 0)
(-0.0345847871848 0.288037111039 0)
(-0.0314005790766 0.294175344366 0)
(-0.0281775661095 0.299728823019 0)
(-0.0249124453503 0.304691446086 0)
(-0.0216012659388 0.309055932788 0)
(-0.0182397345763 0.312813693304 0)
(-0.0148235136625 0.315954741588 0)
(-0.0113485839977 0.318467707368 0)
(-0.0078115714736 0.320339864728 0)
(-0.00421017056934 0.321557241147 0)
(-0.000543561575441 0.322104870309 0)
(0.00318715503997 0.32196712252 0)
(0.00697855314335 0.321128155305 0)
(0.0108244951477 0.319572491326 0)
(0.0147158448155 0.317285711151 0)
(0.0186402762096 0.314255242717 0)
(0.0225822553646 0.310471209602 0)
(0.0265231886206 0.305927284942 0)
(0.0304417861379 0.300621479469 0)
(0.0343145963211 0.294556777592 0)
(0.0381166928142 0.287741537735 0)
(0.041822389836 0.28018957396 0)
(0.0454058743334 0.271919889363 0)
(0.0488415357367 0.262956057964 0)
(0.0521038426769 0.253325396532 0)
(0.0551664955549 0.243058064149 0)
(0.0580008869118 0.232186542468 0)
(0.0605735878583 0.220745741463 0)
(0.0628435664863 0.208774585306 0)
(0.0647589836963 0.196319252118 0)
(0.0662557778837 0.183439012887 0)
(0.0672586763399 0.17021364131 0)
(0.0676883654231 0.156751411238 0)
(0.067475258351 0.14319228922 0)
(0.0665768677661 0.129701124611 0)
(0.0649863365839 0.116448422665 0)
(0.0627034505269 0.103624766477 0)
(0.0598285014918 0.0913885234187 0)
(0.0563783165304 0.079906893063 0)
(0.0525843516565 0.069310207313 0)
(0.0486320284455 0.0595105472847 0)
(0.0442858453502 0.0505288608228 0)
(0.0395931328528 0.0426427586297 0)
(0.0349258702622 0.0359824529244 0)
(0.030558664026 0.0304301241 0)
(0.0266207658423 0.0257862913161 0)
(0.0231193434566 0.0218667007764 0)
(0.0200169598556 0.0185424693205 0)
(0.0172797769454 0.0157236126753 0)
(0.0148828265234 0.0133320694899 0)
(0.0127912867666 0.0112946720211 0)
(0.0109563247453 0.00955483388071 0)
(0.00932902102029 0.0080831504111 0)
(0.00788609112192 0.00687102408276 0)
(0.00664625706495 0.00589643991418 0)
(0.00562798602873 0.00509292719865 0)
(0.00477026008071 0.00440395581377 0)
(0.00403012387234 0.00381898871128 0)
(0.00339732878349 0.00333084391023 0)
(0.00286372914888 0.00292063237744 0)
(0.00240698133235 0.00257235919344 0)
(0.00202339023965 0.0022240914155 0)
(0.00183179826705 0.00199575360981 0)
(0.00162951025874 0.00168891019766 0)
(0.00149774293557 0.00145029740781 0)
(0.00139673115274 0.00120372939591 0)
(0.00133215113128 0.000968887403817 0)
(0.00119850545899 0.000686532502207 0)
(0.00120020681959 0.000499192598658 0)
(0.00131031978638 0.000390506493248 0)
(0.00131284025011 0.00025510548617 0)
(0.0012914775438 0.00013773940744 0)
(0.00126986077093 4.53261281923e-05 0)
(-0.0945601088102 0.00728524205987 0)
(-0.0999379742175 0.023505831332 0)
(-0.0995120079243 0.0394958546471 2.46341897609e-27)
(-0.0986171091632 0.0555186158957 0)
(-0.0974254184761 0.0713451351994 0)
(-0.0959535448139 0.0869390972006 0)
(-0.0942157839322 0.102253076195 0)
(-0.092228303874 0.117243358087 0)
(-0.090008895478 0.131869635513 0)
(-0.0875765415629 0.14609534855 0)
(-0.0849509741885 0.159887843375 0)
(-0.0821522240831 0.173218455693 0)
(-0.0792001798494 0.186062505921 0)
(-0.0761141542023 0.19839920781 0)
(-0.0729124756761 0.210211491417 0)
(-0.0696121044351 0.221485742235 0)
(-0.0662282955756 0.232211460546 0)
(-0.062774311567 0.242380848418 0)
(-0.0592612101307 0.251988336804 0)
(-0.0556977070372 0.261030070018 0)
(-0.0520901347835 0.269503369729 0)
(-0.0484424855577 0.277406202853 0)
(-0.0447565460692 0.284736677859 0)
(-0.041032097825 0.291492589649 0)
(-0.0372671788806 0.297671027167 0)
(-0.033458374914 0.303268048749 0)
(-0.0296011381891 0.30827842348 0)
(-0.0256901129733 0.312695430743 0)
(-0.0217194814159 0.31651071211 0)
(-0.0176833243713 0.31971415579 0)
(-0.0135760352892 0.322293885623 0)
(-0.00939272452472 0.324236243714 0)
(-0.00512973034716 0.325525868436 0)
(-0.000785153490257 0.326145925367 0)
(0.00364059044338 0.32607843502 0)
(0.00814421802785 0.325304748662 0)
(0.012719060092 0.323806189706 0)
(0.0173546370037 0.321564853633 0)
(0.022036373996 0.318564550848 0)
(0.0267455236752 0.314791850978 0)
(0.0314593403097 0.310237163711 0)
(0.0361515499783 0.304895760269 0)
(0.0407931119708 0.298768614954 0)
(0.0453532305658 0.291862930368 0)
(0.0498004985614 0.284192212417 0)
(0.0541039740735 0.275775794569 0)
(0.058233949234 0.266637801208 0)
(0.0621620284839 0.256805596063 0)
(0.0658603380628 0.246308073352 0)
(0.0692993120557 0.235173970095 0)
(0.0724443435131 0.223431260022 0)
(0.0752506785133 0.211107876342 0)
(0.0776578994952 0.1982357825 0)
(0.0795845504493 0.184858785774 0)
(0.0809269511872 0.171045574949 0)
(0.0815666559675 0.156905892561 0)
(0.0813941269387 0.14260141984 0)
(0.0803451025553 0.128335819675 0)
(0.0784241098832 0.114299397728 0)
(0.0755700206404 0.10075287423 0)
(0.0720241440326 0.0878524204415 0)
(0.0675955980567 0.0758570212676 0)
(0.0628491998382 0.065032122139 0)
(0.0582853271359 0.0549328148574 0)
(0.052948491342 0.0454696201311 0)
(0.0468519046538 0.0373702609408 0)
(0.0408467672479 0.0309206433804 0)
(0.0353963857818 0.0258240161603 0)
(0.0306456831953 0.0217011579028 0)
(0.0265132106414 0.0182643525309 0)
(0.0228827786345 0.0153689415109 0)
(0.0196934113342 0.0129422793977 0)
(0.016926385476 0.0109093143709 0)
(0.0145394283166 0.00918057244038 0)
(0.0124526470399 0.00768845932612 0)
(0.0105757173712 0.00641996777032 0)
(0.00886913161423 0.0054143186203 0)
(0.00740676701844 0.00468087768853 0)
(0.00628257931199 0.00409425323086 0)
(0.00534383593855 0.00355273704114 0)
(0.00450814228441 0.00308486264161 0)
(0.00379079653002 0.00270852537357 0)
(0.00320191579229 0.00239321894463 0)
(0.00269207654015 0.00210981318428 0)
(0.00231470994824 0.00184417019155 0)
(0.00209952712494 0.00161560615355 0)
(0.00190232446588 0.0013633111274 0)
(0.00172461104816 0.0011097858818 0)
(0.00163116794869 0.00089706456651 0)
(0.00150982423493 0.000671739462646 0)
(0.0014619480653 0.00050127600295 0)
(0.00134991730373 0.000310712194335 0)
(0.00135645212936 0.000211152155537 0)
(0.00140754029341 0.000151798543012 0)
(0.00136699233168 8.03795464812e-05 0)
(0.00134347759038 2.62432188354e-05 0)
(-0.110007502052 0.00741836257334 0)
(-0.116258217133 0.0239998458975 0)
(-0.115752335732 0.0403100952786 -2.46303912444e-27)
(-0.114695732336 0.056655517038 0)
(-0.113289281403 0.0727925435638 0)
(-0.111553020208 0.0886827670668 0)
(-0.109504399877 0.104276315784 0)
(-0.107163124251 0.119527483932 0)
(-0.104550832497 0.134394425138 0)
(-0.101690577559 0.148839521618 0)
(-0.0986062889959 0.162829551143 0)
(-0.0953222324952 0.176335769985 0)
(-0.0918624763537 0.189333899469 0)
(-0.0882503693532 0.201804018319 0)
(-0.0845080402178 0.213730359759 0)
(-0.0806559270243 0.225101013047 0)
(-0.0767123541476 0.235907530461 0)
(-0.0726931725783 0.246144446052 0)
(-0.0686114866661 0.255808718625 0)
(-0.0644774829416 0.264899120121 0)
(-0.0602983768714 0.273415597241 0)
(-0.0560784780533 0.281358639569 0)
(-0.0518193687933 0.288728686977 0)
(-0.0475201734892 0.295525604416 0)
(-0.0431778944138 0.301748241137 0)
(-0.0387877814565 0.307394078468 0)
(-0.0343437153086 0.312458957 0)
(-0.029838589413 0.316936866207 0)
(-0.0252646971099 0.32081978009 0)
(-0.0206141365424 0.324097508935 0)
(-0.0158792748273 0.32675765489 0)
(-0.0110532175053 0.328785527063 0)
(-0.00613042135129 0.330164168788 0)
(-0.00110735427915 0.330874542536 0)
(0.00401679938913 0.330895836757 0)
(0.00923940691595 0.33020595613 0)
(0.0145536824405 0.328782227866 0)
(0.0199480760051 0.326602327677 0)
(0.0254058325569 0.32364541642 0)
(0.0309048098203 0.319893447268 0)
(0.0364176404413 0.315332567248 0)
(0.0419123141247 0.309954492386 0)
(0.047353210668 0.303757685494 0)
(0.052702562678 0.296748138786 0)
(0.0579222011527 0.288939520762 0)
(0.0629753729383 0.280352535087 0)
(0.0678281880192 0.271013304294 0)
(0.0724503415713 0.260950982637 0)
(0.0768144163286 0.250194563392 0)
(0.0808935206164 0.238769800292 0)
(0.0846564688097 0.226696420314 0)
(0.0880604612197 0.213987539901 0)
(0.0910408920686 0.2006526334 0)
(0.0934996236041 0.186707699735 0)
(0.0952960759048 0.172195504087 0)
(0.0962500478709 0.157218435542 0)
(0.0961805186224 0.141970630853 0)
(0.0949872292855 0.12673103609 0)
(0.0927520828099 0.111673293542 0)
(0.0891738721509 0.0972246882619 0)
(0.085022254211 0.0834142031676 0)
(0.0791457093001 0.0707320613259 0)
(0.0731155096207 0.0600001902589 0)
(0.0685858357002 0.0496133845403 0)
(0.0621497835687 0.0391033950299 0)
(0.0539689087317 0.0305512025343 0)
(0.0461906120725 0.024538348958 0)
(0.0395302111584 0.0202415175123 0)
(0.0340782261621 0.0169174653772 0)
(0.0294661099021 0.0141200453096 0)
(0.0253812221025 0.011739451477 0)
(0.0217429229092 0.00978258297765 0)
(0.0186149438543 0.00819106135159 0)
(0.0159799288846 0.00683148370529 0)
(0.0137062127501 0.00559950832743 0)
(0.0116103080711 0.00450605768227 0)
(0.0095908557196 0.00370638924143 0)
(0.00785721117629 0.00331155290751 0)
(0.00674003922523 0.00303042237376 0)
(0.00580288791699 0.0026296950027 0)
(0.00487061710259 0.00226603583459 0)
(0.00406367417428 0.0020245551055 0)
(0.00345916340542 0.0018193767824 0)
(0.00290920505211 0.0016010745443 0)
(0.00256866001627 0.00140971576449 0)
(0.00232936293946 0.00119319538633 0)
(0.00215336377006 0.000993691894411 0)
(0.00197520413384 0.000779296119659 0)
(0.00182650350777 0.000583206123415 0)
(0.00167306248408 0.000398273769203 0)
(0.0015698369529 0.000258546621068 0)
(0.00151503619531 0.000157552956184 0)
(0.00141268108946 7.38123334785e-05 0)
(0.00146200968943 4.45708438354e-05 0)
(0.00140436667155 2.64889294808e-05 0)
(0.00137494981548 7.24404958068e-06 0)
(-0.125799508788 0.00757387821008 0)
(-0.132939559223 0.0245786726829 0)
(-0.132346896332 0.0412637454393 0)
(-0.13111755172 0.0579866780968 0)
(-0.129482052704 0.0744864724338 0)
(-0.127464251815 0.0907221714133 0)
(-0.125085196613 0.10664097096 0)
(-0.122368616161 0.122194794378 0)
(-0.119340518344 0.137339976672 0)
(-0.116028560452 0.152037661666 0)
(-0.112461407579 0.166253975413 0)
(-0.108668092421 0.179960106659 0)
(-0.104677383405 0.19313228441 0)
(-0.100517164343 0.205751654162 0)
(-0.0962138321946 0.217804049752 0)
(-0.0917917233569 0.229279655239 0)
(-0.0872725877861 0.240172553413 0)
(-0.0826751356436 0.250480162959 0)
(-0.0780146869869 0.260202576906 0)
(-0.073302952385 0.269341826909 0)
(-0.0685479666299 0.277901110671 0)
(-0.0637541821934 0.285884027822 0)
(-0.0589227124894 0.293293871876 0)
(-0.0540516947138 0.300133017787 0)
(-0.049136729674 0.306402429108 0)
(-0.0441713507216 0.312101285903 0)
(-0.0391474842066 0.317226713869 0)
(-0.0340558831331 0.321773579939 0)
(-0.0288865425713 0.325734321481 0)
(-0.0236291259808 0.329098761896 0)
(-0.0182734625645 0.331854018972 0)