/*--------------------------------*- C++ -*----------------------------------*\
| =========                 |                                                 |
| \\      /  F ield         | OpenFOAM: The Open Source CFD Toolbox           |
|  \\    /   O peration     | Version:  v1906                                 |
|   \\  /    A nd           | Web:      www.OpenFOAM.com                      |
|    \\/     M anipulation  |                                                 |
\*---------------------------------------------------------------------------*/
FoamFile
{
    version     2.0;
    format      ascii;
    class       surfaceScalarField;
    location    "187";
    object      phia;
}
// * * * * * * * * * * * * * * * * * * * * * * * * * * * * * * * * * * * * * //

dimensions      [0 3 -1 0 0 0 0];
oriented        oriented;


internalField   nonuniform List<scalar> 
18240
(
0.000947872110488
-0.000945618913869
0.00186959982403
-0.000919348575607
0.00280874938724
-0.000937071704767
0.00374762482619
-0.000936425466064
0.00467949360725
-0.000929862134964
0.00560164842858
-0.000919645847591
0.0065105916633
-0.00090702093294
0.00740513302503
-0.000891981562002
0.00828212966819
-0.000875169846253
0.0091409744722
-0.000856243248006
0.00997854736479
-0.000835854422881
0.0107947103254
-0.000813530043531
0.011586315718
-0.000790006549781
0.0123536676766
-0.000764700374999
0.0130935667549
-0.000738433720381
0.0138067291529
-0.000710507436819
0.0144898714835
-0.000681822247105
0.0151440704883
-0.00065155894427
0.0157659182844
-0.000620686984183
0.0163567882279
-0.000588265576356
0.0169131058473
-0.000555326549677
0.017436465919
-0.000520814592755
0.0179230940102
-0.000485818360107
0.0183747367809
-0.000449180672808
0.0187874046123
-0.00041204579755
0.019162934196
-0.000373176103012
0.0194971326549
-0.000333770220732
0.0197918888654
-0.000292535745384
0.0200428522004
-0.000250728207453
0.0202519498971
-0.000207033078276
0.0204147540282
-0.000162759955344
0.0205332499004
-0.000116606787989
0.0206030599973
-6.99472207966e-05
0.020626287306
-2.15296425099e-05
0.0205987707851
2.72096265181e-05
0.0205228319345
7.74343471343e-05
0.0203947297734
0.000127643968061
0.020217137401
0.000178880461115
0.0199869628466
0.00022958479593
0.0197073903613
0.000280654393716
0.0193762092786
0.000330484684599
0.0189972735751
0.00037981910521
0.0185694613419
0.000427033712208
0.0180974315057
0.000472728748012
0.0175812973996
0.000515300056371
0.0170265936209
0.000555237224426
0.0164347141516
0.000591013113013
0.0158120388808
0.000623065368581
0.0151611441064
0.000650017270885
0.0144890781384
0.000672334888021
0.0137993278423
0.000688876552971
0.0130992704562
0.000700224847505
0.0123928657247
0.000705545884329
0.0116873440884
0.000705602614947
0.010986604684
0.000699900842216
0.0102972141968
0.000689394746181
0.00962249822492
0.000673901043919
0.00896791764004
0.000654515047167
0.00833584419814
0.000631283992975
0.00773036427261
0.000605352421857
0.00715271736584
0.000576886714317
0.00660556610991
0.000546972259935
0.00608905559005
0.000515784195931
0.00560457534764
0.0004842624416
0.00515137042729
0.000452517931118
0.00472981899557
0.000421307478143
0.00433852127896
0.000390653692149
0.00397712671264
0.000361134899521
0.00364383577463
0.00033269155636
0.00333782104768
0.000305746652375
0.00305709028418
0.000280175089284
0.00280054672925
0.000256271690491
0.00256616832669
0.000233864384631
0.00235274867576
0.000213147036307
0.00215835366505
0.000193919979821
0.00198178083289
0.000176302020786
0.00182126113947
0.000160081450213
0.00167567951664
0.000145315354711
0.00154351443527
0.000131761350741
0.00142392235494
0.000119332817369
0.0013160823146
0.00010746915884
0.0012208112076
9.50242242682e-05
0.00114328760889
7.71806918483e-05
0.00107463341579
6.84028461401e-05
0.00100037452967
7.3914962888e-05
0.00092688294056
7.32145690187e-05
0.000862389097396
6.41377454561e-05
0.000807062876312
5.49938424242e-05
0.000746877202588
5.97588145948e-05
0.000673459947327
7.29731803848e-05
0.000593357150854
7.95453182876e-05
0.000506997696901
8.57616883627e-05
0.000403649700181
0.000102673398324
0.000277249280202
0.00012563058389
0.000132688081061
0.000143654010469
0.000132235415479
0.000926340855237
-0.00186975532984
0.00196238691695
-0.00195302365529
0.00297685206968
-0.00194923298016
0.00397993600103
-0.0019371127177
0.00497228443735
-0.00191992996547
0.00595278946226
-0.00189774849126
0.00691909591349
-0.0018710797596
0.00786952247191
-0.00184000932025
0.00880157834317
-0.00180502156997
0.00971381893456
-0.00176609875107
0.0106038611492
-0.00172374668336
0.0114705724648
-0.00167788134261
0.0123116953718
-0.00162904660291
0.0131264065527
-0.00157708983555
0.0139125573405
-0.00152258206701
0.0146696045455
-0.00146528629134
0.0153954717003
-0.00140578301656
0.0160898461315
-0.00134373547783
0.0167506729365
-0.00127971904351
0.0173778058689
-0.00121328953857
0.0179691549685
-0.00114500958312
0.0185246714393
-0.00107433059082
0.0190421790305
-0.00100180430376
0.0195216635702
-0.000926792821976
0.0199608270156
-0.000849847588033
0.02035964323
-0.000770266967142
0.0207156823228
-0.000688620219954
0.0210288845405
-0.000604176615336
0.0212967090423
-0.000517546611133
0.0215190738321
-0.000428014761012
0.0216933917625
-0.000336260618048
0.0218196067372
-0.000241627219021
0.0218951845186
-0.000144898681855
0.0219201861851
-4.55312444403e-05
0.0218922802444
5.55542592989e-05
0.0218117817014
0.000158737708429
0.02167675208
0.000262932344844
0.0214879347379
0.000368311863264
0.0212440048267
0.000473606557657
0.0209463330365
0.000578759525567
0.0205944377697
0.000682321999762
0.0201905156104
0.000784009022992
0.0197351377009
0.000882224968526
0.0192314940038
0.000976494116753
0.0186813606171
0.00106514114912
0.0180890173488
0.00114757845124
0.0174574973124
0.00122215906296
0.0167921503983
0.00128830966725
0.0160971701739
0.00134456346636
0.0153787920039
0.00139053124344
0.0146420848787
0.00142510811714
0.0138937939497
0.0014482725685
0.0131393899023
0.00145944628263
0.0123855921395
0.00145910839808
0.0116376856922
0.0014472838573
0.0109017781008
0.00142496926656
0.0101824028507
0.0013927375713
0.00948455825007
0.00135199067485
0.0088116103731
0.00130368216149
0.00816714578016
0.00124941821163
0.00755317615713
0.0011903018862
0.00697182393171
0.00112790476219
0.00642380881147
0.00106324870692
0.00590996322905
0.000997678394076
0.00542995399778
0.000931989546398
0.00498361587013
0.000867216713797
0.00456986015059
0.000803892273502
0.00418782703407
0.00074274794896
0.00383594775756
0.000684078647466
0.0035129305131
0.000628357365546
0.00321695521267
0.000575684782328
0.00294651103219
0.000526324888554
0.00269970656655
0.000480229637805
0.00247497471647
0.000437504190959
0.00227048254901
0.00039799863306
0.00208471686844
0.000361709825844
0.0019159783385
0.000328431618858
0.00176285608518
0.000298097299359
0.00162377905851
0.000270474456844
0.00149734746556
0.000245441435158
0.00138178303646
0.000222693954092
0.00127455836939
0.000201945617789
0.00116858189503
0.000182843260393
0.00107088068293
0.000165815449424
0.000986611962616
0.000157873696946
0.00090884199345
0.000150678530908
0.000842896491315
0.000129748059566
0.000787003056336
0.000110539928594
0.000731842620389
0.000114529364434
0.000670723188573
0.000133638633017
0.000595439153272
0.000154292499081
0.000509193331639
0.000171430604953
0.000412264341031
0.00019893978318
0.000293693056153
0.000243429577353
0.000143641276158
0.00029287100413
0.000275472108104
0.000952842528948
-0.0028203660387
0.00197677167653
-0.00297459087101
0.0029947064828
-0.00296482084979
0.00400398421412
-0.00294402047969
0.00500285141984
-0.00291646030019
0.00598952799702
-0.0028820640409
0.00696183806301
-0.00284107316819
0.00791784756596
-0.00279367451201
0.00885537624303
-0.00274026277865
0.00977265820706
-0.00268106286435
0.01066767262
-0.00261651389593
0.011538901575
-0.00254683030597
0.0123845161457
-0.0024724661469
0.0132032522204
-0.00239359707828
0.0139934606555
-0.0023106621208
0.0147541044269
-0.00222376743905
0.0154836755668
-0.00213330763008
0.0161813130332
-0.00203929342702
0.0168455932689
-0.00194205214445
0.0174757660228
-0.00184148390384
0.0180704266869
-0.00173783982466
0.018628865283
-0.00163091082338
0.0191496344611
-0.00152087826467
0.0196320032274
-0.00140744175819
0.0200744346299
-0.00129073557122
0.0204761328903
-0.00117040155631
0.0208354496255
-0.00104656125618
0.0211515089288
-0.000918843580283
0.0214225607837
-0.000787402455762
0.0216476665662
-0.000651911796997
0.0218250219274
-0.000512609038545
0.0219536833721
-0.000369271467688
0.0220318835802
-0.00022228483328
0.0220587769136
-7.1602480095e-05
0.022032771964
8.21803973133e-05
0.0219532725701
0.000238865905967
0.0218190477586
0.000397591656304
0.02162994357
0.000557858423198
0.0213853098551
0.000718498500008
0.0210856562224
0.000878681504432
0.0207311479904
0.00103692833165
0.0203231810367
0.00119208723988
0.0198629560848
0.00134240718997
0.0193529486649
0.00148647656384
0.018795562896
0.00162236613425
0.0181944762016
0.00174852684755
0.0175533684948
0.00186301101184
0.0168771228345
0.00196432699739
0.0161706165112
0.00205074141915
0.015439763643
0.00212108692676
0.0146903543524
0.00217413507558
0.0139289388888
0.00220933952994
0.0131617135951
0.0022262498031
0.0123952741924
0.00222516001677
0.011635575561
0.00220653002345
0.0108886029549
0.00217152105082
0.0101594457513
0.00212141691103
0.00945292683437
0.00205805961457
0.00877281809571
0.00198329186998
0.00812244883391
0.00189931443955
0.00750407768594
0.00180815990427
0.00691949786412
0.00171199807068
0.00636955312759
0.00161267637325
0.00585472243374
0.00151202095969
0.00537473208202
0.00141147029283
0.00492908620785
0.00131238372358
0.00451673366774
0.00121575183874
0.00413652830196
0.00112249125175
0.00378693433691
0.00103320178268
0.0034664199262
0.000948430113842
0.00317319890238
0.000868458842551
0.00290556479312
0.000793538662583
0.00266166458758
0.000723706621292
0.00243977816865
0.000658991491973
0.0022381178708
0.00059925894748
0.00205505644155
0.000544393287851
0.00188894389834
0.000494167183549
0.00173828032279
0.000448404002277
0.00160152615848
0.000406874170594
0.00147717696783
0.000369453868049
0.00136345516764
0.00033608377582
0.00125798259254
0.000307103550811
0.00115612495713
0.0002843918465
0.0010610161803
0.000260624370457
0.000978977408843
0.000239600233149
0.000907068370565
0.000222265166768
0.000831534564229
0.0002049379785
0.00075382052396
0.000187904195794
0.000692448296768
0.000175514045678
0.000644689493478
0.000180944945769
0.000570238128628
0.000228221498012
0.000472550247191
0.000268542887662
0.000368328027537
0.000302530271114
0.00024931143454
0.000361766029775
0.000127453159291
0.000414011342881
0.000402557630104
0.00096571574231
-0.00378384261739
0.00199238978585
-0.00399891481083
0.00301593473584
-0.00398600518521
0.00403177782022
-0.00395750208229
0.0050374483145
-0.00391977947806
0.00603075959342
-0.00387302469548
0.00700949738894
-0.00381747649416
0.00797158316269
-0.00375342851154
0.00891492301589
-0.00368129336434
0.00983762456521
-0.00360146091273
0.0107377942739
-0.00351440960789
0.0116137801862
-0.00342055223729
0.0124639172913
-0.00332037706491
0.013286800884
-0.0032142694659
0.0140809826865
-0.00310267951076
0.0148452772379
-0.00298591869559
0.0155784109965
-0.00286435511921
0.0162793633641
-0.00273818737165
0.0169469716405
-0.00260766962866
0.0175803080714
-0.00247286500647
0.0181782458581
-0.00233390120336
0.0187398736767
-0.00219070540129
0.0192640287316
-0.00204328983755
0.0197497486665
-0.00189146927061
0.0201957785706
-0.00173517330388
0.0206010585782
-0.00157414760033
0.0209642114391
-0.00140828927936
0.0212840618815
-0.00123733375662
0.0215591123966
-0.00106120914233
0.0217880893009
-0.000879714134197
0.0219694141675
-0.00069288047663
0.022101772776
-0.000500648919827
0.0221835912947
-0.000303245591889
0.0222136217341
-0.000100848140733
0.0221904314216
0.000106032966133
0.0221129979633
0.000316890082171
0.0219802184414
0.000530843041604
0.0217915044669
0.000746976680956
0.0215463144596
0.000963980788396
0.0212447364068
0.00118049031009
0.0208870430251
0.00139474981405
0.020474248504
0.00160495625932
0.0200076840144
0.00180895516624
0.0194895138676
0.00200458567323
0.0189223259644
0.00218941492357
0.0183095928218
0.00236108615455
0.0176552671502
0.00251709827725
0.0169641698166
0.00265516062101
0.016241573134
0.00277302270506
0.0154934938081
0.00286883387949
0.0147262437308
0.00294101250185
0.0139466159687
0.00298858422821
0.0131614019711
0.00301104896937
0.0123774960056
0.00300864445124
0.0116014183218
0.00298215951897
0.0108393991473
0.00293308678199
0.0100969648497
0.00286337368442
0.00937905125988
0.00277549104649
0.00868967962209
0.00267216075911
0.00803211443374
0.0025563740296
0.00740865707058
0.00243109725815
0.00682087448139
0.00229926228058
0.00626950659998
0.00216351956123
0.00575473081415
0.00202627945096
0.00527611954119
0.00188956560885
0.00483288298968
0.00175511663072
0.00442382770712
0.00162431018525
0.00404755599975
0.00149828095812
0.00370241761221
0.00137786742682
0.00338667443749
0.00126371575475
0.00309845400153
0.00115623170022
0.00283588735149
0.00105567205785
0.00259706507671
0.000962105718813
0.00238014912107
0.000875497754455
0.00218332813648
0.000795680541013
0.00200490330744
0.000722431674222
0.00184323912425
0.000655455420197
0.00169682071204
0.000594458970342
0.00156419126269
0.000539150557497
0.00144397236504
0.000489331489333
0.00133481017817
0.000444915646138
0.00123533359904
0.000406262235106
0.00114644478799
0.000372972843833
0.00105754409718
0.000349212360278
0.000972623347714
0.000324202210749
0.00089033516882
0.000304215709465
0.000808747964389
0.000286173188008
0.000734858979725
0.000261427590174
0.000655663178638
0.000254320853466
0.000570680300659
0.000265500150819
0.000510637511882
0.000287781247385
0.000418388947954
0.000360239207662
0.000302646496854
0.000417694934546
0.000203135008152
0.000460686290865
0.000106180971546
0.000510332471039
0.000508411783454
0.000977120516134
-0.00475872392538
0.00201232702983
-0.00503176347969
0.00304466276188
-0.00501598182943
0.00406948698692
-0.00497996505925
0.00508413773871
-0.00493207708296
0.00608622230283
-0.00487275992515
0.00707343795897
-0.00480235367362
0.00804360862136
-0.00472126790495
0.0089946333492
-0.00463000218619
0.00992456099781
-0.00452908416118
0.0108315296677
-0.00441909515735
0.0117138482995
-0.00430060449714
0.0125699150008
-0.00417420548258
0.0133983025751
-0.00404044199894
0.0141976554975
-0.00389985348239
0.0149667797154
-0.00375289464315
0.0157045192586
-0.0035999912057
0.0164098516396
-0.00344145558609
0.0170817474323
-0.00327755568213
0.0177192736578
-0.00310842999132
0.0183214407664
-0.00293417127465
0.0188873171131
-0.00275474303512
0.019415869181
-0.00257007728693
0.0199060894556
-0.00237999279599
0.0203568343698
-0.00218430468263
0.0207669665059
-0.00198274313151
0.0211351939936
-0.00177507155336
0.0214602264599
-0.00156100547562
0.0217406186512
-0.00134033831263
0.02197493913
-0.0011128619486
0.0221616214943
-0.000878492326141
0.0222991476741
-0.000637198355111
0.0223859104791
-0.000389135531806
0.0224204113258
-0.000134571040414
0.022401139098
0.000125980106829
0.0223267810402
0.000391829813488
0.0221961196073
0.000661986964505
0.0220082523981
0.000935237252804
0.0217625058131
0.00121002796559
0.0214586561939
0.00148455808645
0.0210968548499
0.00175668527262
0.0206778403392
0.00202403093193
0.0202028675948
0.00228391423524
0.0196739011451
0.00253347462843
0.0190935397223
0.00276963642492
0.0184651796371
0.00298925326758
0.0177929234656
0.00318911087933
0.0170816952232
0.00336610322518
0.0163371092103
0.00351728392221
0.0155655060864
0.00364008065708
0.0147737470353
0.00373238593061
0.0139691446075
0.00379277902823
0.0131591701324
0.00382059324114
0.0123513078494
0.0038160618837
0.0115527294809
0.00378027314468
0.0107701588644
0.00371518048757
0.0100096026746
0.00362343481454
0.00927628436375
0.00350830145583
0.00857445517698
0.00337346658021
0.00790739077468
0.00322290492645
0.00727732848688
0.00306061615915
0.00668559242659
0.0028904523449
0.00613265940226
0.00271590457397
0.00561835463731
0.00254004271855
0.00514194250659
0.00236544166713
0.00470229964253
0.00219423698522
0.00429796608226
0.00202813138479
0.00392727043975
0.00186848089967
0.00358834863809
0.00171630527662
0.00327924237103
0.00157235438064
0.00299791129053
0.0014371065974
0.00274231661342
0.00131082567831
0.00251042840951
0.00119356382038
0.00230029190315
0.00108521861617
0.00211002637881
0.000985541278948
0.00193787435212
0.000894192999131
0.00178219132976
0.000810758705498
0.00164147783711
0.000734806261337
0.00151435764279
0.000665915438941
0.00139957787701
0.000603769236153
0.00129593833748
0.000548223652779
0.00120124654968
0.000500637926141
0.00111751644958
0.000456390029001
0.00104271881836
0.000423692949063
0.00096710732388
0.000399480391098
0.000888775192636
0.000382197346844
0.000803737584341
0.000370847846562
0.000698385062274
0.000366410778567
0.000599768184792
0.000352550532257
0.0005088235677
0.000356021090546
0.000434761142063
0.000361394448133
0.000369670994949
0.000424825321109
0.000267206962002
0.000519620979252
0.000166531350717
0.000560836842084
8.48700040838e-05
0.000591451841873
0.000593006356005
0.000989622402074
-0.00574610822852
0.00203679184341
-0.00607659021947
0.00308088443219
-0.00605771336097
0.00411730801351
-0.00601403231524
0.00514335000422
-0.00595576517873
0.00615650088067
-0.00588356349445
0.00715437538271
-0.00579788741323
0.00813471493991
-0.00569927613161
0.00909538132184
-0.00558834788143
0.0100343788761
-0.00546577496718
0.0109498469749
-0.00533227227181
0.0118400816855
-0.0051885680072
0.012703517959
-0.00503539276646
0.0135387458996
-0.00487344763051
0.0143444801156
-0.00470339515815
0.0151195699427
-0.00452582665771
0.0158629560948
-0.00434125815117
0.0165736766174
-0.0041501004948
0.0172508129559
-0.00395266471472
0.0178934955803
-0.00374913854604
0.0185008440826
-0.00353960450034
0.0190719777753
-0.00332402450295
0.0196059548844
-0.00310227148772
0.020101792691
-0.00287412045225
0.020558409859
-0.00263929121061
0.0209746583097
-0.0023974425118
0.0213492702144
-0.00214822280919
0.0216809015155
-0.00189126520505
0.021968085113
-0.00162624601442
0.022209285685
-0.00135288117463
0.0224028607268
-0.00107098661505
0.0225471305077
-0.000780485092312
0.0226403510287
-0.000481476019238
0.022680801419
-0.000174239495046
0.0226667729685
0.000140687911594
0.022596675902
0.000462510461127
0.0224690459115
0.000790101072847
0.0222826682887
0.00112200825138
0.0220365989588
0.00145639694635
0.0217302987361
0.00179107431673
0.0213636616832
0.00212345234093
0.0209371491621
0.00245059847357
0.0204518168406
0.00276922504917
0.0199094383674
0.00307576628096
0.0193125244428
0.00336639763056
0.0186644274142
0.00363714287337
0.0179693427964
0.00388393365571
0.0172323766434
0.0041027635612
0.0164595013744
0.00428981121521
0.0156575389019
0.00444166177277
0.0148340152225
0.00455549819249
0.013997003323
0.00462935578654
0.0131548463056
0.00466229477777
0.0123158850494
0.00465455028777
0.01148813182
0.00460753725533
0.0106790166273
0.00452379224696
0.0098951475019
0.00440678327596
0.00914217690536
0.00426073560726
0.00842462768923
0.00409046337836
0.00774581131536
0.00390115528307
0.00710781366459
0.00369803945001
0.00651161886582
0.00348606791203
0.00595728459846
0.00326966238523
0.00544415900887
0.00305259734617
0.00497106383407
0.00283797824268
0.00453645250664
0.00262830292266
0.00413851036766
0.00242554532276
0.00377523565056
0.00223124333488
0.00344448712538
0.00204655887901
0.00314404146734
0.00187231980781
0.00287163793076
0.00170904569618
0.00262503202208
0.00155698018146
0.00240203398529
0.00141612539019
0.00220054786079
0.00128628071873
0.00201859851269
0.00116708127566
0.0018543575513
0.00105803703727
0.00170616136093
0.000958572306922
0.00157253212531
0.000868065174239
0.00145220158833
0.00078589009769
0.00134415443908
0.000711471806163
0.00124769171088
0.000644356353023
0.00116231216587
0.000585697614768
0.00107661752127
0.000541768738908
0.000995511414103
0.000504474775878
0.000916465554176
0.000478191173797
0.000831125019441
0.000467191051096
0.000750851459504
0.000450765160327
0.000675877298906
0.000441008395596
0.000583008439645
0.000445009484878
0.000479217891032
0.000459388751167
0.000369709292751
0.000470482683742
0.000298747894696
0.000495342302245
0.00023619281646
0.000581697930362
0.000146814665197
0.00064974524358
7.36295635174e-05
0.000664165779449
0.000666390890605
0.00100412886659
-0.00674800581661
0.00206614288396
-0.00713625319518
0.0031247902998
-0.0071140096486
0.00417547167715
-0.00706235907659
0.00521541091275
-0.00699335555008
0.00624201136307
-0.00690781806549
0.00725279967466
-0.00680633679873
0.00824544124473
-0.00668958510298
0.00921774142962
-0.00655832606355
0.0101676648124
-0.00641338697834
0.0110933342527
-0.0062556462178
0.011993046574
-0.00608600103547
0.0128652623347
-0.00590535164079
0.0137086136185
-0.00571456514414
0.0145218815189
-0.00551445953323
0.0153039943103
-0.0053057671827
0.016053992282
-0.00508912298785
0.0167710171899
-0.00486503292092
0.0174542675108
-0.00463387156487
0.0181029832732
-0.00439586184447
0.0187163980221
-0.00415108614885
0.0192937250585
-0.00389948046601
0.019834113735
-0.00364085888779
0.0203366422965
-0.00337492073389
0.0208002835894
-0.00310128383146
0.0212239061288
-0.00281949958493
0.0216062501379
-0.0025290896225
0.0219459359016
-0.00222956552744
0.0222414497383
-0.00192046949573
0.0224911589797
-0.00160139815928
0.0226933088011
-0.00127204389772
0.0228460498356
-0.000932235303536
0.0229474500125
-0.000581986904728
0.0229955395492
-0.000221542327062
0.0229883439984
0.000148569662566
0.0229239506259
0.00052748934271
0.0228005651729
0.000913975389328
0.0226165985183
0.00130636730241
0.022370744191
0.00170255310967
0.0220620773163
0.00209995270557
0.0216901433294
0.00249551494092
0.0212550577057
0.00288572999649
0.0207575946131
0.00326665977656
0.0201992785908
0.00363398024916
0.0195824667551
0.00398304294995
0.0189104303212
0.00430894902434
0.0181874274708
0.00460665300158
0.0174187612191
0.00487109418309
0.0166108101776
0.00509738562439
0.0157709996383
0.00528105635514
0.0149076965575
0.00541835683866
0.0140299895053
0.00550659217512
0.0131473719639
0.00554442266049
0.0122693493576
0.00553206819294
0.0114050336941
0.0054713325784
0.0105627880015
0.00536550510658
0.00974998037835
0.00521904000341
0.00897284855476
0.00503729788989
0.00823627296109
0.00482645087584
0.00754360487758
0.00459322011506
0.00689666224554
0.00434436864378
0.00629592123085
0.00408619354006
0.00574080795061
0.00382416315799
0.00523001751037
0.00356278705727
0.00476176757712
0.00330564120112
0.00433399012545
0.00305551361911
0.00394442940536
0.00281455780231
0.00359070653736
0.00258443954363
0.00327034297442
0.00236641299079
0.00298080940376
0.00216136245624
0.00271956811749
0.0019698106504
0.00248413500648
0.00179195364803
0.00227211602416
0.00162769797113
0.00208125244947
0.00147671417655
0.00190944255996
0.00133847427027
0.00175477361291
0.00121230506166
0.00161553520734
0.00109742305969
0.00149024943714
0.00099297875945
0.00137770017966
0.000898080179617
0.00127702351884
0.000811804615289
0.00118785197893
0.000733195837029
0.00111148436034
0.000661744989814
0.00103426562322
0.000618664052327
0.000953950930409
0.000584460370942
0.000871436291604
0.000560367504908
0.000793036386932
0.000545242312894
0.000705190181862
0.000538250486186
0.000618600166276
0.000527220085541
0.000525289723344
0.000537922526711
0.000439898882977
0.000544375562867
0.000341040376111
0.000568928335665
0.000245416437736
0.000590559840782
0.000196328421816
0.000630379374667
0.000128213554648
0.000717435140358
6.39476138487e-05
0.000728008124044
0.00073012354507
0.00102105176572
-0.00776683321054
0.00210069456987
-0.00821357161217
0.00317669603788
-0.00818766308424
0.00424433984659
-0.00812765948027
0.00530076995135
-0.00804744118225
0.00634328548061
-0.0079479939213
0.00736932002948
-0.00783003445618
0.00837645077826
-0.00769438581502
0.00936241865015
-0.00754197021153
0.0103251382166
-0.00737379394218
0.011262712589
-0.00719091913469
0.0121734364566
-0.00699444042736
0.0130558021834
-0.00678545035306
0.0139084915738
-0.00656501170812
0.0147303694511
-0.00633411975724
0.0155204618881
-0.00609367463006
0.016277935609
-0.00584444604424
0.0170020637977
-0.00558705269177
0.0176921937192
-0.00532193781355
0.0183477060379
-0.00504936328842
0.0189679778434
-0.00476940325631
0.0195523448817
-0.0044819565689
0.0201000688071
-0.00418675982476
0.0206103105838
-0.00388341414008
0.0210821073191
-0.00357141152353
0.0215143588154
-0.00325016657475
0.0219058129784
-0.0029190485604
0.0222550623444
-0.00257741248159
0.0225605358673
-0.00222463774718
0.0228205027783
-0.00186015854904
0.0230330715271
-0.00148350845175
0.0231962082727
-0.00109436972045
0.0233077495059
-0.000692630417868
0.0233654425514
-0.000278439598382
0.0233669807225
0.000147723188608
0.02331007296
0.00058498948476
0.0231925059832
0.00103203356023
0.0230122437436
0.00148702622957
0.0227675125757
0.00194758451712
0.0224569215583
0.00241075559026
0.0220795587676
0.00287299918366
0.0216351163271
0.00333021247409
0.0211239837242
0.00377774937658
0.0205473662838
0.0042104812168
0.0199073737904
0.00462284458487
0.0192071393668
0.00500892948708
0.0184509137701
0.00536256193111
0.0176441862677
0.0056774534862
0.0167937600648
0.00594739566557
0.0159077877167
0.00616657362966
0.0149956824878
0.00632997617018
0.0140678689367
0.0064338944317
0.0131353664505
0.00647639738509
0.0122092360651
0.00645765733093
0.0113000400244
0.00637997528462
0.0104173139536
0.00624766766418
0.00956936052305
0.00606640954662
0.00876321396029
0.00584283840243
0.00800426682152
0.00558477030161
0.0072959053334
0.00530093448279
0.00663950191087
0.00500011698256
0.00603473935991
0.00469029770652
0.00548011479198
0.00437813937701
0.00497340946826
0.00406885649121
0.00451205838414
0.00376637861548
0.00409335625017
0.00347362451584
0.00371455042148
0.00319279737111
0.00337284412016
0.00292560228303
0.00306538604035
0.00267334875994
0.00278928816089
0.00243695620745
0.0025416873651
0.00221692554812
0.0023198105355
0.00201335930646
0.00212102715658
0.00182602790784
0.00194288016415
0.00165442206599
0.0017831215553
0.00149781120817
0.0016397273949
0.00135529214685
0.00151091853926
0.00122584163168
0.00139516795598
0.00110835328505
0.00129120871653
0.00100168018454
0.00119801270758
0.000904654415051
0.00111451954853
0.000816357682583
0.00103917282469
0.000736769686332
0.000962562524637
0.000694950624571
0.00088909626568
0.000657596009336
0.00081590707682
0.000633217596841
0.000744721683904
0.000616078398873
0.0006667639106
0.000615844825553
0.000573074768999
0.00062053088061
0.000480131450281
0.00063048075807
0.000382159232763
0.000641957772169
0.00030932201295
0.000641379214238
0.00022674515892
0.000672751780518
0.00016093639809
0.000695808481196
0.000114938670051
0.000763053767664
5.56173859299e-05
0.000786951150479
0.000785544924589
0.00104061834946
-0.00880524299071
0.00214077754152
-0.00931140047141
0.0032369876579
-0.00928154513866
0.00432439084993
-0.00921272714275
0.00539999804957
-0.00912071656698
0.0064609913681
-0.00900665461403
0.00750468655171
-0.00887140047851
0.00852856248283
-0.00871593467764
0.00953027643002
-0.00854136358459
0.0105076877298
-0.00834889076866
0.0114588668404
-0.00813979529234
0.0123821108084
-0.00791539308184
0.0132759411525
-0.00767700750058
0.0141391070269
-0.00742592303402
0.0149705672543
-0.00716335165327
0.0157694775444
-0.00689038365109
0.0165351538042
-0.00660795671231
0.0172670433265
-0.00631681360796
0.0179646724632
-0.00601748479206
0.0186276081995
-0.00571026520247
0.0192554008001
-0.00539522008143
0.0198475473836
-0.005072188121
0.0204034438081
-0.00474081101192
0.0209223601731
-0.00440055865461
0.0214034102754
-0.00405077066242
0.0218455395883
-0.00369069001919
0.0222475092883
-0.00331950289448
0.0226078895422
-0.00293637205699
0.0229250516228
-0.00254047708454
0.0231971616802
-0.00213104719765
0.0234221800952
-0.0017074081344
0.0235978667193
-0.00126904231521
0.0237217959683
-0.000815649937089
0.0237913851344
-0.000347224213584
0.023803938762
0.000135871035577
0.0237567107265
0.000632815539447
0.0236469862923
0.00114225641746
0.0234721792121
0.00166223137199
0.0232299491852
0.00219011788662
0.0229183223135
0.00272258932991
0.0225358272799
0.00325561195336
0.0220816166215
0.00378444934326
0.021555599368
0.00430370983248
0.0209585496587
0.00480738935265
0.0202922349078
0.00528894424492
0.0195595327022
0.00574134300632
0.0187645922726
0.0061571519695
0.0179130015285
0.00652863504939
0.0170119770258
0.00684796313227
0.0160704879933
0.00710756436144
0.0150992448604
0.00730068995133
0.0141104193023
0.00742216510639
0.0131170800343
0.00746917015958
0.0121323755537
0.00744178523851
0.0111688023831
0.00734296598466
0.0102372887656
0.00717858899971
0.00934719851649
0.00695588575813
0.00850670041957
0.0066826936129
0.00772200695714
0.00636879318109
0.00699654354574
0.00602570751509
0.0063309213672
0.00566503712058
0.00572357077382
0.0052969505514
0.00517159094986
0.00492943062657
0.00467150497991
0.0045682761905
0.00421973993937
0.00421750212433
0.00381286309751
0.00387988853253
0.00344760456042
0.00355747168515
0.00312075791832
0.00325189011034
0.00282907848428
0.00296449247231
0.00256926771702
0.002696251904
0.00233806846498
0.00244762712302
0.00213237487403
0.00221857470849
0.00194927559217
0.00200866398772
0.0017860926243
0.00181716102907
0.00164040394535
0.00164307145851
0.00151006467615
0.00148522150707
0.00139321179817
0.00134230008663
0.00128827736556
0.00121291076607
0.00119398563588
0.00109560999187
0.00110934491433
0.00098894954098
0.00103345010818
0.000891919956614
0.000962935032101
0.00080696210072
0.000890199593421
0.000767358281786
0.000815492054172
0.00073197187248
0.000743515424387
0.000704857410582
0.000669359249924
0.000689892699138
0.00059754510998
0.000687302878518
0.000522352602291