/*--------------------------------*- C++ -*----------------------------------*\
| =========                 |                                                 |
| \\      /  F ield         | OpenFOAM: The Open Source CFD Toolbox           |
|  \\    /   O peration     | Version:  v1906                                 |
|   \\  /    A nd           | Web:      www.OpenFOAM.com                      |
|    \\/     M anipulation  |                                                 |
\*---------------------------------------------------------------------------*/
FoamFile
{
    version     2.0;
    format      ascii;
    class       volVectorField;
    location    "160";
    object      Ua;
}
// * * * * * * * * * * * * * * * * * * * * * * * * * * * * * * * * * * * * * //

dimensions      [0 1 -1 0 0 0 0];


internalField   nonuniform List<vector> 
9216
(
(-0.0105853410348 0.0105894006449 0)
(-0.0111763617878 0.0341749333763 4.0946993824e-27)
(-0.0111814039894 0.0581388121268 -7.22298698555e-31)
(-0.0110918340614 0.0821360593655 0)
(-0.0109611772152 0.105772858967 0)
(-0.0107959179647 0.128961118137 0)
(-0.0105972513423 0.151606791682 0)
(-0.0103712993265 0.173622124085 0)
(-0.0101168767606 0.194929379147 0)
(-0.00984030876339 0.215457462434 0)
(-0.00953993254963 0.235145086436 0)
(-0.00922252735323 0.253938311118 0)
(-0.00888610808701 0.27179265175 0)
(-0.00853766417442 0.288671299351 0)
(-0.00817492190538 0.304546025632 0)
(-0.00780481530323 0.319396121981 0)
(-0.00742482038302 0.333208166689 0)
(-0.00704158362147 0.345975775758 0)
(-0.00665242649601 0.357698338382 0)
(-0.00626353964826 0.368381603516 0)
(-0.00587220912951 0.378035541933 0)
(-0.00548404340333 0.386675763827 0)
(-0.00509643760094 0.394320641086 0)
(-0.00471433601077 0.400993489609 0)
(-0.00433537791719 0.406719103509 0)
(-0.00396378534418 0.411526599831 0)
(-0.00359755703144 0.41544549442 0)
(-0.0032401453578 0.418509053327 0)
(-0.00288999734901 0.420750045525 0)
(-0.00254975973716 0.422204492009 0)
(-0.00221839313985 0.422907151257 0)
(-0.00189770488617 0.422895613716 0)
(-0.00158707110981 0.422205683612 0)
(-0.00128743748497 0.420874993196 0)
(-0.000998850644116 0.418939141507 0)
(-0.000721437841218 0.41643551922 0)
(-0.000455748555635 0.413398830723 0)
(-0.000201085060292 0.40986521671 0)
(4.14738998711e-05 0.405867859006 0)
(0.000273404972861 0.401441005888 0)
(0.000493106631161 0.396615805135 0)
(0.000702783027646 0.391424138043 0)
(0.000900333937529 0.385894722643 0)
(0.00108862343835 0.380056745318 0)
(0.00126507009 0.373936283549 0)
(0.00143312718643 0.367559625601 0)
(0.00158976219503 0.360950089014 0)
(0.00173894454148 0.354131018314 0)
(0.00187721549619 0.347122995058 0)
(0.00200896857379 0.339946476266 0)
(0.00213036304435 0.332619434122 0)
(0.00224613233837 0.325159618768 0)
(0.00235209172389 0.317582635467 0)
(0.00245322443063 0.309903778025 0)
(0.00254505821306 0.302136579826 0)
(0.00263274433918 0.294294212528 0)
(0.0027115816225 0.286388496691 0)
(0.00278680407526 0.278430820041 0)
(0.00285355521653 0.270431644875 0)
(0.00291708697119 0.262400942593 0)
(0.00297246671023 0.254348145086 0)
(0.00302489207032 0.246282107752 0)
(0.00306943998253 0.238211504567 0)
(0.00311120416832 0.230144331432 0)
(0.00314535760197 0.222088704533 0)
(0.00317683886419 0.21405191433 0)
(0.00320099599271 0.206041608592 0)
(0.0032225771431 0.198064456213 0)
(0.00323718616212 0.190127656156 0)
(0.0032493425326 0.182237220582 0)
(0.00325497244908 0.174399795437 0)
(0.00325833491528 0.166620660247 0)
(0.00325572380013 0.158905768422 0)
(0.00325111381119 0.151259518099 0)
(0.00324120534833 0.143686970778 0)
(0.00322966134541 0.136191478219 0)
(0.0032136023822 0.128777019206 0)
(0.00319635884516 0.121445733081 0)
(0.00317547301524 0.114200333514 0)
(0.00315392133616 0.107041623843 0)
(0.00312964353744 0.0999709408403 0)
(0.00310522969146 0.0929877128453 0)
(0.00307897359462 0.0860919149013 0)
(0.00305301509082 0.0792817419053 0)
(0.00302587728171 0.0725561059766 0)
(0.00299906115911 0.0659125831084 0)
(0.0029708998221 0.0593501676292 0)
(0.00294142076793 0.0528681412509 0)
(0.00290693805523 0.0464699907876 0)
(0.0028621213109 0.0401667175997 0)
(0.0027914145367 0.0339887111087 0)
(0.00264719696689 0.0280456033352 0)
(0.00233188363077 0.0220796312816 0)
(0.00229904379506 0.0166172695508 0)
(0.00343130763167 0.0124030227021 0)
(0.00523604116322 0.00523559416513 0)
(-0.0342574430488 0.01125730293 0)
(-0.0378832502678 0.038140556873 0)
(-0.0378257607685 0.0649660493034 -4.29846273784e-27)
(-0.0373630955406 0.0918541746535 0)
(-0.0367142952929 0.118303448601 0)
(-0.035909060605 0.144237207245 0)
(-0.0349562755635 0.169555435587 0)
(-0.0338735131033 0.194162388189 0)
(-0.0326683861734 0.217971027571 0)
(-0.0313601820918 0.240902547289 0)
(-0.0299566471774 0.262888153904 0)
(-0.0284781081449 0.283868159833 0)
(-0.0269318086332 0.303792919838 0)
(-0.0253379838871 0.322621947831 0)
(-0.0237027428665 0.340324119723 0)
(-0.0220452583462 0.356876916686 0)
(-0.0203701093367 0.372266030283 0)
(-0.0186947222811 0.386484852696 0)
(-0.0170220430457 0.399533564934 0)
(-0.0153673567706 0.411418953551 0)
(-0.0137321070526 0.422153096373 0)
(-0.0121292880032 0.431753597656 0)
(-0.0105591394216 0.440241943783 0)
(-0.00903237348645 0.447644139018 0)
(-0.0075483847841 0.453988851113 0)
(-0.00611568480827 0.459308380244 0)
(-0.00473316530843 0.46363664697 0)
(-0.00340723810539 0.467010454884 0)
(-0.00213657375651 0.469467326513 0)
(-0.000925579048561 0.471046994668 0)
(0.000227065966463 0.471789188646 0)
(0.00131886430697 0.471735157856 0)
(0.00235104954537 0.470925442814 0)
(0.00332300865751 0.469402031539 0)
(0.00423558392966 0.467205516181 0)
(0.0050897829357 0.464377053064 0)
(0.00588607345258 0.460956215042 0)
(0.00662700502536 0.45698269917 0)
(0.00731254128515 0.45249430448 0)
(0.00794661204143 0.447528608311 0)
(0.00852859875043 0.442121050392 0)
(0.00906363910582 0.436306560113 0)
(0.00955047382072 0.430117813486 0)
(0.00999526797805 0.423586750264 0)
(0.0103960773398 0.416742994643 0)
(0.0107599208412 0.409615297811 0)
(0.0110841447988 0.402230104368 0)
(0.0113764389406 0.394612911694 0)
(0.0116334168801 0.386787034443 0)
(0.0118632671137 0.378774789151 0)
(0.0120618891091 0.370596495516 0)
(0.0122377879429 0.362271498746 0)
(0.0123861735178 0.353817386566 0)
(0.0125157193632 0.345250833482 0)
(0.0126209994109 0.336587037235 0)
(0.0127107136752 0.327840376781 0)
(0.0127788888823 0.319024057194 0)
(0.012834131862 0.310150562619 0)
(0.0128700377365 0.301231514034 0)
(0.0128950378088 0.292277890656 0)
(0.0129024351565 0.283300111821 0)
(0.0129004160968 0.274308022109 0)
(0.0128821555372 0.265311139835 0)
(0.0128555581303 0.256318448627 0)
(0.0128138373367 0.247338782957 0)
(0.0127645885331 0.238380467197 0)
(0.0127012339346 0.229451772191 0)
(0.0126310470611 0.220560389276 0)
(0.0125478185215 0.211714066589 0)
(0.0124584876635 0.202919829387 0)
(0.012357347072 0.194184799686 0)
(0.0122509891475 0.185515239728 0)
(0.0121342941665 0.176917463489 0)
(0.0120134970474 0.168396796824 0)
(0.0118841452841 0.159958539395 0)
(0.0117520684287 0.151606868901 0)
(0.0116135019098 0.143345855828 0)
(0.0114738483719 0.135178333818 0)
(0.0113300118639 0.127106934302 0)
(0.0111869155508 0.119132992263 0)
(0.0110420753363 0.111257576758 0)
(0.0108998203734 0.103480411246 0)
(0.0107581491411 0.0958010115703 0)
(0.010620632186 0.0882175858959 0)
(0.0104854160226 0.0807282398043 0)
(0.0103548009442 0.0733300296092 0)
(0.0102260481407 0.0660202057244 0)
(0.0100982320529 0.0587955829497 0)
(0.00996375327444 0.0516535908524 0)
(0.00981049512697 0.0445917608795 0)
(0.00960721301323 0.0376073680231 0)
(0.00928545274111 0.0306993077067 0)
(0.00867350684137 0.0237118901436 0)
(0.00817259911346 0.016145570876 0)
(0.0104565999943 0.0104231625678 0)
(0.0123797960141 0.00341567911669 0)
(-0.0586277612568 0.0113972286451 0)
(-0.0649294803802 0.038736141392 0)
(-0.064762607204 0.0658778314648 -4.30224456632e-27)
(-0.0639593299039 0.0931355384648 0)
(-0.0628649586103 0.119944871997 0)
(-0.0615133578085 0.146224430346 0)
(-0.0599206181605 0.171870360244 0)
(-0.0581083495188 0.196785130601 0)
(-0.0560952989435 0.220879903129 0)
(-0.0539062478862 0.244074958491 0)
(-0.051561495532 0.266300580628 0)
(-0.0490869637143 0.287496877497 0)
(-0.046502755008 0.307614090341 0)
(-0.043834159703 0.326612142584 0)
(-0.0410996911185 0.344460452795 0)
(-0.0383226507033 0.361137357072 0)
(-0.035519044898 0.376629550643 0)
(-0.0327093341981 0.390931510712 0)
(-0.0299065900978 0.40404467902 0)
(-0.0271280478096 0.415976975925 0)
(-0.0243838453538 0.426741863923 0)
(-0.021688004198 0.4363579962 0)
(-0.0190480251107 0.444848242871 0)
(-0.0164749604891 0.452239521429 0)
(-0.0139740998361 0.45856182111 0)
(-0.0115538430721 0.463848209438 0)
(-0.0092176856911 0.468133876175 0)
(-0.00697166440254 0.471456246804 0)
(-0.00481782519242 0.473854050769 0)
(-0.0027600813601 0.47536758411 0)
(-0.000799284621539 0.476037701327 0)
(0.00106259627923 0.475906227432 0)
(0.00282567030093 0.475014904684 0)
(0.00448966979236 0.473405878753 0)
(0.00605548595896 0.471120730525 0)
(0.00752442489783 0.468200904663 0)
(0.00889794046563 0.464686879428 0)
(0.0101786645865 0.460618589824 0)
(0.0113684350425 0.456034633651 0)
(0.0124710093961 0.450972750961 0)
(0.0134884365296 0.44546908048 0)
(0.0144253743013 0.439558650732 0)
(0.0152839089514 0.433274715725 0)
(0.0160693849531 0.426649243561 0)
(0.0167837900389 0.41971234292 0)
(0.017432952528 0.412492704659 0)
(0.0180185984148 0.405017158088 0)
(0.0185468353869 0.397311114825 0)
(0.0190190075006 0.389398133857 0)
(0.0194413065992 0.381300387114 0)
(0.0198145920489 0.373038365994 0)
(0.0201449669631 0.364631243214 0)
(0.0204327252726 0.356096659073 0)
(0.0206837328392 0.347451117156 0)
(0.0208976798624 0.338709809074 0)
(0.0210800969255 0.329886939258 0)
(0.0212300803779 0.32099565655 0)
(0.0213527547589 0.312048292446 0)
(0.0214466782834 0.303056378512 0)
(0.0215165589639 0.294030801973 0)
(0.0215605149046 0.284981876227 0)
(0.0215828667626 0.275919406112 0)
(0.0215814367567 0.266852815324 0)
(0.0215602222682 0.257791117675 0)
(0.0215169045531 0.248743083343 0)
(0.0214552406355 0.239717118968 0)
(0.0213729512736 0.230721452747 0)
(0.0212736447446 0.2217639423 0)
(0.0211552359639 0.212852294564 0)
(0.0210212671099 0.203993778597 0)
(0.0208699792467 0.195195456641 0)
(0.0207049118728 0.186463905547 0)
(0.0205247345002 0.177805396172 0)
(0.0203330119133 0.16922553565 0)
(0.0201288935201 0.160729618956 0)
(0.0199159723881 0.152322105929 0)
(0.0196938795596 0.144006997401 0)
(0.0194661996447 0.135787396752 0)
(0.0192330015507 0.127665838959 0)
(0.018997771712 0.119643829455 0)
(0.0187609280699 0.111722336203 0)
(0.0185257261535 0.103901175377 0)
(0.0182927242769 0.0961795614518 0)
(0.0180646967701 0.0885556349256 0)
(0.0178419556648 0.081026867438 0)
(0.017626207989 0.0735896692802 0)
(0.0174165114925 0.0662396876479 0)
(0.0172118764631 0.0589711123339 0)
(0.0170072766931 0.0517760446325 0)
(0.0167943422124 0.0446415168685 0)
(0.0165566610142 0.0375450944338 0)
(0.0162663567836 0.0304372440949 0)
(0.0158785071935 0.0231736209271 0)
(0.0155378275317 0.0154531033348 0)
(0.0161433574963 0.0081027786235 0)
(0.0165238190639 0.00227850698453 0)
(-0.0835408682972 0.0115140664892 0)
(-0.0925925512591 0.0392761437793 0)
(-0.0923469433615 0.0667361468829 4.30024150884e-27)
(-0.0911870947132 0.0943349453284 0)
(-0.0896107413674 0.121471747138 0)
(-0.0876657028552 0.148060752404 0)
(-0.0853771244363 0.173994085659 0)
(-0.0827736746502 0.199171623606 0)
(-0.0798849505469 0.223502560032 0)
(-0.0767440321838 0.246906048549 0)
(-0.0733831584981 0.269311727214 0)
(-0.0698367646047 0.290659736321 0)
(-0.0661369477846 0.310900748562 0)
(-0.0623169478692 0.329995615176 0)
(-0.0584065660195 0.347914987018 0)
(-0.0544359827867 0.364638718952 0)
(-0.0504312858503 0.38015524041 0)
(-0.0464184898124 0.39446084112 0)
(-0.0424192811378 0.407558895543 0)
(-0.0384550986272 0.419459169689 0)
(-0.0345431824742 0.43017701647 0)
(-0.0307005440882 0.439732780474 0)
(-0.0269403702157 0.448151051865 0)
(-0.0232757206019 0.455460190869 0)
(-0.0197163185835 0.461691697412 0)
(-0.0162718199567 0.466879851523 0)
(-0.0129490357917 0.471061132306 0)
(-0.0097546941381 0.474274007907 0)
(-0.00669315523014 0.476558360428 0)
(-0.0037685818932 0.477955356166 0)
(-0.000983200401993 0.478506906846 0)
(0.00166110340458 0.478255572822 0)
(0.00416393998409 0.477244051686 0)
(0.00652541270634 0.475515074516 0)
(0.0087466997958 0.473111011513 0)
(0.0108296450389 0.470073832814 0)
(0.0127766939616 0.466444673463 0)
(0.0145911217399 0.462263872501 0)
(0.0162763707857 0.457570554986 0)
(0.0178368626279 0.452402747302 0)
(0.0192767651547 0.446797012806 0)
(0.0206013591823 0.44078854271 0)
(0.0218152811742 0.434410920617 0)
(0.0229243967052 0.427696141746 0)
(0.0239335538654 0.420674491315 0)
(0.0248489466982 0.413374666638 0)
(0.0256753895737 0.405823533371 0)
(0.0264191448571 0.398046382016 0)
(0.0270847854445 0.390066748737 0)
(0.0276784067405 0.381906611509 0)
(0.028204133491 0.373586319893 0)
(0.0286676946467 0.365124785635 0)
(0.0290726125218 0.356539460648 0)
(0.0294240751436 0.347846543642 0)
(0.0297248955879 0.339060952417 0)
(0.0299796216336 0.330196585026 0)
(0.030190331485 0.321266316887 0)
(0.0303608919925 0.312282178226 0)
(0.0304926600148 0.303255436656 0)
(0.0305888552992 0.294196723048 0)
(0.0306502179742 0.285116118883 0)
(0.0306794133847 0.276023242518 0)
(0.0306767177698 0.266927341498 0)
(0.0306443879412 0.257837323271 0)
(0.030582412289 0.248761846868 0)
(0.0304928116325 0.239709316351 0)
(0.0303755189542 0.230687910095 0)
(0.0302324881476 0.221705551912 0)
(0.0300637619825 0.212769971253 0)
(0.0298713922463 0.203888576318 0)
(0.029655705935 0.195068510582 0)
(0.0294189559669 0.186316516695 0)
(0.0291618750441 0.177638963953 0)
(0.028887009178 0.169041721268 0)
(0.028595541797 0.160530129535 0)
(0.0282903223773 0.152108883836 0)
(0.0279729834824 0.143782067901 0)
(0.0276466273597 0.135552973685 0)
(0.0273132759754 0.127424165705 0)
(0.0269761761978 0.119397311261 0)
(0.0266375941147 0.111473260955 0)
(0.0263007827328 0.103651898354 0)
(0.0259680198173 0.09593220204 0)
(0.0256422636702 0.0883121938288 0)
(0.0253254571598 0.0807888108848 0)
(0.025019798159 0.0733579520172 0)
(0.0247262373616 0.0660141281118 0)
(0.0244453008833 0.0587499197835 0)
(0.0241760730209 0.0515554091788 0)
(0.0239167795437 0.0444152318822 0)
(0.0236669095342 0.037307015629 0)
(0.0234319945131 0.0301924092467 0)
(0.0232411582515 0.0230071039327 0)
(0.0232253176275 0.0156714947208 0)
(0.0236462821718 0.00853998933273 0)
(0.0219602925181 0.00230645712485 0)
(-0.108823448066 0.0116629666122 0)
(-0.120629571261 0.0399806516185 0)
(-0.120300317056 0.0678811091668 0)
(-0.118771301305 0.0959359265635 0)
(-0.116694343843 0.123508028801 0)
(-0.114132986631 0.150506830774 0)
(-0.11112179888 0.176819757333 0)
(-0.107698365075 0.202343172782 0)
(-0.103903019983 0.226983694453 0)
(-0.0997789282218 0.250658923566 0)
(-0.0953698804662 0.273297754679 0)
(-0.0907205600709 0.294840412528 0)
(-0.085874428756 0.315238307863 0)
(-0.0808743026249 0.334453636167 0)
(-0.0757604103998 0.352458847777 0)
(-0.0705712853694 0.369235982617 0)
(-0.0653420473273 0.384775898303 0)
(-0.0601055482919 0.399077460467 0)
(-0.0548909158401 0.412146693343 0)
(-0.0497248859902 0.423995961203 0)
(-0.0446305848485 0.43464316352 0)
(-0.0396289463058 0.44411100174 0)
(-0.0347376835222 0.45242631169 0)
(-0.0299726691425 0.459619495941 0)
(-0.0253470276874 0.465723949539 0)
(-0.020872353973 0.470775665358 0)
(-0.0165579313 0.474812737559 0)
(-0.0124117492505 0.477875104439 0)
(-0.00843981241463 0.480004058608 0)
(-0.00464695725277 0.481242035939 0)
(-0.00103630713834 0.481632196191 0)
(0.00239009748297 0.481218235193 0)
(0.00563165998574 0.480043926908 0)
(0.00868878867597 0.478152960452 0)
(0.011563055957 0.475588629384 0)
(0.0142569562008 0.472393695522 0)
(0.0167738602336 0.468610071364 0)
(0.0191179786574 0.464278702015 0)
(0.021294115233 0.459439359741 0)
(0.0233078137922 0.454130491779 0)
(0.0251649560207 0.448389155302 0)
(0.0268720627229 0.442250793253 0)
(0.0284357418597 0.435749306256 0)
(0.0298631558881 0.42891685161 0)
(0.0311612801953 0.421783879354 0)
(0.0323375805345 0.414379081846 0)
(0.0333991119461 0.406729356755 0)
(0.0343533156576 0.398859884227 0)
(0.0352070082762 0.390794044419 0)
(0.0359673123974 0.382553601137 0)
(0.0366405347412 0.37415865902 0)
(0.0372332289205 0.365627805769 0)
(0.0377509657213 0.35697816483 0)
(0.0381995210792 0.348225526418 0)
(0.0385835771789 0.339384463385 0)
(0.0389079938625 0.330468411015 0)
(0.0391765065877 0.321489859985 0)
(0.0393930451012 0.312460427896 0)
(0.0395603993594 0.303391003199 0)
(0.0396816201482 0.294291860877 0)
(0.0397586880024 0.285172763977 0)
(0.0397939159672 0.27604305725 0)
(0.0397886573324 0.266911758829 0)
(0.0397446886643 0.257787606977 0)
(0.0396629562921 0.24867915086 0)
(0.0395450066073 0.239594740886 0)
(0.039391675409 0.23054249142 0)
(0.039204431349 0.221530408038 0)
(0.0389842124672 0.212566286536 0)
(0.0387327099878 0.203657682191 0)
(0.0384511903511 0.194811890276 0)
(0.0381416771919 0.186035863332 0)
(0.0378059180528 0.177336178565 0)
(0.0374464305054 0.168718919329 0)
(0.0370654949454 0.160189642567 0)
(0.0366661028327 0.151753269128 0)
(0.0362510648534 0.143414078655 0)
(0.0358238302664 0.135175558803 0)
(0.0353876526023 0.127040389341 0)
(0.0349462805883 0.119010363239 0)
(0.034503252146 0.11108635976 0)
(0.034062452281 0.103268267583 0)
(0.0336274595462 0.0955550097861 0)
(0.0332020024461 0.0879443738827 0)
(0.032789402325 0.0804330606398 0)
(0.0323929041373 0.0730164920174 0)
(0.032015271027 0.0656886918601 0)
(0.0316590219763 0.0584418537313 0)
(0.0313265580216 0.0512656690259 0)
(0.0310214527684 0.0441470885119 0)
(0.0307498062894 0.037067910619 0)
(0.0305268728939 0.0300080072379 0)
(0.0303846217055 0.0229464928345 0)
(0.0303874964107 0.0158806657856 0)
(0.0304906809192 0.00903658565553 0)
(0.0277773988408 0.00259230679556 0)
(-0.134605173263 0.0118479021918 0)
(-0.149204524841 0.0408760966045 0)
(-0.14878117286 0.0693452704375 0)
(-0.146863021982 0.0979849041271 0)
(-0.144258728406 0.126113409294 0)
(-0.141048781813 0.15363459311 0)
(-0.137277992771 0.180430258764 0)
(-0.132994358148 0.206392396201 0)
(-0.12824969512 0.231424487571 0)
(-0.123098689731 0.255442215522 0)
(-0.117597210775 0.278373684571 0)
(-0.111801478569 0.300159352238 0)
(-0.105766587195 0.320751749737 0)
(-0.0995459968908 0.340114930855 0)
(-0.0931903722187 0.358223828035 0)
(-0.08674741989 0.375063405777 0)
(-0.0802610372365 0.390627764003 0)
(-0.073771495126 0.404919181455 0)
(-0.0673149017835 0.417947152606 0)
(-0.0609236603241 0.429727433718 0)
(-0.0546262018387 0.440281185243 0)
(-0.0484476174661 0.44963416712 0)
(-0.0424095480024 0.457816030699 0)
(-0.0365308468206 0.464859758718 0)
(-0.0308274969113 0.470801089754 0)
(-0.0253131992953 0.475678141919 0)
(-0.0199992785054 0.479531034496 0)
(-0.0148951250644 0.48240149461 0)
(-0.0100080658915 0.484332577438 0)
(-0.00534370998909 0.485368323945 0)
(-0.000905837424727 0.48555342826 0)
(0.00330332789933 0.484933042697 0)
(0.00728315594418 0.483552238134 0)
(0.0110343906336 0.481455944382 0)
(0.0145591171674 0.478688620385 0)
(0.0178605908808 0.475294037435 0)
(0.0209431536934 0.471315059399 0)
(0.0238121216616 0.466793417937 0)
(0.026473639261 0.461769644312 0)
(0.0289346182998 0.456282762524 0)
(0.0312025540885 0.450370365487 0)
(0.0332855145747 0.444068332571 0)
(0.0351919028607 0.437410877941 0)
(0.036930527146 0.430430413012 0)
(0.0385102980261 0.423157543763 0)
(0.0399403462883 0.415620977285 0)
(0.0412296857477 0.407847607246 0)
(0.0423873843223 0.399862470959 0)
(0.0434221875077 0.391688788026 0)
(0.0443427199324 0.383348044075 0)
(0.0451570968664 0.37485997922 0)
(0.0458731840364 0.366242790645 0)
(0.0464981856225 0.357513151784 0)
(0.0470389613099 0.34868635755 0)
(0.047501599865 0.339776467382 0)
(0.0478917828662 0.330796375211 0)
(0.0482143867801 0.321758042266 0)
(0.0484738948898 0.312672556014 0)
(0.0486740015462 0.303550326811 0)
(0.0488180548971 0.294401135685 0)
(0.0489087310763 0.28523436697 0)
(0.0489484166445 0.276058981798 0)
(0.0489389630949 0.266883700491 0)
(0.0488821827982 0.257717162025 0)
(0.0487793993798 0.248567579925 0)
(0.0486320836311 0.239443272043 0)
(0.0484414259784 0.230352363168 0)
(0.0482088300219 0.22130295985 0)
(0.0479356332765 0.21230293171 0)
(0.047623554937 0.203360028454 0)
(0.04727434145 0.194481770144 0)
(0.0468901743557 0.185675368541 0)
(0.0464734024137 0.176947637506 0)
(0.0460268669053 0.168304981693 0)
(0.0455536161491 0.159753288977 0)
(0.0450571397592 0.151297748901 0)
(0.0445411119726 0.142942883625 0)
(0.044009640862 0.134692414518 0)
(0.0434670061602 0.126549266536 0)
(0.042917762678 0.11851537655 0)
(0.0423665197945 0.110591689017 0)
(0.0418181032221 0.102778179817 0)
(0.0412772415864 0.0950736702291 0)
(0.0407487132775 0.0874758705023 0)
(0.0402371334819 0.0799813237073 0)
(0.0397470256229 0.0725852691485 0)
(0.0392826941222 0.0652815163994 0)
(0.0388484901139 0.058062432974 0)
(0.0384490758934 0.0509183341957 0)
(0.038090976243 0.0438385511602 0)
(0.0377820776137 0.0368097122274 0)
(0.0375356192266 0.0298200682418 0)
(0.037373047923 0.0228640786218 0)
(0.0373135416272 0.0159470202036 0)
(0.0371833209165 0.00922197541114 0)
(0.0335150224451 0.00270406418029 0)
(-0.161008428429 0.0120734677524 0)
(-0.178457676232 0.0419784016423 0)
(-0.177925474685 0.0711499563656 4.32409672166e-27)
(-0.175591217282 0.100510597836 0)
(-0.172424518657 0.129323575733 0)
(-0.168524116237 0.157485725062 0)
(-0.163946269064 0.184872064735 0)
(-0.158750916777 0.21136933063 0)
(-0.153002625807 0.236877296992 0)
(-0.146769062334 0.261309483528 0)
(-0.140119244628 0.28459323945 0)
(-0.133122144715 0.306669554163 0)
(-0.125845247846 0.327492560739 0)
(-0.118353576543 0.347028876758 0)
(-0.110708655789 0.365256705184 0)
(-0.102967940166 0.382164837844 0)
(-0.0951842105965 0.397751561674 0)
(-0.0874054168768 0.412023533611 0)
(-0.0796744650271 0.424994630261 0)
(-0.0720294405502 0.43668489894 0)
(-0.0645037173596 0.44711954905 0)
(-0.0571264114388 0.456328087514 0)
(-0.0499226739702 0.464343597685 0)
(-0.0429141798222 0.471202134973 0)
(-0.0361194072277 0.476942223115 0)
(-0.0295540775332 0.481604518349 0)
(-0.0232312854814 0.48523146253 0)
(-0.0171617780749 0.487866966398 0)
(-0.0113540160361 0.489556130894 0)
(-0.0058143467348 0.490344926487 0)
(-0.000547041779385 0.490279902769 0)
(0.0044455494412 0.48940792699 0)
(0.00916289771617 0.487775682641 0)
(0.0136061645308 0.485429596153 0)
(0.0177780802242 0.48241550175 0)
(0.0216827821667 0.478778420978 0)
(0.0253256930922 0.474562312984 0)
(0.0287133705917 0.469809920819 0)
(0.0318533815005 0.464562600126 0)
(0.0347541574995 0.458860153644 0)
(0.0374248483785 0.452740769385 0)
(0.0398752375691 0.446240863155 0)
(0.04211557483 0.43939504364 0)
(0.0441564893139 0.432235971122 0)
(0.0460088269046 0.424794424267 0)
(0.0476835877448 0.41709919586 0)
(0.0491917430821 0.409177139076 0)
(0.0505441826206 0.40105310538 0)
(0.0517515366796 0.392750087657 0)
(0.0528241470571 0.384289208628 0)
(0.0537718782471 0.375689811836 0)
(0.0546041185959 0.366969591939 0)
(0.0553296042394 0.358144622851 0)
(0.0559564627361 0.349229598713 0)
(0.0564920634424 0.340237925643 0)
(0.0569430701166 0.331181820991 0)
(0.0573153455787 0.322072594946 0)
(0.0576140632359 0.312920638707 0)
(0.0578436207179 0.303735760783 0)
(0.0580077633352 0.294527170264 0)
(0.0581096011505 0.285303697547 0)
(0.0581518116317 0.276074058556 0)
(0.0581364691416 0.266846347146 0)
(0.0580654462679 0.257628941588 0)
(0.0579402525823 0.248429964569 0)
(0.0577622916964 0.239257587497 0)
(0.0575329280352 0.230120046251 0)
(0.0572535725245 0.221025430983 0)
(0.0569257385184 0.211981781861 0)
(0.0565512655374 0.20299711862 0)
(0.0561321922461 0.194079226765 0)
(0.0556709721835 0.185235656276 0)
(0.055170420695 0.176473585928 0)
(0.0546337997518 0.167799805505 0)
(0.0540647600673 0.159220485485 0)
(0.0534674673569 0.15074131524 0)
(0.0528463980499 0.142367113506 0)
(0.0522064622301 0.134101944386 0)
(0.0515528523048 0.125948906378 0)
(0.0508911028036 0.117910231594 0)
(0.0502268967858 0.109986988517 0)
(0.0495661112147 0.102179225791 0)
(0.0489146683374 0.094485813285 0)
(0.0482784795425 0.0869043865725 0)
(0.0476634232121 0.079431407001 0)
(0.0470753068141 0.0720620092883 0)
(0.0465198709407 0.064790064076 0)
(0.0460028897888 0.057608056892 0)
(0.0455304845534 0.0505071659112 0)
(0.045109990898 0.0434778555558 0)
(0.0447501021746 0.0365105707392 0)
(0.044460275249 0.0295962194863 0)
(0.0442520741683 0.0227309595353 0)
(0.0441254857347 0.0159145828885 0)
(0.0438496850295 0.0092627542056 0)
(0.0393911251754 0.00273772232563 0)
(-0.188166335555 0.0123432543318 0)
(-0.20853664488 0.0433047791024 0)
(-0.20787698488 0.0733210403969 -4.32179028598e-27)
(-0.205092348443 0.103548110627 0)
(-0.201318893071 0.133181751201 0)
(-0.196675359063 0.162110261464 0)
(-0.191231127249 0.190200506766 0)
(-0.185059898899 0.21733303775 0)
(-0.178240700332 0.243403408952 0)
(-0.170855876926 0.268322822786 0)
(-0.162989041654 0.292018066626 0)
(-0.154723276297 0.31443109529 0)
(-0.146139528821 0.335518358992 0)
(-0.137315339771 0.355249875631 0)
(-0.128323733813 0.373608120775 0)
(-0.119232460582 0.390586790978 0)
(-0.110103409186 0.406189489677 0)
(-0.100992351486 0.420428351287 0)
(-0.091948863765 0.433322732913 0)
(-0.0830165409549 0.444897939108 0)
(-0.0742333168642 0.4551840956 0)
(-0.0656320068364 0.464215193122 0)
(-0.0572408163714 0.472028358653 0)
(-0.0490839162311 0.478663155792 0)
(-0.0411819442346 0.484161350258 0)
(-0.0335524162671 0.488566443752 0)
(-0.0262099789881 0.491923517347 0)
(-0.0191666294332 0.494278957202 0)
(-0.0124318104429 0.495680221896 0)
(-0.00601252817946 0.49617551371 0)
(8.65759555735e-05 0.495813524069 0)
(0.00586312902547 0.49464321054 0)
(0.0113168312968 0.492713079492 0)
(0.0164494056567 0.490071363788 0)
(0.0212643659177 0.486765475661 0)
(0.0257668736151 0.482841907757 0)
(0.0299635685636 0.478345916137 0)
(0.0338624043587 0.473321400266 0)
(0.0374724825588 0.46781069917 0)
(0.0408038924396 0.461854507113 0)
(0.0438675649284 0.455491733925 0)
(0.046675139303 0.448759355313 0)
(0.0492388064167 0.4416924342 0)
(0.0515711706638 0.434323980927 0)
(0.053685102236 0.426684967519 0)
(0.055593614942 0.418804221415 0)
(0.057309715538 0.410708532804 0)
(0.058846271767 0.402422598554 0)
(0.0602158625646 0.393969084449 0)
(0.0614306930529 0.385368715512 0)
(0.0625024075652 0.376640273072 0)
(0.0634420528148 0.367800854839 0)
(0.0642599131187 0.358865828944 0)
(0.0649654853068 0.349849156979 0)
(0.0655673804394 0.340763379948 0)
(0.0660733247392 0.331619970981 0)
(0.0664900959373 0.322429332416 0)
(0.0668235941699 0.313201109536 0)
(0.0670787611614 0.303944316986 0)
(0.0672598074009 0.294667543378 0)
(0.0673702010108 0.285378952477 0)
(0.0674127496131 0.276086451869 0)
(0.0673897030164 0.266797996996 0)
(0.0673028871794 0.257521516704 0)
(0.067153820333 0.248264992685 0)
(0.0669438660522 0.239036513062 0)
(0.0666743254165 0.229844148968 0)
(0.0663466348844 0.2206962928 0)
(0.0659623475907 0.211601112613 0)
(0.0655233801871 0.202566932422 0)
(0.0650320013574 0.193601958085 0)
(0.0644908863287 0.184714033092 0)
(0.063903272572 0.17591091003 0)
(0.0632728874966 0.167199800956 0)
(0.0626039843654 0.158587409475 0)
(0.0619013762935 0.150079793599 0)
(0.0611703774106 0.1416822721 0)
(0.0604167438234 0.133399236256 0)
(0.0596466954782 0.125234254983 0)
(0.0588667733495 0.117189726809 0)
(0.0580837677705 0.109266949553 0)
(0.057304732036 0.101466130191 0)
(0.0565367725753 0.0937861560592 0)
(0.055787072916 0.0862247245944 0)
(0.0550627614219 0.078778213503 0)
(0.0543709174092 0.071441699772 0)
(0.0537185775266 0.0642090582684 0)
(0.0531126448758 0.0570728262361 0)
(0.0525602837901 0.0500246896076 0)
(0.0520690775118 0.0430556611542 0)
(0.0516471678253 0.0361571414079 0)
(0.0513025372993 0.0293212904064 0)
(0.0510408656926 0.0225418684645 0)
(0.0508519900585 0.015810978847 0)
(0.0504710049032 0.00922637266699 0)
(0.045282440488 0.00273988535648 0)
(-0.216224051385 0.0126609111116 0)
(-0.239600466501 0.0448759284066 0)
(-0.238790144621 0.0758908719908 0)
(-0.235512476207 0.107141257308 0)
(-0.231077212035 0.137741725804 0)
(-0.225625435977 0.167570144791 0)
(-0.219241880064 0.196483733919 0)
(-0.212016280619 0.224355911195 0)
(-0.204044304543 0.251077569409 0)
(-0.195425014681 0.276557607527 0)
(-0.186258418269 0.300722614208 0)
(-0.176643294556 0.323516197494 0)
(-0.166675359344 0.344898019579 0)
(-0.156445744926 0.364842599567 0)
(-0.146039767927 0.383337898896 0)
(-0.135536037376 0.400383836578 0)
(-0.125005833476 0.415990664162 0)
(-0.114512823451 0.430177340703 0)
(-0.104113071035 0.44296993393 0)
(-0.0938553413448 0.454400129197 0)
(-0.0837816442238 0.464503920895 0)
(-0.0739279560345 0.473320579517 0)
(-0.0643249707822 0.480891769214 0)
(-0.0549989054148 0.487261131181 0)
(-0.0459721406665 0.492473877257 0)
(-0.0372637094527 0.496576666079 0)
(-0.0288896047771 0.4996174522 0)
(-0.0208629459101 0.501645364554 0)
(-0.0131940489473 0.502710468696 0)
(-0.00589049686985 0.502863549268 0)
(0.0010428059274 0.502155757933 0)
(0.0076035860499 0.500638439885 0)
(0.0137919432048 0.498362234761 0)
(0.0196103055959 0.495377403983 0)
(0.0250631483715 0.491733260013 0)
(0.0301568203224 0.487477920409 0)
(0.0348993544154 0.48265814703 0)
(0.0393002476883 0.477319126825 0)
(0.043370293057 0.471504367319 0)
(0.0471214008389 0.46525554463 0)
(0.0505664285591 0.458612335216 0)
(0.0537190135901 0.451612435681 0)
(0.0565934164651 0.444291394415 0)
(0.0592043714849 0.436682614585 0)
(0.0615669068157 0.428817222726 0)
(0.063696194287 0.42072417023 0)
(0.0656073928381 0.412430137098 0)
(0.0673155015062 0.403959616494 0)
(0.0688351621934 0.395334868076 0)
(0.0701805633206 0.386576105679 0)
(0.0713652536401 0.377701539008 0)