/*--------------------------------*- C++ -*----------------------------------*\
| =========                 |                                                 |
| \\      /  F ield         | OpenFOAM: The Open Source CFD Toolbox           |
|  \\    /   O peration     | Version:  v1906                                 |
|   \\  /    A nd           | Web:      www.OpenFOAM.com                      |
|    \\/     M anipulation  |                                                 |
\*---------------------------------------------------------------------------*/
FoamFile
{
    version     2.0;
    format      ascii;
    class       volScalarField;
    location    "7";
    object      p;
}
// * * * * * * * * * * * * * * * * * * * * * * * * * * * * * * * * * * * * * //

dimensions      [0 2 -2 0 0 0 0];


internalField   nonuniform List<scalar> 
9216
(
866.946807703
866.810654666
866.638320236
866.444787417
866.289052139
866.145562683
865.962886962
865.729755634
865.401894295
864.971612498
864.60934944
864.28886607
863.854722997
863.323255024
862.689237335
861.94312474
861.073029771
860.06874146
858.921853334
857.636550977
856.268867698
854.791033684
853.134325659
851.312289799
849.334375688
847.212539326
844.950385785
842.556648513
840.035234926
837.396313822
834.643558287
831.785782054
828.828054441
825.780632263
822.648397534
819.440683373
816.163125768
812.825559417
809.433483134
805.99629138
802.520396805
799.017111042
795.493945156
791.961483347
788.425575729
784.896130563
781.378379887
777.881228001
774.410133617
770.97352339
767.575367656
764.222804776
760.918571737
757.668741849
754.474970511
751.342430123
748.271832565
745.267561667
742.329468036
739.4611359
736.661528207
733.93289422
731.271955417
728.667758742
726.026566222
723.676045046
721.538307398
719.341779782
717.184352238
715.089370695
713.06403758
711.110096863
709.229564797
707.422740117
705.690919877
704.034140462
702.45335953
700.948483667
699.52019503
698.168301049
696.893244168
695.694740362
694.572977433
693.527646701
692.558853333
691.666062779
690.848892128
690.106537629
689.438134382
688.842277148
688.317935261
687.866749511
687.493977022
687.198904421
686.980599289
686.856167054
867.179990858
866.999844144
866.801244379
866.608116508
866.440882478
866.30892609
866.140171109
865.933463175
865.668481114
865.314871415
864.958520667
864.577315711
864.118997338
863.574338506
862.931741463
862.178733699
861.302113461
860.28894333
859.120827932
857.730916943
856.364892998
854.962313152
853.29695802
851.456098776
849.463497315
847.32723058
845.05392372
842.648240995
840.117379345
837.467027468
834.704825694
831.836515432
828.870502071
825.813241643
822.673707001
819.458693865
816.177039885
812.834548434
809.438569488
805.994420808
802.512128384
799.000776047
795.472012055
791.933587365
788.393186869
784.857271363
781.334907498
777.832086825
774.357327027
770.915956725
767.514921717
764.158277955
760.851739215
757.598324483
754.402678382
751.266949902
748.194849417
745.187779046
742.248603192
739.378057571
736.578239654
733.849088572
731.191537307
728.604189774
726.093678646
723.725091316
721.468058699
719.251734433
717.089497106
714.991930688
712.964904066
711.009642483
709.128202415
707.320593957
705.58821477
703.930895371
702.349701076
700.844381865
699.4157137
698.063387003
696.787920878
695.588962869
694.466790457
693.421023453
692.451729222
691.558388573
690.740737497
689.998067893
689.329638813
688.734284566
688.212730841
687.780152814
687.398545204
687.090347248
686.883810904
686.756401117
867.492030697
867.296308784
867.101959497
866.941285933
866.797320651
866.66019305
866.521062937
866.327166719
866.097196945
865.742954885
865.40578769
865.068722146
864.605154592
864.051537197
863.4013873
862.640934295
861.757304184
860.738730042
859.576264617
858.265656251
856.847432063
855.324922287
853.628465674
851.76800993
849.75562818
847.598678864
845.303820701
842.87648481
840.323547105
837.651174028
834.866898183
831.977340498
828.990528104
825.913995564
822.755676077
819.524408826
816.230271193
812.877580115
809.4699779
806.01175277
802.512898557
798.985214813
795.44229543
791.891347144
788.337315207
784.787614938
781.251990751
777.73764562
774.252282252
770.801632689
767.391964525
764.027749698
760.714088218
757.454417873
754.252846452
751.111937804
748.034950693
745.02371087
742.080755013
739.207326485
736.405448941
733.676080617
731.021402262
728.444473185
725.955098554
723.56858124
721.271933242
719.04086046
716.874178161
714.77521738
712.747322932
710.791870231
708.910348768
707.103182038
705.371295415
703.714850818
702.134507753
700.630286643
699.202633624
697.851458493
696.577024233
695.379157193
694.257964082
693.213205255
692.244828081
691.352494549
690.53600526
689.794960485
689.129021206
688.537916199
688.023680484
687.60258078
687.231102774
686.92858019
686.701936596
686.572836585
867.9123748
867.724025165
867.54144352
867.38464267
867.259037704
867.147626657
867.028265619
866.86072901
866.654902382
866.419986722
866.076976657
865.700237683
865.241613096
864.692415406
864.041771877
863.277088534
862.386696168
861.361003905
860.193921392
858.885077411
857.443659847
855.866448793
854.133398694
852.243561805
850.202172394
848.01526906
845.689047679
843.229757834
840.644160354
837.939243938
835.122456448
832.201306787
829.183714582
826.078603448
822.892672799
819.636076091
816.321425684
812.952065279
809.526543194
806.047445004
802.523999116
798.971160561
795.405999189
791.832925776
788.254649028
784.682102452
781.125023538
777.591376846
774.088270708
770.621786628
767.197523236
763.820287777
760.494558102
757.224134024
754.012569409
750.862821392
747.777670443
744.7593791
741.810114178
738.931651291
736.125828816
733.394373023
730.739580472
728.164728338
725.675000641
723.274373203
720.957179709
718.713853787
716.541361188
714.44007246
712.411302075
710.456061099
708.5752678
706.769482527
705.039271463
703.384951217
701.806881221
700.305215623
698.880152434
697.531715614
696.259971334
695.064844231
693.946299655
692.904192383
691.938413907
691.04878955
690.235227531
689.497695171
688.836430469
688.252282658
687.748340733
687.335632691
686.98024572
686.656892376
686.428311794
686.32067715
868.422375078
868.213408464
868.03814415
867.916243262
867.817609516
867.730290175
867.624627368
867.479745513
867.300930048
867.064833475
866.763738559
866.400295358
865.955716109
865.416487975
864.770148739
864.004790947
863.109799701
862.076769801
860.900171079
859.578046981
858.111194192
856.496994276
854.72903048
852.806479149
850.732458585
848.51201993
846.151066472
843.656138318
841.034226632
838.292789788
835.439572084
832.48257474
829.430004086
826.29179015
823.074663419
819.788718277
816.448509362
813.057304508
809.609260194
806.104229319
802.551139531
798.967325474
795.372931645
791.77048358
788.161701186
784.560067346
780.975897717
777.417500316
773.89181994
770.404891164
766.962005473
763.567895275
760.226758976
756.94236631
753.718048546
750.55678493
747.461193234
744.433616124
741.476126935
738.590643285
735.77896526
733.042950053
730.384626581
727.806407279
725.310811761
722.898941127
720.568197763
718.314387699
716.135163251
714.029977418
711.999105505
710.043054182
708.162327658
706.35735641
704.628492889
702.976006999
701.400100218
699.900900359
698.478477545
697.132838934
695.863948217
694.671721762
693.556051433
692.516804408
691.553853953
690.667100917
689.856546095
689.12239052
688.465258985
687.886612794
687.389847344
686.983720134
686.626164692
686.264300328
686.066703547
685.963089372
868.901015863
868.718726195
868.56619596
868.469231463
868.396518056
868.336676041
868.230344243
868.09446971
867.928808181
867.719002176
867.450874606
867.112799105
866.689397691
866.166410045
865.530782259
864.770761984
863.876233236
862.839227031
861.65418975
860.318042295
858.829347558
857.186431474
855.387400481
853.432788835
851.325583276
849.070567601
846.673643283
844.141551142
841.48160607
838.701634767
835.809778409
832.814412337
829.724190093
826.54980777
823.29851233
819.980637884
816.611295534
813.193439968
809.718158666
806.182417452
802.595089346
798.975131534
795.345450865
791.707800175
788.063168132
784.427160981
780.810974924
777.223194662
773.670724997
770.159436227
766.694402646
763.280149392
759.920676966
756.61959345
753.380086386
750.205029053
747.096947755
744.058128392
741.090594185
738.196228177
735.376763106
732.633914864
729.969361396
727.384769097
724.881460854
722.459779437
720.118462603
717.855490021
715.669333143
713.559304046
711.525251608
709.567314388
707.685707132
705.880665742
704.152379573
702.501002485
700.926622208
699.429281938
698.008961521
696.66560047
695.399087398
694.209283452
693.096019958
692.059124312
691.098431667
690.213827644
689.405305835
688.673086956
688.017831289
687.44100826
686.945662415
686.53768906
686.160613107
685.802781853
685.607724688
685.503769813
869.340683449
869.183813997
869.061358904
868.995225967
868.922033933
868.893056742
868.78691015
868.670100754
868.532445918
868.356027274
868.122962182
867.816828081
867.421373807
866.921482226
866.30349486
865.555446037
864.667275967
863.631087193
862.441220363
861.094143182
859.587954896
857.921716399
856.095419385
854.110742225
851.971145279
849.68162627
847.248328203
844.6782879
841.979194204
839.159262257
836.227043851
833.191277161
830.061202225
826.848024345
823.559866121
820.207288329
816.80607673
813.357871782
809.850211045
806.278854219
802.652732102
798.991860275
795.321688413
791.643683656
787.958165904
784.282951177
780.630209787
777.008814968
773.425650959
769.886400465
766.39591883
762.958489558
759.577907662
756.257583279
753.000550624
749.809537791
746.686964603
743.635011297
740.655619121
737.750566293
734.921465231
732.169825496
729.497014114
726.904215118
724.392227863
721.961208608
719.610517965
717.339095053
715.145970382
713.030539326
710.992504624
709.031789117
707.148408154
705.342422955
703.613880057
701.96280765
700.389186753
698.892961923
697.474025345
696.132232543
694.867394321
693.679295081
692.567691681
691.532334466
690.572975729
689.689402887
688.881475169
688.14921118
687.492930884
686.913521144
686.413070202
685.996112767
685.608215276
685.277982216
685.07136955
684.981768654
869.724538052
869.58858528
869.502303746
869.480495868
869.461800921
869.350146201
869.288304517
869.201996465
869.098769297
868.960747277
868.767497922
868.499656351
868.139172671
867.669642914
867.076533443
866.347363901
865.471840398
864.441951388
863.251952777
861.898211061
860.378902362
858.693678952
856.843574962
854.831157241
852.660515293
850.337098472
847.867465395
845.259060817
842.520011034
839.658963462
836.684895412
833.606915411
830.435008417
827.180636571
823.853075276
820.463454144
817.028245736
813.546028727
810.000696065
806.388793855
802.719346848
799.013126619
795.297681
791.574389822
787.843245003
784.124348319
780.430864549
776.771966244
773.154504186
769.583965779
766.064966445
762.601534837
759.197237416
755.855270686
752.578490998
749.3694628
746.230471193
743.163565619
740.170570807
737.25313061
734.412709631
731.650617002
728.967973997
726.365670381
723.844260396
721.403864113
719.044147186
716.764505559
714.564303589
712.443046747
710.400399569
708.436165195
706.550222389
704.742491876
703.012894808
701.3613404
699.787704894
698.291831825
696.873521697
695.532538644
694.268606272
693.081418
691.970636841
690.93590679
689.976855471
689.093106196
688.284286294
687.550048527
686.890068111
686.304037961
685.791461742
685.352058067
684.922067901
684.637342312
684.441482901
684.366661498
870.035333451
869.91577687
869.86739095
869.875723803
869.891499642
869.795813212
869.73064859
869.675529979
869.612607011
869.519337629
869.372559553
869.150334308
868.832537498
868.401176799
867.840578552
867.137515992
866.281260819
865.263585585
864.078675137
862.722955636
861.19485268
859.494550264
857.623832957
855.586023582
853.385874125
851.029408089
848.523711127
845.876734526
843.097104546
840.193953638
837.176704876
834.054853394
830.839298142
827.541580169
824.172330262
820.744014105
817.272563823
813.752197387
810.164247794
806.506922857
802.789603188
799.033818568
795.268538771
791.495104021
787.713828801
783.947080923
780.208996837
776.509025989
772.853963118
769.249082294
765.698739125
762.206692084
758.776260044
755.410411041
752.111803785
748.882822646
745.725596343
742.642025215
739.633795345
736.702402918
733.849158046
731.075191277
728.38143365
725.768584972
723.237068398
720.786994956
718.4181813
716.130248814
713.922749494
711.795271043
709.747470878
707.779081574
705.889883986
704.079687466
702.348303315
700.695532068
699.121147964
697.624894663
696.206477548
694.865564959
693.601785001
692.414729586
691.303952541
690.268971418
689.309262186
688.424252237
687.613302024
686.875671014
686.210408837
685.616022538
685.089406177
684.623299101
684.201228783
683.930666633
683.713664306
683.621378362
870.254563446
870.145798017
870.133437975
870.178464651
870.170073777
870.132411159
870.093402901
870.075498095
870.059218077
870.018258031
869.926176363
869.758185506
869.491809573
869.10721193
868.587360943
867.918098715
867.088130704
866.088943437
864.914663254
863.561846143
862.029243428
860.317555288
858.429230847
856.368298343
854.140199063
851.751600568
849.210201071
846.524534881
843.703793644
840.75764357
837.695984273
834.528723681
831.267854391
827.924803695
824.511851975
821.043220664
817.533185901
813.970836051
810.335526413
806.627780319
802.857916679
799.048478072
795.228937215
791.400539446
787.564829715
783.74634203
779.960106837
776.215802829
772.520128381
768.87812027
765.293850514
761.770792706
758.312000237
754.920200309
751.597837229
748.347102856
745.169952744
742.068126166
739.043156942
736.096389317
733.228980607
730.441903861
727.735936233
725.111642413
722.569356807
720.109176831
717.730986086
715.434514649
713.219411535
711.085311179
709.031865127
707.058755864
705.16568832
703.352380102
701.618545782
699.963886541
698.388078936
696.890769048
695.471566085
694.130040404
692.865719655
691.678088255
690.566582106
689.530583135
688.569406528
687.682281692
686.868325835
686.126502687
685.455551272
684.853860063
684.319264617
683.849865654
683.453032874
683.137902168
682.878569053
682.767235116
870.361038899
870.258236564
870.281227898
870.362565979
870.372415448
870.360648491
870.354429092
870.382085026
870.421577753
870.442759331
870.41557943
870.312104584
870.107246106
869.77910073
869.309091636
868.681992818
867.885847503
866.911822688
865.753996916
864.40911141
862.876294762
861.156793027
859.253715254
857.171808918
854.917240227
852.497386474
849.920626802
847.196150439
844.333772899
841.343746371
838.236474967
835.022341404
831.714622028
828.324401769
824.865953673
821.355319067
817.804158205
814.19642631
810.509215058
806.745729996
802.918469014
799.05137904
795.173278319
791.285124319
787.390873213
783.517030954
779.679400058
775.887806469
772.148801517
768.467149368
764.846615718
761.290371381
757.80119076
754.381547623
751.033660645
747.759517838
744.560891369
741.439350191
738.396269508
735.432839895
732.550071168
729.748793137
727.029651973
724.39310221
721.8394046
719.368628995
716.980677658
714.67532341
712.452256406
710.311126974
708.251572104
706.273230088
704.375740887
702.5587426
700.821862818
699.164711236
697.586871546
696.087895571
694.66729749
693.324550009
692.059079358
690.870261225
689.757412275
688.719778841
687.75651902
686.866677416
686.049158397
685.302702429
684.625880185
684.017151713
683.475110718
682.99963778
682.597117337
682.243134488
681.905088262
681.832406197
870.327653626
870.224572233
870.286820726
870.401483138
870.434462778
870.452724958
870.489150095
870.573515911
870.680724716
870.776460688
870.826709758
870.800070203
870.668565859
870.408002584
869.998093882
869.422429635
868.668335936
867.726647944
866.591434921
865.259681851
863.730969082
862.007147044
860.09203974
857.991163581
855.711474293
853.261125873
850.649251986
847.885761596
844.981153902
841.946305634
838.792139273
835.529666242
832.173623871
828.734677393
825.229284482
821.674960265
818.079935101
814.423373617
810.67952913
806.854795946
802.965185124
799.036569785
795.095740755
791.143065882
787.18636656
783.253840254
779.361880854
775.520353704
771.735594084
768.012054423
764.353167204
760.761785029
757.240390006
753.791193779
750.41617974
747.117125211
743.895610979
740.75303104
737.69059774
734.709349123
731.810151211
728.993700776
726.260524495
723.610978609
721.045251768
718.563373623
716.165233468
713.850607912
711.619191617
709.470627468
707.404526722
705.420482947
703.518075586
701.696870397
699.95641486
698.296233605
696.715822354
695.214642844
693.792117262
692.447623612
691.180489392
689.989985252
688.875313514
687.835592966
686.869836467
685.976921353
685.155561979
684.404291274
683.721479598
683.105458674
682.554851418
682.069491308
681.653490701
681.270525594
680.935114774
680.860310326
870.119334979
870.00980701
870.117002432
870.269086348
870.32719481
870.379944134
870.470903855
870.625518455
870.815174839
871.000729916
871.14366428
871.20867154
871.164545455
870.984550358
870.646516079
870.132757067
869.429848867
868.528324854
867.422308151
866.109124996
864.58890728
862.864215299
860.939679592
858.821679308
856.518044856
854.037794972
851.390895844
848.588049897
845.640495055
842.559762282
839.357293555
836.045110164
832.638928615
829.149873532
825.596907357
821.997196818
818.355265687
814.645744272
810.839994199
806.948675776
802.991829555
798.997948388
794.990339144
790.968391559
786.945544131
782.951298244
779.002402231
775.108616708
771.275980472
767.508586355
763.809508397
760.181264354
756.626034995
753.145761777
749.742187771
746.4168738
743.171205788
740.006398998
736.923502207
733.923401179
731.006822204
728.174333909
725.426350322
722.763132419
720.184795152
717.691315702
715.282550266
712.958253229
710.718100097
708.561708216
706.488653272
704.498480561
702.590710418
700.764839982
699.020341651
697.356660038
695.773207914
694.269361586
692.844456028
691.49777956
690.228567033
689.035991754
687.919152229
686.877053962
685.908583905
685.01247575
684.187275583
683.431311127
682.742684182
682.119331164
681.559233766
681.061245667
680.628758472
680.233304296
679.957945746
679.844937136
869.691577463
869.571933334
869.730661739
869.931045487
870.013369366
870.104012129
870.267244841
870.509298244
870.79960989
871.093737853
871.347988148
871.522577776
871.582631095
871.498558766
871.246122837
870.806276122
870.164852246
869.312148201
868.242460439
866.953593482
865.446385723
863.724252319
861.792773632
859.659317466
857.33270973
854.82293871
852.140900602
849.298171879
846.306795368
843.178981437
839.926713481
836.563564385
833.105090042
829.564583884
825.964022234
822.317138401
818.624646381
814.857058227
810.983794602
807.020848635
802.992029698
798.929261166
794.850883131
790.754929398
786.662467522
782.60379125
778.595693156
774.647656864
770.765329197
766.952395085
763.21154317
759.544943916
755.954468336
752.441784064
749.008389712
745.655627934
742.384686961
739.196602991
736.09226025
733.072394231
730.137593074
727.288301189
724.524821817
721.847321799
719.255837761
716.750285723
714.330473555
711.996116824
709.746854707
707.582266359
705.501882967
703.505197988
701.591671965
699.760735773
698.011790017
696.344203846
694.757311672
693.250409774
691.822751548
690.473542616
689.201933499
688.007011245
686.887785104
685.843167337
684.871945387
683.972743506
683.143979776
682.383811238
681.690064768
681.060133795
680.490720279
679.977344433
679.515478547
679.056270845
678.85931215
678.758519865
869.000618483
868.863331179
869.08655816
869.353226412
869.461356487
869.588056994
869.83679324
870.189429973
870.603283162
871.029267598
871.417821494
871.723957017
871.908556331
871.938796025
871.788157276
871.436174211
870.867986357
870.073791595
869.048238507
867.789822317
866.300298193
864.58414618
862.648083949
860.500642668
858.151792984
855.612627224
852.89508357
850.011711016
846.975428983
843.799162716
840.495527538
837.08011024
833.567518307
829.974374438
826.325815978
822.629639254
818.882318229
815.050649494
811.103976057
807.064582811
802.959224971
798.82395689
794.670771199
790.49617972
786.330981578
782.205560681
778.136378714
774.132448619
770.198930548
766.33905371
762.555100398
758.848882812
755.221958864
751.675719661
748.211419469
744.830181545
741.532997207
738.320723034
735.194080319
732.153654825
729.199899139
726.33313437
723.553554672
720.861230853
718.256118013
715.73806278
713.306814939
710.962038543
708.703325272
706.53020585
704.442160622
702.438627126
700.519005504
698.682661208
696.928926017
695.257097114
693.666435407
692.156162365
690.725456463
689.373448308
688.099214156
686.901767591
685.78004597
684.732891668
683.759025255
682.857007115
682.025192453
681.261666535
680.564146507
679.929773992
679.354587351
678.83209038
678.351967837
677.905864412
677.726077967
677.622987789
868.0094673
867.839215118
868.14276636
868.495658248
868.637958698
868.791730646
869.128158584
869.621430249
870.18803905
870.775269132
871.326918061
871.791863753
872.126013802
872.292838085
872.263322794
872.015563181
871.53414126
870.809379281
869.836563151
868.615175577
867.148189379
865.4414244
863.502989868
861.342798144
858.972156645
856.403420337
853.649704629
850.72463549
847.642081349
844.415698609
841.05900073
837.589936873
834.02204522
830.375419329
826.677792743
822.929365129
819.12233161
815.220000517
811.193576788
807.073045925
802.886859413
798.675158557
794.442619932
790.185193377
785.944712176
781.750738668
777.619016142
773.557913861
769.572023713
765.664083968
761.835954363
758.08908457
754.424717678
750.843970167
747.347852583
743.937271274
740.613021266
737.375781921
734.226112253
731.164450809
728.191115255
725.306305352
722.510105429
719.802489627
717.183327162
714.652390266
712.209362245
709.853847721
707.585381789
705.403440145
703.307446471
701.29677977
699.370778304
697.528743225
695.76993929
694.093595383
692.498902956
690.98501434
689.551039423
688.196042182
686.919034724
685.718970641
684.594732923
683.545118217
682.568813556
681.664364275
680.830138813
680.064280242
679.364646571
678.728716252
678.15339957
677.634900213
677.171721595
676.786350243
676.559205145
676.439197235
866.677962382
866.453935558
866.849088074
867.302316343
867.487591317
867.664487805
868.086931428
868.746852263
869.505769372
870.292147686
871.043572411
871.70167505
872.216441642
872.547091433
872.661923305
872.537683601
872.158660603
871.515679982
870.605082829
869.427770326
867.988334799
866.294306779
864.355507171
862.183508608
859.791185744
857.19234986
854.401447444
851.433299993
848.302780532
845.024285976
841.612885099
838.088097002
834.463953691
830.764117849
827.015919546
823.211227459
819.338694332
815.358293659
811.245304601
807.039268572
802.769320555
798.475486502
794.157346524
789.814629843
785.497201074
781.233434427
777.038147309
772.918953033
768.879821356
764.922974682
761.049843017
757.261512048
753.558913594
749.942892241
746.414219405
742.973586939
739.621597426
736.358754658
733.185458555
730.102001487
727.108568665
724.205238493
721.391986333
718.668687422
716.035123105
713.490986
711.035888127
708.66936772
706.39089786
704.199893278
702.095717567
700.077688203
698.145081161
696.297133402
694.533044905
692.851978826
691.253061519
689.735380905
688.297984851
686.939878169
685.660018698
684.457312091
683.330602944
682.278662754
681.300173323
680.393704176
679.557693723
678.790431813
678.090061815
677.454612846
676.882108206
676.371015844
675.923323809
675.560302533
675.318226621
675.188361343
864.958701943
864.653548279
865.136270662
865.69032627
865.923755409
866.133199031
866.653460168
867.501214059
868.497118938
869.531023656
870.529595793
871.424708587
872.159080112
872.687082836
872.97426925
872.996320898
872.737734779
872.190434654
871.352443354
870.226674533
868.819887026
867.141796242
865.20434406
863.021100968
860.606788934
857.97689934
855.147390108
852.134406827
848.953876174
845.621043946
842.153500854
838.570154418
834.888536637
831.136595556
827.335352897
823.469891842
819.525308631
815.457811787
811.251148527
806.955500285
802.600112236
798.217246695
793.806322101
789.377305599
784.98203417
780.647763484
776.388306305
772.210454423
768.117519336
764.111195194
760.192480306
756.362101655
752.620685154
748.968810815
745.407015792
741.93578341
738.555527086
735.266579575
732.069183696
728.963489008
725.949549073
723.027322926
720.196676137
717.457385
714.809139977
712.251551721
709.784156095
707.406421241
705.117753071
702.917502155
700.804968371
698.7794064
696.840028703
694.986009052
693.216483748
691.530553236
689.927281895
688.405698114
686.964792926
685.603519026
684.32078791
683.115467486
681.986375942
680.93227484
679.951858732
679.04374328
678.206462399
677.43847616
676.73821479
676.104187391
675.535167098
675.030638735
674.593055964
674.239438162
673.992720097
673.858783904
862.800484402
862.371388829
862.899064832
863.538027827
863.819688149
864.07097867
864.70833706
865.783629218
867.082666758
868.43073779
869.739422952
870.92830374
871.931519546
872.698215757
873.191458772
873.386536439
873.269020044
872.832866019
872.078676698
871.012201668
869.643079709
867.98381991
866.048984704
863.854551059
861.41741212
858.754996084
855.884964498
852.824909791
849.591830659
846.202159372
842.676808666
839.032880767
835.292800515
831.488755137
827.630297705
823.698584364
819.674062499
815.509775701
811.203120239
806.813017589
802.369999631
797.892982576
793.383387409
788.866725494
784.392998067
779.987905542
775.664052392
771.427316442
767.280316771
763.224211292
759.259572316
755.38677649
751.606154643
747.918030433
744.322715613
740.820490626
737.411586215
734.096167601
730.874325182
727.746067589
724.711319878
721.769922038
718.921631294
716.16612355
713.502997932
710.931779985
708.451927426
706.062834294
703.763836949
701.554218257
699.433212894
697.400010733
695.453760861
693.593573746
691.81852387
690.127650653
688.519959932
686.994423893
685.549981672
684.185538873
682.899967183
681.692103611
680.56074806
679.504660115
678.52255501
677.613099482
676.774919299
676.006622684
675.306861865
674.674445904
674.108511936
673.608824656
673.177372765
672.828171495
672.580156773
672.445122198
860.133895532
859.504142932
859.948027575
860.65688444
860.979641644
861.298154361
862.104610293
863.47388949
865.161181017
866.917526143
868.620716283
870.177011734
871.511163607
872.567239853
873.306722048
873.70579992
873.752558984
873.444385906
872.785736593
871.786294009
870.45950012
868.821408068
866.889805138
864.683549325
862.222075886
859.525031403
856.61198499
853.502069353
850.213361158
846.764326148
843.178425689
839.47287678
835.674640052
831.816571741
827.895710873
823.89010926
819.77483143
815.504970508
811.093777715
806.603417201
802.069294817
797.494955676
792.882244925
788.276456777
783.723945123
779.248092339
774.859984051
770.564467485
766.363433505
762.257502847
758.246831813
754.331461546
750.51144046
746.786848669
743.157781491
739.624325689
736.186534976
732.844413523
729.597902613
726.446874436
723.391127044
720.430384137
717.564294438
714.792434504
712.114310404
709.529362103
707.036966339
704.636441723
702.327052012
700.108011169
697.978486362
695.937602389
693.984443997
692.118059362
690.337461658
688.641631564
687.029518224
685.500041018
684.052090187
682.684528495
681.396191645
680.185890236
679.052409328
677.994509202
677.010924722
676.100366562
675.261533876
674.493140791
673.793975719
673.163005529
672.599484079
672.103111733
671.675318647
671.328348321
671.080119664
670.94522055
856.823598144
855.872754542
856.06935615
856.779924671
857.120628296
857.553973986
858.638950029
860.428359901
862.623111509
864.909151608
867.117414297
869.135633508
870.878105745
872.284789596
873.31751482
873.955651798
874.192043206
874.029536837
873.478173871
872.553002335
871.272413852
869.656911377
867.728207551
865.508579082
863.020409344
860.28586756
857.326633542
854.163445263
850.81566409
847.30528148
843.654923594
839.886176538
836.031228225
832.115664222
828.125184816
824.036287256
819.818712863
815.434972174
810.915598915
806.320670985
801.689844878
797.01299032
792.294760482
787.599502611
782.968596839
778.422560887
773.970742307
769.616882215
765.362130667
761.20658208
757.149996585
753.19209859
749.332672407
745.571568247
741.908677935
738.343903165
734.877129495
731.508205231
728.236928668
725.063038405
721.986209586
719.006050654
716.122104198
713.333846908
710.640692654
708.041994079
705.537046719
703.125091397
700.805318648
698.576871319
696.438848777
694.39030931
692.43027383
690.557727871
688.77162474
687.07088709
685.454409645
683.921060546
682.469683932
681.099101714
679.80811623
678.595513016
677.460063044
676.400525018
675.415647652
674.504172588
673.664847263
672.896449939
672.197840921
671.568036132
671.006281932
670.512138398
670.086563089
669.740732138
669.492544627
669.358273917
852.603270248
851.173658543
850.978760733
851.544527509
851.863320673
852.494738487
854.037588723
856.445701104
859.334472608
862.316522215
865.175120215
867.774888457
870.02009254
871.849379122
873.228594614
874.143982614
874.596468555
874.597160199
874.163951984
873.319038023
872.087135043
870.494238231
868.566768038
866.330998986
863.812686611
861.036816472
858.027328213
854.80654175
851.395730747
847.821553276
844.104252997
840.271074776
836.359306153
832.380400886
828.310294079
824.127611352
819.796964219
815.291011862
810.6603027
805.960699197
801.22315703
796.433936458
791.612129691
786.828814537
782.120780133
777.505677202
772.991083882
768.579631078
764.27174511
760.06702114
755.964849986
751.964664911
748.066006047
744.268511643
740.571882603
736.975847539
733.480131465
730.084434966
726.788417794
723.591690522
720.49380765
717.494265996
714.592502598
711.787896332
709.079768135
706.467384159
703.949957137
701.526650215
699.196578821
696.958814659
694.812387705
692.756290053
690.78947787
688.91087495
687.119374614
685.413842973
683.793120862
682.256027005
680.801360243
679.427903226
678.134425188
676.919686731
675.782442547