/*--------------------------------*- C++ -*----------------------------------*\
| =========                 |                                                 |
| \\      /  F ield         | OpenFOAM: The Open Source CFD Toolbox           |
|  \\    /   O peration     | Version:  v1906                                 |
|   \\  /    A nd           | Web:      www.OpenFOAM.com                      |
|    \\/     M anipulation  |                                                 |
\*---------------------------------------------------------------------------*/
FoamFile
{
    version     2.0;
    format      ascii;
    class       volScalarField;
    location    "7";
    object      pa;
}
// * * * * * * * * * * * * * * * * * * * * * * * * * * * * * * * * * * * * * //

dimensions      [0 2 -2 0 0 0 0];


internalField   nonuniform List<scalar> 
9216
(
1943.37568362
1942.55841709
1940.9113974
1938.64863664
1935.77065082
1932.09610755
1927.63481729
1922.96324352
1917.94427644
1912.42817664
1906.75583851
1900.9388388
1894.69161364
1888.01175461
1880.97445754
1873.59331204
1865.95374856
1858.07396666
1850.06480865
1841.99709931
1834.0021292
1826.02619246
1817.88307577
1809.576915
1801.18481431
1792.7125723
1784.22138292
1775.70119131
1767.20522937
1758.71680726
1750.28413364
1741.883376
1733.56013056
1725.28970475
1717.11487028
1709.00878566
1701.0122064
1693.09766424
1685.30205994
1677.59854433
1670.02317534
1662.55230463
1655.21967417
1648.00016842
1640.92528518
1633.97068341
1627.16514012
1620.48491292
1613.95724879
1607.56055926
1601.3197251
1595.21471027
1589.26807373
1583.46145068
1577.81495526
1572.31196232
1566.97027715
1561.77514264
1556.74232224
1551.85909197
1547.13972683
1542.57222542
1538.16554915
1533.88265305
1529.61754964
1525.71168727
1522.13350081
1518.50848242
1514.98197206
1511.56310723
1508.28320587
1505.12582451
1502.11226228
1499.22471205
1496.4807374
1493.86338813
1491.38765799
1489.03800439
1486.82726097
1484.74149136
1482.79162688
1480.96541356
1479.27189363
1477.70053181
1476.25888776
1474.93819008
1473.74387051
1472.66822959
1471.71386546
1470.87214188
1470.14089621
1469.50848908
1468.96064569
1468.48782597
1468.1156696
1467.89524172
1943.94581463
1943.18482066
1941.59077039
1939.21348632
1936.18668996
1932.44513359
1927.92971435
1923.20054712
1918.33541138
1912.98143611
1907.44024637
1901.69178718
1895.55126167
1889.00327644
1882.0981937
1874.86279708
1867.3509396
1859.57889894
1851.58299505
1843.31109423
1835.33097776
1827.53638115
1819.50103547
1811.30909758
1803.03160999
1794.67648886
1786.29416448
1777.88066601
1769.47958576
1761.08163189
1752.72509999
1744.39567801
1736.12922221
1727.91223245
1719.77914923
1711.7128721
1703.7438409
1695.85390174
1688.07075694
1680.37689691
1672.80166929
1665.3306684
1657.98932124
1650.76070023
1643.66746223
1636.69025447
1629.85006493
1623.12957615
1616.55057299
1610.09716605
1603.78993488
1597.61371553
1591.58789494
1585.69799224
1579.96205029
1574.36627924
1568.92737361
1563.63225169
1558.49619032
1553.50661982
1548.67668488
1543.99068601
1539.45050003
1535.019764
1530.69072481
1526.58776207
1522.69838547
1518.94373487
1515.32748536
1511.84049101
1508.49560979
1505.28349175
1502.21478756
1499.28019987
1496.48845509
1493.83064498
1491.3139443
1488.93009239
1486.68496369
1484.57109982
1482.59326929
1480.74488571
1479.02966875
1477.44195336
1475.98466782
1474.65304501
1473.44891982
1472.36799675
1471.41058367
1470.5719882
1469.85244959
1469.25638091
1468.71240479
1468.22085134
1467.8721164
1467.65537714
1945.01069208
1944.26604045
1942.43239516
1939.77520649
1936.56072806
1932.61615563
1928.02639921
1922.99470874
1917.7234685
1912.03322941
1906.29390403
1900.44590094
1894.13489782
1887.42504241
1880.37507137
1873.01940596
1865.3994595
1857.53195955
1849.44158201
1841.15559251
1832.95966945
1824.86898012
1816.75312058
1808.56265385
1800.31922462
1792.03185115
1783.72864726
1775.41534988
1767.11619844
1758.83263431
1750.58436941
1742.36913073
1734.20658811
1726.09791909
1718.06090803
1710.09158917
1702.20659995
1694.40107428
1686.69025798
1679.0717763
1671.56499358
1664.16898994
1656.89787397
1649.74491685
1642.71610171
1635.80296727
1629.01572989
1622.34849769
1615.81198326
1609.40104565
1603.12615439
1596.98240927
1590.97974336
1585.11332216
1579.3923486
1573.81196113
1568.38054891
1563.0930966
1557.95682229
1552.96587808
1548.12481812
1543.42352214
1538.85801067
1534.41108961
1530.09162636
1525.93751456
1521.97733823
1518.18108513
1514.53890791
1511.0403075
1507.68723456
1504.47454895
1501.40554854
1498.47597059
1495.68861918
1493.03941494
1490.53046897
1488.15785658
1485.9230598
1483.82238717
1481.85680705
1480.02293229
1478.32129795
1476.74891764
1475.3060472
1473.99011754
1472.80101936
1471.73654863
1470.79645477
1469.97972997
1469.2890036
1468.73036767
1468.21991425
1467.76773667
1467.39359715
1467.14161539
1946.49631396
1945.59191689
1943.57201485
1940.63235095
1937.06027364
1932.84794876
1928.02714052
1922.71386134
1917.29535862
1911.67215022
1905.65693075
1899.40569095
1892.82212669
1885.90043433
1878.67611122
1871.18239239
1863.45196138
1855.50898837
1847.38412742
1839.1292649
1830.87466246
1822.68982188
1814.51660202
1806.32011829
1798.10041679
1789.86353066
1781.62311646
1773.38770085
1765.16953553
1756.9738262
1748.80895776
1740.67824856
1732.59448416
1724.56988941
1716.61188067
1708.71812777
1700.89750051
1693.15275323
1685.4922384
1677.92242293
1670.45764425
1663.10848373
1655.885447
1648.78017286
1641.78734252
1634.90754439
1628.14548484
1621.50203947
1614.98226637
1608.58737554
1602.32237559
1596.18838419
1590.19006186
1584.32822898
1578.60702588
1573.02684901
1567.59119124
1562.29983163
1557.15523246
1552.15591463
1547.30216275
1542.58944456
1538.01421555
1533.57166498
1529.26906955
1525.12282009
1521.14621716
1517.33128655
1513.67161315
1510.16120151
1506.79837935
1503.58034097
1500.50691841
1497.57610179
1494.78783895
1492.14020295
1489.63290863
1487.26396084
1485.03279909
1482.93737948
1480.9769199
1479.14939436
1477.45388053
1475.88846754
1474.45219053
1473.1433092
1471.96088611
1470.90370846
1469.97186468
1469.16655365
1468.49145745
1467.94682092
1467.46900108
1467.02099469
1466.64547625
1466.41130607
1948.4449475
1947.19397199
1944.86797104
1941.74331785
1937.98738045
1933.64576052
1928.7234884
1923.50710819
1918.11168984
1912.34775082
1906.20549418
1899.75727727
1893.00179474
1885.94756272
1878.6210592
1871.05223659
1863.27076262
1855.30568021
1847.1917391
1838.97841549
1830.73635632
1822.51036001
1814.28999661
1806.06227942
1797.82559692
1789.58484938
1781.3482598
1773.12389378
1764.91909488
1756.73865105
1748.58614411
1740.46603187
1732.39109181
1724.38134381
1716.44256324
1708.56736804
1700.75742377
1693.01815439
1685.35660104
1677.78243982
1670.31037487
1662.9567834
1655.73577178
1648.63532261
1641.64041817
1634.75461911
1627.98148262
1621.32442251
1614.78732261
1608.37361482
1602.08699143
1595.93057056
1589.90763257
1584.02082038
1578.27286849
1572.6658263
1567.20176849
1561.88198114
1556.70758131
1551.6786761
1546.79483455
1542.05441156
1537.45570398
1532.99836399
1528.68692661
1524.5291954
1520.53050244
1516.68914092
1513.001918
1509.46573724
1506.0785291
1502.83843854
1499.74425448
1496.79459858
1493.98845183
1491.32447062
1488.80155372
1486.41824181
1484.17327822
1482.06507621
1480.0922486
1478.25313288
1476.54627643
1474.97001291
1473.5228809
1472.20326284
1471.00983893
1469.94156921
1468.99858563
1468.18287375
1467.49880421
1466.94783679
1466.47419724
1465.98793213
1465.66775804
1465.43309379
1950.80290673
1949.26848554
1946.59965053
1943.26277104
1939.40276952
1935.08065443
1930.32651981
1925.25484364
1919.80219558
1913.95472407
1907.72360579
1901.15494967
1894.27565915
1887.10953271
1879.6847553
1872.03138533
1864.17963818
1856.16076898
1848.00963282
1839.767545
1831.47955185
1823.17725999
1814.86881329
1806.55560108
1798.24069773
1789.93012515
1781.63123209
1773.35123685
1765.09545985
1756.866845
1748.66651823
1740.49860564
1732.37846041
1724.33241508
1716.36810574
1708.47287096
1700.63938516
1692.87237087
1685.18023213
1677.57377321
1670.07018483
1662.69004287
1655.45298586
1648.34390764
1641.33815304
1634.4379201
1627.64712851
1620.97018459
1614.41124419
1607.97449791
1601.66371907
1595.48260105
1589.43436706
1583.52210425
1577.74840157
1572.1156623
1566.62575403
1561.2802771
1556.08020351
1551.02614192
1546.11799393
1541.35541582
1536.73801831
1532.26662786
1527.94396649
1523.77390677
1519.7587967
1515.89841181
1512.19113944
1508.63521639
1505.22890765
1501.9707187
1498.85923211
1495.89314701
1493.07114277
1490.39190765
1487.85405578
1485.45615811
1483.19670243
1481.0741242
1479.08679652
1477.23305538
1475.51120508
1473.91951924
1472.45624632
1471.11959997
1469.90786804
1468.81965977
1467.85465277
1467.01441015
1466.30361948
1465.72555694
1465.22299037
1464.75384483
1464.44612894
1464.19849601
1953.6835789
1951.85920913
1948.79708779
1945.21354934
1941.24786198
1937.11844532
1932.5714562
1927.55042077
1922.07006968
1916.15177765
1909.82882974
1903.14522094
1896.13895949
1888.84404459
1881.29359406
1873.52039923
1865.55667781
1857.4350348
1849.18927721
1840.85487703
1832.4660591
1824.04929295
1815.61968796
1807.18656947
1798.75766092
1790.34104563
1781.94455495
1773.57484854
1765.23572296
1756.92787856
1748.65026159
1740.40677574
1732.21645086
1724.11122216
1716.10125856
1708.16908127
1700.29934624
1692.4929241
1684.7585878
1677.10944796
1669.56548427
1662.15172914
1654.8921486
1647.76969646
1640.75148245
1633.83538906
1627.02611234
1620.32868106
1613.74784661
1607.28823285
1600.95401504
1594.74915683
1588.67713459
1582.74118844
1576.944057
1571.28822024
1565.77563891
1560.40798176
1555.18636702
1550.11162721
1545.18410202
1540.40405657
1535.77177995
1531.28822006
1526.95505654
1522.77427368
1518.74700766
1514.87324586
1511.15205839
1507.58224475
1504.16240049
1500.89117511
1497.76715557
1494.78898144
1491.95521817
1489.26443498
1486.71510478
1484.30566992
1482.03447251
1479.89981593
1477.89992
1476.03297409
1474.29710142
1472.69037941
1471.21079305
1469.85622499
1468.62447347
1467.51348796
1466.5219022
1465.65033988
1464.90362838
1464.28860937
1463.76433906
1463.35912935
1463.03848985
1462.78453039
1957.16642324
1955.01650116
1951.48918008
1947.65443878
1943.81379079
1939.63108941
1935.2195089
1930.24320731
1924.73122961
1918.73387514
1912.30219007
1905.48700977
1898.33458208
1890.88667569
1883.18198222
1875.25698205
1867.14649122
1858.88429023
1850.50358222
1842.03666131
1833.51330761
1824.95802295
1816.38883957
1807.81921429
1799.26022236
1790.72176578
1782.21239354
1773.73818465
1765.30134153
1756.89998105
1748.53084471
1740.19819902
1731.92584379
1723.75060997
1715.68479866
1707.70717346
1699.79612323
1691.94540819
1684.16305085
1676.46600201
1668.87697676
1661.42593634
1654.14038169
1647.0013618
1639.96829708
1633.03425449
1626.20459854
1619.48495941
1612.88065459
1606.39674764
1600.0378223
1593.80812671
1587.71140813
1581.75107138
1575.9300281
1570.25085006
1564.71562122
1559.32609264
1554.083545
1548.98898588
1544.04306058
1539.24634137
1534.59938041
1530.10301212
1525.75828401
1521.56624984
1517.52743782
1513.64176906
1509.90855211
1506.32682338
1502.89536027
1499.61288525
1496.47799217
1493.48926215
1490.64517074
1487.94417033
1485.38460341
1482.96477473
1480.68287827
1478.53706908
1476.52540169
1474.64589834
1472.89648319
1471.27501511
1469.77919323
1468.40653879
1467.15431692
1466.01967666
1465.00012109
1464.0949937
1463.30764804
1462.64688095
1462.07191351
1461.74354274
1461.43735006
1461.17161039
1961.32228306
1958.78584625
1954.65638863
1950.38089174
1946.67656907
1942.68009479
1938.26957393
1933.27870798
1927.7073901
1921.60964184
1915.04689674
1908.07832134
1900.75792014
1893.13436033
1885.25167796
1877.15026613
1868.86750908
1860.43852904
1851.89640449
1843.27208078
1834.5934685
1825.88444373
1817.16434293
1808.44890111
1799.75125622
1791.0826998
1782.45219029
1773.86511816
1765.32175447
1756.81740423
1748.34652052
1739.91459401
1731.55138286
1723.29809262
1715.16838345
1707.13880799
1699.18163999
1691.28193939
1683.44668082
1675.69700297
1668.05865014
1660.56705003
1653.25274734
1646.09386137
1639.04240692
1632.08716298
1625.23411463
1618.48942906
1611.85897987
1605.34825009
1598.96223641
1592.70547118
1586.58198327
1580.59535037
1574.74866965
1569.04461422
1563.48540585
1558.07287974
1552.80846802
1547.69330001
1542.72821934
1537.91392845
1533.25106257
1528.74028703
1524.38227636
1520.17756451
1516.12634346
1512.22839203
1508.48308126
1504.88950752
1501.44653445
1498.15288928
1495.00716524
1492.00786917
1489.1534076
1486.44210918
1483.87220952
1481.44186435
1479.14913927
1476.99202401
1474.9684253
1473.07617899
1471.3130292
1469.67660353
1468.16435127
1466.77344056
1465.50068957
1464.34262244
1463.29589728
1462.35905108
1461.53581818
1460.83785734
1460.27939564
1459.97623671
1459.64848548
1459.31869167
1966.23501728
1963.24974456
1958.3996969
1953.58209706
1949.73632167
1945.96233685
1941.62592849
1936.61521321
1930.96334204
1924.74136327
1918.02338967
1910.87837381
1903.36833731
1895.54841109
1887.46768149
1879.17012788
1870.69560475
1862.08048502
1853.35818911
1844.55913824
1835.71060428
1826.83624545
1817.95616785
1809.08731797
1800.24416036
1791.43880808
1782.68035319
1773.97314747
1765.31525755
1756.69886129
1748.11622327
1739.57496124
1731.112271
1722.77327632
1714.57221985
1706.48408941
1698.47490079
1690.52066493
1682.62715386
1674.81967312
1667.1275688
1659.59231661
1652.24679563
1645.06456602
1637.99045474
1631.01009234
1624.12999829
1617.3568898
1610.69712505
1604.15662401
1597.74074874
1591.45434066
1585.30167713
1579.28653676
1573.41217591
1567.68139737
1562.09653237
1556.659517
1551.37188444
1546.23486423
1541.24939404
1536.41623569
1531.73600166
1527.20922298
1522.83630937
1518.61749876
1514.55274099
1510.6416898
1506.883672
1503.27778091
1499.82287489
1496.51766556
1493.36070044
1490.35042552
1487.48515667
1484.76312487
1482.18244377
1479.74114761
1477.43715947
1475.26833037
1473.23240602
1471.3270636
1469.54986078
1467.8982325
1466.36939085
1464.96024827
1463.66729699
1462.48666612
1461.41481141
1460.4507937
1459.60185743
1458.89421493
1458.37560885
1458.03257391
1457.66479653
1457.25947296
1971.98861022
1968.48890704
1962.80327352
1957.3611443
1953.30572757
1949.60317929
1945.3027288
1940.24722768
1934.4876838
1928.11398631
1921.21463924
1913.86930732
1906.14810871
1898.11233398
1889.81554546
1881.30495137
1872.62244405
1863.80562022
1854.88828266
1845.90084911
1836.87033989
1827.82048878
1818.77180277
1809.74201909
1800.74634017
1791.79737395
1782.9039098
1774.06895425
1765.28794527
1756.54978098
1747.84474138
1739.1837253
1730.61293835
1722.18099479
1713.90179057
1705.74827781
1697.67986399
1689.664868
1681.70725414
1673.8361554
1666.08577708
1658.50406982
1651.12528036
1643.91608585
1636.81460334
1629.80474319
1622.89359113
1616.08835672
1609.39587594
1602.82245707
1596.37382292
1590.05509161
1583.87079064
1577.82487743
1571.92077217
1566.16138691
1560.54916404
1555.08611116
1549.77384744
1544.61365002
1539.60651096
1534.75318358
1530.05423952
1525.51007358
1521.12092148
1516.8868016
1512.80749896
1508.88252753
1505.11114996
1501.49239265
1498.0250826
1494.70786777
1491.53924721
1488.51757867
1485.64110165
1482.9079332
1480.31608721
1477.86346456
1475.54787108
1473.36700928
1471.31849194
1469.39983155
1467.60843286
1465.94154345
1464.39619704
1462.96907264
1461.6564321
1460.45415073
1459.35838644
1458.36848327
1457.49353939
1456.76374619
1456.22992448
1455.85371479
1455.41000113
1455.02403772
1978.65779303
1974.56683846
1967.91620984
1961.73862665
1957.38652159
1953.64581243
1949.31891081
1944.17725373
1938.27530557
1931.7187034
1924.61013837
1917.04008089
1909.08653986
1900.8163509
1892.28699649
1883.54823245
1874.64365456
1865.61173396
1856.48673905
1847.29912454
1838.07595774
1828.84102215
1819.61518887
1810.41662963
1801.26105457
1792.16116307
1783.12512255
1774.15406856
1765.24041441
1756.36961827
1747.53075774
1738.73952625
1730.05235756
1721.52061672
1713.15693619
1704.93113819
1696.79553507
1688.71285027
1680.68469146
1672.74379492
1664.93070914
1657.30023651
1649.88656481
1642.64674243
1635.5127527
1628.46868176
1621.52215479
1614.68087959
1607.95210346
1601.34251499
1594.85814369
1588.50438234
1582.28596755
1576.20703911
1570.27114641
1564.48131578
1558.84006418
1553.34947005
1548.0111914
1542.82654151
1537.79650929
1532.9218296
1528.20299539
1523.64029912
1519.2338173
1514.98341862
1510.88872932
1506.94915099
1503.16384011
1499.53175311
1496.05163551
1492.72207279
1489.54147698
1486.50813106
1483.62017131
1480.87562344
1478.27238219
1475.80824271
1473.48087891
1471.28787572
1469.22670251
1467.29474133
1465.48924042
1463.80729997
1462.24577148
1460.80116374
1459.46948173
1458.24622048
1457.12704392
1456.1101943
1455.20340842
1454.43696637
1453.8627776
1453.44870334
1453.01722665
1452.62232536
1986.32788017
1981.53797391
1973.76171038
1966.71105485
1961.94579634
1958.0740119
1953.66626546
1948.3965546
1942.31598579
1935.54440138
1928.19871988
1920.38017615
1912.17416297
1903.65242676
1894.87550462
1885.89513559
1876.75599983
1867.49725418
1858.15339617
1848.75504881
1839.32928708
1829.90008224
1820.48851481
1811.11314931
1801.78991828
1792.53140234
1783.34464369
1774.22838774
1765.1713613
1756.15561887
1747.17062599
1738.23947158
1729.42782991
1720.78927353
1712.33507985
1704.03006767
1695.81916534
1687.66099537
1679.55512374
1671.53835447
1663.65845059
1655.97750077
1648.5278417
1641.25361177
1634.08160827
1626.99828135
1620.01183649
1613.13040973
1606.36164051
1599.71253284
1593.18940802
1586.79788354
1580.54289766
1574.42873228
1568.45906306
1562.63699332
1556.96511183
1551.4455274
1546.07993014
1540.86962373
1535.81558692
1530.91849498
1526.17877356
1521.59659617
1517.1719213
1512.90446737
1508.79373919
1504.83900475
1501.03932695
1497.39355372
1493.90035441
1490.5582141
1487.36546877
1484.32029627
1481.42074847
1478.6647367
1476.05006159
1473.57439531
1471.23530933
1469.03025847
1466.95660203
1465.01158447
1463.19233377
1461.49580165
1459.91870363
1458.45734548
1457.10748535
1455.86415905
1454.72196396
1453.67752074
1452.73600989
1451.92528916
1451.303375
1450.86190643
1450.50882198
1450.0361408
1995.12127397
1989.46506013
1980.34160281
1972.25604575
1966.95006248
1962.85587709
1958.31399006
1952.88129538
1946.59008509
1939.57421567
1931.96590675
1923.87744011
1915.40119663
1906.61294486
1897.57554541
1888.34189462
1878.95736906
1869.46137468
1859.88862265
1850.26976523
1840.6320391
1830.99953349
1821.39364094
1811.83316981
1802.3342223
1792.9088897
1783.56266488
1774.29114599
1765.07874007
1755.90416922
1746.7597638
1737.67951908
1728.73556363
1719.98300535
1711.43244025
1703.04121478
1694.74695466
1686.50490855
1678.3136626
1670.21508792
1662.26470522
1654.53232438
1647.04594449
1639.73328332
1632.51732019
1625.38943241
1618.35832084
1611.43250597
1604.6199378
1597.92791085
1591.36297748
1584.93096502
1578.63696393
1572.48539
1566.48000165
1560.62397484
1554.9199275
1549.36999551
1543.97585645
1538.7388024
1533.65975869
1528.73934733
1523.97789507
1519.37548059
1514.93192767
1510.6468387
1506.51957793
1502.54930468
1498.73495606
1495.07528674
1491.56885264
1488.21405335
1485.00911461
1481.95212858
1479.04103436
1476.27365389
1473.64767116
1471.16066496
1468.81008726
1466.5932966
1464.50753075
1462.54993463
1460.71751292
1459.00711104
1457.41530398
1455.93826441
1454.5714862
1453.30948584
1452.14595719
1451.07524625
1450.09898958
1449.24306526
1448.56657904
1448.05508626
1447.7728595
1447.25706954
2005.20830035
1998.41217194
1987.63456005
1978.33705313
1972.36583559
1967.95778655
1963.22202439
1957.5947425
1951.06886171
1943.78541021
1935.89384216
1927.51831798
1918.75776068
1909.69124445
1900.3829881
1890.88650827
1881.24729529
1871.50489188
1861.6940035
1851.84545157
1841.98658231
1832.14179
1822.33272714
1812.57853648
1802.895283
1793.2943153
1783.77892856
1774.34089587
1764.95968716
1755.61120847
1746.29326006
1737.05435337
1727.97088006
1719.09794021
1710.44520132
1701.96043777
1693.57454986
1685.23979182
1676.95514299
1668.76910423
1660.74541212
1652.96162135
1645.43782577
1638.08183064
1630.8155608
1623.63760864
1616.55697499
1609.5824377
1602.72221597
1595.98382747
1589.37403384
1582.89881661
1576.56340354
1570.37229525
1564.3293237
1558.43769197
1552.70004203
1547.11849219
1541.69470552
1536.42991902
1531.32500848
1526.38050472
1521.59665085
1516.97340241
1512.51047503
1508.20733148
1504.06322276
1500.0771709
1496.24800854
1492.57436289
1489.054695
1485.68728434
1482.47026687
1479.40161779
1476.47918798
1473.70068351
1471.06370056
1468.56570344
1466.20405752
1463.97600972
1461.87871405
1459.90920843
1458.06441724
1456.34108637
1454.73571805
1453.24436256
1451.862374
1450.58395954
1449.40192272
1448.30921652
1447.30553624
1446.41480802
1445.70827891
1445.22680157
1444.91342525
1444.32356058
2016.75212433
2008.42767388
1995.59939561
1984.89055275
1978.13280562
1973.33566971
1968.3531524
1962.50082295
1955.71867328
1948.15181682
1939.96323803
1931.28943279
1922.23550964
1912.88286995
1903.29644412
1893.52968356
1883.62803632
1873.63093531
1863.57324389
1853.48592684
1843.39669821
1833.33027833
1823.30878825
1813.35163564
1803.47480189
1793.68840811
1783.99293178
1774.37547111
1764.81035896
1755.27194568
1745.76647656
1736.35922518
1727.12959359
1718.13085501
1709.37026502
1700.78398678
1692.29737546
1683.86038723
1675.47408414
1667.19564696
1659.0974409
1651.26413931
1643.7005352
1636.29407757
1628.97135019
1621.73788657
1614.60284209
1607.57522333
1600.66346051
1593.87527445
1587.21757819
1580.69648761
1574.31731348
1568.08462676
1562.00228294
1556.07350379
1550.30090795
1544.68659303
1539.23216207
1533.93879969
1528.80729005
1523.83808366
1519.03130426
1514.38680462
1509.90416208
1505.58272559
1501.4216028
1497.41970351
1493.57572227
1489.88818174
1486.35541285
1482.97559807
1479.74674977
1476.66675179
1473.73333646
1470.94412293
1468.29659389
1465.78813171
1463.41599489
1461.17735569
1459.06927086
1457.08871401
1455.23252914
1453.49741705
1451.87982435
1450.37580602
1448.98067428
1447.68851885
1446.49200304
1445.38328369
1444.36137157
1443.45522131
1442.75342928
1442.33853916
1441.93144453
1441.23522346
2029.87732025
2019.49649425
2004.14793703
1991.81921461
1984.16419936
1978.928991
1973.66675821
1967.55877031
1960.50461149
1952.64750108
1944.15651426
1935.18053535
1925.82997037
1916.18779115
1906.31885224
1896.27638382
1886.10558252
1875.84603254
1865.53281555
1855.19741104
1844.868013
1834.56999423
1824.32599559
1814.1558258
1804.0751097
1794.09228591
1784.20408966
1774.39209597
1764.62554907
1754.88017623
1745.17501125
1735.59034187
1726.20783791
1717.07871729
1708.20447911
1699.50776176
1690.91027282
1682.36074805
1673.86452213
1665.48993816
1657.31929778
1649.43952746
1641.82981896
1634.36393577
1626.97931415
1619.68502728
1612.49070018
1605.4056205
1598.4384404
1591.59703491
1584.88844619
1578.31886673
1571.89366987
1565.61744226
1559.49404954
1553.52668129
1547.71792654
1542.06981417
1536.58388762
1531.26123405
1526.10255392
1521.10817656
1516.2781226
1511.61210591
1507.10958861
1502.76977213
1498.59164647
1494.57397475
1490.71533895
1487.01412139
1483.46854838
1480.07666992
1476.83640174
1473.745503
1470.80161691
1468.00224596
1465.34479168
1462.82652942
1460.44464653
1458.19622114
1456.07825315
1454.08764123
1452.22119624
1450.47558125
1448.84726774
1447.33233423
1445.92620454
1444.623101
1443.41552062
1442.29554017
1441.2620566
1440.34379794
1439.63629092
1439.22593329
1438.76516172
1437.96576238
2044.67527837
2031.46368382
2013.09371773
1998.9753733
1990.332122
1984.64313214
1979.10960807
1972.73244679
1965.39982326
1957.2524006
1948.4625007
1939.18831786
1929.54398318
1919.61293455
1909.45975256
1899.13733231
1888.69107046
1878.1609478
1867.5828341
1856.9889894
1846.4085689
1835.86777827
1825.39008434
1814.99563003
1804.69946388
1794.50755664
1784.4119126
1774.38758854
1764.39939743
1754.42884675
1744.51378815
1734.7438372
1725.20205843
1715.93861018
1706.9437643
1698.1267609
1689.4077792
1680.73447049
1672.12032485
1663.64718448
1655.4086061
1647.48443374
1639.82064777
1632.28671576
1624.83429105
1617.47367119
1610.21509231
1603.06815507
1596.04169021
1589.14369768
1582.38128657
1575.76069769
1569.28730715
1562.9656976
1556.79968958
1550.79242973
1544.9464261
1539.2636363
1533.74549595
1528.39300001
1523.20672049
1518.18687867
1513.3333512
1508.64573324
1504.12333388
1499.76523195
1495.57026292
1491.53707006
1487.66408548
1483.9495788
1480.39163439
1476.98819853
1473.73705424
1470.63586651
1467.68215594
1464.87334112
1462.2067126
1459.67947385
1457.28871588
1455.03146082
1452.90463241
1450.90509687
1449.02962363
1447.27488751
1445.63738049
1444.11330405
1442.69820764
1441.3864426
1440.17068103
1439.04226769
1437.99829348
1437.06710236
1436.34468922
1435.91910266
1435.40983713
1434.50724516
2061.10759707
2043.97738354
2022.11572822
2006.13655941
1996.47353058
1990.36198376
1984.60464313
1977.98545292
1970.38394438
1961.95572194
1952.88154649
1943.32143741
1933.39157982
1923.17551011
1912.73753264
1902.13095817
1891.40194743
1880.5917735
1869.73761691
1858.87322798
1848.02907271
1837.23266975
1826.50842875
1815.87687304
1805.35190524
1794.93613652
1784.61554365
1774.35808881
1764.12585287
1753.91137697
1743.77624296
1733.81488157
1724.10919225
1714.70757404
1705.58388031
1696.63606317
1687.78403348
1678.97557292
1670.2367257
1661.66355512
1653.36137033
1645.39370668
1637.66881423
1630.0582447
1622.53104122
1615.0981992
1607.77028778
1600.55708038
1593.46751411
1586.50963444
1579.69057548
1573.01655936
1566.49293699
1560.12422662
1553.9141872
1547.86586701
1541.98168656
1536.26348061
1530.71257928
1525.32983711
1520.11570809
1515.07026051
1510.19324489
1505.48409573
1500.94199272
1496.56585192
1492.35438142
1488.30606508
1484.41921417
1480.69194622
1477.12223403
1473.70788155
1470.44657094
1467.33583621
1464.37310892
1461.55568966
1458.88079328
1456.34552086
1453.94690402
1451.68188262
1449.54734349
1447.54009952
1445.65691821
1443.8944723
1442.24932541
1440.71775466
1439.29547951
1437.97702227
1436.75478068
1435.61949773
1434.56639245
1433.61907238
1432.87481493
1432.43072485
1431.86997826
1430.85761273
2078.904105
2056.39343052
2030.72677717
2012.98582144
2002.39696083
1995.98474043
1990.10487372
1983.30123952
1975.45324836
1966.76841205
1957.43397122
1947.60657853
1937.40287158
1926.90632719
1916.18211617
1905.28501585
1894.26335547
1883.16062326
1872.01636082
1860.86639521
1849.74318685
1838.67585559
1827.69002293
1816.80629827
1806.0367492
1795.37928006
1784.81249733
1774.29720686
1763.79679082
1753.32148316
1742.95556579
1732.79688202
1722.92467079
1713.38117457
1704.11995354
1695.03033686
1686.03198154
1677.07769074
1668.20944715
1659.53685778
1651.17545461
1643.16383036
1635.36928277
1627.67274223
1620.06352468
1612.55249659
1605.15018003
1597.86635768
1590.70995902
1583.68901194
1576.8105991
1570.08088538
1563.50513048
1557.08776442
1550.83242469
1544.74204958
1538.81891675
1533.06473687
1527.48068288
1522.06747661
1516.82540553
1511.75440055
1506.85404036
1502.12362089
1497.56214883
1493.16840428
1488.94092558
1484.87806697
1480.977977
1477.23865289
1473.65791464
1470.23345717
1466.96282185
1463.84344644
1460.87263552
1458.04760764
1455.36546673
1452.82324834
1450.4178927
1448.14629512
1446.00527643
1443.99163334
1442.10210597
1440.33339562
1438.68209478
1437.14460503
1435.71673975
1434.39305611
1433.16592712
1432.02477196
1430.96172367
1429.99811158
1429.23055756
1428.76256684
1428.14694904
1427.01929592
2097.67946831
2067.85827512
2038.27827462
2019.07544785
2007.90566727
2001.43661518
1995.59036686
1988.68803848
1980.63878914
1971.73338151
1962.16881882
1952.09558796
1941.62888932
1930.85348509
1919.83716254
1908.63831569
1897.30897401
1885.89637368
1874.44334198
1862.98871804
1851.56742599
1840.21064921
1828.9451662
1817.79126112
1806.75798
1795.83698365
1784.99810203
1774.19606397
1763.40212059
1752.65290712
1742.04669838
1731.6842142
1721.64421738
1711.95527173
1702.54637236
1693.30210459
1684.14284863
1675.03224751
1666.03243913
1657.26585537
1648.85314376
1640.79079312
1632.91288403
1625.1226985
1617.42484914
1609.8299256
1602.34829356
1594.98964533
1587.76283104
1580.67577996
1573.73547395
1566.94794925
1560.318342
1553.8509294
1547.54920955
1541.41595143
1535.45328423
1529.66273931
1524.04533708
1518.60161477
1513.33170666
1508.23535711
1503.31199351
1498.56072621
1493.98041508
1489.56965875
1485.3268559
1481.25018653
1477.33766928
1473.58713711
1469.99629188
1466.56267654
1463.28372772
1460.15674547
1457.17894448
1454.34742187
1451.65920824
1449.1112368
1446.70039388
1444.4234955
1442.27733295
1440.258653
1438.36419802
1436.59066218
1434.93469576
1433.39273528
1431.96069796
1430.63319348
1429.40210433
1428.25594753
1427.18440467
1426.2029803
1425.40934301
1424.91841078
1424.2439997
1422.99279415
2117.14079248
2077.40091581
2043.95622729
2024.0155432
2012.88468737
2006.74262527
2001.12253129
1994.19573832
1986.01044052
1976.9354952
1967.17394755
1956.8724622
1946.14659865
1935.08525758
1923.76213759
1912.24165747
1900.58175047
1888.8347701
1877.04808042
1865.26420084
1853.52115435
1841.85232446
1830.2855243
1818.8397431
1807.51950641
1796.30826107
1785.1663207
1774.04554888
1762.9334669
1751.89873177
1741.04569603
1730.47472633
1720.26557811
1710.42602186
1700.85616065
1691.44130888
1682.10550558
1672.82883643
1663.69849027
1654.85081347
1646.39466911
1638.26626556
1630.28989055
1622.40014631
1614.607698
1606.92347626
1599.35782528
1591.92032808
1584.61969168
1577.4636918
1570.45913522
1563.61188806
1556.92689363
1550.40825097
1544.05925527
1537.88249519
1531.87989258
1526.05280049
1520.40203158
1514.92794929
1509.6304823
1504.50920728
1499.5633501
1494.79186082
1490.19340384
1485.76642641
1481.50914
1477.41958388
1473.49559997
1469.73489287
1466.13500033
1462.69335082
1459.40723142
1456.273843
1453.29026712
1450.45351844
1447.76051302
1445.20812019
1442.79313304
1440.51232538
1438.36242001
1436.34014688
1434.44221157