/*--------------------------------*- C++ -*----------------------------------*\
| =========                 |                                                 |
| \\      /  F ield         | OpenFOAM: The Open Source CFD Toolbox           |
|  \\    /   O peration     | Version:  v1906                                 |
|   \\  /    A nd           | Web:      www.OpenFOAM.com                      |
|    \\/     M anipulation  |                                                 |
\*---------------------------------------------------------------------------*/
FoamFile
{
    version     2.0;
    format      ascii;
    class       volScalarField;
    location    "499";
    object      pa;
}
// * * * * * * * * * * * * * * * * * * * * * * * * * * * * * * * * * * * * * //

dimensions      [0 2 -2 0 0 0 0];


internalField   nonuniform List<scalar> 
9216
(
916.446299731
916.140918733
915.509178402
914.545562337
913.255480839
911.644947137
909.721503789
907.493996292
904.972553533
902.168331518
899.093516751
895.761042755
892.184612138
888.378394269
884.357072702
880.135534699
875.728949061
871.152455705
866.421275758
861.550406708
856.554763771
851.44888347
846.247092914
840.963222996
835.610800989
830.20277347
824.751717102
819.269571305
813.767862452
808.257446274
802.748740829
797.251480801
791.774955986
786.327772303
780.918093693
775.553417078
770.240812347
764.98670771
759.797126713
754.677485122
749.632822648
744.667611328
739.785980083
734.991534616
730.287573326
725.676918495
721.162122269
716.745308884
712.428369735
708.212816186
704.099962884
700.090790735
696.186117897
692.386472398
688.692250405
685.103598072
681.62055698
678.242954797
674.970537964
671.802870922
668.739456386
665.779642929
662.922733339
660.167900486
657.514284445
654.960916556
652.506806067
650.150872346
647.892021867
645.729088438
643.660901343
641.686233404
639.80386106
638.012519961
636.310957691
634.697896487
633.172079271
631.732238961
630.377138379
629.105545553
627.916268004
626.808133357
625.780018413
624.830834353
623.959550891
623.165185273
622.44682155
621.803602211
621.23474169
620.739517373
620.317271032
619.967383812
619.689224894
619.481947922
619.342085872
619.286152699
916.750741315
916.44363896
915.81025754
914.842303281
913.546034422
911.927761857
909.995180458
907.757295933
905.224358483
902.407688222
899.319594163
895.973179677
892.382264628
888.561184472
884.524726138
880.28793101
875.866051339
871.274364014
866.528150918
861.64252725
856.63244622
851.512543026
846.297161952
841.000215279
835.635229531
830.215217686
824.752740913
819.259792401
813.747871218
808.22787642
802.710190431
797.204581168
791.720292511
786.265957316
780.849691215
775.479011772
770.160936207
764.901908138
759.707896327
754.584327952
749.536187136
744.567954222
739.683702868
734.887044782
730.181224333
725.569068191
721.053076516
716.63537696
712.317811628
708.101894858
703.988895265
699.979796763
696.075375125
692.276161752
688.582514348
684.994583032
681.512374918
678.135722294
674.864341072
671.697800913
668.635577708
665.67702566
662.821424113
660.067951715
657.415728054
654.863790085
652.41112909
650.056669584
647.799302154
645.637865022
643.571173277
641.598003225
639.717118483
637.927257133
636.227155071
634.615535896
633.091131813
631.652676086
630.298921713
629.028636185
627.840618076
626.733693783
625.706732102
624.758642571
623.888388038
623.094984183
622.377510002
621.735108074
621.166992913
620.67245203
620.250854151
619.901659047
619.624451169
619.419061679
619.286004058
619.230169215
917.384054219
917.072236482
916.433114776
915.456492256
914.148720279
912.516251405
910.566967042
908.310099195
905.756126257
902.916625181
899.804149558
896.432068461
892.814442711
888.965863541
884.901338817
880.636141665
876.185714297
871.565532921
866.791033124
861.877493986
856.839985792
851.693273382
846.451784507
841.129530594
835.74009274
830.296557208
824.811515751
819.297013324
813.764559897
808.225088347
802.688975552
797.166008522
791.665413291
786.195829043
780.765342082
775.381466171
770.051181152
764.780918703
759.576603997
754.443645903
749.38698059
744.411065349
739.519923152
734.717139386
730.005906501
725.389022943
720.86893709
716.447747744
712.127246625
707.908919764
703.7939879
699.783408196
695.877911981
692.078006268
688.384008404
684.796047025
681.314093344
677.937961302
674.667335411
671.501770053
668.440713974
665.483508832
662.629410589
659.877587546
657.227139024
654.677093187
652.226423442
649.874046409
647.618836497
645.459624329
643.395209912
641.42436178
639.545829101
637.758341706
636.060621388
634.451382879
632.929344506
631.493230086
630.141778994
628.873748873
627.6879251
626.583124126
625.558202271
624.612059466
623.74364728
622.951972826
622.236105952
621.595183252
621.028414722
620.535088797
620.114581123
619.766366672
619.490043629
619.285393646
619.152668928
619.090392328
918.357655213
918.040410113
917.392320501
916.402154768
915.076456646
913.421910657
911.446688648
909.160360617
906.573768406
903.698877932
900.548636046
897.136813396
893.4778595
889.586749105
885.478847827
881.169772285
876.675274288
872.011120862
867.193000976
862.236427791
857.156668397
851.96866752
846.686998136
841.325803837
835.898766835
830.419065509
824.899356234
819.351743063
813.787770548
808.218403333
802.654027973
797.104440766
791.578857464
786.085907582
780.63364997
775.229573676
769.880618013
764.593178087
759.373128479
754.225832469
749.156168294
744.168541176
739.266911274
734.454807742
729.735357565
725.111300922
720.585020162
716.158555774
711.833634799
707.61168673
703.493870697
699.481090679
695.574020887
691.773119747
688.078653021
684.490706179
681.009204952
677.633925874
674.364514169
671.200492429
668.141275925
665.186179576
662.334430935
659.58517574
656.937488966
654.39037934
651.942798889
649.593646848
647.341778152
645.186007117
643.125115279
641.157855171
639.282957821
637.499136846
635.805095822
634.199532813
632.681147713
631.248647224
629.900752179
628.636202889
627.453766384
626.352241984
625.330468332
624.387329012
623.521759235
622.732751343
622.019361085
621.380713027
620.816006713
620.3245227
619.905630115
619.558795659
619.283595188
619.079732232
618.947293122
618.883687028
919.675560926
919.351336442
918.690989242
917.682276476
916.332038479
914.647295708
912.636626478
910.310065621
907.678959798
904.755808539
901.554103908
898.088165243
894.372979169
890.424041382
886.257209943
881.888564663
877.334281849
872.610517239
867.733305927
862.718470594
857.58154646
852.337713086
847.001741288
841.587944594
836.110143689
830.581633086
825.015158938
819.422897384
813.816442794
808.206795531
802.604358837
797.018934561
791.459728069
785.935349384
780.453824225
775.022602125
769.648571563
764.338072432
759.096914882
753.930395135
748.843317036
743.84001033
738.92435408
734.099796631
729.369380152
724.735761562
720.201237462
715.767765321
711.436988097
707.210254986
703.08864504
699.072986827
695.163880437
691.361715484
687.666690991
684.078831335
680.598003683
677.223931647
673.956210171
670.794316876
667.737624504
664.785410146
661.936865518
659.191104436
656.547171342
654.004047465
651.560658078
649.215877837
646.968537245
644.817427599
642.761307089
640.798905715
638.92893134
637.150074818
635.461016204
633.860430234
632.346992762
630.919386606
629.576308205
628.316473749
627.13862595
626.041540319
625.024031895
624.08496149
623.223242218
622.437845541
621.727807493
621.092234497
620.530309373
620.041297177
619.624551347
619.279519262
619.005746833
618.802882327
618.670940035
618.607134193
921.34439416
921.011340148
920.335294124
919.302787931
917.921069567
916.197611391
914.141529202
911.76346592
909.075427622
906.090606685
902.823202974
899.288243748
895.501408637
891.478860816
887.237089519
882.792763407
878.162598881
873.363241365
868.411162719
863.322571489
858.11333831
852.798932198
847.39436953
841.914170961
836.372328117
830.782275463
825.156869659
819.508372283
813.848438784
808.188109944
802.53780898
796.907340623
791.305896274
785.742057603
780.223808106
774.758544141
769.353089833
764.013712437
758.746140805
753.555583893
748.446751841
743.423876752
738.49073561
733.650672606
728.906623167
724.261137136
719.716403215
715.274272285
710.936281544
706.703677248
702.577437824
698.558295331
694.64675689
690.84312424
687.147512938
683.559869564
680.079988338
676.707525724
673.442014352
670.282875029
667.229428095
664.28090307
661.43644778
658.69513606
656.055975128
653.517911872
651.079839014
648.740600522
646.498997113
644.353791286
642.303712611
640.347462794
638.483721082
636.711149624
635.028399203
633.434115014
631.926942798
630.505535039
629.168557451
627.914695514
626.742661178
625.651199569
624.639095734
623.705181318
622.848341151
622.067519699
621.36172733
620.730046399
620.171637092
619.685743003
619.271696265
618.928921546
618.656937949
618.45536053
618.324174805
618.260621188
923.37256256
923.028629168
922.333204089
921.271313871
919.850730406
918.079507015
915.967444639
913.525956605
910.767880841
907.707279679
904.359238501
900.7396662
896.865102341
892.752534369
888.419227943
883.882572176
879.159941366
874.268573658
869.225466918
864.047290976
858.750315353
853.350350594
847.862701568
842.302130443
836.682827731
831.018389504
825.321799922
819.605417979
813.880968414
808.159536229
802.451565233
796.76685978
791.114591088
785.503303074
779.940925576
774.434787597
768.991633271
763.617639386
758.318434722
753.099120456
747.964291961
742.918061298
737.96408077
733.105566828
728.345324723
723.685773171
719.128969415
714.676633946
710.330175244
706.090713794
701.959105741
697.935965443
694.021687305
690.216466187
686.520316797
682.93309146
679.454496667
676.084107933
672.821383399
669.665675794
666.616243247
663.672258651
660.832818088
658.096948088
655.463612234
652.931716933
650.500116833
648.167619739
645.932991456
643.794960409
641.752222426
639.803445505
637.94727489
636.182338277
634.507251391
632.920623739
631.421064752
630.007190072
628.67762818
627.431027105
626.266061371
625.18143893
624.175908212
623.24826505
622.397359596
621.622102989
620.921473907
620.294524751
619.740387579
619.258279507
618.847507535
618.507471861
618.23766786
618.037688936
617.907505985
617.844441172
925.770414452
925.413351648
924.694563842
923.597254081
922.129850433
920.301134461
918.121762209
915.604103215
912.762022926
909.610652602
906.166160593
902.445528362
898.466336777
894.246565944
889.80441196
885.15812196
880.325849317
875.325528848
870.174772504
864.890783898
859.490290744
853.98949224
848.404019504
842.748905578
837.038563258
831.286767964
825.506645061
819.710660211
813.910613275
808.117635157
802.34218912
796.594073758
790.882431805
785.215758555
779.60191684
774.048152542
768.561112504
763.146863887
757.810915154
752.558238054
747.393290812
742.320042033
737.341995494
732.462215393
727.683352165
723.007668465
718.437065357
713.973108329
709.617053095
705.369870844
701.232272826
697.204733987
693.287515526
689.480686132
685.784141814
682.197624156
678.720736968
675.352961268
672.093668632
668.942132937
665.897540618
662.958999546
660.125546674
657.396154645
654.769737516
652.245155816
649.821221097
647.496700177
645.270319227
643.140767852
641.106703271
639.16675474
637.319528216
635.563611411
633.89757916
632.319999205
630.829438299
629.42446869
628.103674841
626.865660459
625.709055636
624.632524177
623.634770899
622.714548988
621.870667169
621.101996789
620.407478574
619.786129143
619.237047025
618.759418212
618.352520941
618.015729384
617.748515939
617.55045566
617.421507264
617.359090581
928.550417583
928.17774338
927.431229795
926.291906909
924.769013273
922.872232572
920.613274729
918.005681514
915.064570624
911.806368509
908.248547944
904.409374921
900.307670015
895.96258829
891.393420148
886.619415288
881.659630466
876.532801827
871.257240918
865.850753519
860.330578547
854.713344466
849.015039077
843.25098943
837.435847971
831.583582829
825.707470246
819.820089131
813.933317547
808.05833211
802.205611527
796.384941634
790.605426268
784.8754989
779.20293979
773.594894181
768.057892324
762.597871085
757.220196669
751.929688447
746.730643624
741.626862741
736.621675837
731.717969179
726.91821244
722.224486132
717.638509169
713.161666302
708.795035286
704.539413461
700.395343603
696.363138703
692.442905556
688.634566841
684.937881633
681.352464093
677.877800374
674.513263597
671.258127013
668.111575321
665.072714371
662.140579271
659.314141225
656.592313173
653.973954569
651.457875427
649.04283994
646.727569785
644.510747406
642.391019335
640.366999782
638.437274515
636.60040519
634.854934101
633.199389448
631.632291046
630.152156544
628.757508004
627.44687892
626.218821466
625.071914052
624.004768961
623.016040134
622.104430855
621.268701429
620.507676579
619.820252663
619.20540444
618.66219146
618.189763824
617.78736734
617.454347398
617.190152283
616.994338778
616.866850439
616.805213444
931.727367736
931.336316141
930.557245459
929.368623107
927.780685542
925.804227237
923.452249048
920.739719166
917.683268869
914.300879149
910.611577908
906.63515212
902.391880758
897.902291634
893.186944914
888.26624441
883.160278044
877.888687212
872.470564997
866.924380925
861.267929914
855.51830064
849.691858906
843.804240164
837.870347077
831.904348174
825.919676483
819.929027566
813.944358579
807.976889224
802.037107571
796.134777271
790.278950217
784.47798229
778.739553281
773.070687876
767.477778458
761.966608949
756.542379702
751.209733103
745.972780006
740.835126795
735.799903149
730.869790309
726.047049832
721.333552606
716.73080801
712.239992982
707.861980763
703.597369084
699.446507471
695.409523448
691.486347313
687.676735283
683.980290763
680.396483622
676.924667322
673.564093931
670.313926971
667.173252267
664.141086862
661.216386263
658.398050174
655.684927031
653.075817544
650.569477577
648.164620561
645.859919745
643.654010444
641.545492532
639.532933259
637.614870596
635.78981709
634.056264376
632.412688257
630.857554455
629.389324868
628.006464432
626.707448348
625.490769782
624.354947757
623.29853534
622.320127824
621.418371018
620.591969322
619.839693717
619.160389351
618.552982833
618.016488949
617.550016877
617.15277565
616.824078797
616.563347924
616.37011892
616.244317047
616.183583363
935.318641779
934.906097271
934.089057139
932.842993385
931.179369638
929.110347253
926.650504257
923.816538223
920.6269004
917.101425978
913.260982949
909.127144452
904.721889276
900.067333563
895.185494968
890.098090808
884.826370494
879.390983084
873.811878852
868.108243465
862.298460465
856.400097037
850.429905458
844.403833307
838.337035194
832.243881988
826.13796526
820.032098387
813.938316351
807.867877615
801.831271008
795.838226065
789.897726514
784.018032061
778.206701099
772.470615345
766.816005559
761.248478095
755.773041904
750.394136144
745.1156583
739.940992981
734.87304129
729.914250803
725.066646004
720.33185908
715.711160887
711.205491857
706.815492626
702.541534035
698.383746247
694.342046557
690.416165683
686.605672101
682.909994314
679.328440721
675.8602171
672.504441542
669.260156988
666.126341375
663.101915673
660.18574995
657.376667839
654.673449628
652.074834369
649.579521268
647.186170716
644.893405203
642.699810414
640.603936669
638.604300933
636.699389456
634.887661195
633.167551986
631.537479539
629.995849154
628.541060201
627.171513177
625.885617389
624.68179902
623.558509621
622.514234772
621.547502945
620.656894294
619.841049444
619.098677953
618.428566576
617.829586979
617.300703059
616.84097756
616.449578134
616.125782205
615.868981425
615.67868828
615.554805341
615.495097678
939.344510451
938.906921068
938.045779847
936.733074816
934.98178519
932.805757324
930.22149722
927.24779613
923.905287291
920.216007493
916.202989827
911.889890922
907.300656433
902.459225427
897.389274471
892.114001335
886.65594966
881.036874777
875.277651218
869.39821944
863.417567917
857.353742504
851.223873775
845.044210738
838.830151705
832.596265313
826.35630061
820.123188396
813.909039601
807.725145581
801.581985301
795.489238841
789.455802172
783.489816457
777.598694484
771.789149423
766.067224163
760.438320549
754.90722871
749.47815649
744.154759355
738.940170816
733.83703354
728.847531062
723.973420089
719.216063221
714.576461946
710.055289662
705.652924447
701.369481248
697.204843068
693.158690798
689.230531221
685.419722895
681.725499502
678.146990539
674.683239088
671.33321674
668.095835607
664.969957683
661.954401683
659.047947734
656.249340191
653.557289037
650.970470173
648.487525068
646.107060071
643.82764579
641.647816763
639.566071745
637.580874705
635.690656774
633.893819095
632.188736746
630.573763575
629.047238046
627.607489876
626.252847528
624.981646279
623.792236927
622.682994823
621.652329292
620.698693109
619.820592107
619.016594567
618.28534049
617.625550411
617.036033857
616.515697155
616.063550682
615.678715325
615.36042817
615.108046985
614.921056947
614.79933482
614.740779189
943.82852574
943.361794226
942.449521835
941.059663723
939.207081084
936.907707699
934.18041192
931.046520662
927.529278503
923.653327419
919.444235528
914.928075891
910.131055218
905.079190826
899.798033595
894.312437
888.646372808
882.822795967
876.863559438
870.789378609
864.619839689
858.373442889
852.067665538
845.719029241
839.343155457
832.954800587
826.567868783
820.195409307
813.849607981
807.541783117
801.282391224
795.081043096
788.946523017
782.88682683
776.909193227
771.020137894
765.225486685
759.530407798
753.939443118
748.456539402
743.085079707
737.82791545
732.687399201
727.66541825
722.76342888
717.982491189
713.323304364
708.786242073
704.37138776
700.078569343
695.907392957
691.85727511
687.927472879
684.11711153
680.425209312
676.850698986
673.392446048
670.049263473
666.819923173
663.703164244
660.697698408
657.8022129
655.015371351
652.335813017
649.762150945
647.292969441
644.926821397
642.662225768
640.497665654
638.431587162
636.462399346
634.588475287
632.80815445
631.119746255
629.521534908
628.011785336
626.588750202
625.250677793
623.99582075
622.822445377
621.728841513
620.713332668
619.774286435
618.910124832
618.119334652
617.400477423
616.75219912
616.173239236
615.662439363
615.218750982
614.841242622
614.529105732
614.281659996
614.098360229
613.979053017
613.921779852
948.798005432
948.297343641
947.325782265
945.846621189
943.877080736
941.43569779
938.544247411
935.227131426
931.510716106
927.422716029
922.991653478
918.246387843
913.215709432
907.927989998
902.410885396
896.691088332
890.794133954
884.74426217
878.564341728
872.275856777
865.898951891
859.452522188
852.954328531
846.421111719
839.868682282
833.311970437
826.765036608
820.241055076
813.752290031
807.310082682
800.924851291
794.606111206
788.362506447
782.201854346
776.131185986
770.156786554
764.284232889
758.518428166
752.863634915
747.32350738
741.901124235
736.599022068
731.419229873
726.363304513
721.432367072
716.627139997
711.947984829
707.394940355
702.967760742
698.665953303
694.488815191
690.435468491
686.50489296
682.695955899
679.007438553
675.438058781
671.986489661
668.651374097
665.431335427
662.324984372
659.33092262
656.447743576
653.674030758
651.008354469
648.449267285
645.995298979
643.644951382
641.396693696
639.248958623
637.200139685
635.24858988
633.392621914
631.630509949
629.960492968
628.380779567
626.889554183
625.48498449
624.165229956
622.928451219
621.772820317
620.69653137
619.697811779
618.774933514
617.926224572
617.150080175
616.444973813
615.809467713
615.24222287
614.742008285
614.307709518
613.938336321
613.633029407
613.391065695
613.211865195
613.095241313
613.039387595
954.284642325
953.744379938
952.703937822
951.121261197
949.016560708
946.411648524
943.331894901
939.805437472
935.862369372
931.534015496
926.852321555
921.849339537
916.556792611
911.005704359
905.22608194
899.246651151
893.094647255
886.795671534
880.373623184
873.850713735
867.247560689
860.58334515
853.876002641
847.142407303
840.398509114
833.659399697
826.939308322
820.251555179
813.608496325
807.021493507
800.500907303
794.056125228
787.69561221
781.426966012
775.256970191
769.191642194
763.23627504
757.395473842
751.673189301
746.072750468
740.596898176
735.247819781
730.027185323
724.93618495
719.975567512
715.14568012
710.446508662
705.877718961
701.438698338
697.128596882
692.94636786
688.890806263
684.96058481
681.15428644
677.470432822
673.907508244
670.463978781
667.138306544
663.928959304
660.834415676
657.853166478
654.983712726
652.224561056
649.574217176
647.031178175
644.593924301
642.260910945
640.030561327
637.901260415
635.871350408
633.939128046
632.102843857
630.36070339
628.710870362
627.151471599
625.680603611
624.296340624
622.99674384
621.77987179
620.643791474
619.586590234
618.606387971
617.701349723
616.869698151
616.10972602
615.419808185
614.798413234
614.244114327
613.7555994
613.331680387
612.971301654
612.673546954
612.437645555
612.262979286
612.149323758
612.095033158
960.325281369
959.738601816
958.617842078
956.914809401
954.653560614
951.860072379
948.564189146
944.798594936
940.597822703
935.997417169
931.033263122
925.741041711
920.155781254
914.311473989
908.240742767
901.974553692
895.541984275
888.970064223
882.283710432
875.505772051
868.657189392
861.757247696
854.823882222
847.873968811
840.923531639
833.987822734
827.081280402
820.217419713
813.408720831
806.666566548
800.001234551
793.421939019
786.93691245
780.553480847
774.278132738
768.116576067
762.073783301
756.154027641
750.360915036
744.697415863
739.165898435
733.768164829
728.505488775
723.378655238
718.388001295
713.533458335
708.814595477
704.230664219
699.780643848
695.463287073
691.277164826
687.220709243
683.292253557
679.490068004
675.812390755
672.257453426
668.823500733
665.508804357
662.311671144
659.230446172
656.263511192
653.409279308
650.666186619
648.032681818
645.507214553
643.088223476
640.774124725
638.563301556
636.45409565
634.444800559
632.533657484
630.718853564
628.998522593
627.370748114
625.833568618
624.384984713
623.0229679
621.745470855
620.550438802
619.435821958
618.399588581
617.439738647
616.554317658
615.741430631
614.999255748
614.326057757
613.720200632
613.18015963
612.704532315
612.292048709
611.941580262
611.652147826
611.422927653
611.2532584
611.142874734
611.090299576
966.962922291
966.321496461
965.106565784
963.262942177
960.81971483
957.808221219
954.263909653
950.225001725
945.731297928
940.823237044
935.541191006
929.924924195
924.013156153
917.843182282
911.450526769
904.86862511
898.128552296
891.258829225
884.285345488
877.231434261
870.118115024
862.964487014
855.788209547
848.605962633
841.433764501
834.28705951
827.180591356
820.128171907
813.142468029
806.23488978
799.415589148
792.693538001
786.076662154
779.571948138
773.185532745
766.922768978
760.788271742
754.785949673
748.91903192
743.190096649
737.601103962
732.153432899
726.847921481
721.684908636
716.664277574
711.78550054
707.047685399
702.449624001
697.989842234
693.666650794
689.478195604
685.422506187
681.497540632
677.701225576
674.031490306
670.486294053
667.063646304
663.761619957
660.578357786
657.512072671
654.561042497
651.72360057
648.998122711
646.383012023
643.876682526
641.477542634
639.1839795
636.994344998
634.906944049
632.920025728
631.031777429
629.240322178
627.543718979
625.939966008
624.427006334
623.002735869
621.665013212
620.411671084
619.240529094
618.149407543
617.136142079
616.198598843
615.334689983
614.542389097
613.819746556
613.164904202
612.576109508
612.051728669
611.590258831
611.190339023
610.850760064
610.570472702
610.348594599
610.184417495
610.077630045
610.026931215
974.248038816
973.541497738
972.215317759
970.206409672
967.550584714
964.286176037
960.45569336
956.104095319
951.277386249
946.021613043
940.38218625
934.403399645
928.128049332
921.597082249
914.84923927
907.920691097
900.84469704
893.651339807
886.367405008
879.016472105
871.619261447
864.194229423
856.758325418
849.3277343
841.918378909
834.546002022
827.225859578
819.97225633
812.798157885
805.715005854
798.732745423
791.859997435
785.104272962
778.472130486
771.969288814
765.60069917
759.37058547
753.282463732
747.339157284
741.542819273
735.894964854
730.396510334
725.047816229
719.848732183
714.798642704
709.896514403
705.140945522
700.530218475
696.062355162
691.73517425
687.546348514
683.493460274
679.574052623
675.785674735
672.125919699
668.59245412
665.183038956
661.895541788
658.727940866
655.678321821
652.744867982
649.925845587
647.219585142
644.624460344
642.138865885
639.76119545
637.489821073
635.323074841
633.259233745
631.296508198
629.433034496
627.666871239
625.995999505
624.418326437
622.931691778
621.533876971
620.222616292
618.995609814
617.850537708
616.785075813
615.796911965
614.883763093
614.043392461
613.273627095
612.572374724
611.937640317
611.367541586
610.860323608
610.414372056
610.028225235
609.700584571
609.430323885
609.216496171
609.058340641
608.955496562
608.906845657
982.240345845
981.455508407
979.996595855
977.791737713
974.88594559
971.326816609
967.165798238
962.456006137
957.25065794
951.602108236
945.561306244
939.177471876
932.497838315
925.567363609
918.428364837
911.120079754
903.678203835
896.134489563
888.516519709
880.847776934
873.148107617
865.434607134
857.72282008
850.027970284
842.365798799
834.752610819
827.204591905
819.736902251
812.362988258
805.094301333
797.940425116
790.909444296
784.008295913
777.242996805
770.618774069
764.140134639
757.810888889
751.634142745
745.612290668
739.747029084
734.039389803
728.489783821
723.098049578
717.863501605
712.784978411
707.860891287
703.089276437
698.467851651
693.994078012
689.665225176
685.478437862
681.430800267
677.519395548
673.74135769
670.093914133
666.574417926
663.180369188
659.909425913
656.759404948
653.72827406
650.814136577
648.015209999
645.329800346
642.756273827
640.293027583
637.938461014
635.690949172
633.548819407
631.510332205
629.573666859
627.736912182
625.998062245
624.355016698
622.805585185
621.347495136
619.978402394
618.695904063
617.497553233
616.380875197
615.343384918
614.382605505
613.49608732
612.681427521
611.936289481
611.258421964
610.645677399
610.096029312
609.607588269
609.178616552
608.807541101
608.492965038
608.233677034
608.028659147
607.877093979
607.7785658
607.732144915
991.011224753
990.130935681
988.511634645
986.071976933
982.869938309
978.965564829
974.421625153
969.301000015
963.665112835
957.573206609
951.082126659
944.246300394
937.117700675
929.745665325
922.176519338
914.453014149
906.613660265
898.692082051
890.716571308
882.710047065
874.69062261
866.672894645
858.66986134
850.695024888
842.763888946
834.89391181
827.103025884
819.407896766
811.822719481
804.358857658
797.025222254
789.829032763
782.776423456
775.872733056
769.122623814
762.530131309
756.098654218
749.83089149
743.728795059
737.793572989
732.025731301
726.42512844
720.991032417
715.722174601
710.616798223
705.672706951
700.88731814
696.257723619
691.780758804
687.453078587
683.27123576
679.231757528
675.331215535
671.566286254
667.933799314
664.430772778
661.054434904
657.802232963
654.671829985
651.661090979
648.768060274
645.990931987
643.328015612
640.777698841
638.338409637
636.008579492
633.786609652
631.670841761
629.659534107
627.750844142
625.942817565
624.233383684
622.620356458
621.101440335
619.674239922
618.336272676
617.084983858
615.917763408
614.831964267
613.824922155
612.893976294
612.036491106
611.249878129
610.53161812
609.879282453
609.290553813
608.763245407
608.295318795
607.884899789
607.530292616
607.229992046
606.982693931
606.787302649
606.642937998
606.549125717
606.505129872
1000.64712849
999.648482149
997.832235455
995.107411046
991.550910838
987.239723388
982.250858375
976.658622823
970.533432135
963.941699596
956.946237554
949.60675282
941.980157688
934.120551763
926.078817387
917.901863086
909.631623635
901.303999037
892.947989491
884.585363244
876.231237362
867.8958904
859.587837433
851.317536611
843.100284742
834.955964425
826.905828553
818.9691836
811.161344686
803.493267781
795.972543196
788.604955865
781.39552822
774.348782649
767.468762107
760.759037672
754.22264711
747.861922622
741.678371996
735.672677795
729.844768401
724.193893972
718.718698848
713.417281812
708.287241413
703.325719789
698.529454582
693.894842799
689.418019225
685.094946427
680.921509771
676.893610055
673.007247589
669.258593161
665.644043455
662.160259619
658.804189083
655.573071288
652.464428923
649.476046458
646.605938376
643.852309381
641.213509237
638.687984657
636.27423082
633.97074481
631.775983191
629.688325544
627.706045374
625.827289296
624.050064642
622.372235111
620.791523314
619.305519
617.911691406
616.6074047
615.389935518
614.256492279
613.204235922
612.23030211
611.331824682
610.505960088
609.749912403
609.060958225
608.436471093
607.873944567
607.371013915
606.925475612
606.535304938
606.198671107
605.913950446
605.679736834
605.494850163
605.358343186
605.269677034
605.228313787
1011.25448239
1010.10608694
1008.04309322
1004.96600801
1000.98061623
996.187115145
990.68002368
984.546440892
977.866001597
970.711984238
963.152745367
955.253006765
947.074664753
938.676989419
930.116162231
921.444214002
912.707511579
903.945023559
895.18671127
886.452549055
877.752850835
869.090646874
860.466571591
851.885563621
843.362939226
834.923724244
826.595502977
818.40217209
810.360572735
802.48040372
794.766602884
787.222534416
779.851764981
772.657932491
765.644454951
758.814503833
752.170901216
745.715718196
739.450026073
733.373923032
727.486687329
721.786890533
716.272493503
710.940914932
705.789062856
700.813365095
696.009815182
691.374037534
686.901377552
682.587012052
678.426067582
674.413735491
670.545374257
666.816593896
663.223319508
659.761833403
656.428796078
653.221247574
650.136591173
647.172562149
644.32718437
641.59871783
638.985600154
636.486385122
634.099681262
631.824093321
629.658169391
627.6003559
625.6489624
623.802137124
622.05785366
620.413907767
618.867922834
617.417361738
616.059543114
614.791660341
613.61080218
612.513974764
611.498124827
610.560164586
609.696998058
608.90554889