/*--------------------------------*- C++ -*----------------------------------*\
| =========                 |                                                 |
| \\      /  F ield         | OpenFOAM: The Open Source CFD Toolbox           |
|  \\    /   O peration     | Version:  v1906                                 |
|   \\  /    A nd           | Web:      www.OpenFOAM.com                      |
|    \\/     M anipulation  |                                                 |
\*---------------------------------------------------------------------------*/
FoamFile
{
    version     2.0;
    format      ascii;
    class       surfaceScalarField;
    location    "499";
    object      phia;
}
// * * * * * * * * * * * * * * * * * * * * * * * * * * * * * * * * * * * * * //

dimensions      [0 3 -1 0 0 0 0];
oriented        oriented;


internalField   nonuniform List<scalar> 
18240
(
0.00134676717886
-0.00134705093398
0.00282112829262
-0.00147470854173
0.0042945277216
-0.00147368431539
0.00574919112131
-0.00145502108752
0.00717727399646
-0.00142834959973
0.00857188482964
-0.00139497491777
0.00992717312135
-0.00135553550045
0.0112374917671
-0.00131068600782
0.0124981949642
-0.00126092962135
0.0137047686107
-0.00120694107674
0.0148537963857
-0.0011492321105
0.0159419341452
-0.00108850221055
0.0169669964622
-0.00102524397955
0.017926780386
-0.000960142531366
0.018820257895
-0.000893635970482
0.0196462691892
-0.000826361452153
0.0204048115151
-0.000758677774049
0.0210956250445
-0.000691152876138
0.0217195672129
-0.000624054767658
0.0222771143376
-0.000557873630105
0.0227698101413
-0.000492786402294
0.0231987048034
-0.000429206603132
0.0235658635678
-0.000367228117329
0.0238727627759
-0.000307195236327
0.0241218438978
-0.000249130599145
0.0243148835763
-0.00019331876907
0.0244545766072
-0.000139723826682
0.0245428951053
-8.85799936889e-05
0.0245826853704
-3.98040868186e-05
0.0245760301279
6.41170427028e-06
0.024525846296
5.01855374906e-05
0.0244342549105
9.13658579121e-05
0.0243041584408
0.000130111854205
0.0241376513589
0.000166299412147
0.0239375781844
0.000200100719952
0.0237059697422
0.000231418238613
0.0234455636919
0.00026044393309
0.0231582868941
0.000287103515716
0.0228467328173
0.000311600835447
0.0225126955082
0.000333880247044
0.02215859693
0.000354152533184
0.0217860780938
0.000372377216409
0.021397370327
0.00038876761719
0.0209939481693
0.000403295121274
0.0205778406227
0.000416171836598
0.0201503492357
0.000427378060199
0.0197132957449
0.000437121130843
0.0192678079065
0.000445387321564
0.0188155015435
0.000452376148705
0.0183573356924
0.00045807726892
0.0178947271759
0.000462679576271
0.0174284759489
0.000466173711021
0.0169598115257
0.000468735793796
0.0164893886241
0.000470355626012
0.0160182647157
0.00047119491465
0.0155469655821
0.00047124129255
0.0150763942058
0.000470641266024
0.0146069652893
0.000469379748963
0.0141394456253
0.000467587924746
0.0136741563512
0.000465248039666
0.0132117457568
0.000462476650391
0.0127524576828
0.000459254069912
0.0122968377262
0.00045568342879
0.0118450660482
0.000451744218395
0.0113975986876
0.000447527822617
0.0109545627916
0.000443014325488
0.0105163348213
0.000438285157896
0.0100829961155
0.000433322383083
0.00965485043039
0.000428199306481
0.00923193750458
0.000422901235801
0.00881449247579
0.000417494925535
0.00840251497749
0.000411969841007
0.00799617349417
0.000406387486477
0.00759542726147
0.000400742032966
0.00720037868993
0.000395090617365
0.00681094517971
0.000389432212664
0.00642716308845
0.000383820116111
0.00604890635126
0.00037825781842
0.00567614545226
0.000372794918349
0.00530870965632
0.000367438770297
0.00494650458498
0.000362235113911
0.00458931481627
0.000357194216492
0.00423698354316
0.000352357450463
0.00388925249252
0.000347736665646
0.00354590721615
0.000343367794761
0.00320665188129
0.000339261987562
0.00287122445778
0.000335446640452
0.00253930665288
0.00033192550011
0.00221061920031
0.00032870374047
0.00188488332462
0.000325744474239
0.00156194942275
0.000322947358068
0.00124194160931
0.000320017110528
0.000925797732457
0.000316154462989
0.000617241021199
0.000308566022812
0.000330407045939
0.000286844365852
0.000330412530276
0.00148883432601
-0.00283619887791
0.00315074148392
-0.00313696401828
0.00480362650623
-0.00312689840292
0.00643277344411
-0.00308451566213
0.00803084718416
-0.00302674391869
0.00959086165748
-0.00295533337071
0.0111063248054
-0.00287130838747
0.0125711160292
-0.00277581508948
0.0139798972169
-0.00267000736302
0.0153278018463
-0.00255517481946
0.0166108412341
-0.00243255290802
0.017825495797
-0.00230347475571
0.0189691452413
-0.00216915794964
0.0200395827137
-0.00203088474403
0.0210354726158
-0.00188977225293
0.0219558023433
-0.00174698089681
0.0228003694897
-0.0016034721098
0.0235691857454
-0.00146024234781
0.0242629943516
-0.00131807079237
0.0248826400231
-0.00117777489547
0.0254296160107
-0.00103994967412
0.0259054120136
-0.000905239780345
0.0263120879656
-0.000774071295376
0.0266516094959
-0.000646935080262
0.0269264434522
-0.000524111986452
0.0271388879457
-0.000405962576013
0.0272916829826
-0.000292647136319
0.0273873404547
-0.000184417951169
0.0274287628216
-8.13363341003e-05
0.0274185769776
1.6435479334e-05
0.0273597517454
0.000108918240007
0.0272549474876
0.000196025815769
0.0271071393681
0.000277843706239
0.0269189644631
0.00035434699457
0.0266933276197
0.000425676287154
0.0264327769064
0.000491857654722
0.0261401001327
0.000553073165223
0.0258177177479
0.000609389593353
0.0254682628006
0.000661020620352
0.0250939960125
0.000708064610308
0.0246973668821
0.000750757600734
0.0242804531074
0.000789221327736
0.0238455005025
0.000823705951591
0.0233943884536
0.000854349140298
0.0229291469441
0.00088140767383
0.0224514492635
0.000905028253537
0.0219631047546
0.000925467389461
0.0214655796761
0.000942874398571
0.020960464765
0.000957499182012
0.0204490247308
0.000969487794088
0.019932639867
0.000979077926029
0.0194123843518
0.000986407269719
0.0188894414444
0.000991696663226
0.0183647103966
0.000995071399576
0.0178391947996
0.000996732108563
0.0173136376788
0.000996789006805
0.0167888827923
0.000995420647242
0.0162655372337
0.000992721017503
0.0157443055272
0.000988846329726
0.0152256789646
0.000983874725779
0.0147102426128
0.000977941293912
0.0141983905105
0.000971110058362
0.0136906058232
0.000963497429158
0.0131872010369
0.00095515604235
0.0126885718127
0.000946186875874
0.0121949612974
0.000936634461879
0.0117066883878
0.000926587944131
0.011223935319
0.000916087123408
0.0107469513439
0.000905212793427
0.0102758627361
0.000894003070327
0.00981085302261
0.000882533411935
0.00935199452808
0.000870842656211
0.00889940651442
0.000859003207871
0.00845310732262
0.00084705621296
0.00801315183236
0.000835072462655
0.00757950319266
0.000823096115305
0.00715215113409
0.000811196930887
0.00673100218435
0.000799421950535
0.00631598034851
0.000787839707684
0.00590693464754
0.000776499261401
0.00550372370834
0.00076546704703
0.00510613942421
0.000754792649898
0.00471397691884
0.000744538912728
0.00432697316714
0.00073475378831
0.0039448637626
0.000725494173446
0.00356733540986
0.000716802968677
0.00319407070036
0.000708726564581
0.0028247129197
0.000701295328063
0.00245889754637
0.00069453281502
0.00209621886009
0.000688434694016
0.00173621506801
0.000682963163717
0.00137822336628
0.000678019472303
0.00102096520137
0.000673423543595
0.000660676198439
0.000668865267836
0.000286006572779
0.000661523228534
0.000616423521512
0.00151507856854
-0.00435159741308
0.00319821554199
-0.00482044417459
0.00487477378556
-0.00480379698187
0.0065275022617
-0.00473758636082
0.00814828679376
-0.00464786227543
0.00972986359373
-0.0045372464441
0.0112655159463
-0.00440728573437
0.0127490559129
-0.00425968274312
0.0141749955034
-0.00409626083331
0.0155384745421
-0.00391897045556
0.0168354037993
-0.00372978264388
0.0180623358
-0.00353071005808
0.0192165926854
-0.00332370005502
0.0202960939514
-0.00311067411028
0.0212994773114
-0.00289342391649
0.0222258949385
-0.00267366987638
0.0230751346097
-0.00245296199053
0.0238473952706
-0.00223275637872
0.0245434144469
-0.00201432110883
0.0251642328365
-0.00179882781719
0.0257113325864
-0.00158726101386
0.0261863984279
-0.00138052077518
0.02659146862
-0.00117933323577
0.0269286974923
-0.000984359553393
0.027200518513
-0.000796105087635
0.0274094104197
-0.000615030634354
0.0275580695739
-0.000441459017253
0.0276491804083
-0.000275685905482
0.0276855939215
-0.000117883928869
0.0276701027727
3.17879209256e-05
0.0276056231974
0.000173281609724
0.0274949749476
0.000306552920554
0.0273410655869
0.000431653670808
0.0271466767516
0.000548631288462
0.0269146461546
0.000657623240857
0.0266476618482
0.000758752904968
0.0263484424963
0.000852223355046
0.0260195399936
0.000938217365371
0.0256635162618
0.00101698847968
0.0252827546143
0.00108876462747
0.0248796321277
0.00115383618799
0.0244563401956
0.00121246353029
0.0240150514715
0.00126496156489
0.023557750055
0.00131161152538
0.0230863924792
0.00135274168188
0.0226027477943
0.00138864347326
0.0221085519904
0.00141964808175
0.0216053582269
0.00144604716602
0.0210946844263
0.00146816521942
0.0205778736674
0.00148628502054
0.0200562345024
0.0015007157308
0.0195309114484
0.00151172329995
0.0190030177849
0.00151959442235
0.0184735158249
0.0015245719825
0.0179433417341
0.00152691495177
0.0174132951913
0.00152683900738
0.0168841559421
0.00152457251041
0.016356582287
0.0015203022348
0.0158312189549
0.00151422546718
0.0153086038847
0.0015065007742
0.0147892672395
0.0014972962683
0.0142736459133
0.00148674515687
0.0137621735017
0.00147499012775
0.0132552020932
0.00146214342852
0.0127530833009
0.00144832734975
0.0122560969432
0.00143363846875
0.0117645233012
0.00141818418216
0.0112785784391
0.0014020508018
0.0107984781103
0.00138533615972
0.0103243795038
0.00136812120394
0.00985643726182
0.00135049873004
0.00939475152187
0.00133254820676
0.00893941667673
0.00131436077833
0.00849047555497
0.00129601704564
0.00804796153518
0.00127760852685
0.00761185871836
0.0012592181908
0.00718213807468
0.00124093862879
0.00675872339307
0.00122285513092
0.0063415220719
0.00120506083992
0.00593039660609
0.00118764219974
0.00552519063038
0.00117069137787
0.00512570563682
0.00115429389134
0.00473172277702
0.00113853854877
0.00434298445737
0.00112350704115
0.00395921227662
0.00110928156646
0.00358009289723
0.00109593605142
0.00320529187565
0.00108354142177
0.00283444194337
0.00107215795172
0.00246714929443
0.0010618381151
0.00210297512542
0.00105262058107
0.00174141467906
0.00104453509342
0.00138183108935
0.00103761358598
0.00102333443129
0.00103193026358
0.000664670786959
0.00102753920627
0.000306144213814
0.00102005932693
0.000922571808575
0.00153833366782
-0.00589025436212
0.00324441340927
-0.00652687164874
0.00494403758403
-0.00650376568555
0.00661916534302
-0.00641305809759
0.00826120315951
-0.00629023912879
0.00986257928983
-0.00613895949942
0.0114163382072
-0.00596137539834
0.0129161541219
-0.00575982624047
0.0143564172664
-0.0055368438458
0.0157322345762
-0.00529510356989
0.0170394828645
-0.00503733762393
0.0182747665363
-0.00476629556189
0.0194354428032
-0.00448466779133
0.0205195466079
-0.00419506389599
0.0215257977158
-0.00389994964361
0.0224535038146
-0.00360164458328
0.0233025589009
-0.00330227349627
0.0240733348186
-0.00300378235148
0.0247666793551
-0.00270790294683
0.025383805135
-0.00241618429179
0.0259262938902
-0.00212996732223
0.026395989169
-0.00185042692505
0.0267950103973
-0.00157855205639
0.0271256526594
-0.0013151927527
0.0273904108373
-0.00106104094253
0.0275918866138
-0.000816677604778
0.027732820631
-0.000582551201002
0.0278160053286
-0.000359022536868
0.0278443224618
-0.000146340318444
0.0278206605226
5.53164863098e-05
0.0277479559377
0.000245864987857
0.0276291134556
0.00042527967778
0.0274670508947
0.000593612105414
0.0272646241483
0.000750958925138
0.0270246729826
0.000897486206674
0.0267499510329
0.00103339118814
0.0264431722995
0.00115892862118
0.0261069458482
0.00127437436739
0.0257438230128
0.00138005129773
0.0253562365162
0.00147629462868
0.0249465477523
0.00156347713845
0.0245169902198
0.0016419762734
0.0240697164648
0.00171219844618
0.0236067458327
0.00177454784908
0.023130010802
0.00182944959732
0.0226413090533
0.00187732023103
0.0221423490156
0.00191858960887
0.0216347062746
0.00195367312826
0.0211198681782
0.00198299236053
0.0205991944957
0.00200694911388
0.020073960887
0.00202594493933
0.0195453236398
0.00204035719581
0.0190143617292
0.00205055759257
0.01848204529
0.00205689043982
0.017949275897
0.00205969042093
0.0174168583391
0.00205926315123
0.0168855386914
0.00205590229885
0.0163559788617
0.00204987248856
0.015828792009
0.00204142581811
0.015304519354
0.00203078701621
0.0147836625646
0.00201816927844
0.014266662365
0.00200376148827
0.0137539276114
0.00198774322544
0.0132458153709
0.00197027377
0.0127426565718
0.00195150607308
0.0122447373458
0.00193157723489
0.0117523212863
0.00191062123408
0.0112656320009
0.0018887605724
0.0107848721698
0.0018661175859
0.0103102073513
0.00184280699888
0.00984178213131
0.00181894571326
0.0093797053106
0.00179464607538
0.00892406351492
0.00177002411256
0.00847490790844
0.00174519338973
0.00803226564836
0.00172027174126
0.00759612826834
0.0016953756517
0.00716646136119
0.0016706255878
0.00674319473015
0.00164614088149
0.00632623063614
0.00162204380753
0.00591543576811
0.00159845496773
0.0055106483462
0.00157549627465
0.00511167188807
0.00155328683911
0.00471828136559
0.00153194501365
0.00433021863826
0.00151158477038
0.0039471976903
0.00149231693747
0.00356890130403
0.00147424605074
0.00319498485591
0.00145747096134
0.00282507286342
0.00144208238816
0.00245875913523
0.00142816381488
0.00209559927066
0.00141579186354
0.00173510209697
0.00140504289913
0.00137671781041
0.00139600784474
0.00101985013542
0.00138880796614
0.000664082418623
0.0013833164664
0.000311295962082
0.0013728545414
0.00123387187577
0.00156818244672
-0.00745876449448
0.00330600777696
-0.00826504536141
0.00503678597933
-0.00823489382767
0.0067418553302
-0.00811847438354
0.00841217593513
-0.00796090348435
0.0100398129133
-0.00776693645492
0.0116175189213
-0.00753941656954
0.013138765436
-0.00728140306164
0.0145978004983
-0.00699620305692
0.015989668939
-0.00668729011983
0.0173102320641
-0.00635821149613
0.0185561473472
-0.00601251451464
0.0197248549186
-0.00565367066829
0.0208145269706
-0.00528502328321
0.0218240321046
-0.00490973290446
0.0227528660606
-0.00453074800851
0.0236011049768
-0.00415077204003
0.0243693282831
-0.00377225609985
0.0250585707187
-0.0033973855125
0.0256702467283
-0.00302809093323
0.0262061091207
-0.00266604977658
0.0266681815436
-0.00231270975274
0.027058728095
-0.00196929833793
0.0273801964399
-0.0016368512102
0.0276351985774
-0.00131622260337
0.0278264632628
-0.0010081123597
0.0279568250361
-0.000713072663931
0.028029182898
-0.000431530962363
0.0280464944498
-0.000163792411055
0.0280117385052
8.99406151511e-05
0.0279279126119
0.000329568651262
0.0277979975227
0.000555080741157
0.0276249598208
0.000766544834579
0.0274117192509
0.000964102170938
0.0271611524183
0.00114796418261
0.0268760651109
0.0013183966543
0.0265591979049
0.00147572180918
0.026213201703
0.00162030293787
0.0258406454283
0.00175254712117
0.025443994399
0.00187289093903
0.0250256196695
0.00198180366711
0.0245877789695
0.00207977388708
0.0241326273496
0.002167312866
0.0236622005931
0.0022449419071
0.0231784270569
0.00231319569774
0.0226831135318
0.00237261026473
0.0221779581691
0.00242372616604
0.0216645388091
0.00246707709158
0.021144326955
0.00250319295009
0.0206186785022
0.00253258923717
0.0200888485746
0.00255577016711
0.0195559844914
0.00257321906708
0.0190211412218
0.00258540180506
0.0184852762495
0.00259275845257
0.0179492652062
0.00259570723205
0.0174138981823
0.00259463767384
0.0168798950624
0.00258991524191
0.0163479027316
0.00258187605353
0.0158185095552
0.0025708321889
0.015292242958
0.00255706791574
0.0147695825947
0.00254084555989
0.0142509578389
0.00252240300203
0.0137367592751
0.00250195984887
0.0132273357949
0.0024797158927
0.0127230042455
0.00245585726842
0.0122240459813
0.00243055549743
0.0117307146476
0.00240397329642
0.0112432322137
0.00237626386564
0.0107617950567
0.00234757607451
0.010286569618
0.00231805369991
0.00981769703971
0.00228783979118
0.00935528867963
0.00225707567499
0.00889942963907
0.00222590441142
0.00845017439089
0.00219446946557
0.00800754952772
0.00216291725487
0.00757154975674
0.00213139548484
0.00714214018792
0.00210005486546
0.00671925289805
0.00206904715803
0.00630278901045
0.00203852617892
0.00589261597971
0.00200864564932
0.00548856965666
0.00197955962737
0.00509045236391
0.00195142025899
0.00469803503548
0.00192437778164
0.00431105604759
0.00189857829144
0.0039292233742
0.00187416347508
0.00355221391402
0.0018512685594
0.00317967529097
0.00183002206325
0.00281122507237
0.00181054442044
0.00244645147471
0.00179294869964
0.00208491221355
0.00177734174304
0.00172613622594
0.00176382907385
0.00136963150393
0.00175252185726
0.00101492233373
0.00174352580756
0.000661741649795
0.00173650630119
0.000311876058157
0.00172272866403
0.00154575137319
0.00160592334833
-0.00906501947138
0.00338478052953
-0.010044258985
0.00515564641156
-0.0100061135404
0.00689908940689
-0.00986226955357
0.0086055501553
-0.00966771247516
0.0102666528812
-0.00942838370403
0.0118747966375
-0.00914789995315
0.0134231959348
-0.00883013686286
0.0149059314861
-0.00847926691137
0.0163179711705
-0.00809965175461
0.0176551749133
-0.00769572976597
0.018914271995
-0.00727191869889
0.0200928292716
-0.00683252655829
0.0211891975091
-0.0063816818307
0.0222024562327
-0.00592327259544
0.0231323422065
-0.00546090593876
0.0239791833404
-0.00499787512224
0.024743821312
-0.00453714650199
0.0254275457515
-0.00408135193293
0.0260320215304
-0.0036327988444
0.0265592323126
-0.0031934819873
0.0270114199478
-0.00276510883104
0.0273910422994
-0.00234912138203
0.0277007270039
-0.00194672664189
0.0279432428442
-0.00155891853265
0.0281214649
-0.00118650472223
0.0282383548261
-0.000830122540277
0.0282969324106
-0.000490259020333
0.0283002601669
-0.000167260681892
0.0282514180248
0.000138651308658
0.0281534905378
0.00042737413593
0.0280095428231
0.000698915022539
0.0278226125089
0.000953370589986
0.0275956883767
0.00119092974387
0.0273317032381
0.00141186097814
0.027033517638
0.00161650129752
0.0267039150185
0.00180525100835
0.0263455884456
0.00197856283375
0.0259611380542
0.00213693767062
0.0255530602822
0.00228091497429
0.0251237471036
0.00241106926078
0.0246754774158
0.00252800146198
0.0242104178206
0.00263233582969
0.0237306160441
0.00272471192205
0.0232380032095
0.00280578162442
0.0227343892922
0.00287620156902
0.0222214669263
0.00293663017779
0.0217008089367
0.00298772049128
0.0211738736996
0.00303011731426
0.0206420047166
0.00306445061705
0.0201064374512
0.00309133304387
0.0195683007742
0.00311135417719
0.0190286250234
0.00312507875213
0.018488344956
0.0031330421254
0.0179483086034
0.00313574953785
0.0174092812102
0.00313367305684
0.0168719543166
0.00312725209976
0.0163369500668
0.00311689196052
0.0158048299133
0.00310296562799
0.0152760986915
0.00308581380322
0.0147512123972
0.00306574783269
0.0142305815252
0.00304305094096
0.0137145775148
0.00301798194213
0.0132035350302
0.00299077727951
0.0126977568616
0.00296165508001
0.0121975150224
0.00293081754612
0.0117030540953
0.00289845491216
0.0112145912199
0.00286474776152
0.0107323180473
0.00282987050254
0.0102563998361
0.00279399327874
0.00978697630042
0.00275728469821
0.00932416012651
0.00271991312989
0.00886803705882
0.0026820485496
0.00841866417197
0.00264386314623
0.00797606954141
0.0026055322711
0.00754025058374
0.00256723438429
0.00711117362135
0.00252915118564
0.00668877254556
0.00249146700243
0.00627294851898
0.00245436824043
0.00586356914306
0.00241804235325
0.00546046847119
0.00238267677986
0.00506344677456
0.00234845765141
0.00467227094897
0.0023155683986
0.00428667487193
0.00228418836403
0.00390636017829
0.00225449129291
0.00353099707336
0.00222664407505
0.00316022534458
0.00220080545119
0.00279365550185
0.00217712532791
0.00243087021132
0.00215574442191
0.00207142679049
0.00213679507355
0.00171486198525
0.00212040286975
0.00136070398666
0.00210668821544
0.00100850148938
0.002095736776
0.000657962785528
0.00208705292529
0.000310678637412
0.00207002001434
0.00185643333362
0.00165237873651
-0.0107177358583
0.0034820096863
-0.0118742485081
0.00530242189408
-0.0118268863631
0.00709319254958
-0.0116533972898
0.00884411027238
-0.0114189842314
0.0105462605571
-0.0111308836474
0.0121916151
-0.0107935994292
0.0137730813883
-0.0104119424877
0.0152845487672
-0.00999106753339
0.0167209051913
-0.00953633450988
0.0180780282197
-0.00905317182625
0.0193527528874
-0.00854695431454
0.0205428223403
-0.00802289865032
0.0216468237593
-0.00748597682193
0.0226641147484
-0.00694084802504
0.0235947423091
-0.00639180810951
0.0244393589641
-0.00584275664182
0.0251991380152
-0.0052971800362
0.0258756921561
-0.00475815039007
0.0264709970865
-0.00422833738445
0.0269873235683
-0.00371003169546
0.0274271782121
-0.00320517586803
0.027793254773
-0.00271539991156
0.0280883940711
-0.00224205714454
0.0283155525374
-0.00178625791251
0.0284777758409
-0.00134889840256
0.0285781771928
-0.000930684249302
0.0286199168202
-0.000532148849813
0.0286061834198
-0.000153667863
0.0285401749212
0.000204528904122
0.0284250813582
0.000542345930995
0.0282640678242
0.00085981588506
0.0280602577823
0.00115707653217
0.0278167203583
0.00143437151986
0.0275364575202
0.00169203611277
0.0272223926821
0.00193048618081
0.0268773623223
0.00215020869288
0.0265041072554
0.0023517522614
0.0261052667456
0.00253571915329
0.025683371852
0.00270275716147
0.0252408414768
0.00285355287596
0.0247799773924
0.00298882441907
0.024302961971
0.00310931543269
0.0238118548332
0.00321578821402
0.0233085922842
0.00330901802628
0.0227949856925
0.00338978637473
0.0222727227368
0.00345887548076
0.021743367665
0.00351706170321
0.0212083644525
0.00356511027368
0.0206690390034
0.00360376909269
0.0201266041684
0.00363376403455
0.0195821637698
0.00365579354245
0.0190367192266
0.00367052495248
0.0184911750396
0.00367859036192
0.0179463465201
0.00368058440194
0.0174029661593
0.00367706177287
0.0168616918008
0.00366853674477
0.0163231131935
0.00365548252206
0.0157877598786
0.00363833249734
0.0152561072377
0.00361748134876
0.0147285834545
0.00359328781212
0.0142055744908
0.00356607715957
0.0136874296505
0.00353614504345
0.0131744651292
0.00350376084458
0.012666967955
0.003469172034
0.0121651979957
0.00343260780961
0.0116693902819
0.00339428341328
0.0111797555843
0.00335440352283
0.0106964813396
0.0033131660546
0.0102197310742
0.00327076489373
0.00974964428151
0.00322739286058
0.00928633506756
0.00318324353242
0.00882989139103
0.00313851322606
0.00838037332213
0.00309340182623
0.00793781203975
0.0030481137861
0.00750220805948
0.00300285801744
0.00707353032813
0.00295784802288
0.00665171470337
0.00291330098724
0.00623666339894
0.00286943721727
0.00582824391914
0.00282647862456
0.00542628902244
0.00278464767538
0.005030596228
0.0027441654758
0.00464092837241
0.00270525044255
0.00425701372362
0.00266811621904
0.00387854712578
0.00263297029449
0.00350519069308
0.00260001201545
0.00313657552956
0.00256943144072
0.00277230313506
0.00254140780723
0.00241194804039
0.00251610898469
0.0020550610277
0.00249369081099
0.00170117505268
0.00247429714927
0.00134981388094
0.00245805675768
0.00100051183309
0.00244504547421
0.000652925246044
0.0024346467304
0.00030850408487
0.00241444785771
0.00216493985325
0.00170836071268
-0.0124264393615
0.00359922832881
-0.0137654847786
0.00547934003985
-0.013707363888
0.00732701871826
-0.0135014399853
0.00913124654797
-0.0132235719422
0.0108824522508
-0.0128824451692
0.0125721000549
-0.0124835978919
0.0141927412625
-0.0120329287735
0.0157380565104
-0.011536721314
0.0172028612258
-0.0110014708439
0.0185830821741
-0.0104337165386
0.0198757077636
-0.009839895603
0.0210787213225
-0.00922621893084
0.0221910182506
-0.0085985714634
0.0232123154423
-0.00796243305851
0.024143052176
-0.00732282294209
0.0249842907969
-0.00668426282519
0.025737615802
-0.00605076234703
0.0264050401013
-0.00542582103472
0.0269889166365
-0.00481244970356
0.0274918636587
-0.00421320333679
0.0279167001543
-0.00363022632172
0.0282663974021
-0.00306529995942
0.028544040153
-0.00251989211142
0.0287528004596
-0.00199519946021
0.0288959155943
-0.00149218443401
0.0289766721292
-0.00101160105258
0.028998388491
-0.000554015508151
0.0289643996095
-0.000119819124017
0.0288780384555
0.000290759416656
0.0287426171616
0.000677646165384
0.0285614150439
0.00104090588319
0.0283376584684
0.00138072992407
0.028074507609
0.0016974275011
0.0277750453043
0.00199141175521
0.0274422660399
0.00226318640899
0.0270790682205
0.00251333494944
0.0266882462777
0.00274250956972
0.0262724852371
0.00295142228514
0.025834354873
0.00314083585486
0.025376305794
0.00331155628377
0.0249006651724
0.00346442493493
0.0244096341702
0.00360031163245
0.0239052852442
0.00372010726618
0.0233895610641
0.00382471698651
0.0228642736029
0.00391505294717
0.0223311048151
0.0039920274331
0.0217916077539
0.00405654571109
0.0212472092409
0.00410949924241
0.0206992131489
0.00415175892032
0.0201488051241
0.00418416881093
0.0195970579421
0.00420754030275
0.0190449380529
0.00422264699552
0.0184933126025
0.00423022038173
0.0179429572613
0.00423094649096
0.0173945642245
0.00422546360231
0.016848750552
0.00421436103151
0.0163060663051
0.00419817908908
0.0157670025538
0.00417741006355
0.015231998825
0.00415250028748
0.0147014500211
0.00412385302001
0.0141757125177
0.0040918321718
0.0136551094574
0.00405676652329
0.0131399351006
0.00401895445354
0.0126304582423
0.00397866878688
0.0121269247155
0.00393616180478
0.0116295589684
0.00389167001275
0.0111385648931
0.00384541877861
0.010654125836
0.00379762642783
0.0101764041218
0.00374850801784
0.00970553992101
0.00369827836739
0.00924164993931
0.00364715469261
0.00878482561988
0.00359535839247
0.0083351314738
0.00354311648538
0.00789260306309
0.00349066216592
0.00745724538728
0.00343823514139
0.0070290310154
0.00338608110864
0.00660789884515
0.0033344511886
0.00619375265452
0.00328360054476
0.00578646044739
0.00323378715685
0.00538585360307
0.00318526983292
0.00499172692492
0.00313830657338
0.00460383848246
0.00309315223941
0.00422191039654
0.00305005675709
0.00384562940897
0.00300926271197
0.00347464839677
0.00297100364368
0.00310858772163
0.00293550184301
0.00274703759477
0.00290296697473
0.00238956056461
0.00287359431728
0.00203569540051
0.00284756370375
0.00168496154806
0.00282503771585
0.00133686643972
0.0028061579605
0.000990918174868
0.00279100000067
0.000646723820543
0.00277884668759
0.000305642131503
0.00275553447281
0.00247058419356
0.00177481194214
-0.014201601715
0.0037383418955
-0.0157293867309
0.00568918775253
-0.0156585839008
0.00760413591739
-0.0154167585058
0.00947117697376
-0.0150909800846
0.0112799526774
-0.0146915832385
0.0130213328746
-0.0142253353778
0.0146874686617
-0.0136994157903
0.0162718236746
-0.0131214210034
0.0177691639302
-0.012499148284
0.0191755122397
-0.0118403941852
0.0204880773137
-0.0111527812437
0.0217051627089
-0.0104436159644
0.0228260634335
-0.00971977400201
0.0238509519599
-0.00898761361281
0.0247807603191
-0.00825291270484
0.0256170586821
-0.00752083218309
0.026361937902
-0.00679590139457
0.0270178966969
-0.00608202885348
0.0275877418218
-0.00538253239553
0.0280745013115
-0.00470018941661
0.0284813574627
-0.00403729754361
0.0288115962648
-0.00339574287834
0.0290685754387
-0.002777064022
0.0292557033537
-0.00218250935726
0.0293764274323
-0.00161307942215
0.0294342234158
-0.00106955753602
0.0294325852755
-0.000552527256095
0.0293750107003
-6.23844988529e-05
0.0292649853102
0.000400654907115
0.0291059613272
0.000836549636299
0.028901347446
0.00124540864572
0.0286544859951
0.00162748900804
0.0283686408981
0.00198317889315
0.0280469857756
0.0023129812268
0.0276925950224
0.00261749939635
0.0273084359777
0.002897423558
0.0268973630076
0.00315351920604
0.0264621120344
0.00338661653124
0.0260052961052
0.00359760138975
0.0255294012583
0.00378740663589
0.0250367830935
0.00395700420229
0.0245296638639
0.00410739719134
0.0240101302312
0.0042396121342
0.0234801318866
0.0043546911618
0.0229414808936
0.0044536840415
0.0223958522342
0.00453764020895
0.0218447851646
0.00460760058984
0.0212896860421
0.00466458965971
0.0207318319949
0.00470960743766
0.0201723761692
0.00474362211601
0.0196123537119
0.00476756295253
0.0190526892092
0.00478231427061
0.0184942045627
0.00478871010354
0.0179376279725
0.00478753035138
0.0173836029102
0.00477949787013
0.016832697707
0.00476527728572
0.0162854146226
0.00474547482896
0.015742199005
0.00472063986289
0.015203447474
0.00469126730057
0.0146695157467
0.00465780145862
0.0141407251592
0.00462064048735
0.0136173685325
0.00458014182802
0.0130997145823
0.00453662782837
0.0125880115589
0.00449039191764
0.0120824894582
0.00444170449893
0.0115833615232
0.0043908189675
0.0110908244903
0.00433797706258
0.0106050583282
0.00428341401916
0.0101262249819
0.00422736277619
0.00965446689118
0.00417005781016
0.00918990479992
0.00411173787607
0.00873263564461
0.00405264835391
0.00828272998057
0.00399304246393
0.00784022977289
0.00393318219305
0.00740514590164
0.00387333812562
0.00697745627418
0.00381378916867
0.00655710374953
0.00375482125129
0.00614399486323
0.00369672613596
0.00573799839566
0.00363979928466
0.00533894488797
0.00358433805841
0.00494662598264
0.00353063905728
0.00456079481242
0.0034789960006
0.0041811661669
0.00342969684368
0.00380741776888
0.00338302161159
0.00343919128248
0.00333923957621
0.00307609448694
0.00329860727866
0.00271770323046
0.0032613659885
0.00236356458562
0.00322774000002
0.00201320007111
0.00319793440178
0.00166611030034
0.00317213325148
0.00132177919323
0.00315049386419
0.000979684575027
0.00313309860255
0.000639393512807
0.00311914235439
0.000302195974304
0.00309273616938
0.00277278128744
0.00185288669291
-0.0160548450703
0.00390170186933
-0.0177785855595
0.00593542250349
-0.017692685215
0.00792895669592
-0.017410671395
0.00986909675501
-0.0170314944095
0.0117445497618