/*--------------------------------*- C++ -*----------------------------------*\
| =========                 |                                                 |
| \\      /  F ield         | OpenFOAM: The Open Source CFD Toolbox           |
|  \\    /   O peration     | Version:  v1906                                 |
|   \\  /    A nd           | Web:      www.OpenFOAM.com                      |
|    \\/     M anipulation  |                                                 |
\*---------------------------------------------------------------------------*/
FoamFile
{
    version     2.0;
    format      ascii;
    class       volScalarField;
    location    "506";
    object      pa;
}
// * * * * * * * * * * * * * * * * * * * * * * * * * * * * * * * * * * * * * //

dimensions      [0 2 -2 0 0 0 0];


internalField   nonuniform List<scalar> 
9216
(
978.785293937
978.423115477
977.687243891
976.57451763
975.088611438
973.233794184
971.015455512
968.439962961
965.514657899
962.247727549
958.648210959
954.725855004
950.491129817
945.955072012
941.129313861
936.025919397
930.657431969
925.036708334
919.176988214
913.091730204
906.794705476
900.29983741
893.621319573
886.773459029
879.770816921
872.628053394
865.360087462
857.981940102
850.508909072
842.956405495
835.340139183
827.675943058
819.979962034
812.268461303
804.558014039
796.865286574
789.207219093
781.600783862
774.06315429
766.611434289
759.262812257
752.034262988
744.942683626
738.00457341
731.23614719
724.653000933
718.270193664
712.101908135
706.16148586
700.461093469
695.011693211
689.822731428
684.902037568
680.255566609
675.887249734
671.798843385
667.989790812
664.457236558
661.195964403
658.198603113
655.455674082
652.955965543
650.686695562
648.634011451
646.783245573
645.11943847
643.627570597
642.292972939
641.101449058
640.039532681
639.094505902
638.254537815
637.508636323
636.846714845
636.259512799
635.738626488
635.276418717
634.86602713
634.50126726
634.17662294
633.887146223
633.628429708
633.396489789
633.187492601
632.999062619
632.835519893
632.699725687
632.59022954
632.505823557
632.443370746
632.399213682
632.368986853
632.34879123
632.33654624
632.330380401
632.32822265
979.147063468
978.783735995
978.046598233
976.930814784
975.440602663
973.580384874
971.355628644
968.772779145
965.839233984
962.563259211
958.953951276
955.021140475
950.775352988
946.227708728
941.389889591
936.274037655
930.892734855
925.258906575
919.385816856
913.286981009
906.976178794
900.467377789
893.774764947
886.912680361
879.895665602
872.738405569
865.455790379
858.062861566
850.574883186
843.00728774
835.375751223
827.696132959
819.984550093
812.257306073
804.530957012
796.822223385
789.148043577
781.525463627
773.971673408
766.503871786
759.139282903
751.89499701
744.78796615
737.834823738
731.051859203
724.454820366
718.058863804
711.878342643
705.926724379
700.216364433
694.758380615
689.562416023
684.636469185
679.986667102
675.617079614
671.52955537
667.723586584
664.196279393
660.942338773
657.954210914
655.222209448
652.734813829
650.478925512
648.440302407
646.603931188
644.954499942
643.476728692
642.15571689
640.97712934
639.927385743
638.993723606
638.164276927
637.428064468
636.775006122
636.195877353
635.682300557
635.226687923
634.822216855
634.462762061
634.142858195
633.857630065
633.602756608
633.374423005
633.169334389
632.984693674
632.822942138
632.688777422
632.582001115
632.498860934
632.437108643
632.394253304
632.365017984
632.345209908
632.333648557
632.328113307
632.325873855
979.884471945
979.517985568
978.776613018
977.654479047
976.155833455
974.28516311
972.048026363
969.450979867
966.501534255
963.208084606
959.579851528
955.626802163
951.359587877
946.789462687
941.928224239
936.788135904
931.38187676
925.722472615
919.823259473
913.697827252
907.359999478
900.823791407
894.103406462
887.213208211
880.167731885
872.981667596
865.669883516
858.24741632
850.729501537
843.131566313
835.469262006
827.758453199
820.015246889
812.25597303
804.49720325
796.755716321
789.048501129
781.392701537
773.805598854
766.30453287
758.906861655
751.629858641
744.490650506
737.50609321
730.692690191
724.066450751
717.642788576
711.436362407
705.460948655
699.729257994
694.252769924
689.041518147
684.10388101
679.446347391
675.073291431
670.986774746
667.186389416
663.669191113
660.429700493
657.460020011
654.750002477
652.287523377
650.058783301
648.048749923
646.241641074
644.621435301
643.172280989
641.878831672
640.726449136
639.70134985
638.790667166
637.98248899
637.265843948
636.630684859
636.067846392
635.569017844
635.126698117
634.734157167
634.385376386
634.074996921
633.798258026
633.55095054
633.329375477
633.130349747
632.950769808
632.793737887
632.6665615
632.565389365
632.484740606
632.425191792
632.384881132
632.356846156
632.338437814
632.327886661
632.322309017
632.319541464
981.004991799
980.634839907
979.88694981
978.755040066
977.243444965
975.356755431
973.100667073
970.481899065
967.50813942
964.18797591
960.530826946
956.54686446
952.246940511
947.642508737
942.745553653
937.568517285
932.124237355
926.425884765
920.486915636
914.321023749
907.942109475
901.364249032
894.601680869
887.668791008
880.580114925
873.350335997
865.994299069
858.527017596
850.963694085
843.319730796
835.610752281
827.852613119
820.061416303
812.253513767
804.44551317
796.654263532
788.89684447
781.190530685
773.55275822
766.001063888
758.553026323
751.226180389
744.037934988
737.005466538
730.145618399
723.474778412
717.008762786
710.762677398
704.750779764
698.98631215
693.48132256
688.246448836
683.290680014
678.621087042
674.242546056
670.157479849
666.365650605
662.864054336
659.646920278
656.705828885
654.029910429
651.606117221
649.419520465
647.453816058
645.691962926
644.116816104
642.711627708
641.460389259
640.34801805
639.360454605
638.484694467
637.708784744
637.021785015
636.413716182
635.875505967
635.398951239
634.97668101
634.602112545
634.269388609
633.973314157
633.709291229
633.473258688
633.261640235
633.071297101
632.899046698
632.751015651
632.632809616
632.537881886
632.463665073
632.408636054
632.369889984
632.343778618
632.327031088
632.317016041
632.311410439
632.308656193
982.511616113
982.136754812
981.380049571
980.234890056
978.705747119
976.797363539
974.515624832
971.867471168
968.860834724
965.504565815
961.80835583
957.782655803
953.438594968
948.787898474
943.842808905
938.616010251
933.120559152
927.369821404
921.377418506
915.157181355
908.723115579
902.089374507
895.270243867
888.280133068
881.13357688
873.845241441
866.429938466
858.902641013
851.278504991
843.572889277
835.80137982
827.979807155
820.124266524
812.251128947
804.377049082
796.518960971
788.69406683
780.919809911
773.213837613
765.593946557
758.07801736
750.683932194
743.42948456
736.332275625
729.409607342
722.678366265
716.154906921
709.854924792
703.79332369
697.98406016
692.43996529
687.172521071
682.19159202
677.505104592
673.118690166
669.035330253
665.255065395
661.774826619
658.588443016
655.686771084
653.057954823
650.687699618
648.55945053
646.655014472
644.955479162
643.442082
642.096836606
640.902876669
639.844573481
638.907553864
638.078677977
637.345987198
636.698621307
636.126721696
635.621350069
635.174449136
634.778823373
634.428097399
634.116638219
633.839478414
633.592242068
633.371064067
633.172508606
632.99323733
632.831766705
632.69614027
632.588544335
632.502162352
632.433802363
632.383535684
632.348707696
632.325034025
632.309439531
632.300004607
632.294575372
632.29187831
984.408982204
984.028214322
983.260328383
982.098334813
980.546894002
978.61095241
976.296644603
973.611197338
970.5628595
967.160820709
963.415125932
959.336586469
954.936690182
950.227512061
945.22162801
939.932032735
934.372064598
928.555337923
922.495685331
916.207109904
909.703749114
902.999849319
896.109751894
889.047888749
881.828787595
874.467084008
866.97754043
859.375068971
851.674758336
843.891901678
836.042026957
828.140922569
820.20466437
812.24963581
804.292542259
796.350415225
788.440605923
780.58076414
772.78880252
765.082843561
757.481150944
750.002045014
742.663806018
735.484567532
728.482204964
721.674221897
715.07763753
708.708873103
702.583634053
696.71677482
691.122131863
685.812301965
680.798343365
676.089387835
671.692165717
667.610503247
663.844873655
660.392147999
657.245624923
654.395191444
651.827744436
649.527491057
647.475640279
645.651242964
644.032683272
642.598961738
641.330504948
640.209451419
639.219598052
638.346277078
637.576262054
636.897668668
636.299809207
635.773023804
635.308553179
634.898511481
634.535921161
634.214686354
633.929475093
633.675622586
633.449056518
633.246201171
633.063899712
632.898960865
632.751849362
632.630628224
632.533087368
632.454713356
632.394423388
632.351635324
632.320393209
632.299057843
632.285214741
632.275763105
632.270389693
632.267683041
986.702899188
986.314931679
985.533387884
984.350819336
982.772126896
980.802516347
978.448436182
975.717472911
972.618272108
969.160447665
965.354486359
961.211649086
956.743871038
951.963662921
946.884015398
941.518308838
935.880230461
929.983700764
923.842810932
917.471772502
910.884880101
904.096487397
897.120995853
889.972855159
882.666573925
875.216738746
867.638039987
859.945302449
852.153519678
844.277890298
836.333856818
828.337140306
820.303777119
812.250149468
804.193009412
796.149492983
788.137121623
780.173787701
772.27772196
764.467441237
756.761676367
749.17928188
741.739130726
734.459999564
727.360450634
720.458717298
713.772598012
707.319360062
701.115648976
695.177387548
689.519645236
684.156432858
679.100390343
674.362318187
669.950537603
665.870140709
662.122275661
658.70374294
655.607138645
652.821011668
650.330762445
648.119188421
646.164450607
644.441494333
642.924766644
641.590237914
640.416435278
639.384514148
638.477803979
637.681434278
636.982195601
636.368417099
635.82974398
635.356834726
634.941148071
634.574952561
634.251515103
633.965123133
633.710840895
633.48438701
633.282083354
633.100733565
632.937548106
632.789574008
632.659141612
632.552777777
632.466818191
632.399013398
632.34808211
632.310872632
632.283334515
632.264344782
632.25235568
632.243569149
632.238499037
632.235986703
989.400448798
989.003900129
988.206083917
986.998999005
985.387842643
983.378140394
980.9767273
978.191631419
975.031984464
971.507919332
967.630462737
963.411424296
958.863284762
953.999085476
948.832321663
943.37684167
937.646754848
931.656350077
925.420027359
918.952243814
912.267475452
905.380194617
898.30486281
891.055937086
883.647888318
876.09522861
868.412545939
860.614543713
852.716084176
844.732234068
836.678313748
828.569942167
820.423085939
812.254102508
804.079777072
795.917349282
787.784525734
779.699474148
771.680795701
763.747473283
755.918794608
748.214252578
740.653426463
733.255852763
726.040894189
719.027619714
712.234704359
705.680355187
699.382262788
693.357558716
687.622753525
682.193595375
677.084776392
672.309389331
667.878077718
663.797859498
660.070951735
656.693975259
653.658635247
650.951349573
648.555774001
646.454540682
644.621548976
643.025232758
641.634177607
640.420282277
639.360042018
638.433992813
637.625337035
636.919168712
636.302422666
635.763867234
635.29375043
634.883252686
634.524055135
634.208445473
633.929912918
633.683322826
633.464265491
633.26891143
633.094083479
632.937058998
632.795500929
632.666890404
632.555416808
632.464741536
632.391909646
632.335059452
632.292469069
632.260316361
632.237687025
632.221188248
632.210335395
632.2035234
632.198849482
632.196693397
992.510063897
992.103456032
991.286584092
990.050794882
988.401643123
986.345042954
983.88829773
981.039969738
977.809777666
974.208480151
970.247753901
965.940068427
961.29855982
956.336906255
951.069207569
945.509871807
939.673511332
933.574851606
927.228655101
920.649662849
913.852554783
906.851929538
899.662302518
892.29812049
884.773789488
877.103713023
869.302337288
861.384201278
853.363990209
845.256591665
837.077156096
828.841153813
820.564438748
812.26330732
803.954551869
795.655503935
787.38406173
779.15869636
770.998431393
762.9227921
754.951722139
747.105469769
739.404448283
731.869082449
724.519653896
717.376166453
710.458245588
703.785092387
697.375488425
691.247847644
685.420279435
679.910576339
674.73602924
669.91288863
665.455205466
661.37308528
657.670414574
654.34331048
651.382483014
648.770209759
646.487658467
644.52253139
642.841958019
641.403124511
640.165593445
639.095896602
638.168894631
637.365657486
636.670012467
636.067139553
635.544193652
635.090699221
634.698018783
634.358219747
634.06313802
633.804623135
633.576222562
633.373872365
633.193868095
633.032824449
632.888209844
632.757863769
632.639904339
632.532843854
632.441598785
632.367263214
632.308079373
632.262326839
632.227739384
632.201904641
632.183112079
632.170065523
632.16091814
632.155998988
632.151830768
632.150142841
996.041618944
995.62335843
994.784446119
993.515465229
991.822399748
989.711630667
987.191023681
984.269780991
980.958323132
977.268155429
973.211729134
968.80229902
964.053780409
958.980607934
953.597598964
947.919824377
941.962490341
935.740834405
929.270039844
922.565171047
915.641132421
908.512651071
901.194282441
893.700435602
886.045414282
878.243468528
870.308853064
862.255889093
854.099028712
845.852921681
837.532488217
829.152989184
820.730107349
812.280025354
803.819500479
795.365929642
786.937397474
778.552699511
770.231332884
761.993448095
753.859757661
745.851402419
737.989780934
730.296356569
722.79246246
715.499133216
708.436994139
701.62623388
695.086682987
688.837995366
682.899896281
677.29245054
672.036140183
667.151469399
662.657709843
658.569962727
654.895187593
651.627439486
648.7579529
646.258666493
644.105066067
642.307891093
640.820544075
639.578672274
638.527838275
637.627743754
636.853408199
636.189404722
635.621568051
635.134840327
634.716273906
634.356665836
634.049467284
633.788436889
633.565348471
633.370322665
633.196380222
633.041990605
632.904362335
632.780237421
632.668008912
632.566189889
632.473368698
632.389409075
632.318282163
632.260399853
632.215363431
632.181272838
632.1555372
632.13620809
632.121187133
632.110794638
632.104570513
632.101113145
632.098019605
632.096718078
1000.00653603
999.574893299
998.71071223
997.403692839
995.660330036
993.487563518
990.893929775
987.889392853
984.485206633
980.69376118
976.528423701
972.003376535
967.133454602
961.933984969
956.420630864
950.609243619
944.515726247
938.155913616
931.545473865
924.699835927
917.634146083
910.363255036
902.901733635
895.263913314
887.463944503
879.515866175
871.433679892
863.231424819
854.923252725
846.523504981
838.046796905
829.508102517
820.922855607
812.30705136
803.677348256
795.051162033
786.44674191
777.88321834
769.380610984
760.959786691
752.642359478
744.450530479
736.406872535
728.534077247
720.854691563
713.390888315
706.164314476
699.196071834
692.506868259
686.117343457
680.048644769
674.323051138
668.964697885
663.999770501
659.455426203
655.355704647
651.713654253
648.51578706
645.762832986
643.397110196
641.37298377
639.786192777
638.551643623
637.560012924
636.736102512
636.031484585
635.426558031
634.916418219
634.491235081
634.133447456
633.828664987
633.569877812
633.354750496
633.180605105
633.038789812
632.914170886
632.797117495
632.69339541
632.601109775
632.515722584
632.437362668
632.365376768
632.298735794
632.238464765
632.187328646
632.146754352
632.115972845
632.09271053
632.07510506
632.062102985
632.052421201
632.045379011
632.04120663
632.039396874
632.037948223
632.037040575
1004.41791185
1003.97099175
1003.07802411
1001.72768866
999.927089317
997.683831679
995.007250197
991.908212019
988.39895601
984.492914859
980.20453295
975.549081817
970.54247581
965.201089495
959.541579307
953.580712376
947.335207608
940.821594778
934.056098974
927.054556789
919.832369818
912.404497309
904.785486487
896.989533931
889.030568605
880.922344958
872.678536721
864.312825604
855.838985491
847.270966889
838.622990473
829.909646434
821.146018377
812.347813361
803.531498954
794.714435442
785.914991005
777.152624866
768.447922704
759.822567959
751.299235263
742.901397772
734.653050519
726.578368102
718.701333413
711.045398564
703.633246276
696.486742885
689.627119326
683.075511706
676.85378354
670.985908752
665.499585156
660.42796568
655.810394974
651.68741127
648.087179683
644.965708449
642.378830162
640.178733903
638.229351766
636.927005473
636.043983602
635.376151632
634.825780302
634.331821787
633.894929495
633.545328361
633.282540991
633.073379286
632.894393368
632.741928135
632.622617239
632.543020345
632.494669898
632.448773483
632.385360528
632.333533406
632.290214007
632.244297593
632.200368347
632.158992643
632.118439609
632.081753956
632.050825878
632.027571159
632.009999369
631.996923111
631.987400129
631.981116842
631.976843097
631.97438802
631.972717163
631.972283268
631.972822265
631.972615537
1009.29066898
1008.8263795
1007.90075901
1006.50131619
1004.63587848
1002.31284562
999.542499393
996.336775276
992.709072344
988.674047061
984.247404487
979.445689126
974.286076531
968.786166502
962.963778708
956.836754008
950.422766642
943.739155828
936.802786337
929.62994878
922.236307655
914.636901852
906.846195268
898.878168886
890.74643876
882.46438225
874.045256418
865.502300658
856.848825262
848.098297335
839.264437982
830.361334778
821.403590822
812.406490048
803.386179114
794.359850544
785.345911184
776.36411668
767.435649857
758.583118736
749.83045054
741.202663447
732.725509939
724.425007346
716.32690169
708.45614563
700.836502081
693.490384517
686.439055407
679.703205926
673.304218557
667.266076483
661.618645323
656.402080502
651.673538947
647.50540422
643.974310941
640.905640689
638.60745063
636.605192116
634.192209404
633.309653853
633.022015177
632.83020738
632.651080341
632.481871081
632.336390744
632.212280683
632.094335051
631.976813853
631.869541643
631.790258841
631.762529959
631.805719612
631.904056692
631.98507944
631.965558983
631.96721665
631.980101681
631.971590511
631.960946882
631.951241934
631.935029995
631.921509365
631.909871951
631.902274194
631.89740314
631.895021745
631.894613469
631.895473373
631.896735622
631.898528573
631.900398167
631.901718532
631.904285422
631.904835403
1014.64173734
1014.15774673
1013.19519283
1011.74023721
1009.80157077
1007.38854037
1004.51255322
1001.18680706
997.426064685
993.246413776
988.665028575
983.699934307
978.369774216
972.693576857
966.69052291
960.379713069
953.779943722
946.90950092
939.785987583
932.426199418
924.846064007
917.060650833
909.084251445
900.930516408
892.612625722
884.143462658
875.535764871
866.802238866
857.95564358
849.008864709
839.975005334
830.867507105
821.700327002
812.488146491
803.246611228
793.992581105
784.744371323
775.521960022
766.347133498
757.243533493
748.236568946
739.353156414
730.621266344
722.069280392
713.725208955
705.615883487
697.766278322
690.199164722
682.935159744
675.993337463
669.392455946
663.153429112
657.303948028
651.887011847
646.980505961
642.710735069
639.311554788
635.834116702
634.17113692
633.022753307
632.704123109
632.689840013
632.714513561
632.68154005
632.609907024
632.516247229
632.412074333
632.305091275
632.198606624
632.095122061
632.002080232
631.933301971
631.905142063
631.912055016
631.883734558
631.696423269
631.490152854
631.54611681
631.665177844
631.701180399
631.721750797
631.748424684
631.750198147
631.75979783
631.764198771
631.772242246
631.779830712
631.78898123
631.798151998
631.806379466
631.813597982
631.8199779
631.825256633
631.829251069
631.833394522
631.834845327
1020.49027066
1019.98395968
1018.97969248
1017.46208483
1015.440859
1012.92649552
1009.93174036
1006.47128334
1002.56148755
998.22010917
993.466026532
988.318978677
982.799309046
976.927707871
970.724947576
964.21161126
957.407820695
950.332978973
943.005548588
935.442890143
927.661184455
919.675454177
911.499685792
903.147034692
894.630075625
885.96104935
877.15205862
868.21518994
859.162572523
850.006417253
840.759081137
831.433189715
822.041844517
812.598888345
803.119219411
793.619128614
784.116637246
774.631807411
765.186988428
755.806950523
746.518847739
737.351947227
728.337070795
719.50572529
710.88896645
702.516144584
694.413783478
686.604910119
679.108902258
671.941791216
665.117153106
658.647857972
652.550768934
646.851605219
641.598431697
636.753973935
634.172620677
633.358556764
633.258578317
633.198274152
633.12610444
633.107917689
633.09111972
633.048359236
632.980822479
632.889487098
632.778957059
632.656977853
632.528133949
632.395589832
632.266748589
632.152503573
632.062902683
631.990484816
631.90100686
631.788276855
631.724356587
631.735063392
631.670151786
631.440665224
631.448368121
631.556697603
631.561468761
631.599746296
631.614104853
631.639608873
631.659614024
631.680689024
631.699366801
631.714875951
631.728398219
631.739789001
631.749103348
631.756068911
631.761235527
631.763914107
1026.85790693
1026.32630381
1025.27494552
1023.68666546
1021.57242659
1018.94407126
1015.81594379
1012.20450026
1008.12798023
1003.60607807
998.659637882
993.310369527
987.58057526
981.492871432
975.06989277
968.333973981
961.306816042
954.009156393
946.460474566
938.678771068
930.680458584
922.480394182
914.092061379
905.527878783
896.799577811
887.918564842
878.896184196
869.743836073
860.472973723
851.095062084
841.621582676
832.064144626
822.434729785
812.746032506
803.011870711
793.247633886
783.470745991
773.701115797
763.96153278
754.277944221
744.679529598
735.19846872
725.869295183
716.727750052
707.809143546
699.146413739
690.768284334
682.698197993
674.953921657
667.547495989
660.485232936
653.768253364
647.391611528
641.303252654
635.246469401
634.011714506
633.750755005
633.782056447
633.79502995
633.769659466
633.7134094
633.6564089
633.603571365
633.545458459
633.471604235
633.375065548
633.257013532
633.122317843
632.974889767
632.820142918
632.665869075
632.521554497
632.393928171
632.276112051
632.146186108
632.001497599
631.879427263
631.791407684
631.69688987
631.638435401
631.624440166
631.49774299
631.327889288
631.444135028
631.456005361
631.50764961
631.537222033
631.570992044
631.599515981
631.622808193
631.642838322
631.659472145
631.673044196
631.68311738
631.689823101
631.693691881
1033.76908099
1033.20878502
1032.10423174
1030.4361975
1028.21714427
1025.46056114
1022.18271008
1018.40214495
1014.13930512
1009.41612744
1004.25570692
998.682000277
992.719549006
986.393192572
979.727745123
972.747623538
965.476432075
957.936530314
950.148628857
942.131472125
933.901671042
925.47373982
916.86036094
908.07285401
899.12175972
890.01739526
880.770224403
871.39095006
861.890376568
852.279206007
842.56792609
832.766893777
822.886634636
812.938289549
802.934152503
792.888254209
782.816978894
772.739698335
762.679380738
752.663095441
742.722298756
732.892744413
723.213820347
713.727105623
704.474031677
695.492864063
686.815601092
678.466527954
670.461887957
662.809690559
655.509610154
648.548527871
641.858203524
634.938705986
634.205813283
634.355300549
634.431324965
634.49012187
634.475348217
634.420813868
634.352979946
634.284347666
634.21745269
634.145152512
634.057867286
633.948864242
633.818759826
633.670268884
633.506245737
633.332440954
633.155790709
632.983684222
632.820504674
632.661947784
632.496469049
632.323168194
632.161113033
632.01733957
631.876481641
631.754553904
631.656707349
631.57833996
631.540306176
631.438793582
631.251616216
631.379839309
631.409547159
631.462179686
631.502791054
631.532840802
631.558758718
631.580799327
631.598584658
631.612209469
631.621007141
631.625977566
1041.25140376
1040.65848159
1039.49374853
1037.73559033
1035.39829624
1032.4973601
1029.05136265
1025.08136252
1020.61038049
1015.66293456
1010.26467091
1004.44207514
998.222220102
991.632494161
984.700262486
977.452434805
969.914943013
962.112162292
954.06634042
945.797123323
937.321279734
928.652720916
919.802876237
910.781408226
901.597139231
892.258942818
882.776301838
873.159331868
863.418365177
853.563432092
843.603937127
833.54869965
823.406350977
813.185948619
802.897682232
792.553610534
782.168452234
771.76044815
761.352262382
750.971830146
740.653010752
730.435831294
720.365993955
710.493211455
700.867937641
691.5366156
682.536022417
673.891786813
665.619009154
657.723727611
650.200558669
642.993489857
635.628218334
634.703585679
634.925914891
635.161515238
635.225220251
635.237307853
635.207762476
635.152545492
635.08311173
635.00751681
634.926839444
634.836339395
634.72949102
634.601781416
634.454741578
634.289588544
634.107712706
633.914176486
633.714516315
633.514155717
633.316103642
633.118553103
632.917033232
632.712920216
632.515917188
632.330213301
632.150795337
631.982646293
631.83101117
631.694846518
631.58144949
631.48843246
631.446056952
631.376053088
631.254491432
631.357864412
631.414032695
631.446463402
631.477059647
631.504752902
631.527501429
631.54486689
631.556229085
631.56236904
1049.33612211
1048.7059812
1047.47299871
1045.61277477
1043.14183823
1040.0781455
1036.44311018
1032.26080872
1027.55729829
1022.36004847
1016.69755265
1010.59908817
1004.09454025
997.21419079
989.988388267
982.447052288
974.619009537
966.531205664
958.207881229
949.669842085
940.933984558
932.013245716
922.917110903
913.652703806
904.226289154
894.644772486
884.916616313
875.051708904
865.06037741
854.952270342
844.735667019
834.417477972
824.003846057
813.501050531
802.916437464
792.259300726
781.54183751
770.780273883
759.996149283
749.21765376
738.480867515
727.830662459
717.320787681
707.012329638
696.969352181
687.251411824
677.901797144
668.94721609
660.402142138
652.269074225
644.499563421
636.625155011
635.674563156
635.86229655
636.053495164
636.1118473
636.114442671
636.093516027
636.04634501
635.981326816
635.903024199
635.814697173
635.715754348
635.602830029
635.471803015
635.320654064
635.151968502
634.96585464
634.762825601
634.547056515
634.322791403
634.094013026
633.863065529
633.629819118
633.393390568
633.15596206
632.922948514
632.697487798
632.479710917
632.273013223
632.080622296
631.90182263
631.739864132
631.598876723
631.493756492
631.424090102
631.371435848
631.295734044
631.34140497
631.361349992
631.396948461
631.431850547
631.460886689
631.482553499
631.496965532
631.504283271
1058.05868192
1057.38590408
1056.0752586
1054.09909295
1051.47669375
1048.22906564
1044.38113601
1039.96066837
1034.99731099
1029.52187725
1023.56596305
1017.16183236
1010.34241107
1003.14121475
995.592072933
987.728571656
979.583204855
971.186288582
962.564756571
953.741018319
944.732124727
935.549528569
926.199714616
916.685840701
907.010215718
897.176936232
887.193544039
877.07056803
866.819349626
856.449792578
845.969063106
835.381614022
824.690241032
813.897529071
803.007081906
792.024457253
780.958206847
769.821276196
758.632772691
747.419951427
736.220305308
725.083616491
714.073417017
703.266579566
692.748189875
682.60053606
672.874668448
663.5967036
654.775788236
646.366783265
637.890108492
636.930433579
637.184028265
637.317687398
637.277199539
637.206879397
637.13965448
637.070468094
636.991651385
636.903794995
636.805747026
636.696009972
636.571993785
636.430671841
636.269765833
636.090290905
635.894542829
635.681935811
635.453727132
635.213050915
634.963013416
634.706420509
634.445080706
634.179620747
633.910590696
633.64014207
633.3718136
633.108425153
632.852067443
632.606004927
632.373224925
632.155354709
631.955132938
631.775443382
631.622878542
631.500890814
631.406957792
631.372946037
631.323700166
631.257230388
631.313807075
631.362554204
631.399759664
631.426790711
631.44443572
631.45305476
1067.45941445
1066.73756597
1065.33813935
1063.2297669
1060.43509709
1056.97892871
1052.89064094
1048.20260464
1042.94875711
1037.1636487
1030.88212147
1024.13946636
1016.97175028
1009.41601587
1001.51013498
993.292200386
984.799437436
976.066703498
967.124721368
957.998286007
948.70479362
939.253561123
929.646469004
919.880357115
909.951141186
899.858630906
889.609840451
879.21785045
868.697081375
858.05891415
847.309423801
836.449660372
825.477725803
814.39129783
803.189242736
791.872297647
780.44396416
768.912162421
757.291605355
745.606561142
733.893999342
722.207406137
710.620983781
699.232818924
688.16094857
677.532068786
667.404153691
657.791355697
648.645704666
639.469432751
638.465699351
638.80475827
638.944228709
638.787634374
638.582478013
638.411846453
638.271534245
638.147976522
638.029835712
637.910017363
637.782103874
637.6410647
637.482909719
637.304848279
637.106344449
636.891422438
636.661899674
636.417263853
636.16004804
635.892464982
635.616542093
635.333890875
635.045521945
634.751960209
634.453943556
634.15320013
633.852318697
633.553959463
633.260865765
632.976360368
632.703757192
632.446118541
632.206933308
631.989909924
631.799431369
631.637233434
631.503607101
631.410986373
631.342827041
631.285660025
631.22989846
631.299486184
631.346444101
631.379428176
631.400240716
631.410236556
1077.58436591
1076.80582167
1075.30425491
1073.04446782
1070.05300819
1066.35938191
1061.99879358
1057.00957475
1051.43087256
1045.30132074
1038.6589077
1031.54168296
1023.98870076
1016.04070346
1007.74022116
999.130931136
990.256264173
981.157339764
971.870396936
962.423999388
952.836473415
943.114285954
933.252337425
923.23722868
913.054056741
902.695486452
892.169005123
881.494354691
870.693077948
859.780199535
848.760547281
837.629926036
826.379441657
815.000262659
803.485663062
791.830565266
780.03176374
768.089824662
756.012306306
743.817313822
731.537558026
719.226364148
706.966453894
694.881816001
683.140853953
671.971776128
661.421488449
651.419435969
641.435215655
640.308716386
640.698432302
640.856303015
640.617491846
640.261250778
639.942430504
639.687554838
639.482152058
639.307088163
639.146088313
638.986742228
638.819224386
638.63641743
638.4335909
638.208471559
637.962486873
637.70235613
637.43091594
637.148594682
636.858643057
636.562731075
636.261767328
635.955968725
635.645109736
635.328859512
635.007310352
634.68141546
634.352971773
634.024324345
633.698320586
633.378369888
633.0681714
632.771613228
632.492937657
632.236639609