/*--------------------------------*- C++ -*----------------------------------*\
| =========                 |                                                 |
| \\      /  F ield         | OpenFOAM: The Open Source CFD Toolbox           |
|  \\    /   O peration     | Version:  v1906                                 |
|   \\  /    A nd           | Web:      www.OpenFOAM.com                      |
|    \\/     M anipulation  |                                                 |
\*---------------------------------------------------------------------------*/
FoamFile
{
    version     2.0;
    format      ascii;
    class       volVectorField;
    location    "591";
    object      U;
}
// * * * * * * * * * * * * * * * * * * * * * * * * * * * * * * * * * * * * * //

dimensions      [0 1 -1 0 0 0 0];


internalField   nonuniform List<vector> 
9216
(
(0.00155899984879 -0.00156025290703 0)
(0.00159875530545 -0.00486222621083 6.53963527274e-28)
(0.0015873455351 -0.00817208051426 1.08252051509e-31)
(0.00156411740276 -0.01146165985 0)
(0.001532882705 -0.0146923695091 0)
(0.00149445915833 -0.0178501505235 0)
(0.0014496834339 -0.020920913648 0)
(0.00139936782646 -0.0238922689034 0)
(0.00134428594043 -0.02675348224 0)
(0.00128525088999 -0.0294954604615 0)
(0.00122300433335 -0.0321107552634 0)
(0.00115830258801 -0.0345934671961 0)
(0.0010917872525 -0.0369391778787 0)
(0.00102409897147 -0.0391447892168 0)
(0.000955735265401 -0.0412084115812 0)
(0.000887194304686 -0.0431291727042 0)
(0.000818817370088 -0.0449070962856 0)
(0.000750961811809 -0.0465429106702 0)
(0.000683824065055 -0.0480379424008 0)
(0.00061764035309 -0.0493939428933 0)
(0.000552485986635 -0.0506130101602 0)
(0.000488503271503 -0.0516974415549 0)
(0.0004256739612 -0.052649687066 0)
(0.00036407451594 -0.053472228439 0)
(0.000303619200261 -0.0541675626533 0)
(0.000244343897299 -0.0547381051338 0)
(0.000186118552512 -0.0551861994361 0)
(0.000128960823274 -0.0555140412435 0)
(7.2716878123e-05 -0.0557237116189 0)
(1.74068649288e-05 -0.0558171188965 0)
(-3.71291567492e-05 -0.0557960611829 0)
(-9.08535161208e-05 -0.0556621694232 0)
(-0.000143911021834 -0.0554169940419 0)
(-0.000196221926379 -0.0550619883596 0)
(-0.00024789927136 -0.0545985974745 0)
(-0.000298808097043 -0.0540282593929 0)
(-0.000349014837501 -0.0533525104962 0)
(-0.000398317744202 -0.0525730010633 0)
(-0.000446728679299 -0.0516916053449 0)
(-0.000493977720637 -0.0507104424179 0)
(-0.000540026096923 -0.0496319777955 0)
(-0.000584547560555 -0.0484590377075 0)
(-0.000627468543037 -0.0471948873271 0)
(-0.000668428074074 -0.0458432281348 0)
(-0.000707338691968 -0.0444082469801 0)
(-0.000743824098163 -0.0428946000126 0)
(-0.000777791305704 -0.041307444076 0)
(-0.000808845253697 -0.0396524306391 0)
(-0.00083686464059 -0.0379357539502 0)
(-0.000861396947421 -0.036164193969 0)
(-0.000882238847683 -0.0343452152345 0)
(-0.000898828243877 -0.0324870744735 0)
(-0.000910845506599 -0.030598953384 0)
(-0.000917630794732 -0.0286910655607 0)
(-0.000918825184416 -0.0267747029084 0)
(-0.000913827932078 -0.0248621847315 0)
(-0.00090245905595 -0.022966659347 0)
(-0.000884419035088 -0.0211018015512 0)
(-0.000859906873874 -0.0192813858652 0)
(-0.000829054081552 -0.0175188612282 0)
(-0.000792488393476 -0.0158268592844 0)
(-0.000750767067662 -0.0142167887963 0)
(-0.000704871264172 -0.0126983992951 0)
(-0.000655615433671 -0.0112795810726 0)
(-0.000604165299404 -0.00996613026189 0)
(-0.000551540203037 -0.00876158294975 0)
(-0.000499047364661 -0.00766700793308 0)
(-0.000447710425675 -0.00668103010806 0)
(-0.000398632581481 -0.00580001661393 0)
(-0.000352463473277 -0.00501850077822 0)
(-0.000309818230808 -0.0043296839094 0)
(-0.000270834489344 -0.00372600245764 0)
(-0.000235647456507 -0.00319961214037 0)
(-0.000204016781546 -0.00274282355036 0)
(-0.000175821756251 -0.00234832213136 0)
(-0.00015072619274 -0.00200931471403 0)
(-0.00012860735712 -0.00171945285686 0)
(-0.000109174135454 -0.00147284511906 0)
(-9.2295598817e-05 -0.00126399850704 0)
(-7.76579812674e-05 -0.00108792026759 0)
(-6.50845407117e-05 -0.000940094586555 0)
(-5.42325712403e-05 -0.000816572486787 0)
(-4.4820565858e-05 -0.000714015773906 0)
(-3.60760608473e-05 -0.000629838292273 0)
(-2.76356812501e-05 -0.00055480645397 0)
(-2.44398290508e-05 -0.000510647254356 0)
(-2.26927188878e-05 -0.000460003352047 0)
(-1.95387489301e-05 -0.00041821841137 0)
(-1.93851509536e-05 -0.000383147964548 0)
(-2.07588100926e-05 -0.0003434681083 0)
(-2.0827472384e-05 -0.000303882342713 0)
(-2.12918429976e-05 -0.000261669554716 0)
(-2.43461142622e-05 -0.000215541607121 0)
(-2.79554095456e-05 -0.00016475172809 0)
(-3.19263589768e-05 -0.000102672096138 0)
(-3.43517698812e-05 -3.32167410034e-05 0)
(0.00487483013379 -0.00161651618175 0)
(0.0051358473759 -0.00517501582684 0)
(0.00509635387659 -0.00870212019958 -6.7244963051e-28)
(0.00502010826301 -0.0122099896924 0)
(0.00491868715533 -0.0156517326864 0)
(0.0047946544379 -0.0190141443856 0)
(0.00465037042136 -0.0222825443852 0)
(0.0044883339727 -0.0254438468118 0)
(0.0043110548944 -0.0284866710268 0)
(0.00412111146082 -0.0314014108883 0)
(0.00392094266163 -0.0341802304542 0)
(0.00371293708823 -0.0368169826872 0)
(0.00349921615104 -0.0393071072021 0)
(0.00328178035689 -0.041647474237 0)
(0.00306229070991 -0.043836233248 0)
(0.00284227388199 -0.0458726273851 0)
(0.00262289445124 -0.0477568329286 0)
(0.00240521285633 -0.0494897777731 0)
(0.00218993714981 -0.0510729984028 0)
(0.00197772644813 -0.0525084819 0)
(0.00176891138943 -0.0537985535075 0)
(0.00156383825989 -0.0549457494803 0)
(0.00136255042947 -0.0559527381351 0)
(0.00116517126288 -0.05682222319 0)
(0.000971541674581 -0.0575568956956 0)
(0.000781642787032 -0.0581593641276 0)
(0.000595187490218 -0.0586321329229 0)
(0.000412085085325 -0.0589775555042 0)
(0.00023198602407 -0.0591978357614 0)
(5.47916298861e-05 -0.0592950026837 0)
(-0.000119849990345 -0.0592709267267 0)
(-0.000291987791861 -0.0591273302985 0)
(-0.000461913863837 -0.0588658213495 0)
(-0.000629563026092 -0.0584879070022 0)
(-0.000795110382696 -0.0579950606801 0)
(-0.0009583250189 -0.0573887570032 0)
(-0.00111921661819 -0.0566705538215 0)
(-0.00127735066771 -0.0558421422686 0)
(-0.00143254632559 -0.0549054369828 0)
(-0.0015841597064 -0.0538626303147 0)
(-0.0017318327708 -0.0527162764799 0)
(-0.00187474935347 -0.0514693344659 0)
(-0.00201242868224 -0.0501252294069 0)
(-0.00214395352103 -0.0486878705044 0)
(-0.00226879318246 -0.0471616807206 0)
(-0.00238599463651 -0.0455515901875 0)
(-0.00249501131491 -0.0438630464311 0)
(-0.0025948453298 -0.0421020102247 0)
(-0.00268486250181 -0.0402749873993 0)
(-0.00276388823141 -0.0383890775845 0)
(-0.00283101775001 -0.0364520776536 0)
(-0.00288471109985 -0.0344726163916 0)
(-0.00292365986408 -0.0324603241955 0)
(-0.00294597305336 -0.0304259873366 0)
(-0.00295017858692 -0.0283816416279 0)
(-0.00293455085997 -0.0263405395863 0)
(-0.00289819739557 -0.0243169442981 0)
(-0.00284038594943 -0.0223257598538 0)
(-0.00276148362083 -0.0203820525798 0)
(-0.00266217051996 -0.0185005408086 0)
(-0.00254422624314 -0.0166950728405 0)
(-0.00240972515687 -0.0149781216371 0)
(-0.00226163272863 -0.0133602984005 0)
(-0.00210279067564 -0.0118501642638 0)
(-0.00193672283738 -0.0104540798855 0)
(-0.00176696059416 -0.0091759419296 0)
(-0.00159757419202 -0.00801688627886 0)
(-0.00143214612888 -0.00697523633997 0)
(-0.00127408101072 -0.00604674132043 0)
(-0.00112569352871 -0.00522508406242 0)
(-0.000988753737602 -0.0045025099623 0)
(-0.000863861937571 -0.00387048766517 0)
(-0.000751201530497 -0.00332029764581 0)
(-0.000650115342169 -0.0028435152421 0)
(-0.000559970885044 -0.00243228354025 0)
(-0.000479826559145 -0.00207939782541 0)
(-0.000409129539898 -0.00177817405928 0)
(-0.000347125341433 -0.00152235648422 0)
(-0.000293256318334 -0.00130609612887 0)
(-0.000246656811029 -0.00112405012188 0)
(-0.000206645627656 -0.000971398056513 0)
(-0.000172318834973 -0.00084384346119 0)
(-0.000142913517662 -0.000737485384753 0)
(-0.000117239612774 -0.000648883568518 0)
(-9.44245516295e-05 -0.000569105992348 0)
(-7.99921300692e-05 -0.000500932228062 0)
(-6.87610842047e-05 -0.000449117197891 0)
(-5.89351006405e-05 -0.000408480766706 0)
(-5.69837766206e-05 -0.000367864734919 0)
(-6.01845522161e-05 -0.000335541020924 0)
(-6.20749899883e-05 -0.000301628126083 0)
(-6.56262094245e-05 -0.000257557039625 0)
(-7.25645322784e-05 -0.000210401372989 0)
(-9.00309869242e-05 -0.000167505220108 0)
(-0.000110675434559 -0.000107801818016 0)
(-0.000100538134245 -2.98266961123e-05 0)
(0.00824992066592 -0.00163781112186 0)
(0.00869607622804 -0.00524028586865 0)
(0.00862172923688 -0.00880421142085 -6.71503276934e-28)
(0.00848945584531 -0.0123513839833 0)
(0.00831564958011 -0.0158302528128 0)
(0.00810388013112 -0.0192269564539 0)
(0.00785794520673 -0.0225263633815 0)
(0.00758201268313 -0.0257151591294 0)
(0.00728041103829 -0.0287818639176 0)
(0.00695751269336 -0.0317168921896 0)
(0.00661754690919 -0.0345125240791 0)
(0.00626453924902 -0.0371628138931 0)
(0.00590216536574 -0.0396634591012 0)
(0.00553375544102 -0.0420116327494 0)
(0.00516218989998 -0.0442058041595 0)
(0.00478996349526 -0.0462455465141 0)
(0.00441911001371 -0.0481313535335 0)
(0.00405131108763 -0.049864458204 0)
(0.00368783186604 -0.0514466726606 0)
(0.00332965879896 -0.052880236887 0)
(0.00297743043322 -0.0541676933891 0)
(0.00263159278919 -0.0553117713138 0)
(0.00229231484353 -0.0563152965874 0)
(0.00195965580892 -0.0571811089084 0)
(0.00163346028134 -0.0579120030084 0)
(0.00131353648386 -0.0585106733034 0)
(0.000999530045447 -0.058979680802 0)
(0.000691115111745 -0.0593214206015 0)
(0.000387847831437 -0.0595381107586 0)
(8.93730073511e-05 -0.0596317802433 0)
(-0.000204739836427 -0.0596042793863 0)
(-0.000494772099198 -0.0594572856032 0)
(-0.000781039723066 -0.0591923358432 0)
(-0.00106364979525 -0.0588108567212 0)
(-0.00134270305206 -0.0583142165675 0)
(-0.00161803646853 -0.057703776881 0)
(-0.00188945055104 -0.0569809649568 0)
(-0.00215644410991 -0.0561473424789 0)
(-0.00241847242585 -0.055204689826 0)
(-0.00267468259561 -0.0541550798941 0)
(-0.00292420737474 -0.0530009582989 0)
(-0.00316590531844 -0.0517452035545 0)
(-0.00339868663733 -0.050391182054 0)
(-0.00362125098938 -0.0489427748388 0)
(-0.00383242621778 -0.0474043926592 0)
(-0.00403087989344 -0.0457809644152 0)
(-0.00421543587498 -0.0440779218191 0)
(-0.00438472628705 -0.042301178574 0)
(-0.00453745361825 -0.0404571356457 0)
(-0.00467197220398 -0.038552721302 0)
(-0.00478651240743 -0.0365954961501 0)
(-0.00487875920358 -0.0345938231912 0)
(-0.00494615774518 -0.0325571012555 0)
(-0.00498566062131 -0.0304960127308 0)
(-0.00499429576233 -0.0284227163876 0)
(-0.00496920189448 -0.0263508775056 0)
(-0.0049084022753 -0.0242954581022 0)
(-0.00481083134162 -0.0222722460496 0)
(-0.00467678542175 -0.0202972893641 0)
(-0.00450770486963 -0.0183862895072 0)
(-0.00430635859167 -0.0165540619536 0)
(-0.00407668592954 -0.0148139125798 0)
(-0.00382365217814 -0.0131769652003 0)
(-0.00355226691852 -0.0116521576263 0)
(-0.00326822679409 -0.0102463355998 0)
(-0.002977895709 -0.00896380037601 0)
(-0.00268826466846 -0.00780573718992 0)
(-0.00240595903182 -0.00677001655283 0)
(-0.00213677174437 -0.00585150782412 0)
(-0.00188493381462 -0.00504276450087 0)
(-0.00165320337376 -0.00433484596934 0)
(-0.00144267267337 -0.00371812734902 0)
(-0.00125323558984 -0.00318301674096 0)
(-0.00108371283302 -0.00272052961259 0)
(-0.00093258994969 -0.00232261327738 0)
(-0.000798322729687 -0.00198213311004 0)
(-0.000679836771681 -0.00169253456482 0)
(-0.000576122332003 -0.00144755494941 0)
(-0.000486117939102 -0.00124124847599 0)
(-0.000408484116779 -0.00106818772208 0)
(-0.000341930069883 -0.000923537776168 0)
(-0.000285136220142 -0.000803020956459 0)
(-0.000236954050563 -0.00070279580662 0)
(-0.000196339451177 -0.00061979497005 0)
(-0.000163122547576 -0.000544809252013 0)
(-0.000138893781022 -0.000482873179971 0)
(-0.00012058589843 -0.000442184525555 0)
(-0.000102414067558 -0.000387275199871 0)
(-9.15629489123e-05 -0.000340776576828 0)
(-9.36296761272e-05 -0.000312768811914 0)
(-0.000106136134661 -0.000290179310669 0)
(-0.000109087403237 -0.000232973490963 0)
(-0.000124709534048 -0.000192830178353 0)
(-0.000146376281549 -0.000141288197586 0)
(-0.000165373000012 -8.53496026962e-05 0)
(-0.000161576796946 -2.65377049155e-05 0)
(0.0116903820284 -0.00166418136998 0)
(0.0123274828457 -0.00532286085339 0)
(0.0122202136462 -0.00893943911588 6.71414462422e-28)
(0.0120298465671 -0.0125380434688 0)
(0.0117800215618 -0.0160648954668 0)
(0.0114760456887 -0.0195053439319 0)
(0.0111234727785 -0.022843662382 0)
(0.0107283667907 -0.0260661981738 0)
(0.0102970416549 -0.0291613455414 0)
(0.00983583087543 -0.0321195805596 0)
(0.00935086816222 -0.0349334002634 0)
(0.00884793311322 -0.0375972003695 0)
(0.00833231153153 -0.0401071077935 0)
(0.0078087285055 -0.0424607824899 0)
(0.00728128650785 -0.0446572060624 0)
(0.00675347315791 -0.0466964669947 0)
(0.00622815572734 -0.0485795550008 0)
(0.0057076382896 -0.050308168297 0)
(0.00519368555497 -0.0518845412785 0)
(0.00468760433924 -0.0533112911987 0)
(0.00419027426502 -0.0545912878614 0)
(0.00370223599859 -0.0557275416382 0)
(0.00322371511775 -0.0567231123981 0)
(0.00275470836254 -0.0575810330878 0)
(0.00229499509467 -0.058304250538 0)
(0.00184421988143 -0.0588955768771 0)
(0.00140189166835 -0.0593576550876 0)
(0.000967465129282 -0.0596929323171 0)
(0.000540330515137 -0.0599036457473 0)
(0.000119897781546 -0.0599918146037 0)
(-0.000294419055352 -0.059959247944 0)
(-0.000703111950426 -0.0598075514094 0)
(-0.00110659897787 -0.0595381578273 0)
(-0.00150512804415 -0.0591523617586 0)
(-0.0018988034843 -0.0586513692042 0)
(-0.00228748822922 -0.0580363572468 0)
(-0.00267084446834 -0.057308548437 0)
(-0.0030482441267 -0.0564692917642 0)
(-0.00341883469898 -0.0555201536562 0)
(-0.00378147033221 -0.0544630078902 0)
(-0.00413481318926 -0.0533001247585 0)
(-0.00447729200378 -0.0520342459711 0)
(-0.00480723804819 -0.050668643888 0)
(-0.00512286075149 -0.0492071522394 0)
(-0.00542239356285 -0.0476541697527 0)
(-0.00570404792944 -0.0460146312408 0)
(-0.00596611566278 -0.0442939584448 0)
(-0.00620684086454 -0.0424980012682 0)
(-0.00642442016983 -0.0406329993368 0)
(-0.00661675587841 -0.0387055927299 0)
(-0.0067813625579 -0.0367229228993 0)
(-0.00691508647954 -0.034692848731 0)
(-0.00701410284346 -0.0326242853888 0)
(-0.00707389508202 -0.0305276209085 0)
(-0.00708969478852 -0.0284150983939 0)
(-0.00705701445402 -0.02630098869 0)
(-0.0069725173311 -0.024201375317 0)
(-0.00683458846188 -0.022133461069 0)
(-0.00664343847175 -0.0201148441344 0)
(-0.00640128052548 -0.0181627406489 0)
(-0.00611191327296 -0.0162935216597 0)
(-0.00578147354156 -0.0145218778302 0)
(-0.00541752309183 -0.0128595088222 0)
(-0.00502697355034 -0.0113157216475 0)
(-0.004617599883 -0.00989824202513 0)
(-0.00419886863899 -0.00861226743627 0)
(-0.00378143140779 -0.00745919716217 0)
(-0.00337560780025 -0.00643615384625 0)
(-0.00299010848224 -0.00553648548998 0)
(-0.00263121339374 -0.00475082978497 0)
(-0.00230268707295 -0.00406828062069 0)
(-0.00200584515093 -0.00347742818716 0)
(-0.00173999142194 -0.00296726678075 0)
(-0.00150288959334 -0.00252794905391 0)
(-0.00129170494661 -0.00215123958614 0)
(-0.00110398153814 -0.00183036104608 0)
(-0.000938291657322 -0.00155915202444 0)
(-0.000793590013596 -0.00133135862516 0)
(-0.000668398148131 -0.00114079184378 0)
(-0.000560751129086 -0.000981870091894 0)
(-0.000468684664634 -0.000849784395228 0)
(-0.000390369676846 -0.000740372934182 0)
(-0.000324188169136 -0.00064999797092 0)
(-0.000268950780501 -0.00057600405213 0)
(-0.00022324071034 -0.000505982740618 0)
(-0.000193226772336 -0.00045841294734 0)
(-0.000168085538904 -0.000411838367703 0)
(-0.00014606438738 -0.00035973779691 0)
(-0.00013591443781 -0.000324779644967 0)
(-0.000129392622285 -0.00027916823004 0)
(-0.000137512103421 -0.000240962002519 0)
(-0.000161505760387 -0.000214321970316 0)
(-0.000170293895381 -0.000156823885301 0)
(-0.000193131573257 -0.000110154095082 0)
(-0.000216131152433 -6.72445881e-05 0)
(-0.000215999265281 -2.21533460704e-05 0)
(0.0151929810688 -0.00169948480155 0)
(0.0160208526992 -0.0054344240896 0)
(0.0158784225989 -0.00912408814802 0)
(0.0156263940032 -0.0127928834902 0)
(0.0152959263693 -0.0163849093656 0)
(0.0148943218137 -0.0198845211738 0)
(0.0144291695218 -0.0232752318779 0)
(0.0139087001827 -0.0265429482164 0)
(0.0133414458997 -0.0296759197117 0)
(0.0127359130079 -0.0326647405003 0)
(0.012100298114 -0.0355022442082 0)
(0.0114422669248 -0.0381833327294 0)
(0.0107687890731 -0.0407047578088 0)
(0.0100860385998 -0.0430648756673 0)
(0.00939934129843 -0.0452633930084 0)
(0.00871317420692 -0.0473011181889 0)
(0.00803119188585 -0.0491797284963 0)
(0.0073562863201 -0.0509015595417 0)
(0.00669065298541 -0.0524694208114 0)
(0.0060358754306 -0.0538864374964 0)
(0.0053930006942 -0.0551559183865 0)
(0.00476262485204 -0.0562812468208 0)
(0.00414496052742 -0.0572657928035 0)
(0.00353991251749 -0.0581128424038 0)
(0.00294713157509 -0.0588255426776 0)
(0.00236607870096 -0.0594068586049 0)
(0.00179606675885 -0.0598595412285 0)
(0.00123631744492 -0.0601861044731 0)
(0.000685995950871 -0.0603888112272 0)
(0.000144266538441 -0.0604696664488 0)
(-0.000389674126778 -0.0604304242183 0)
(-0.000916537713383 -0.0602725927427 0)
(-0.00143690913399 -0.0599974650349 0)
(-0.00195118327766 -0.0596061540331 0)
(-0.00245953059094 -0.0590996431746 0)
(-0.00296183542066 -0.0584788518945 0)
(-0.0034576723676 -0.0577447165714 0)
(-0.00394626020481 -0.0568982842875 0)
(-0.00442646589994 -0.0559408177533 0)
(-0.00489679276243 -0.0548739046516 0)
(-0.0053554298689 -0.053699565329 0)
(-0.00580028788059 -0.0524203475657 0)
(-0.0062290981086 -0.0510393986406 0)
(-0.00663948591128 -0.0495605019756 0)
(-0.00702908925956 -0.0479880705822 0)
(-0.00739561595764 -0.0463270919784 0)
(-0.00773690326944 -0.04458303083 0)
(-0.00805086103387 -0.0427617059742 0)
(-0.00833536802936 -0.0408691769354 0)
(-0.00858801567369 -0.0389116902873 0)
(-0.00880581291711 -0.0368957510429 0)
(-0.00898481016208 -0.0348283832908 0)
(-0.00911986339606 -0.0327176235485 0)
(-0.00920459919444 -0.0305732111511 0)
(-0.00923189746051 -0.0284073345581 0)
(-0.00919486885215 -0.0262350913737 0)
(-0.00908827226078 -0.0240743169083 0)
(-0.00890977757442 -0.0219443472056 0)
(-0.00865938917627 -0.019865059187 0)
(-0.0083403281142 -0.0178557431477 0)
(-0.00795702216367 -0.0159351389296 0)
(-0.00751863495245 -0.014120316219 0)
(-0.00703676556711 -0.0124231741861 0)
(-0.00651922208437 -0.0108528641565 0)
(-0.00597518999027 -0.00941878710278 0)
(-0.005417723273 -0.008128121094 0)
(-0.00486246201546 -0.00698290447511 0)
(-0.00432464591161 -0.00597906671994 0)
(-0.00381666024335 -0.00510743730405 0)
(-0.00334701088535 -0.00435562328579 0)
(-0.00292035419838 -0.00370971937864 0)
(-0.00253786267752 -0.00315563954232 0)
(-0.00219770637559 -0.00268023953248 0)
(-0.00189575022366 -0.00227239588474 0)
(-0.00162692662163 -0.00192383587347 0)
(-0.00138733228713 -0.00162883151236 0)
(-0.00117563777293 -0.0013822385493 0)
(-0.000991455998109 -0.00117774319498 0)
(-0.000832989121814 -0.00100847970704 0)
(-0.000697288533665 -0.000868534547817 0)
(-0.000581537425203 -0.000753208389304 0)
(-0.000483313572899 -0.000658569136972 0)
(-0.000400398554205 -0.000581401407702 0)
(-0.000331250389342 -0.000518479121501 0)
(-0.000275024109501 -0.000458943937506 0)
(-0.000244666656868 -0.000424976776488 0)
(-0.000219698934445 -0.000382591752256 0)
(-0.000194901520416 -0.000335382490162 0)
(-0.000172696792938 -0.000280976727206 0)
(-0.000170364429904 -0.000245929582757 0)
(-0.000172377797937 -0.000200885251918 0)
(-0.000198046496522 -0.000173432945746 0)
(-0.000227619949405 -0.000137489286925 0)
(-0.000236050149199 -8.831498191e-05 0)
(-0.000249842595783 -5.1767686274e-05 0)
(-0.000249686343055 -1.72461809669e-05 0)
(0.0187790731566 -0.00174468590042 0)
(0.0198002150543 -0.00557795148459 0)
(0.0196192237992 -0.00936221078398 0)
(0.0193004124151 -0.0131214101821 0)
(0.0188828309178 -0.0167970177518 0)
(0.0183760998483 -0.0203721313545 0)
(0.0177902040239 -0.0238293190035 0)
(0.0171358990783 -0.0271539617492 0)
(0.0164242601561 -0.0303341774643 0)
(0.0156662481336 -0.0333607776884 0)
(0.0148723434766 -0.0362271000749 0)
(0.014052262965 -0.0389287673055 0)
(0.0132147613445 -0.0414633979554 0)
(0.0123675151604 -0.0438302958124 0)
(0.0115170767777 -0.0460301394792 0)
(0.0106688873107 -0.0480646886702 0)
(0.00982733154826 -0.0499365181518 0)
(0.00899582352597 -0.0516487852253 0)
(0.00817690748775 -0.0532050327243 0)
(0.00737236753925 -0.054609026342 0)
(0.00658333491381 -0.0558646233591 0)
(0.00581039184882 -0.0569756685663 0)
(0.00505366470886 -0.0579459131158 0)
(0.00431291002317 -0.0587789518295 0)
(0.00358758818797 -0.059478175339 0)
(0.00287693174547 -0.0600467336661 0)
(0.00218000353484 -0.0604875091026 0)
(0.00149575374173 -0.0608030964712 0)
(0.000823070550363 -0.0609957903776 0)
(0.000160834703448 -0.0610675780758 0)
(-0.000492029046438 -0.0610201458431 0)
(-0.00113649182571 -0.0608548796646 0)
(-0.00177336326344 -0.0605728960841 0)
(-0.00240322485552 -0.06017507516 0)
(-0.00302636809834 -0.0596621123537 0)
(-0.00364272803179 -0.0590345889057 0)
(-0.00425183005383 -0.0582930617973 0)
(-0.00485274216239 -0.0574381723888 0)
(-0.00544405442323 -0.0564707716504 0)
(-0.00602387766988 -0.0553920554731 0)
(-0.00658988423091 -0.054203701508 0)
(-0.00713937784338 -0.0529079937049 0)
(-0.00766940994241 -0.0515079191287 0)
(-0.0081769164802 -0.0500072181748 0)
(-0.00865887761525 -0.0484103720251 0)
(-0.00911245318846 -0.0467225147916 0)
(-0.00953507615025 -0.0449492702613 0)
(-0.00992443785467 -0.0430965298616 0)
(-0.0102783402999 -0.0411702148137 0)
(-0.0105943594841 -0.0391760953837 0)
(-0.0108693388213 -0.0371197720322 0)
(-0.0110987536195 -0.0350069507018 0)
(-0.0112761212446 -0.0328441227529 0)
(-0.0113927419463 -0.0306397001394 0)
(-0.0114381703453 -0.028405410039 0)
(-0.011401829841 -0.026157402264 0)
(-0.0112755001357 -0.0239163195397 0)
(-0.0110563289764 -0.0217046102953 0)
(-0.0107436983081 -0.0195454238167 0)
(-0.0103428694082 -0.0174603998292 0)
(-0.00985684785018 -0.0154718518676 0)
(-0.00929979681245 -0.0136016421641 0)
(-0.00869160061701 -0.0118601148347 0)
(-0.00803744518931 -0.0102541630098 0)
(-0.00734582845072 -0.00879675837128 0)
(-0.00663444284154 -0.00749955304676 0)
(-0.00592654017926 -0.00636613198241 0)
(-0.00524455545822 -0.00539036294363 0)
(-0.00460560884259 -0.00455886008076 0)
(-0.00402048722028 -0.00385453217176 0)
(-0.00349443244205 -0.00325913974156 0)
(-0.00302795583762 -0.00275478667833 0)
(-0.00261735641369 -0.00232515971443 0)
(-0.00225526334749 -0.00195717385186 0)
(-0.001932540777 -0.00164282548016 0)
(-0.00164270791538 -0.0013790754497 0)
(-0.00138572228754 -0.00116327852918 0)
(-0.00116380210722 -0.000988712373212 0)
(-0.000974804209386 -0.000846626437183 0)
(-0.000813818330593 -0.000730420164636 0)
(-0.000676814271617 -0.000635810857554 0)
(-0.000560878081613 -0.000559231726231 0)
(-0.000463082410356 -0.000497816695234 0)
(-0.000381416031417 -0.000446755436127 0)
(-0.00031943896139 -0.000400589660369 0)
(-0.000285225957822 -0.000369693724227 0)
(-0.000253196908451 -0.000325928157782 0)
(-0.000235405645655 -0.000293470464951 0)
(-0.000224187799142 -0.000257721769862 0)
(-0.000221891041164 -0.000221744590017 0)
(-0.00020986190553 -0.000168853373671 0)
(-0.000223934552561 -0.000132671517384 0)
(-0.000261652927502 -0.000110110622889 0)
(-0.000276189108549 -7.57147105668e-05 0)
(-0.000281297658033 -4.29943594095e-05 0)
(-0.000281879135486 -1.43341158906e-05 0)
(0.022470448852 -0.0018009511977 0)
(0.0236884969428 -0.00575674889492 0)
(0.0234643338212 -0.00965886775644 6.66673287501e-28)
(0.0230718782041 -0.0135303283606 0)
(0.0225585995965 -0.0173092532351 0)
(0.0219368786188 -0.0209771486795 0)
(0.0212195748745 -0.0245154323444 0)
(0.0204204417673 -0.0279088917635 0)
(0.0195535271837 -0.0311455703565 0)
(0.0186326101961 -0.0342166569181 0)
(0.017670737548 -0.0371162291726 0)
(0.0166798762767 -0.0398409147343 0)
(0.0156706841431 -0.0423895055811 0)
(0.014652388743 -0.0447625603119 0)
(0.013632758704 -0.0469620210578 0)
(0.0126181469888 -0.0489908637484 0)
(0.0116135853098 -0.0508527927478 0)
(0.0106229107386 -0.052551984209 0)
(0.00964890803511 -0.0540928775471 0)
(0.00869345556147 -0.0554800109618 0)
(0.00775766548359 -0.056717895111 0)
(0.00684201326774 -0.0578109182016 0)
(0.00594645307946 -0.0587632759458 0)
(0.00507051914015 -0.0595789203811 0)
(0.00421341309921 -0.0602615225501 0)
(0.00337408026738 -0.06081444499 0)
(0.00255127628352 -0.0612407211 0)
(0.00174362839656 -0.0615430394593 0)
(0.00094969325036 -0.061723732381 0)
(0.000168015670984 -0.061784767609 0)
(-0.00060281059162 -0.0617277526897 0)
(-0.00136407439317 -0.0615539287024 0)
(-0.00211687558302 -0.0612641996628 0)
(-0.00286204437923 -0.0608591603083 0)
(-0.00360005801156 -0.0603391476202 0)
(-0.00433095527861 -0.0597043149364 0)
(-0.0050542577403 -0.0589547315957 0)
(-0.00576890298765 -0.0580905093502 0)
(-0.00647320306822 -0.0571119537488 0)
(-0.00716483633949 -0.0560197347396 0)
(-0.00784088723526 -0.0548150655754 0)
(-0.00849793938222 -0.0534998731447 0)
(-0.00913222917571 -0.0520769369428 0)
(-0.00973985048055 -0.0505499691144 0)
(-0.0103169955789 -0.0489236065593 0)
(-0.0108601928381 -0.0472032895857 0)
(-0.0113664916948 -0.0453950143723 0)
(-0.0118335201915 -0.0435049688047 0)
(-0.0122593375753 -0.0415390970555 0)
(-0.0126419986781 -0.0395026871233 0)
(-0.0129787869906 -0.0374001433451 0)
(-0.0132651335139 -0.0352351637814 0)
(-0.0134934165427 -0.0330116099073 0)
(-0.013652062521 -0.0307352583109 0)
(-0.013725758855 -0.0284164205366 0)
(-0.0136978740423 -0.0260724192021 0)
(-0.0135550128662 -0.0237288137648 0)
(-0.0132953875862 -0.0214125429421 0)
(-0.0129161569102 -0.0191515967645 0)
(-0.0124288312646 -0.016968889703 0)
(-0.0118268362173 -0.0148920629845 0)
(-0.0111340343106 -0.0129550658982 0)
(-0.0103922177391 -0.0111608200917 0)
(-0.00959183792294 -0.00950708986084 0)
(-0.00873531573924 -0.00801578301009 0)
(-0.00784774689933 -0.00670883165407 0)
(-0.00696554712405 -0.0055930165336 0)
(-0.00612254513825 -0.00465813525249 0)
(-0.0053417723434 -0.00388336916652 0)
(-0.00463582213478 -0.00324444709483 0)
(-0.00400972940594 -0.00271718824875 0)
(-0.00346280503851 -0.00227856375489 0)
(-0.00298869688838 -0.00190754721174 0)
(-0.00257484706333 -0.00158758028819 0)
(-0.00220428749999 -0.00131128035794 0)
(-0.00186503023141 -0.00108201294527 0)
(-0.00156145215589 -0.000903332743666 0)
(-0.00130364847634 -0.000766825135177 0)
(-0.00108848549766 -0.000658495934711 0)
(-0.00090619723739 -0.000570544608281 0)
(-0.000750984571354 -0.000500267873446 0)
(-0.000620229189305 -0.000444827899646 0)
(-0.00051013077302 -0.000401629484443 0)
(-0.000418393549635 -0.000364595482063 0)
(-0.000357281598248 -0.00033557329318 0)
(-0.000320055734615 -0.000309152119497 0)
(-0.000290079308136 -0.000278746254508 0)
(-0.000266567122998 -0.000245107520883 0)
(-0.000259932721863 -0.000217109434866 0)
(-0.000252641583005 -0.000179564025334 0)
(-0.000260460607889 -0.000150223852838 0)
(-0.000256716090685 -0.00010836100377 0)
(-0.000276493773802 -8.3108846934e-05 0)
(-0.000304590713186 -6.31731804136e-05 0)
(-0.000307532977583 -3.61314543551e-05 0)
(-0.00030865158338 -1.2079916309e-05 0)
(0.0262914877548 -0.00186963807483 0)
(0.0277109450576 -0.00597497299588 0)
(0.0274376053434 -0.0100206786237 -6.66570903038e-28)
(0.0269625730094 -0.01402840248 0)
(0.0263424736784 -0.0179320540025 0)
(0.0255930618936 -0.0217111558324 0)
(0.0247307169349 -0.0253457543322 0)
(0.0237728145247 -0.028820007722 0)
(0.0227369333035 -0.0321220071787 0)
(0.021640131099 -0.0352435653609 0)
(0.0204983677914 -0.0381798319589 0)
(0.019326091929 -0.0409288186359 0)
(0.0181359881134 -0.0434908834053 0)
(0.0169388675884 -0.0458682191838 0)
(0.0157436757619 -0.0480643792023 0)
(0.0145575867096 -0.0500838600856 0)
(0.013386155457 -0.0519317524882 0)
(0.0122335022303 -0.0536134606604 0)
(0.0111025080464 -0.0551344861435 0)
(0.00999500645678 -0.0565002672234 0)
(0.00891196157407 -0.0577160640757 0)
(0.00785362688133 -0.058786879491 0)
(0.00681968281796 -0.0597174058661 0)
(0.00580935360285 -0.060511990539 0)
(0.00482150540423 -0.0611746130518 0)
(0.00385472906838 -0.0617088694369 0)
(0.00290741116639 -0.0621179600477 0)
(0.00197779762659 -0.0624046787011 0)
(0.00106405421806 -0.0625714024033 0)
(0.000164328286906 -0.0626200804786 0)
(-0.000723184905179 -0.0625522349098 0)
(-0.00160016465037 -0.0623689434456 0)
(-0.00246808075678 -0.0620708647272 0)
(-0.00332809503901 -0.0616582561044 0)
(-0.00418095464782 -0.0611310216186 0)
(-0.00502687954953 -0.0604887868418 0)
(-0.00586545218566 -0.0597310075501 0)
(-0.00669551940467 -0.0588571155941 0)
(-0.00751512120375 -0.0578667027139 0)
(-0.00832146235263 -0.0567597371901 0)
(-0.00911094559941 -0.0555368019463 0)
(-0.0098792823574 -0.0541993328959 0)
(-0.0106216928611 -0.0527498273428 0)
(-0.0113331950432 -0.0511919815679 0)
(-0.0120089652131 -0.0495307112529 0)
(-0.012644728272 -0.0477720076602 0)
(-0.013237107158 -0.0459225942484 0)
(-0.0137838278083 -0.043989372253 0)
(-0.0142836487776 -0.0419786896875 0)
(-0.0147358651829 -0.0398955410701 0)
(-0.0151392397713 -0.0377429030521 0)
(-0.015490283169 -0.0355215764147 0)
(-0.0157809782147 -0.0332310480119 0)
(-0.0159965066831 -0.0308720389382 0)
(-0.0161142668098 -0.0284512183161 0)
(-0.0161071084731 -0.0259866532427 0)
(-0.0159510016854 -0.0235138293972 0)
(-0.0156521238048 -0.0210657507673 0)
(-0.0151984898973 -0.0186788630089 0)
(-0.0146249839898 -0.0163710745137 0)
(-0.0138852090483 -0.0141770488541 0)
(-0.0130239532966 -0.012167017791 0)
(-0.0121502152962 -0.0103179109711 0)
(-0.0111985069671 -0.00859725162226 0)
(-0.0101533051371 -0.00705265696616 0)
(-0.0090554235104 -0.00572977420612 0)
(-0.00796671215696 -0.00464092056271 0)
(-0.00693992804397 -0.00376657856095 0)
(-0.00600448235831 -0.00307212756624 0)
(-0.00517240007008 -0.00252248037738 0)