/*--------------------------------*- C++ -*----------------------------------*\
| =========                 |                                                 |
| \\      /  F ield         | OpenFOAM: The Open Source CFD Toolbox           |
|  \\    /   O peration     | Version:  v1906                                 |
|   \\  /    A nd           | Web:      www.OpenFOAM.com                      |
|    \\/     M anipulation  |                                                 |
\*---------------------------------------------------------------------------*/
FoamFile
{
    version     2.0;
    format      ascii;
    class       volScalarField;
    location    "686";
    object      pa;
}
// * * * * * * * * * * * * * * * * * * * * * * * * * * * * * * * * * * * * * //

dimensions      [0 2 -2 0 0 0 0];


internalField   nonuniform List<scalar> 
9216
(
977.790592098
977.426733713
976.687449548
975.569546669
974.076704939
972.213182647
969.984373141
967.396629302
964.457296186
961.174541518
957.557407608
953.615616613
949.359641417
944.800488761
939.949793546
934.819585503
929.422411603
923.771091581
917.878871807
911.75917412
905.425782639
898.892588909
892.173810504
885.283734282
878.236963025
871.048157494
863.73230454
856.304458483
848.780021719
841.174486005
833.503714509
825.783684408
818.030755119
810.261415464
802.492523104
794.741058956
787.0243189
779.359681305
771.764732792
764.257056756
756.854276541
749.573875942
742.433147865
735.449060706
728.638107785
722.016234808
715.598594271
709.399546433
703.432330971
697.709145145
692.240749859
687.036613248
682.104468828
677.450499091
673.078867328
668.991921653
665.189741669
661.670380483
658.429495253
655.460678113
652.755231855
650.302633948
648.090487895
646.105123019
644.331660344
642.754602172
641.357899028
640.125529532
639.041628131
638.091001206
637.259176808
636.532736726
635.899239587
635.34739807
634.866935049
634.448684849
634.084434047
633.766975247
633.489929262
633.247756667
633.035581214
632.849186859
632.684848845
632.539312936
632.409083436
632.296017777
632.202813175
632.12856758
632.071925135
632.030405507
632.001297673
631.981545457
631.968467384
631.960602348
631.95667104
631.955305385
978.154032269
977.789025254
977.048478641
975.927521455
974.430374456
972.561454824
970.326228925
967.731132963
964.783562147
961.491770023
957.864848724
953.912612155
949.645580095
945.074852211
940.212102238
935.069448824
929.659465041
923.995051251
918.089463973
911.956194715
905.609020395
899.061890363
892.328998362
885.424678147
878.363494616
871.160146867
863.829574039
856.38686365
848.847366
841.226605157
833.540394098
825.804744982
818.035976718
810.250622163
802.465516102
794.697696166
786.964460873
779.283261803
771.671720368
764.147510914
756.72832737
749.431759966
742.275207189
735.275752973
728.450025574
721.814085856
715.38324126
709.171957259
703.193639154
697.460575015
691.983697086
686.772553574
681.835054413
677.177456578
672.804095662
668.717374083
664.917502255
661.402520548
658.168118344
655.207757179
652.512631064
650.07194286
647.873049127
645.901920611
644.143410881
642.581676157
641.200379482
639.983139233
638.913832722
637.977011751
637.158082364
636.443519463
635.820876013
635.278848027
634.807204007
634.396799333
634.039492933
633.728131431
633.45643074
633.218920304
633.010821243
632.827995284
632.666843235
632.524291776
632.397590648
632.28658223
632.194543093
632.122362651
632.066822779
632.025977295
631.997862619
631.978860148
631.966113206
631.958731761
631.955222515
631.953815039
978.8948379
978.526668673
977.781889707
976.654586663
975.149011734
973.26964782
971.02205067
968.412770487
965.449313157
962.140064253
958.494236999
954.52178553
950.233350911
945.640170581
940.754029158
935.587170408
930.152258599
924.462298334
918.530610949
912.370766158
905.996576205
899.422041251
892.661361694
885.728897129
878.639194955
871.406960765
864.04709945
856.574693633
849.005052194
841.353692517
833.636390489
825.869161393
818.068304173
810.250376528
802.432224558
794.630945423
786.863893882
779.148626608
771.502876861
763.944476038
756.491290095
749.161117069
741.971583369
734.940020934
728.083327747
721.41783399
714.959137702
708.721973724
702.720039256
696.965878684
691.470710395
686.24432936
681.294933058
676.629024209
672.251219947
668.164134981
664.368181388
660.861472224
657.639694071
654.696130863
652.021676636
649.605037964
647.432960305
645.490726239
643.762577715
642.232039527
640.882110777
639.695698453
638.656074139
637.747308153
636.954515834
636.264008963
635.663304512
635.14111165
634.687262922
634.292685894
633.94935686
633.65026244
633.389291614
633.161137162
632.96118833
632.785458037
632.630496351
632.493350685
632.371275447
632.264327911
632.177669495
632.109815591
632.056458412
632.017501796
631.991349745
631.973341328
631.961645187
631.955000877
631.951520867
631.949804932
980.020504299
979.648669188
978.897376157
977.760303482
976.241787347
974.346415735
972.079881182
969.448897718
966.461147905
963.125211416
959.450498154
955.447168395
951.126062169
946.498617648
941.576803814
936.373043772
930.900156945
925.171293062
919.199888903
912.99961717
906.584360854
899.968178996
893.165299274
886.19010012
879.057119602
871.781051149
864.37676491
856.859312974
849.243958298
841.54618458
833.781727546
825.966583448
818.11703582
810.249657689
802.38132566
794.52920733
786.710754435
778.943667596
771.245859734
763.63539127
756.130397298
748.748989729
741.509146374
734.428582361
727.524606368
720.813971133
714.312710211
708.03598471
701.997919744
696.211466414
690.688253327
685.4384702
680.470727903
675.791937608
671.407139483
667.319329288
663.529238379
660.035147601
656.832744494
653.915086311
651.272592936
648.893211131
646.762632408
644.865033326
643.183730625
641.701366671
640.399868125
639.26097949
638.266961353
637.401142025
636.64820402
635.994265917
635.426827995
634.9346654
634.507713973
634.137015945
633.814714243
633.534031057
633.289129938
633.074967671
632.887181855
632.722014802
632.576219731
632.446999372
632.331543911
632.231664305
632.152171067
632.089408431
632.041035729
632.005621835
631.981004858
631.964570538
631.954152056
631.947999493
631.944585192
631.942913156
981.53402092
981.157476582
980.397373137
979.247058261
977.711005045
975.793953983
973.501787793
970.84144236
967.820844567
964.448837422
960.735103632
956.690083064
952.324892183
947.651240624
942.681353881
937.427896174
931.903903218
926.122717705
920.097937798
913.843369973
907.372996774
900.700949221
893.841494489
886.809027072
879.618074111
872.283301933
864.819534703
857.241771614
849.565213766
841.805286841
833.977671362
826.098324482
818.183506782
810.249798466
802.31411436
794.393704669
786.506149298
778.66933363
770.901411991
763.220749434
755.64584622
748.195239954
740.887388143
733.740531595
726.772540602
720.000750103
713.44178598
707.111393733
701.024270687
695.19391681
689.63249681
684.350728573
679.35776877
674.661099668
670.266363377
666.177143905
662.39467087
658.91753178
655.741450977
652.859255162
650.260728866
647.932789441
645.859418756
644.023097197
642.406006095
640.989821537
639.754903238
638.681187321
637.749396144
636.941826167
636.242632038
635.637781108
635.114852827
634.662793487
634.271700333
633.932747051
633.638277096
633.381868878
633.158102115
632.962310751
632.790463384
632.639119899
632.505309823
632.386442672
632.279782716
632.189525324
632.118889691
632.062997441
632.019454732
631.98791853
631.966447077
631.952065915
631.942683076
631.937092868
631.933915648
631.932340913
983.440022855
983.057572387
982.286293609
981.119153476
979.560815015
977.616223235
975.291510521
972.593900269
969.531636648
966.113902753
962.350735104
958.252934182
953.831974674
949.099915669
944.069314626
938.753145052
933.164721751
927.317633121
921.225684171
914.902848941
908.363235465
901.621060889
894.690639099
887.586377367
880.322783733
872.91448091
865.376228242
857.722947334
849.969753062
842.131985578
834.225245918
826.265427949
818.268751928
810.251792246
802.231500113
794.225215927
786.250671203
778.325974038
770.469577985
762.700228885
755.036890002
747.498641864
740.10455837
732.873558825
725.824239762
718.974690619
712.342300595
705.943565631
699.793905929
693.907506108
688.297185033
682.974302209
677.948683807
673.228546636
668.820357977
664.728564747
660.955179099
657.49928759
654.356734495
651.520194057
648.978700451
646.717992821
644.719142494
642.961924482
641.427501423
640.09703918
638.948581367
637.959178818
637.107263124
636.373790808
635.742409047
635.199108831
634.73177969
634.329737199
633.983315955
633.68376414
633.423590878
633.196920803
632.998977643
632.825600955
632.673155203
632.538622848
632.419400518
632.313114029
632.218208846
632.139798245
632.077712637
632.02860378
631.991436936
631.965606016
631.947132432
631.934847873
631.927000071
631.921678316
631.918710406
631.917218921
985.744316357
985.354666271
984.569735614
983.382029914
981.796453713
979.818212223
977.453752826
974.710659752
971.597574883
968.124106491
964.300733552
960.138706504
955.649947281
950.846950137
945.74268612
940.350512569
934.684090503
928.757310983
922.584233029
916.179033462
909.555970481
902.72936012
895.713566273
888.52300213
881.17214273
873.67554577
866.04788013
858.303959361
850.458780021
842.527562403
834.525794868
826.469275731
818.374157482
810.256986726
802.134738877
794.024843583
785.945198633
777.914166984
769.950554511
762.073563607
754.302720328
746.657772557
739.158557701
731.824841614
724.676129983
717.731458736
711.009171758
704.52669609
698.300333974
692.345084431
686.674518174
681.300715583
676.234259571
671.484254916
667.058257558
662.96198592
659.198669493
655.768204962
652.666576945
649.886634913
647.416567811
645.241513188
643.336956288
641.677824305
640.24539835
639.022398234
637.982972476
637.099236925
636.346188881
635.703219931
635.153740178
634.684187976
634.283209442
633.940859508
633.647807515
633.395113465
633.175203795
632.983124423
632.815182946
632.667850958
632.537859042
632.422761962
632.320430576
632.228776997
632.147632798
632.081525492
632.029040768
631.988474878
631.958698804
631.937532873
631.922240138
631.912067023
631.905938167
631.901415371
631.898865218
631.897608824
988.453979992
988.055748393
987.254550897
986.042338228
984.42431224
982.405999286
979.99423464
977.197045591
974.023561537
970.48391106
966.589114019
962.350970258
957.78194736
952.895069856
947.703812174
942.221997815
936.463707048
930.44319559
924.174826208
917.673015121
910.952194035
904.026788314
896.911210424
889.619867526
882.167180909
874.567615327
866.835715695
858.986149712
851.033754736
842.993588315
834.880982594
826.71159766
818.501478636
810.267110393
802.025467419
793.794055794
785.590942947
777.434769884
769.344741751
761.340590758
753.442508278
745.671041357
738.04695246
730.591041213
723.323930916
716.265824988
709.436242409
702.85374898
696.535700903
690.498038453
684.755147352
679.319844919
674.203476605
669.416122483
664.966740879
660.862926636
657.109898296
653.708809719
650.655470554
647.943810467
645.560792872
643.494622223
641.708313356
640.166570887
638.855084564
637.764715513
636.861363687
636.107945622
635.474375156
634.938646323
634.484785769
634.100483986
633.775926335
633.502599701
633.271674394
633.073248203
632.898777284
632.745135974
632.610711485
632.492624182
632.387610845
632.294102942
632.210590673
632.135370974
632.069551846
632.016363619
631.974605837
631.942839321
631.919870179
631.903126561
631.891977046
631.884145864
631.879344699
631.876505003
631.874505216
631.873612544
991.577443482
991.169151095
990.348902873
989.107994153
987.451986017
985.386794943
982.919726451
980.059343976
976.81536583
973.198548041
969.220561938
964.89386823
960.231590357
955.247389447
949.955343647
944.369834256
938.505441784
932.376854485
925.998792413
919.38594891
912.552951318
905.514340959
898.284571875
890.878025987
883.30904216
875.591955637
867.741145261
859.771085962
851.696405671
843.531945822
835.292827399
826.994516474
818.652896977
810.284342465
801.90578542
793.534779471
785.189550291
776.889027513
768.652853192
760.501358403
752.455503488
744.536775736
736.767040212
729.1683435
721.762668688
714.571647127
707.616241697
700.916400206
694.490744608
688.356274111
682.528220441
677.020037811
671.843671981
667.010093029
662.529947244
658.413680881
654.669977681
651.302068203
648.303708346
645.672637205
643.39185585
641.467924765
639.832004825
638.42353614
637.246829628
636.320599554
635.588472088
634.995045711
634.503221695
634.091121727
633.745489787
633.456531931
633.217208348
633.02181172
632.862533466
632.726500429
632.60131966
632.488110267
632.389943413
632.30407433
632.225841415
632.155442001
632.092194101
632.034580123
631.984789542
631.944929061
631.914296868
631.891572449
631.875316392
631.863880674
631.856245238
631.851553183
631.848531508
631.847382935
631.846076863
631.845636662
995.124578486
994.704630674
993.862344965
992.588250495
990.888339255
988.768996863
986.238093553
983.304835287
979.979644716
976.274026939
972.200429783
967.77210079
963.002943481
957.907375681
952.500192309
946.796435924
940.811278005
934.559915001
928.057482307
921.318989783
914.359280416
907.193013319
899.834669316
892.298576837
884.598953264
876.749957754
868.765750645
860.660557508
852.448736042
844.144847141
835.763732387
827.320593225
818.831081013
810.311389595
801.778347692
793.249507279
784.743220906
776.278700169
767.876048178
759.556255921
751.341156204
743.253325649
735.315929265
727.552505075
719.986679787
712.641836073
705.54070141
698.704940772
692.154683136
685.908165779
679.981425483
674.38831828
669.140895936
664.250488391
659.729472556
655.592712
651.855584262
648.525486285
645.586600751
643.049006043
640.875783455
639.152095221
637.718985447
636.444910895
635.400789633
634.688447109
634.179008263
633.781981472
633.453526168
633.178133462
632.950655146
632.764863384
632.617130968
632.507334789
632.430745461
632.367160801
632.291814856
632.216707803
632.156957662
632.107113739
632.056369433
632.009713605
631.967779657
631.927835248
631.894143488
631.867509038
631.848272796
631.834994044
631.826141128
631.820412084
631.816421448
631.814409331
631.814018347
631.814393526
631.814164688
631.81415703
999.106805164
998.67346988
997.805915686
996.493784432
994.743581857
992.562254958
989.958348022
986.941832141
983.523966666
979.717144481
975.534732127
970.990906809
966.100493177
960.878802064
955.341474032
949.504330659
943.383237833
936.993985391
930.352188401
923.473214221
916.372138997
909.063734334
901.562483048
893.882619323
886.038187368
878.043111053
869.911268751
861.65656935
853.293029303
844.834852522
836.296519158
827.692877934
819.039256123
810.351575695
801.646474709
792.941427382
784.254856092
775.606223741
767.016099309
758.506181672
750.099275466
741.819202423
733.690646636
725.738914519
717.989625264
710.468288385
703.199849709
696.208080085
689.515037241
683.140392466
677.101014941
671.410702791
666.080610924
661.120868899
656.544637324
652.373481223
648.637389591
645.354900889
642.473884073
640.050800702
637.946744245
636.550441365
635.416756399
634.157496076
633.064999012
632.662633465
632.49236468
632.363476465
632.245125657
632.13755451
632.041778887
631.961178296
631.907799603
631.900818144
631.944606864
631.996460686
631.979180851
631.933123969
631.915655894
631.909185547
631.883543249
631.859559181
631.840647902
631.816985197
631.799446289
631.786002397
631.778221907
631.773822936
631.772103309
631.772179109
631.773074216
631.774304085
631.776065253
631.778153616
631.779369833
631.779822441
1003.53721968
1003.08859917
1002.1922537
1000.83680184
999.02936117
996.777548375
994.090709696
990.97972369
987.456838908
983.535494932
979.230138985
974.556040471
969.529105553
964.165693884
958.482439356
952.49607851
946.223290859
939.680557722
932.884045978
925.849524045
918.592314644
911.1272872
903.468887323
895.631197901
887.628021261
879.472972125
871.179570796
862.761332317
854.231851003
845.604886623
836.894461086
828.114963589
819.281281435
810.408944563
801.514281075
792.614577941
783.728235784
774.874906455
766.075601562
757.352756029
748.730234111
740.233264266
731.888281917
723.722692653
715.764491746
708.041837748
700.582394815
693.412698045
686.557234056
680.037619977
673.87164831
668.072606301
662.648981949
657.606044328
652.953491405
648.721671357
644.974897306
641.772503597
638.921737953
636.628336151
634.05553606
633.385443006
633.006507131
632.474279004
632.305632412
632.303165191
632.308606662
632.278921683
632.224117995
632.158122878
632.091971733
632.035717942
632.001770946
631.999541101
632.003874145
631.92159247
631.699423594
631.587598399
631.632411165
631.709962252
631.710121981
631.706120107
631.716271441
631.702865888
631.702406463
631.701021687
631.704470752
631.708468013
631.714106715
631.720479938
631.726478408
631.731896841
631.736193517
631.73983521
631.742686596
631.74379127
1008.43074633
1007.96474407
1007.03573492
1005.63116177
1003.75887022
1001.42727562
998.646676891
995.429026348
991.787738264
987.737481082
983.293967371
978.473743304
973.293979302
967.772262116
961.926389796
955.774172107
949.333242317
942.620887984
935.653911208
928.448528054
921.020316162
913.384214162
905.554571586
897.545239567
889.369687822
881.041129329
872.57263761
863.977247973
855.268045411
846.458249484
837.561313757
828.591040109
819.561732516
810.488373699
801.386823386
792.274028201
783.168231657
774.089168723
765.058232569
756.09858968
747.235236511
738.494956813
729.90620204
721.498811852
713.303671266
705.352121405
697.675338127
690.303352675
683.264038917
676.581729174
670.275832273
664.359036876
658.835108872
653.696985831
648.938044928
644.591698206
640.799522117
637.752270382
634.522034494
633.005046038
632.812579539
632.855343149
632.844742427
632.731300097
632.634845936
632.585065274
632.541953512
632.48718011
632.419254134
632.342403148
632.262165429
632.184266259
632.116820662
632.063203308
632.006123422
631.915798362
631.815764664
631.772520949
631.794817827
631.757217276
631.542330663
631.517842612
631.600615171
631.581535362
631.604990741
631.611311879
631.627476344
631.63943083
631.653681823
631.667124191
631.678546804
631.688008848
631.69548895
631.700928726
631.705377851
631.707167336
1013.80431993
1013.31859914
1012.352636
1010.89252321
1008.94697468
1006.52535907
1003.63910734
1000.30144112
996.527145245
992.332325937
987.734170715
982.750711519
977.400590303
971.70282544
965.676577406
959.340916141
952.714595806
945.815848402
938.662210057
931.27039652
923.656241065
915.834703725
907.81994976
899.625485252
891.264325197
882.749165416
874.092530791
865.306887424
856.404723104
847.398618469
838.301337192
829.125944813
819.885985588
810.595698455
801.270266456
791.926089005
782.581059431
773.254834022
763.96907177
754.747626093
745.616655658
736.604652579
727.742316303
719.062350692
710.599006023
702.387592729
694.463604552
686.861756412
679.61452451
672.75044962
666.292193946
660.25361551
654.633683203
649.400295621
644.490650978
639.853608371
635.523876465
633.334666417
633.184569391
633.143006469
633.143748311
633.180567619
633.168965627
633.103711952
633.019350751
632.937271795
632.860139178
632.782272995
632.698796169
632.610212897
632.518357077
632.426513719
632.340624316
632.26192963
632.178496505
632.073585886
631.960029593
631.872825495
631.815982316
631.741554621
631.684753407
631.688771486
631.618139622
631.416171854
631.505465282
631.513573256
631.549968805
631.567030657
631.591860267
631.613447115
631.630793195
631.644475438
631.654990713
631.662616909
631.668370772
631.670907829
1019.67710372
1019.1690372
1018.16132811
1016.63851842
1014.61036075
1012.08736501
1009.08230961
1005.60991702
1001.68658107
997.330084566
992.559326464
987.394058661
981.854628411
975.961719327
969.73608604
963.198281647
956.368385313
949.265744039
941.908750413
934.314680242
926.499613992
918.478456737
910.265058741
901.872417953
893.312928033
884.598621424
875.741361851
866.752961523
857.645235525
848.430033995
839.119303778
829.725202146
820.260299402
810.737842088
801.172067889
791.578553216
781.974576134
772.379476711
762.814996905
753.305559221
743.87848695
734.564060999
725.395519145
716.408768036
707.642083623
699.135456626
690.929852121
683.066021739
675.58280429
668.514995261
661.891712876
655.73438374
650.048189827
644.768109139
639.679394596
634.255940978
633.78344646
633.64495388
633.629589889
633.640387194
633.634818727
633.623637063
633.591216161
633.525695616
633.439366657
633.345708854
633.25150354
633.155607931
633.056681233
632.954308477
632.847969458
632.740135226
632.634305358
632.530446472
632.421248985
632.298161344
632.1686074
632.05321012
631.955161617
631.855156212
631.765758453
631.699689657
631.630628926
631.6038364
631.556970318
631.387052242
631.475253186
631.487560306
631.529914649
631.561359864
631.584696828
631.602496669
631.616097666
631.62591329
631.632622993
631.635997304
1026.07075147
1025.53735822
1024.4825075
1022.88895642
1020.7677066
1018.13064005
1014.99214432
1011.36871933
1007.27864615
1002.74165583
997.778621988
992.411275095
986.66192729
980.553193073
974.10769231
967.347731385
960.294968598
952.970084185
945.392485092
937.580083518
929.549186746
921.314528241
912.889447268
904.28619513
895.516309007
886.590970217
877.521261786
868.318280878
858.993128682
849.556859968
840.020480664
830.395044601
820.691886287
810.922948088
801.101177312
791.240967859
781.358624119
771.472840137
761.605154138
751.780375782
742.026879691
732.376840966
722.866182202
713.534487633
704.424550387
695.581955645
687.054294311
678.890108646
671.136670994
663.836941232
657.030427494
650.757876808
645.06845534
639.864871501
634.468941893
633.829122488
634.073272479
634.190953121
634.21906655
634.194745959
634.166268181
634.13437725
634.087950272
634.016983257
633.926391793
633.824658111
633.717085544
633.604713325
633.48954961
633.370563821
633.246169582
633.118377573
632.988997343
632.857666913
632.7206926
632.575127608
632.426400588
632.285819374
632.156120628
632.030306268
631.911826545
631.807889079
631.710719463
631.633914708
631.562127679
631.537919772
631.501888708
631.376463274
631.468808465
631.514483245
631.542480124
631.56348306
631.57980847
631.591639901
631.599427705
631.603530004
1033.00972265
1032.44758804
1031.33946938
1029.66606238
1027.43988008
1024.67446399
1021.38613339
1017.59349985
1013.31705768
1008.57879259
1003.4018401
997.810186607
991.82839111
985.481296695
978.793706618
971.790011387
964.49377332
956.927293865
949.1112094
941.064173169
932.802687507
924.341138693
915.692060079
906.866597257
897.875088176
888.727612921
879.434357985
870.005701173
860.452065504
850.783703077
841.010572527
831.142400915
821.188964036
811.160506086
801.068247301
790.924934767
780.74542986
770.547319972
760.351548525
750.182971123
740.070882616
730.049262051
720.15698027
710.437546045
700.938870494
691.712844032
682.814923798
674.303706837
666.237342524
658.666893746
651.637573001
645.192929571
639.384608169
635.080543234
634.455828943
634.620128436
634.816573823
634.853365484
634.853786173
634.820410145
634.778167029
634.728259254
634.66487242
634.582862511
634.484162257
634.372920197
634.252224195
634.124143513
633.991835824
633.853818732
633.708565654
633.557703935
633.402391613
633.242605097
633.077039634
632.905589314
632.732432154
632.564046476
632.403033643
632.248239883
632.102156273
631.968410025
631.844607067
631.73434995
631.637561403
631.568578638
631.511919625
631.480180478
631.449588731
631.48313376
631.506891002
631.528676135
631.547101417
631.560859278
631.569861176
631.574581574
1040.52166474
1039.92683852
1038.75843501
1036.99475896
1034.65016548
1031.74021823
1028.28357282
1024.30136318
1019.81668125
1014.85410888
1009.43934561
1003.59891783
997.359924528
990.749764425
983.795796108
976.524905626
968.962983573
961.134346724
953.061167089
944.762997831
936.256496979
927.555446273
918.671123934
909.613016417
900.389739679
891.009924749
881.482768228
871.818047791
862.025695915
852.115267473
842.095601746
831.974836
821.760774656
811.461464112
801.085847238
790.644440875
780.150048247
769.61854901
759.069702074
748.527983449
738.023226956
727.591204549
717.273753723
707.118693063
697.179353209
687.514399886
678.188071026
669.272776954
660.843068357
652.951263504
645.592622021
638.550073712
636.003455468
635.563218896
635.643041893
635.702565371
635.693749981
635.646222341
635.598220963
635.538723141
635.474318348
635.40306518
635.320958213
635.22468612
635.114129072
634.990286476
634.854639075
634.710953817
634.560229665
634.400397492
634.231987962
634.056050128
633.873538316
633.684866828
633.4901055
633.290345453
633.088897182
632.890056185
632.696519029
632.509651723
632.332076394
632.166415585
632.013239325
631.874766184
631.752476695
631.650589505
631.568063556
631.509993864
631.493615747
631.474517145
631.472122965
631.496275792
631.518523953
631.534316853
631.544679591
631.550025507
1048.63787773
1048.00574247
1046.76894327
1044.90299785
1042.42452296
1039.35156688
1035.70564097
1031.51091841
1026.79354758
1021.58107955
1015.90207654
1009.78586931
1003.2623795
996.361906692
989.114797916
981.550951513
973.699153808
965.586291226
957.236527485
948.670574162
939.905216563
930.95326262
921.824048643
912.524524749
903.060752218
893.439395481
883.668630605
873.758005009
863.717441118
853.556103669
843.281694339
832.900419668
822.417558578
811.838313608
801.168673734
790.416202177
779.590874469
768.706038057
757.779512446
746.83466397
735.90145108
725.017148776
714.22675577
703.582685051
693.143793351
682.975152872
673.148737854
663.759688013
654.914039895
646.62555325
638.512103478
636.695832566
636.677008837
636.897291734
636.91207506
636.784012129
636.651053794
636.534605049
636.435039083
636.340902158
636.249738196
636.155817788
636.054095824
635.94083107
635.814256045
635.673623708
635.519802733
635.35723487
635.185487964
635.002559989
634.809733544
634.607950153
634.398110821
634.180878002
633.956949782
633.727797157
633.496143264
633.265313111
633.038144121
632.817091333
632.605043528
632.404755926
632.218319318
632.048265105
631.896878183
631.766879432
631.658956272
631.574879728
631.522211872
631.48718299
631.460147624
631.462959753
631.494936076
631.512845372
631.524590886
631.530621162
1057.39388298
1056.71898857
1055.40432147
1053.42215282
1050.79188529
1047.53464538
1043.67548673
1039.24229636
1034.26483751
1028.77402604
1022.80154441
1016.37972487
1009.54154105
1002.32053469
994.75053877
986.865120645
978.696733765
970.275633762
961.628675284
952.778172439
943.741065222
934.528680479
925.14735965
915.600095783
905.889004057
896.017949853
885.994196774
875.827940665
865.5301267
855.110186581
844.574723528
833.927503167
823.17047106
812.305139799
801.333736053
790.260023802
779.090179013
767.833966766
756.506162711
745.128089969
733.729035524
722.347502818
711.031885226
699.839918477
688.835974232
678.089360973
667.6698404
657.710180775
648.350737762
639.198377721
637.599292625
637.745883089
638.120531409
638.205736161
638.06204661
637.844370063
637.646099493
637.478889684
637.338562377
637.213873926
637.097160218
636.980266524
636.856888079
636.722490432
636.574316875
636.411150736
636.234482293
636.048788815
635.852882196
635.645228423
635.427342798
635.200059753
634.96407293
634.719954094
634.468452864
634.210936905
633.949623834
633.687282823
633.426766035
633.170994523
632.923157488
632.686449443
632.463895017
632.258644737
632.073735704
631.912043428
631.77514495
631.664205536
631.580578908
631.518328313
631.473111771
631.4541666
631.482612883
631.497894275
631.510187927
631.517130513
1066.83011842
1066.10598377
1064.70225235
1062.58748966
1059.78450186
1056.31824844
1052.21827131
1047.51709687
1042.2488056
1036.44807438
1030.14985246
1023.38951561
1016.20319152
1008.62795766
1000.70169465
992.462477874
983.947491088
975.191527733
966.22522807
957.073288837
947.752995987
938.273545204
928.63668436
918.839103755
908.876544216
898.748602857
888.462032643
878.029597335
867.465342261
856.780206935
845.979747698
835.064386077
824.031447813
812.877624425
801.600502672
790.199125283
778.674708746
767.032021028
755.281329577
743.440482063
731.53695058
719.609908771
707.711799135
695.907951335
684.269624435
672.867716887
661.718486385
650.975312024
640.53593747
638.799444584
638.938416319
639.35120594
639.49590615
639.395402996
639.161898821
638.898684896
638.663055859
638.464115076
638.295828305
638.146262639
638.005209562
637.863475627
637.714158888
637.552411834
637.375299237
637.182409029
636.97792506
636.763984437
636.53920932
636.304830006
636.061738798
635.810352322
635.550808059
635.283169663
635.007740739
634.725394239
634.43773772
634.147003609
633.85584185
633.567262288
633.284638431
633.011563986
632.751749371
632.509038649
632.287226619
632.089795763
631.91928089
631.777295963
631.664107777
631.576293739
631.510495787
631.46829762
631.452912434
631.483948783
631.50074865
631.510335307
1076.99278025
1076.2117144
1074.70544643
1072.43873843
1069.43835269
1065.73400787
1061.36111588
1056.35820194
1050.76458838
1044.61906298
1037.95974429
1030.82478564
1023.25331613
1015.28612265
1006.96574845
998.335853681
989.439823472
980.318707299
971.008654234
961.538124499
951.925332778
942.176631248
932.286802746
922.2423231
912.028144126
901.636747853
891.075383906
880.363498156
869.522285983
858.566378152
847.500154809
836.31889405
825.013060103
813.573007762
801.990951655
790.260407258
778.376258262
766.336402608
754.144546349
741.813027612
729.365543441
716.840692117
704.296026282
691.81091392
679.472686727
667.365381725
655.215681162
642.901233789
640.307926217
640.273274889
640.744126349
640.867657857
640.780087851
640.55457478
640.260619092
639.966948302
639.709161186
639.489840579
639.299728193
639.126250611
638.958381019
638.786834983
638.60473934
638.407472564
638.192741163
637.961760782
637.720807176
637.47192699
637.214944248
636.952209036
636.684365644
636.411200236
636.131946371
635.845720002
635.551917691
635.250544093
634.942380341
634.628969298
634.312515469
633.995815264
633.68220339