/*--------------------------------*- C++ -*----------------------------------*\
| =========                 |                                                 |
| \\      /  F ield         | OpenFOAM: The Open Source CFD Toolbox           |
|  \\    /   O peration     | Version:  v1906                                 |
|   \\  /    A nd           | Web:      www.OpenFOAM.com                      |
|    \\/     M anipulation  |                                                 |
\*---------------------------------------------------------------------------*/
FoamFile
{
    version     2.0;
    format      ascii;
    class       volVectorField;
    location    "441";
    object      U;
}
// * * * * * * * * * * * * * * * * * * * * * * * * * * * * * * * * * * * * * //

dimensions      [0 1 -1 0 0 0 0];


internalField   nonuniform List<vector> 
9216
(
(0.00155936779127 -0.00156066841037 0)
(0.00159912702443 -0.00486355509338 6.53585811687e-28)
(0.00158771749439 -0.00817432816698 1.08277035909e-31)
(0.00156447474273 -0.0114648221909 0)
(0.00153323393112 -0.0146964157938 0)
(0.00149478603351 -0.0178550563695 0)
(0.00144999843548 -0.0209266333864 0)
(0.00139964788622 -0.0238987613069 0)
(0.00134454714185 -0.0267606831385 0)
(0.00128546503245 -0.0295033087069 0)
(0.00122319094427 -0.0321191644757 0)
(0.00115842790258 -0.034602352372 0)
(0.00109187411564 -0.0369484260756 0)
(0.00102410774627 -0.0391542865498 0)
(0.000955691964488 -0.0412180126907 0)
(0.000887052845629 -0.0431387285094 0)
(0.000818606704332 -0.0449164221157 0)
(0.000750628946783 -0.0465518142793 0)
(0.000683400548485 -0.0480461906722 0)
(0.000617065465366 -0.0494012903657 0)
(0.000551793355127 -0.0506191642568 0)
(0.000487623733468 -0.0517020907862 0)
(0.000424642482057 -0.0526524648227 0)
(0.000362812337534 -0.0534727409017 0)
(0.000302161588523 -0.0541653512471 0)
(0.000242601442907 -0.0547326728627 0)
(0.000184125433335 -0.0551769722665 0)
(0.000126615445732 -0.0555003925958 0)
(7.00505808514e-05 -0.0557049230669 0)
(1.43045914226e-05 -0.0557924009616 0)
(-4.06411271248e-05 -0.0557645149218 0)
(-9.49054731167e-05 -0.0556228015222 0)
(-0.000148483515188 -0.0553686806241 0)
(-0.000201460816128 -0.0550034860781 0)
(-0.000253793606204 -0.0545285087442 0)
(-0.000305518668089 -0.0539450399425 0)
(-0.000356538359319 -0.0532544414777 0)
(-0.000406825032662 -0.0524581938926 0)
(-0.000456218450388 -0.0515579875668 0)
(-0.000504618920498 -0.0505557664547 0)
(-0.000551804497066 -0.0494538316997 0)
(-0.000597605531683 -0.0482548684552 0)
(-0.000641748906179 -0.0469620538755 0)
(-0.000684003826457 -0.0455790577477 0)
(-0.000724059593875 -0.0441101530643 0)
(-0.000761629889129 -0.0425601921116 0)
(-0.000796370597748 -0.0409347310596 0)
(-0.000827929851399 -0.0392399973629 0)
(-0.00085591627981 -0.0374830482583 0)
(-0.000879887977727 -0.0356717477757 0)
(-0.000899389174573 -0.0338149614179 0)
(-0.000913882752155 -0.0319225286302 0)
(-0.000922879104128 -0.0300054372652 0)
(-0.000925822362665 -0.0280757153326 0)
(-0.000922321051156 -0.0261464605089 0)
(-0.00091198583562 -0.0242315510959 0)
(-0.000894732836432 -0.0223454227931 0)
(-0.000870559015988 -0.0205025880339 0)
(-0.000839870411749 -0.0187171632666 0)
(-0.000803205089677 -0.0170022878812 0)
(-0.00076152335599 -0.0153695017961 0)
(-0.000715869928166 -0.0138282674145 0)
(-0.000667528760654 -0.0123855145166 0)
(-0.00061766547485 -0.0110456425863 0)
(-0.000567407934828 -0.00981054622101 0)
(-0.000517636815942 -0.00868008610755 0)
(-0.000469093291005 -0.00765236118147 0)
(-0.000422344739796 -0.00672418326956 0)
(-0.000377859182291 -0.00589124372441 0)
(-0.000336026750332 -0.00514838799174 0)
(-0.000297142551584 -0.00448972159738 0)
(-0.000261424977913 -0.00390883057039 0)
(-0.000228954610367 -0.00339898515525 0)
(-0.000199719403453 -0.00295339410663 0)
(-0.00017358311909 -0.00256543544238 0)
(-0.000150367076967 -0.00222882334273 0)
(-0.000129835586042 -0.00193771888531 0)
(-0.000111761934568 -0.00168676222655 0)
(-9.58989784906e-05 -0.00147109399608 0)
(-8.20176256966e-05 -0.00128634150363 0)
(-6.98621575142e-05 -0.00112863023214 0)
(-5.91427714961e-05 -0.00099460652283 0)
(-4.93189038631e-05 -0.000882028931356 0)
(-3.90957025303e-05 -0.000784553878976 0)
(-3.22973066347e-05 -0.000708367797286 0)
(-3.06815340792e-05 -0.000650581268897 0)
(-2.79574217214e-05 -0.000587019912282 0)
(-2.40281491847e-05 -0.000535363469723 0)
(-2.41341909066e-05 -0.000491876891055 0)
(-2.62401218173e-05 -0.00044138603485 0)
(-2.64056665841e-05 -0.000390560257663 0)
(-2.69964301743e-05 -0.00033599521936 0)
(-3.09083537525e-05 -0.000276262808338 0)
(-3.52876764533e-05 -0.000210411832365 0)
(-3.99127547188e-05 -0.000130170213258 0)
(-4.28020756943e-05 -4.16773007578e-05 0)
(0.00487599541099 -0.00161695261041 0)
(0.00513709801308 -0.00517646196365 0)
(0.00509759766195 -0.00870456963419 -6.72061263247e-28)
(0.00502131458206 -0.0122134357708 0)
(0.00491986240669 -0.0156561469722 0)
(0.00479576548982 -0.0190194965374 0)
(0.00465142857977 -0.0222887912088 0)
(0.00448929810133 -0.0254509406349 0)
(0.00431194021018 -0.0284945493441 0)
(0.00412186790504 -0.0314100050881 0)
(0.00392158875955 -0.0341894549325 0)
(0.00371341287761 -0.0368267436881 0)
(0.00349954286481 -0.0393172912747 0)
(0.00328188715922 -0.0416579571807 0)
(0.00306220080862 -0.043846867837 0)
(0.0028419042297 -0.0458832523623 0)
(0.0026222692461 -0.0477672598629 0)
(0.00240423534402 -0.0494998000191 0)
(0.00218863115991 -0.051082377001 0)
(0.00197597943431 -0.0525169543351 0)
(0.00176674494088 -0.0538058184938 0)
(0.00156112163141 -0.0549514752722 0)
(0.00135930042779 -0.0559565461098 0)
(0.00116123570501 -0.0568236953791 0)
(0.000966929201289 -0.0575555570016 0)
(0.000776176037392 -0.0581546886029 0)
(0.000588862559297 -0.0586235245585 0)
(0.0004046946938 -0.0589643527283 0)
(0.000223508307218 -0.0591792906711 0)
(4.49843190653e-05 -0.0592702831357 0)
(-0.000131033011058 -0.0592390937233 0)
(-0.000304829215939 -0.0590873386983 0)
(-0.000476489884573 -0.0588164952593 0)
(-0.000646200229903 -0.0584279363605 0)
(-0.000813919042438 -0.0579229783848 0)
(-0.000979674679359 -0.0573029327602 0)
(-0.00114324829485 -0.0565691743699 0)
(-0.00130446416219 -0.0557232058768 0)
(-0.0014628944437 -0.0547667424263 0)
(-0.00161813746724 -0.0537017788961 0)
(-0.00176955606877 -0.052530680271 0)
(-0.00191653358689 -0.051256238443 0)
(-0.00205825522949 -0.0498817566259 0)
(-0.00219392422074 -0.0484110850381 0)
(-0.00232259076539 -0.0468486947397 0)
(-0.00244330353887 -0.0451996939077 0)
(-0.00255498882027 -0.0434699033212 0)
(-0.00265651325388 -0.0416658741325 0)
(-0.00274662624108 -0.0397949924434 0)
(-0.00282392934174 -0.0378655261341 0)
(-0.00288692290743 -0.0358867731648 0)
(-0.00293391404256 -0.0338691286527 0)
(-0.00296323473148 -0.0318242228853 0)
(-0.00297313636323 -0.0297649128443 0)
(-0.00296221224445 -0.0277052641942 0)
(-0.00292926828157 -0.0256603201266 0)
(-0.00287386524062 -0.0236458002485 0)
(-0.00279608372792 -0.0216776158049 0)
(-0.00269707182276 -0.0197713135296 0)
(-0.00257869591186 -0.0179414179887 0)
(-0.00244396188421 -0.0162007065093 0)
(-0.00229643989467 -0.0145595587694 0)
(-0.00214026646234 -0.0130254518698 0)
(-0.00197937225886 -0.0116028850988 0)
(-0.00181736634636 -0.0102935622419 0)
(-0.00165712584657 -0.00909692185748 0)
(-0.00150096673084 -0.00801061054667 0)
(-0.00135068482487 -0.0070309533619 0)
(-0.00120775579956 -0.0061531886926 0)
(-0.00107341598074 -0.00537166332309 0)
(-0.000948639164307 -0.00467994101494 0)
(-0.00083411870902 -0.00407099007714 0)
(-0.000730132376719 -0.00353742825851 0)
(-0.000636600240428 -0.00307182363251 0)
(-0.000553075463642 -0.00266697812664 0)
(-0.00047893066113 -0.00231612192992 0)
(-0.000413408730396 -0.00201301415178 0)
(-0.000355753228519 -0.00175196067808 0)
(-0.000305189637864 -0.00152780758895 0)
(-0.000260986943181 -0.001335909797 0)
(-0.000222402288568 -0.00117208974262 0)
(-0.000188676055876 -0.00103255235115 0)
(-0.000158868122908 -0.000913742614847 0)
(-0.000131127009661 -0.000811647821557 0)
(-0.000109166679788 -0.000713456132555 0)
(-9.82937331003e-05 -0.000640108204592 0)
(-8.4257041202e-05 -0.000572833259693 0)
(-7.2365826623e-05 -0.000523481446452 0)
(-7.08872250156e-05 -0.000472550152473 0)
(-7.59795439249e-05 -0.000431894441533 0)
(-7.88374370815e-05 -0.000388616679858 0)
(-8.35729822389e-05 -0.00033148213867 0)
(-9.24638680515e-05 -0.000270389357882 0)
(-0.000114598950785 -0.000214914512948 0)
(-0.000140313772537 -0.000137650194295 0)
(-0.000126522371429 -3.76359447893e-05 0)
(0.00825190988201 -0.00163825796806 0)
(0.00869822128755 -0.00524175753416 0)
(0.0086238511958 -0.00880670152873 -6.71114824845e-28)
(0.00849152511546 -0.0123548874657 0)
(0.00831765411835 -0.0158347436839 0)
(0.00810579231343 -0.0192324037415 0)
(0.00785975260392 -0.0225327268253 0)
(0.00758368208522 -0.0257223907418 0)
(0.00728192834054 -0.0287899046981 0)
(0.00695883786031 -0.0317256735952 0)
(0.00661866303628 -0.0345219645051 0)
(0.00626539817813 -0.0371728200635 0)
(0.00590274619045 -0.0396739221685 0)
(0.00553400040336 -0.0420224295005 0)
(0.00516207262882 -0.0442167926587 0)
(0.00478941478395 -0.0462565671553 0)
(0.00441809613585 -0.0481422241165 0)
(0.00404974902352 -0.0498749746361 0)
(0.00368567801282 -0.0514566033607 0)
(0.00332681322719 -0.0528893231049 0)
(0.00297383632337 -0.0541756427631 0)
(0.00262712931688 -0.0553182574838 0)
(0.00228690756228 -0.0563199517512 0)
(0.00195315784995 -0.0571835226037 0)
(0.00162577385303 -0.0579117134098 0)
(0.00130448218924 -0.0585071646785 0)
(0.000988979463113 -0.0589723733252 0)
(0.000678848274222 -0.05930966623 0)
(0.000373696770196 -0.0595211812146 0)
(7.30677560242e-05 -0.0596088605784 0)
(-0.000223416865761 -0.0595744542999 0)
(-0.000516150577345 -0.0594195301498 0)
(-0.000805396932092 -0.0591454996262 0)
(-0.00109138361342 -0.0587536522557 0)
(-0.00137415685638 -0.0582452014836 0)
(-0.00165367755544 -0.0576213404897 0)
(-0.00192968362798 -0.0568833105802 0)
(-0.00220178964547 -0.056032474449 0)
(-0.0024693663633 -0.0550704003617 0)
(-0.00273164623886 -0.0539989428782 0)
(-0.0029876286087 -0.0528203298602 0)
(-0.00323618844379 -0.0515372349049 0)
(-0.00347600892784 -0.0501528511598 0)
(-0.0037056797756 -0.0486709407361 0)
(-0.00392364725255 -0.0470958861469 0)
(-0.00412827575612 -0.0454327164431 0)
(-0.00431779763647 -0.0436871491733 0)
(-0.00449031165905 -0.0418656206495 0)
(-0.00464372982126 -0.0399753590995 0)
(-0.00477571986333 -0.03802446647 0)
(-0.00488369983386 -0.0360220619418 0)
(-0.00496480079844 -0.0339784265399 0)
(-0.00501602431023 -0.0319051733425 0)
(-0.00503433817514 -0.0298153393319 0)
(-0.00501707190539 -0.0277233913488 0)
(-0.00496212857109 -0.0256450406638 0)
(-0.00486846964678 -0.023596898768 0)
(-0.00473622491869 -0.021595972952 0)
(-0.00456711439968 -0.0196590493383 0)
(-0.00436443668233 -0.0178019484927 0)
(-0.00413332427406 -0.0160386380834 0)
(-0.00388029687748 -0.0143803031919 0)
(-0.00361268829369 -0.0128346667795 0)
(-0.00333761228762 -0.0114058715569 0)
(-0.00306129412457 -0.0100948722059 0)
(-0.00278863332058 -0.00890022083829 0)
(-0.00252337275367 -0.00781881140217 0)
(-0.00226840726319 -0.00684641137918 0)
(-0.00202613141138 -0.00597788073121 0)
(-0.00179861487651 -0.00520723829368 0)
(-0.00158757403416 -0.00452767656971 0)
(-0.00139422184343 -0.0039316830249 0)
(-0.00121906151499 -0.00341133318678 0)
(-0.00106186834572 -0.00295868692543 0)
(-0.000921792198832 -0.00256616238428 0)
(-0.000797634745783 -0.00222677321893 0)
(-0.000688056913296 -0.00193418967474 0)
(-0.000591725745354 -0.00168270288802 0)
(-0.000507340097384 -0.00146717823629 0)
(-0.000433672374854 -0.00128300391101 0)
(-0.000369565393832 -0.00112603570252 0)
(-0.000313961139915 -0.000992511748428 0)
(-0.000265915382516 -0.000878908944121 0)
(-0.000224765398059 -0.000782364981926 0)
(-0.000191072843791 -0.000688156228324 0)
(-0.000168761396017 -0.000620565119173 0)
(-0.000147934302255 -0.00056714292375 0)
(-0.000126456281402 -0.00049781026579 0)
(-0.000113932662943 -0.000438420737967 0)
(-0.000117708744996 -0.000402938544912 0)
(-0.000134977721644 -0.000374639350945 0)
(-0.000138949400606 -0.000299793745782 0)
(-0.000158894807474 -0.000247987108473 0)
(-0.000186355558376 -0.000181387113037 0)
(-0.000210233085438 -0.000109361769511 0)
(-0.000204316061911 -3.37215972985e-05 0)
(0.0116932172962 -0.00166463802367 0)
(0.0123305453424 -0.00532436268192 0)
(0.0122232416661 -0.0089419797452 6.71026026064e-28)
(0.0120328049561 -0.0125416185993 0)
(0.0117828861719 -0.0160694813537 0)
(0.0114787870588 -0.0195109107465 0)
(0.0111260635601 -0.0228501724449 0)
(0.0107307721715 -0.0260736053725 0)
(0.010299229262 -0.0291695940823 0)
(0.0098377589258 -0.0321286044746 0)
(0.00935249767523 -0.0349431219156 0)
(0.00884921363662 -0.0376075298025 0)
(0.00833319575553 -0.0401179409523 0)
(0.00780915538029 -0.0424720003821 0)
(0.00728119829531 -0.0446686726481 0)
(0.00675279575359 -0.0467080280501 0)
(0.00622681826046 -0.0485910355734 0)
(0.00570555043479 -0.0503193712154 0)
(0.00519075972016 -0.051895244069 0)
(0.00468372976643 -0.0533212440607 0)
(0.00418534191861 -0.0546002098683 0)
(0.00369610922848 -0.0557351180445 0)
(0.00321625724083 -0.0567289899486 0)
(0.00274574969785 -0.0575848163756 0)
(0.00228436329577 -0.0583054961399 0)
(0.00183170315617 -0.0588937884937 0)
(0.00138727177586 -0.0593522762032 0)
(0.000950476725575 -0.0596833396763 0)
(0.000520696859444 -0.0598891400868 0)
(9.72863105566e-05 -0.0599716118493 0)
(-0.000320358152951 -0.0599324681848 0)
(-0.000732793363566 -0.0597732066549 0)
(-0.00114046069827 -0.0594951382322 0)
(-0.00154368090523 -0.0590994209734 0)
(-0.00194258495697 -0.058587106866 0)
(-0.00233711116785 -0.0579592014291 0)
(-0.00272694345979 -0.0572167357421 0)
(-0.00311151822069 -0.0563608480685 0)
(-0.00348998068664 -0.0553928745671 0)
(-0.00386121040063 -0.0543144423277 0)
(-0.00422380523389 -0.0531275631142 0)
(-0.00457612845761 -0.0518347176849 0)
(-0.00491631938164 -0.0504389298983 0)
(-0.00524234869059 -0.0489438199146 0)
(-0.00555203447998 -0.0473536414217 0)
(-0.00584307051046 -0.0456732977464 0)
(-0.00611300860923 -0.0439083543701 0)
(-0.00635921798353 -0.0420650537148 0)
(-0.00657881042228 -0.0401503639857 0)
(-0.00676853593177 -0.0381720737808 0)
(-0.00692471203216 -0.0361389608926 0)
(-0.00704318039717 -0.0340610223025 0)
(-0.00711943272439 -0.0319497455431 0)
(-0.0071488454801 -0.0298183380424 0)
(-0.00712717096275 -0.0276818252543 0)
(-0.00705104598918 -0.0255569083518 0)
(-0.00691859046186 -0.0234615607883 0)
(-0.00672970404666 -0.0214144796193 0)
(-0.00648656945303 -0.0194344070005 0)
(-0.00619384378796 -0.0175393047306 0)
(-0.00585913756502 -0.0157451930717 0)
(-0.00549258707758 -0.014064670805 0)
(-0.00510562636327 -0.0125058221686 0)
(-0.00470927758812 -0.0110720460522 0)
(-0.00431276057082 -0.00976283543883 0)
(-0.00392292560128 -0.0085751459939 0)
(-0.00354466559643 -0.00750461589646 0)
(-0.0031816817344 -0.00654621566768 0)
(-0.00283713139568 -0.0056943502903 0)
(-0.00251393413876 -0.00494267850136 0)
(-0.00221469373707 -0.00428389614348 0)
(-0.00194131171417 -0.00370974619782 0)
(-0.0016945535846 -0.00321139606046 0)
(-0.00147393680839 -0.00278004770816 0)
(-0.00127797263682 -0.00240751707434 0)
(-0.00110467262072 -0.00208653371373 0)
(-0.000951974413322 -0.00181071126491 0)
(-0.000817914234647 -0.00157438359827 0)
(-0.000700628565688 -0.00137249313368 0)
(-0.000598377262569 -0.0012005306143 0)
(-0.000509561944194 -0.00105448080838 0)
(-0.000432773340668 -0.000930754908589 0)
(-0.000366882035415 -0.000826176800207 0)
(-0.000311833058608 -0.000737888387322 0)
(-0.000263255860291 -0.000647144462179 0)
(-0.000234592147883 -0.000594311184258 0)
(-0.000207196686898 -0.000532418418842 0)
(-0.000181791207265 -0.000465276742364 0)
(-0.000170652659592 -0.000420190657423 0)
(-0.000163313062647 -0.000360244964235 0)
(-0.000174666835344 -0.000310361190227 0)
(-0.00020632851787 -0.000276251794392 0)
(-0.000217009163178 -0.000201240937125 0)
(-0.000245975324566 -0.000141020762315 0)
(-0.000275378822784 -8.60692012682e-05 0)
(-0.000274125177767 -2.8201056919e-05 0)
(0.0151966849811 -0.00169995392832 0)
(0.0160248550281 -0.00543596439682 0)
(0.0158823814114 -0.00912669378617 0)
(0.0156302661803 -0.0127965522623 0)
(0.0152996795349 -0.0163896190779 0)
(0.0148979208927 -0.019890244332 0)
(0.0144325774217 -0.0232819335686 0)
(0.013911875486 -0.026550585458 0)
(0.0133443443879 -0.0296844404574 0)
(0.0127384849064 -0.0326740827925 0)
(0.0121024900852 -0.0355123350916 0)
(0.0114440187847 -0.0381940872326 0)
(0.0107700362066 -0.0407160776608 0)
(0.0100867080307 -0.0430766480575 0)
(0.00939935449899 -0.0452754890338 0)
(0.00871244240289 -0.0473133913493 0)
(0.00802961921461 -0.0491920127897 0)
(0.00735376423567 -0.0509136675692 0)
(0.00668706374276 -0.0524811414008 0)
(0.00603108546416 -0.0538975333119 0)
(0.00538686437437 -0.0551661229329 0)
(0.00475497668029 -0.0562902613544 0)
(0.00413561911031 -0.0572732825241 0)
(0.00352867142312 -0.0581184324782 0)
(0.00293376342095 -0.0588288133581 0)
(0.00235032449053 -0.0594073400149 0)
(0.00177763998908 -0.0598567070548 0)
(0.00121489180544 -0.0601793651279 0)
(0.000661209386636 -0.060377505604 0)
(0.000115707317252 -0.060453052608 0)
(-0.000422463135944 -0.0604076693663 0)
(-0.000954074245048 -0.060242759985 0)
(-0.00147976683012 -0.0599595000478 0)
(-0.00200000698111 -0.0595588687463 0)
(-0.00251502916231 -0.0590416971636 0)
(-0.00302479447962 -0.0584087315023 0)
(-0.00352894103054 -0.057660711217 0)
(-0.00402675560915 -0.0567984604 0)
(-0.00451714631982 -0.0558229905645 0)
(-0.00499864325521 -0.0547356090158 0)
(-0.00546940814672 -0.0535380274701 0)
(-0.005927273277 -0.0522324611145 0)
(-0.00636978897325 -0.050821710685 0)
(-0.00679428698301 -0.0493092172841 0)
(-0.00719793520393 -0.0476990867381 0)
(-0.0075777748365 -0.0459960821014 0)
(-0.00793071628918 -0.0442055966799 0)
(-0.00825347684205 -0.0423336270967 0)
(-0.00854245854767 -0.0403867827771 0)
(-0.00879356822333 -0.0383723718396 0)
(-0.00900204001179 -0.0362986056347 0)
(-0.00916231354005 -0.0341749399117 0)
(-0.00926810985604 -0.0320125231604 0)
(-0.00931276860789 -0.0298246536251 0)
(-0.00928994193189 -0.0276270592359 0)
(-0.00919446860626 -0.025437819638 0)
(-0.00902325261016 -0.0232768100111 0)
(-0.00877554129971 -0.0211651012631 0)
(-0.00845371104635 -0.0191242377824 0)
(-0.00806346419363 -0.0171754686775 0)
(-0.00761531167 -0.0153382415046 0)
(-0.00712417095589 -0.0136275654404 0)
(-0.0066071689644 -0.0120520497275 0)
(-0.00608052780618 -0.0106136230812 0)
(-0.00555699005653 -0.00930906838557 0)
(-0.00504503481589 -0.00813261080915 0)
(-0.00455002779925 -0.00707799506626 0)
(-0.00407588246899 -0.00613925290875 0)
(-0.00362622071137 -0.00531046242661 0)
(-0.00320487247127 -0.00458508853907 0)
(-0.00281565645043 -0.00395530536003 0)
(-0.00246153811244 -0.00341176171472 0)
(-0.00214366721802 -0.00294414868061 0)
(-0.00186107975348 -0.00254227148929 0)
(-0.00161119673449 -0.00219704201754 0)
(-0.00139083654404 -0.00190089998369 0)
(-0.00119702052612 -0.00164753998325 0)
(-0.00102712446845 -0.00143145168396 0)
(-0.000878703204927 -0.00124772382958 0)
(-0.00074947783782 -0.00109200950415 0)
(-0.000637358804078 -0.000960495108978 0)
(-0.000540449550981 -0.000849886351913 0)
(-0.000457092557828 -0.000757984199818 0)
(-0.00038693130311 -0.000678033858103 0)
(-0.000334061039415 -0.000610303155455 0)
(-0.000300398795093 -0.000559389653478 0)
(-0.000274345119653 -0.000502428442015 0)
(-0.000245941634898 -0.00043881307131 0)
(-0.000219004668736 -0.000365490764505 0)
(-0.000216840245428 -0.000318524451495 0)
(-0.00021954448368 -0.000258559620725 0)
(-0.000252989564294 -0.000222869192817 0)
(-0.000291121173626 -0.000176368476982 0)
(-0.000300992733739 -0.00011250886205 0)
(-0.00031819298718 -6.57248579099e-05 0)
(-0.000316915943391 -2.18015534679e-05 0)
(0.018783674084 -0.00174516906423 0)
(0.0198051870765 -0.00557953832182 0)
(0.0196241451143 -0.00936489598452 0)
(0.0193052313835 -0.0131251928205 0)
(0.0188875086495 -0.0168018783577 0)
(0.0183805948746 -0.0203780451829 0)
(0.0177944714701 -0.0238362547163 0)
(0.0171398897795 -0.0271618803456 0)
(0.0164279203462 -0.0303430314921 0)
(0.0156695185645 -0.0333705102815 0)
(0.0148751591627 -0.0362376439886 0)
(0.0140545521924 -0.038940043843 0)
(0.0132164454009 -0.0414753158366 0)
(0.0123685071234 -0.0438427499402 0)
(0.0115172811332 -0.0460430095957 0)
(0.010668198406 -0.04807783787 0)
(0.00982563302307 -0.0499497912394 0)
(0.00899298631818 -0.0516620068975 0)
(0.00817278898587 -0.0532180055137 0)
(0.00736680902529 -0.0546215283197 0)
(0.00657616035666 -0.0558764055198 0)
(0.00580140464747 -0.056986451917 0)
(0.00504264599184 -0.0579553853246 0)
(0.00429961452384 -0.0587867634682 0)
(0.00357174190311 -0.05948393554 0)
(0.00285822673657 -0.0600500052417 0)
(0.00215809474379 -0.0604878028425 0)
(0.00147025252173 -0.0607998646642 0)
(0.000793540501595 -0.0609884191742 0)
(0.000126783830789 -0.0610553784841 0)
(-0.000531153331775 -0.0610023443399 0)
(-0.00118131180071 -0.0608306047222 0)
(-0.00182457666457 -0.0605411649447 0)
(-0.00246161412201 -0.0601347766984 0)
(-0.00309280493375 -0.0596119869888 0)
(-0.00371818038849 -0.05897320497 0)
(-0.00433736170658 -0.0582187874117 0)
(-0.00494951151896 -0.0573491425867 0)
(-0.00555330066082 -0.0563648499545 0)
(-0.00614689928748 -0.0552667902345 0)
(-0.00672799514891 -0.0540562773833 0)
(-0.00729384335939 -0.052735180758 0)
(-0.00784134395499 -0.0513060236849 0)
(-0.0083671388877 -0.0497720438987 0)
(-0.0088677109273 -0.0481372045444 0)
(-0.00933945746265 -0.0464061514659 0)
(-0.00977870829429 -0.0445841262328 0)
(-0.0101816513917 -0.0426768629217 0)
(-0.010544146336 -0.0406905192904 0)
(-0.0108614255852 -0.0386317160436 0)
(-0.0111277341141 -0.036507763804 0)
(-0.0113360249482 -0.0343271464739 0)
(-0.0114778949686 -0.0321002516201 0)
(-0.0115439847775 -0.0298402177594 0)
(-0.0115250074565 -0.0275635694822 0)
(-0.0114132004986 -0.025290259811 0)
(-0.0112038415469 -0.0230426708442 0)
(-0.0108948627081 -0.0208449720265 0)
(-0.0104884197554 -0.0187223605654 0)
(-0.00999021890493 -0.0167009327972 0)
(-0.00941405822205 -0.0148059242406 0)
(-0.00878172836184 -0.013056549758 0)
(-0.008118915837 -0.0114621982416 0)
(-0.0074494108951 -0.0100218842033 0)
(-0.00679021780882 -0.00872735756189 0)
(-0.00615047874788 -0.00756819709726 0)
(-0.00553458882898 -0.00653547534596 0)
(-0.00494555740842 -0.00562241900431 0)
(-0.00438701128855 -0.00482334953181 0)
(-0.00386384666755 -0.00413212246181 0)
(-0.00338183321014 -0.00354056911276 0)
(-0.00294584419128 -0.00303776347599 0)
(-0.00255772343207 -0.00261094344401 0)
(-0.00221557562952 -0.00224758225134 0)
(-0.00191484252171 -0.00193727824282 0)
(-0.00165039553632 -0.0016723613123 0)
(-0.00141812067532 -0.00144700250087 0)
(-0.00121483860666 -0.00125606915981 0)
(-0.00103755775237 -0.0010948490161 0)
(-0.000883443580378 -0.000959188399393 0)
(-0.000749906321247 -0.000845454071798 0)
(-0.00063449761526 -0.00075047785227 0)
(-0.000534906940779 -0.00067224420411 0)
(-0.000449682754738 -0.000601027084389 0)
(-0.000392643330593 -0.000544991400939 0)
(-0.000356404244317 -0.000496495810564 0)
(-0.000320547934919 -0.000434474806566 0)
(-0.000301222930685 -0.000388586246991 0)
(-0.000288332434002 -0.000338544636229 0)
(-0.000285669991587 -0.00028882672938 0)
(-0.000268955241127 -0.00021730253572 0)
(-0.000286279451256 -0.000169168776543 0)
(-0.000334790860878 -0.000139979855163 0)
(-0.000352671488109 -9.5666359709e-05 0)
(-0.000358099599974 -5.39172959511e-05 0)
(-0.000357633106908 -1.7892774411e-05 0)
(0.0224759799666 -0.00180145131697 0)
(0.0236944747058 -0.00575838926793 0)
(0.0234702551531 -0.00966164415215 6.66284348571e-28)
(0.0230776836565 -0.0135342428746 0)
(0.022564244637 -0.017314288709 0)
(0.0219423157838 -0.020983284059 0)
(0.0212247524326 -0.0245226404139 0)
(0.0204253030323 -0.0279171384186 0)
(0.0195580098257 -0.0311548136176 0)
(0.0186366456189 -0.0342268460301 0)
(0.0176742502293 -0.0371273036286 0)
(0.016682783101 -0.0398528032724 0)
(0.0156728936445 -0.0424021251213 0)
(0.0146538002652 -0.0447758148287 0)
(0.0136332614262 -0.0469758003625 0)
(0.0126176187878 -0.0490050421719 0)
(0.0116118914493 -0.0508672276829 0)
(0.0106199023157 -0.0525665144948 0)
(0.00964442023805 -0.0541073216545 0)
(0.00868730558608 -0.0554941649632 0)
(0.00774965023676 -0.056731530383 0)
(0.00683190661326 -0.057823778831 0)
(0.00593400283915 -0.0587750757885 0)
(0.00505544347693 -0.0595893397268 0)
(0.00419539659087 -0.0602702043152 0)
(0.00335276916821 -0.0608209903453 0)
(0.00252627340175 -0.0612446844338 0)
(0.00171448694037 -0.0615439225193 0)
(0.000915910209658 -0.0617209774029 0)
(0.000129023990555 -0.0617777488843 0)
(-0.000647650122142 -0.0617157681101 0)
(-0.00141548286212 -0.0615361864366 0)
(-0.00217566589041 -0.061239805515 0)
(-0.00292913194192 -0.0608271001843 0)
(-0.00367647095324 -0.060298266617 0)
(-0.0044178443337 -0.0596532914755 0)
(-0.00515290339831 -0.0588920455568 0)
(-0.00588071906246 -0.0580144025681 0)
(-0.0065997323946 -0.057020381547 0)
(-0.00730773540575 -0.0559103067132 0)
(-0.00800189207016 -0.0546849747409 0)
(-0.0086788051199 -0.0533458131017 0)
(-0.00933462998086 -0.0518950093667 0)
(-0.00996522552314 -0.0503355873691 0)
(-0.0105663207357 -0.0486714083682 0)
(-0.0111336583164 -0.046907082446 0)
(-0.0116630649083 -0.0450477934876 0)
(-0.0121503848107 -0.0430990678974 0)
(-0.0125912246731 -0.0410665595942 0)
(-0.0129804780089 -0.0389559620994 0)
(-0.0133116752978 -0.0367732073417 0)
(-0.013576304319 -0.0345251029832 0)
(-0.013763413891 -0.0322204850846 0)
(-0.0138599603947 -0.0298717680537 0)
(-0.0138523349702 -0.0274962766752 0)
(-0.0137289080106 -0.025116655098 0)
(-0.0134832461503 -0.0227584732539 0)
(-0.0131108187531 -0.0204496800754 0)
(-0.012613456619 -0.0182195941535 0)
(-0.0119934977303 -0.0161011067142 0)
(-0.011268201505 -0.0141297500002 0)
(-0.0104699716968 -0.0123324218181 0)
(-0.0096383834571 -0.0107197309926 0)
(-0.00880930709433 -0.00928492384764 0)
(-0.00800485603188 -0.00801013509123 0)
(-0.00723235465157 -0.00687698072939 0)
(-0.00649214945258 -0.00587307270558 0)
(-0.00578449007895 -0.00499167447902 0)
(-0.00511227997889 -0.00422875100402 0)
(-0.00448188227063 -0.0035799100603 0)
(-0.00390251786838 -0.00303730277761 0)
(-0.00338285812439 -0.00258765204312 0)
(-0.00292616737151 -0.00221388031863 0)
(-0.0025286677721 -0.00189939078384 0)
(-0.00218200307661 -0.0016318620978 0)
(-0.00187763254311 -0.00140417828371 0)
(-0.00161019361226 -0.00121198318265 0)
(-0.00137652918503 -0.00105088887154 0)
(-0.00117321034172 -0.000916328896005 0)
(-0.00099680999965 -0.000804358132637 0)
(-0.000844313442473 -0.00071154854915 0)
(-0.000712778640199 -0.000634865341662 0)
(-0.00059951327477 -0.000572457435793 0)
(-0.000502697540299 -0.000512373442813 0)
(-0.00044774761999 -0.000472142644103 0)
(-0.000407826515581 -0.000426612199274 0)
(-0.00037397042223 -0.000379502482485 0)
(-0.000345842393309 -0.000328768443415 0)
(-0.000338350881094 -0.000287180131577 0)
(-0.000328218393403 -0.000233789152868 0)
(-0.000336910492845 -0.000192834058849 0)
(-0.000329418323107 -0.000136426514859 0)
(-0.000353312513558 -0.000103311835965 0)
(-0.000388615061205 -7.8153243839e-05 0)
(-0.000390797882407 -4.4252318653e-05 0)
(-0.000390820429247 -1.47091331885e-05 0)
(0.0262979865431 -0.00187015604538 0)
(0.0277179691741 -0.00597667286189 0)
(0.0274445693843 -0.0100235572128 -6.66181983515e-28)
(0.0269694102843 -0.0140324638892 0)
(0.0263491349671 -0.0179372849353 0)
(0.0255994944105 -0.021717539288 0)
(0.0247368628788 -0.0253532681991 0)
(0.0237786102725 -0.0288286235836 0)
(0.0227423086793 -0.0321316894767 0)
(0.0216450087146 -0.0352542704046 0)
(0.0205026623504 -0.0381915070056 0)
(0.019329709547 -0.0409414009153 0)
(0.0181388255066 -0.0435042991614 0)
(0.0169408112124 -0.0458823826579 0)
(0.015744600726 -0.048079191588 0)
(0.0145573555827 -0.0500992083788 0)
(0.0133846167766 -0.051947508259 0)
(0.0122304888528 -0.0536294786686 0)
(0.011097835136 -0.0551506028111 0)
(0.00998846926309 -0.0565162988917 0)
(0.00890333278357 -0.0577318050614 0)
(0.00784265367758 -0.0588020998767 0)
(0.00680608341615 -0.059731849012 0)
(0.00579281337192 -0.0605253702529 0)
(0.00480167231931 -0.0611866103674 0)
(0.0038312085728 -0.0617191289292 0)
(0.00287976016538 -0.0621260855466 0)
(0.00194551767084 -0.0624102283082 0)
(0.0010265835912 -0.0625738825275 0)
(0.000121033055096 -0.0626189384167 0)
(-0.000773020939442 -0.0625468515956 0)
(-0.00165735174837 -0.0623586209016 0)
(-0.00253353623156 -0.0620548144753 0)
(-0.00340285733004 -0.0616355822534 0)
(-0.00426619853004 -0.0611006999149 0)
(-0.00512393181073 -0.0604496379928 0)
(-0.00597580684263 -0.0596816627632 0)
(-0.00682085076525 -0.0587959722529 0)
(-0.00765729200712 -0.0577918670174 0)
(-0.0084825226835 -0.0566689506822 0)
(-0.00929311581324 -0.0554273479242 0)
(-0.0100849101177 -0.0540679195505 0)
(-0.010853169484 -0.0525924450222 0)
(-0.0115928106229 -0.0510037356323 0)
(-0.012298674432 -0.0493056383481 0)
(-0.0129657905984 -0.0475028966613 0)
(-0.013589557652 -0.045600853739 0)
(-0.0141657368741 -0.0436050236638 0)
(-0.0146901455675 -0.0415206134144 0)
(-0.0151579621463 -0.0393521675402 0)
(-0.0155626206011 -0.0371035909526 0)
(-0.0158944570598 -0.0347788859175 0)
(-0.0161395711908 -0.0323839086026 0)
(-0.016279721242 -0.0299291397825 0)
(-0.01629459188 -0.0274325179856 0)
(-0.0161663299623 -0.0249211714923 0)
(-0.0158883210403 -0.0224245819134 0)
(-0.0154511686905 -0.0199751823703 0)
(-0.0148586175681 -0.0176050391191 0)
(-0.0140995112402 -0.0153556763458 0)
(-0.0131939511764 -0.0132823961027 0)
(-0.0121920219688 -0.0114267294251 0)
(-0.0111574874307 -0.00980153157915 0)
(-0.0101470985439 -0.00838835491709 0)
(-0.00918898882107 -0.00715040322879 0)
(-0.00828208608972 -0.00605548857091 0)
(-0.00741669062069 -0.00508760884855 0)
(-0.00658729791984 -0.00424254774014 0)
(-0.00579532575374 -0.00352074021025 0)
(-0.00504918143602 -0.00292235931534 0)