/*--------------------------------*- C++ -*----------------------------------*\
| =========                 |                                                 |
| \\      /  F ield         | OpenFOAM: The Open Source CFD Toolbox           |
|  \\    /   O peration     | Version:  v1906                                 |
|   \\  /    A nd           | Web:      www.OpenFOAM.com                      |
|    \\/     M anipulation  |                                                 |
\*---------------------------------------------------------------------------*/
FoamFile
{
    version     2.0;
    format      ascii;
    class       volVectorField;
    location    "774";
    object      Ua;
}
// * * * * * * * * * * * * * * * * * * * * * * * * * * * * * * * * * * * * * //

dimensions      [0 1 -1 0 0 0 0];


internalField   nonuniform List<vector> 
9216
(
(-0.00666935572018 0.0066729645181 0)
(-0.00685616966407 0.0208106036743 2.3771495988e-27)
(-0.00684204655196 0.0350281231499 -4.61664813758e-31)
(-0.00679376370838 0.0492367027897 0)
(-0.00672628726738 0.0632991491109 0)
(-0.00664102669189 0.0771802577185 0)
(-0.00653955667067 0.0908405368429 0)
(-0.00642273692826 0.104243476795 0)
(-0.0062916773883 0.117354832691 0)
(-0.00614714812044 0.130142876828 0)
(-0.00599031775491 0.142578271006 0)
(-0.00582195976898 0.154634300628 0)
(-0.00564327641783 0.166286707674 0)
(-0.00545498319316 0.177513816476 0)
(-0.00525823502822 0.188296286524 0)
(-0.00505361212031 0.198617122863 0)
(-0.00484214297236 0.208461358143 0)
(-0.00462420738998 0.217815962958 0)
(-0.00440064598732 0.226669484404 0)
(-0.00417159682344 0.235011886108 0)
(-0.00393768023325 0.242834177166 0)
(-0.00369878371991 0.250128216596 0)
(-0.0034553078052 0.256886372479 0)
(-0.00320691389298 0.26310132856 0)
(-0.00295381610896 0.268765807873 0)
(-0.00269550477467 0.273872412007 0)
(-0.00243206734059 0.278413438799 0)
(-0.00216290144984 0.282380779589 0)
(-0.00188804991059 0.285765851499 0)
(-0.00160691821521 0.288559564091 0)
(-0.00131960242012 0.290752413204 0)
(-0.00102560996746 0.292334502818 0)
(-0.000725194379731 0.293295725743 0)
(-0.000418121063568 0.29362599436 0)
(-0.000104933046614 0.293315563496 0)
(0.000214245366331 0.292355300791 0)
(0.000538482271947 0.290737170492 0)
(0.000867190856273 0.288454574333 0)
(0.0011989777028 0.285502931932 0)
(0.00153274229156 0.281880049185 0)
(0.00186661534589 0.277586730718 0)
(0.00219899461623 0.272627112429 0)
(0.00252758085543 0.267009241518 0)
(0.00285033144027 0.260745329243 0)
(0.00316458858091 0.253852266908 0)
(0.00346792821729 0.246351812811 0)
(0.00375736785806 0.238271079066 0)
(0.00403009892421 0.229642738787 0)
(0.00428277231562 0.220505555056 0)
(0.00451214396278 0.210904687219 0)
(0.00471447259848 0.200892233239 0)
(0.00488617079948 0.190527521564 0)
(0.00502337447803 0.179877331763 0)
(0.00512270964845 0.169015711483 0)
(0.00518100700522 0.158023243404 0)
(0.0051961603707 0.146985872388 0)
(0.00516670951056 0.135992951309 0)
(0.00509259421549 0.125135383878 0)
(0.00497435016742 0.114503286298 0)
(0.0048139778759 0.104184286597 0)
(0.00461412717686 0.09426110182 0)
(0.00437957355615 0.0848090661341 0)
(0.00411636272448 0.0758923130425 0)
(0.00383319318407 0.0675597396493 0)
(0.00353881317293 0.0598416262953 0)
(0.00324133047766 0.0527503763211 0)
(0.00294580845017 0.0462847827385 0)
(0.00265617922284 0.0404347827412 0)
(0.00237543991174 0.0351838712183 0)
(0.0021073915324 0.0305086913092 0)
(0.00185506031561 0.026378975937 0)
(0.00162136750122 0.0227581497708 0)
(0.00140793190989 0.019605103796 0)
(0.00121604280946 0.0168755874488 0)
(0.00104578024359 0.014524112447 0)
(0.000896695488333 0.0125054722939 0)
(0.000767138452517 0.0107769364372 0)
(0.000655238548026 0.00929950458338 0)
(0.000558761555905 0.00803870806008 0)
(0.000475823345579 0.00696431516173 0)
(0.000404451589845 0.00605018161322 0)
(0.000342835651784 0.00527398065616 0)
(0.000288800168003 0.0046172726758 0)
(0.000238559947164 0.00407087120183 0)
(0.000184408123556 0.0035719262588 0)
(0.000162625960416 0.00325890360877 0)
(0.000154345435323 0.00292728547106 0)
(0.000134628938383 0.00263687643219 0)
(0.000132166810498 0.00238963979494 0)
(0.000138140677952 0.00211750160574 0)
(0.000135387598267 0.00185006046156 0)
(0.000134121254271 0.00157310883926 0)
(0.000147653550012 0.00128112621766 0)
(0.000164287239717 0.000968993143734 0)
(0.000183815887912 0.000598072795888 0)
(0.000196915906757 0.000191884517011 0)
(-0.0208393177949 0.00689683915698 0)
(-0.022001184328 0.0221044593495 0)
(-0.0219275680714 0.0372243744929 -2.44346369633e-27)
(-0.0217413940836 0.052347638107 0)
(-0.0214880470302 0.0673034475459 0)
(-0.0211725198425 0.082062346179 0)
(-0.0207986480107 0.0965840542617 0)
(-0.020369738154 0.110830231536 0)
(-0.0198896978866 0.124764627187 0)
(-0.0193620970412 0.138353514575 0)
(-0.0187911784116 0.151565771085 0)
(-0.0181806513277 0.164373038453 0)
(-0.0175348324374 0.176749669967 0)
(-0.0168572675357 0.188672756917 0)
(-0.0161520256769 0.20012196611 0)
(-0.0154221869197 0.211079449229 0)
(-0.0146712865867 0.221529589043 0)
(-0.0139016970478 0.231458813439 0)
(-0.013116211723 0.24085527897 0)
(-0.012316347614 0.249708622216 0)
(-0.0115040548512 0.258009618442 0)
(-0.0106799626893 0.265749910445 0)
(-0.00984519379707 0.272921684588 0)
(-0.00899957269062 0.279517417932 0)
(-0.00814351960859 0.285529609953 0)
(-0.00727623628582 0.290950582152 0)
(-0.00639765132199 0.29577229541 0)
(-0.0055065993946 0.299986227078 0)
(-0.00460279278889 0.303583294219 0)
(-0.00368501275803 0.306553827806 0)
(-0.00275308498306 0.308887604034 0)
(-0.00180608072492 0.310573969657 0)
(-0.000844283809996 0.311602034161 0)
(0.000132532340491 0.311960828813 0)
(0.00112322104932 0.311639670797 0)
(0.00212694388759 0.310628496055 0)
(0.00314136062164 0.30891832916 0)
(0.00416426152991 0.306501721205 0)
(0.00519188719434 0.303373311421 0)
(0.00622051004878 0.299530309884 0)
(0.00724491354968 0.294973081478 0)
(0.00825990888824 0.289705597786 0)
(0.00925897727074 0.283735966731 0)
(0.0102356793401 0.277076793579 0)
(0.0111824265764 0.269745618536 0)
(0.0120917178666 0.261765194618 0)
(0.0129549871066 0.253163882111 0)
(0.0137636247814 0.24397594673 0)
(0.0145078957771 0.234242030902 0)
(0.0151778243674 0.224009594914 0)
(0.0157623170194 0.213333500375 0)
(0.0162501855477 0.202276500359 0)
(0.0166297387669 0.190909597099 0)
(0.0168902749503 0.179312000854 0)
(0.0170221785287 0.167570447679 0)
(0.0170187069318 0.155777817613 0)
(0.016875784071 0.144030948719 0)
(0.0165931513071 0.132428268063 0)
(0.0161730131684 0.121067432007 0)
(0.0156212043946 0.110043527522 0)
(0.0149461943325 0.0994471400841 0)
(0.0141623189442 0.089361702484 0)
(0.0132892064572 0.0798593271337 0)
(0.012355034842 0.0709946756562 0)
(0.011389813995 0.0627991902256 0)
(0.0104194331976 0.0552820839533 0)
(0.00945976154042 0.0484376179822 0)
(0.00852119695113 0.0422528992055 0)
(0.00761298858118 0.0367102839986 0)
(0.00674670911879 0.031785075175 0)
(0.00593264164616 0.0274443056646 0)
(0.00517963025912 0.0236477491263 0)
(0.00449313149654 0.0203501190014 0)
(0.00387676961567 0.0175028757636 0)
(0.00333110760296 0.0150559499971 0)
(0.00285425200253 0.0129595776314 0)
(0.00244080277566 0.0111669535287 0)
(0.00208408219537 0.00963611503156 0)
(0.00177688513878 0.00833051244441 0)
(0.00151295219392 0.00721837769873 0)
(0.00128626348454 0.00627207772129 0)
(0.00109123805457 0.00546767961904 0)
(0.000922206041437 0.00478427070064 0)
(0.000773168135713 0.00420409548105 0)
(0.000633412405419 0.00368667042206 0)
(0.000535871663657 0.00320085433051 0)
(0.000469509645802 0.00286054416539 0)
(0.00040803692378 0.00257262446323 0)
(0.000391232970083 0.00228946323028 0)
(0.000403710834794 0.00205995583455 0)
(0.000405706689176 0.00182438654561 0)
(0.000414912426579 0.00153622728226 0)
(0.000442569232134 0.00123861186233 0)
(0.000531664035068 0.000972385042426 0)
(0.000640254114191 0.000618229910642 0)
(0.000577385898704 0.000169401935028 0)
(-0.0352162063011 0.00695221474087 0)
(-0.0372012834316 0.0222873628108 0)
(-0.0370502504733 0.0374994152813 -2.44683774129e-27)
(-0.0367299460901 0.0527322289357 0)
(-0.0363028053817 0.0677954924096 0)
(-0.0357739144827 0.0826583523968 0)
(-0.0351481033146 0.0972795553044 0)
(-0.0344306999582 0.111620230309 0)
(-0.0336277568412 0.125643747547 0)
(-0.0327455068097 0.139316075664 0)
(-0.0317906593905 0.152605917769 0)
(-0.0307697901243 0.165484827397 0)
(-0.0296897004843 0.177927206208 0)
(-0.0285567443652 0.189910281388 0)
(-0.0273772593272 0.201413980133 0)
(-0.0261568534922 0.2124207878 0)
(-0.0249009172778 0.222915518795 0)
(-0.0236138934277 0.232885079124 0)
(-0.0222998757311 0.242318163923 0)
(-0.0209618824852 0.251204959852 0)
(-0.0196025434639 0.259536809321 0)
(-0.0182233902684 0.267305896275 0)
(-0.0168256236699 0.274504923066 0)
(-0.0154094253278 0.281126824156 0)
(-0.0139747887319 0.287164496104 0)
(-0.012520849999 0.292610574577 0)
(-0.0110467620479 0.297457247654 0)
(-0.00955104287466 0.301696120266 0)
(-0.00803247632222 0.30531813008 0)
(-0.00648948029098 0.308313513272 0)
(-0.00492103409789 0.310671850278 0)
(-0.00332606045187 0.312382150396 0)
(-0.00170434366863 0.313433012042 0)
(-5.59637180135e-05 0.31381286399 0)
(0.00161780856525 0.31351028623 0)
(0.00331507694622 0.312514380405 0)
(0.00503248267913 0.310815233644 0)
(0.00676578514626 0.308404412126 0)
(0.00850913079374 0.305275525185 0)
(0.0102556782113 0.301424778171 0)
(0.0119970062437 0.296851556078 0)
(0.0137237854265 0.291558942459 0)
(0.0154253144879 0.285554225651 0)
(0.0170901842313 0.278849299126 0)
(0.0187058651137 0.271461033598 0)
(0.0202592520568 0.26341155456 0)
(0.021736186935 0.254728540951 0)
(0.0231217889376 0.245445518231 0)
(0.0243998809735 0.235602280592 0)
(0.0255532017631 0.225245424516 0)
(0.0265629877782 0.214429061444 0)
(0.0274095349784 0.20321560059 0)
(0.0280725261738 0.191676453114 0)
(0.0285325942622 0.179892346173 0)
(0.0287727052464 0.167952839701 0)
(0.0287804249627 0.155954776504 0)
(0.0285488939352 0.143999569584 0)
(0.0280774757502 0.132190076051 0)
(0.0273702244131 0.12062813113 0)
(0.0264360089431 0.109413099025 0)
(0.0252880297452 0.0986413728623 0)
(0.0239487855205 0.0884041694223 0)
(0.0224513316549 0.0787834982194 0)
(0.020847596242 0.069841709097 0)
(0.0191961870379 0.0616086617495 0)
(0.0175440174211 0.0540833245973 0)
(0.0159160876172 0.0472488413175 0)
(0.014324007802 0.0410878478923 0)
(0.0127822807073 0.0355839718657 0)
(0.0113113727624 0.0307134445475 0)
(0.0099307775074 0.0264413935179 0)
(0.00865555551388 0.0227241431579 0)
(0.00749527588473 0.0195128010199 0)
(0.00645572227464 0.0167554600797 0)
(0.00553859574011 0.0143982669032 0)
(0.00474035472877 0.0123872221914 0)
(0.00405094442922 0.0106721402643 0)
(0.00345735157793 0.00920978971413 0)
(0.00294680570337 0.00796398304822 0)
(0.00250855982479 0.00690380338518 0)
(0.00213297899937 0.00600216483726 0)
(0.00181083492147 0.00523570122667 0)
(0.00153406744581 0.0045843908071 0)
(0.00129631255687 0.00403278413981 0)
(0.00109686010708 0.00354018685141 0)
(0.000937834083926 0.00308996418569 0)
(0.000827149922279 0.00281087369034 0)
(0.000709913371997 0.00243016189679 0)
(0.000633269554375 0.00210732620797 0)
(0.000635408286826 0.00190035835783 0)
(0.000694349009989 0.00172936254863 0)
(0.000688882488272 0.00136664292499 0)
(0.000758903419196 0.00111068460549 0)
(0.000861833542584 0.00079990021889 0)
(0.000952727403125 0.000476656772571 0)
(0.000921551865458 0.000146807094414 0)
(-0.0497907186241 0.00700957129116 0)
(-0.0526210501144 0.0224910470449 0)
(-0.0524049924478 0.0378268515295 2.4465125478e-27)
(-0.0519477141483 0.0531886828956 0)
(-0.0513385961071 0.0683773127127 0)
(-0.0505853309796 0.0833606701896 0)
(-0.0496946429872 0.0980963377818 0)
(-0.0486741929945 0.112544629552 0)
(-0.0475325258691 0.126668324251 0)
(-0.0462787123244 0.140432977934 0)
(-0.0449222764381 0.153807069327 0)
(-0.0434728249121 0.166762096621 0)
(-0.0419400024825 0.17927258781 0)
(-0.0403331101019 0.191316055734 0)
(-0.0386610984912 0.202872875289 0)
(-0.0369321954114 0.213926111942 0)
(-0.0351539552346 0.224461284702 0)
(-0.0333329186034 0.234466092567 0)
(-0.031474735925 0.243930094406 0)
(-0.0295838806243 0.252844371324 0)
(-0.0276638582584 0.26120116811 0)
(-0.0257169842096 0.268993540927 0)
(-0.0237446763922 0.276215011675 0)
(-0.0217472935558 0.282859250795 0)
(-0.01972449532 0.288919789676 0)
(-0.0176751260408 0.29438977644 0)
(-0.0155976204631 0.299261775716 0)
(-0.0134899198616 0.303527618721 0)
(-0.011349908987 0.307178306755 0)
(-0.00917536101262 0.310203963335 0)
(-0.00696441197258 0.312593873624 0)
(-0.00471551703088 0.314336555797 0)
(-0.0024279418447 0.315419906691 0)
(-0.00010177478198 0.315831456761 0)
(0.0022615962075 0.315558688261 0)
(0.00465948823117 0.314589431985 0)
(0.00708749183397 0.312912352363 0)
(0.00953953455132 0.310517493073 0)
(0.0120075636771 0.3073968831 0)
(0.0144817255426 0.303545160433 0)
(0.0169502117777 0.298960202392 0)
(0.0193995742367 0.293643707748 0)
(0.0218147199927 0.287601718735 0)
(0.0241792925014 0.280845034875 0)
(0.0264756913554 0.273389531303 0)
(0.0286853406439 0.265256373145 0)
(0.0307885251275 0.256472195248 0)
(0.0327643528058 0.247069305768 0)
(0.0345902977429 0.237086038924 0)
(0.0362419310175 0.226567353173 0)
(0.0376925196331 0.215565764139 0)
(0.0389132342578 0.204142581568 0)
(0.0398738692152 0.192369268147 0)
(0.0405447817148 0.180328454816 0)
(0.0408997076686 0.168113960604 0)
(0.040919298252 0.155829001787 0)
(0.0405936682613 0.143582383761 0)
(0.0399226773941 0.131483620839 0)
(0.0389124946205 0.11964004695 0)
(0.0375746444452 0.108156062087 0)
(0.0359234937637 0.0971360369694 0)
(0.033987179603 0.086683401144 0)
(0.0318077568845 0.0768998161056 0)
(0.0294712805153 0.0678655918967 0)
(0.0270813632987 0.0596072198304 0)
(0.024714225684 0.052100332909 0)
(0.0223970897439 0.0453038833898 0)
(0.0201294954526 0.0391944524181 0)
(0.0179285943257 0.0337632141426 0)
(0.0158285037841 0.0289904158982 0)
(0.0138614574732 0.024837628793 0)
(0.0120495343773 0.0212546348817 0)
(0.0104055396527 0.0181867942984 0)
(0.00893739264629 0.0155776168707 0)
(0.00764901468366 0.013367623207 0)
(0.00653579977445 0.0114952092211 0)
(0.00558033823315 0.00990401777507 0)
(0.00476013220765 0.00854929658723 0)
(0.00405521987787 0.00739669684522 0)
(0.00345073078548 0.00641752918541 0)
(0.00293397227279 0.00558563046717 0)
(0.00249139052148 0.00487860011616 0)
(0.00211177629857 0.00427832808802 0)
(0.00178658325043 0.00377351509199 0)
(0.00151470869286 0.00330438665798 0)
(0.00132053534833 0.00293910711693 0)
(0.00116349108126 0.00261064631297 0)
(0.001018517873 0.00223967330799 0)
(0.000943765354173 0.00197985503721 0)
(0.000883244659691 0.00166398837952 0)
(0.00090439898701 0.00140224598159 0)
(0.00101572985142 0.00121610622322 0)
(0.00103127981557 0.000869029384498 0)
(0.00113023390755 0.000595776770157 0)
(0.00123393889428 0.000357370566335 0)
(0.00121772709025 0.000116619009733 0)
(-0.0645119754433 0.00708362357104 0)
(-0.0681838369194 0.0227601717463 0)
(-0.0679013147308 0.0382677239985 0)
(-0.0673037831437 0.0538037622327 0)
(-0.0665078615122 0.0691609397394 0)
(-0.0655240525703 0.0843059692467 0)
(-0.0643613211463 0.0991950450723 0)
(-0.0630298739959 0.113787395371 0)
(-0.0615410142027 0.1280449756 0)
(-0.0599068147294 0.141932771924 0)
(-0.0581398729994 0.155418947808 0)
(-0.056252976053 0.168474932151 0)
(-0.0542588670655 0.181075428401 0)
(-0.0521699182307 0.193198353889 0)
(-0.0499979275961 0.20482470549 0)
(-0.0477538230968 0.215938361737 0)
(-0.0454475148223 0.226525821478 0)
(-0.0430876589252 0.236575892402 0)
(-0.0406815931183 0.246079335055 0)
(-0.0382351877199 0.255028479455 0)
(-0.0357528846962 0.263416824919 0)
(-0.03323764916 0.271238642094 0)
(-0.0306911125236 0.27848858925 0)
(-0.0281136147463 0.285161358509 0)
(-0.0255044296542 0.291251360316 0)
(-0.0228618710166 0.296752454723 0)
(-0.0201835701369 0.301657732462 0)
(-0.0174666220212 0.30595934803 0)
(-0.014707898505 0.309648406962 0)
(-0.0119042295738 0.312714899129 0)
(-0.00905276480809 0.315147727304 0)
(-0.00615117186611 0.316934757942 0)
(-0.00319803763472 0.31806295252 0)
(-0.000193135707776 0.318518623291 0)
(0.00286217671567 0.318287755656 0)
(0.00596470803296 0.317356429614 0)
(0.0091090788059 0.315711342596 0)
(0.0122875577895 0.313340417546 0)
(0.0154898503416 0.310233482635 0)
(0.0187031133509 0.30638298777 0)
(0.0219119662698 0.301784723735 0)
(0.0250987329577 0.296438490058 0)
(0.028243670918 0.29034866733 0)
(0.0313253584512 0.283524642601 0)
(0.0343209676121 0.275981068539 0)
(0.0372065257465 0.267737957672 0)
(0.0399568862798 0.258820675071 0)
(0.0425455011437 0.24925993824 0)
(0.044943814728 0.239092007341 0)
(0.0471205037488 0.228359274787 0)
(0.0490406704057 0.217111454149 0)
(0.0506655291718 0.205407483959 0)
(0.0519531026139 0.193317963083 0)
(0.0528607221192 0.180927561152 0)
(0.0533496270739 0.168336133457 0)
(0.0533912226197 0.155656905134 0)
(0.0529725056254 0.143010504129 0)
(0.0520963212115 0.130515850075 0)
(0.0507723480554 0.118286451039 0)
(0.049015317666 0.106429875463 0)
(0.0468327969309 0.0950591301797 0)
(0.0442541031835 0.084293121823 0)
(0.0413108281874 0.0742717715425 0)
(0.038145880047 0.0651189944247 0)
(0.03494586827 0.0568548329101 0)
(0.0318344660204 0.0494018806623 0)
(0.0288221165665 0.0426666020254 0)
(0.0258610281273 0.0366215466223 0)
(0.0229698760157 0.0312849054193 0)
(0.0202104657813 0.026647986578 0)
(0.0176355453075 0.0226638799876 0)
(0.0152740656642 0.0192694824824 0)
(0.0131388510313 0.0164017408023 0)
(0.0112391834554 0.0139998620928 0)
(0.00958476938602 0.0119974668923 0)
(0.00817280784505 0.0103192253283 0)
(0.00697278714194 0.00889705857578 0)
(0.00594572071476 0.00768517929261 0)
(0.00506192207154 0.00665502327839 0)
(0.00430440766988 0.00578294015016 0)
(0.00365971262892 0.00504315949232 0)
(0.00310792990285 0.00441379563671 0)
(0.00263412664288 0.00387976093556 0)
(0.00222781357807 0.00343335574606 0)
(0.00187622146522 0.00298972701667 0)
(0.00169650767416 0.00272649843443 0)
(0.00153815635595 0.00240486144385 0)
(0.00136804215579 0.00205609936412 0)
(0.00120422997859 0.00167494265153 0)
(0.00116437600628 0.00141516751772 0)
(0.001137477375 0.00111375415201 0)
(0.00124278584606 0.000928354112778 0)
(0.00136340489427 0.000710864047182 0)
(0.00136535539337 0.00044106400329 0)
(0.00140823138526 0.000252231154615 0)
(0.00138759115088 8.33148299915e-05 0)
(-0.0794299443564 0.00717596285129 0)
(-0.0839501928232 0.023100154342 0)
(-0.0835979129385 0.0388274678106 0)
(-0.0828547425306 0.0545852731755 0)
(-0.0818648499257 0.0701564898348 0)
(-0.0806416943718 0.0855064442959 0)
(-0.079196759241 0.100589668924 0)
(-0.0775430657214 0.11536403786 0)
(-0.0756949786617 0.12979045962 0)
(-0.0736678441441 0.143833193733 0)
(-0.0714776391315 0.157460001916 0)
(-0.0691405933239 0.170642233141 0)
(-0.0666728431887 0.183354826587 0)
(-0.0640900675376 0.195576236602 0)
(-0.0614071721827 0.207288279002 0)
(-0.0586379680683 0.218475904257 0)
(-0.0557949189759 0.229126900691 0)
(-0.0528888990906 0.239231537677 0)
(-0.049929042545 0.248782158388 0)
(-0.0469226183817 0.257772738532 0)
(-0.0438750128734 0.2661984273 0)
(-0.0407897411791 0.274055090852 0)
(-0.0376685647499 0.281338875885 0)
(-0.0345116242026 0.288045810198 0)
(-0.0313176593046 0.294171451247 0)
(-0.0280842203033 0.299710589615 0)
(-0.024807945427 0.304657008692 0)
(-0.0214848139871 0.309003299214 0)
(-0.0181104595641 0.312740727777 0)
(-0.014680461417 0.315859146225 0)
(-0.0111907169873 0.31834700422 0)
(-0.00763776075186 0.320191367404 0)
(-0.00401920294886 0.321378028525 0)
(-0.000334142703787 0.321891754024 0)
(0.00341638043439 0.321716608778 0)
(0.00722897640029 0.32083640185 0)
(0.0110974928981 0.319235258545 0)
(0.0150127111979 0.31689830788 0)
(0.0189621123712 0.313812467474 0)
(0.0229298193858 0.309967289899 0)
(0.0268966733197 0.305355819859 0)
(0.0308405185516 0.29997539459 0)
(0.0347366174071 0.293828311157 0)
(0.0385581992253 0.286922284135 0)
(0.0422769908556 0.279270638345 0)
(0.0458636420501 0.270892221212 0)
(0.0492878261094 0.261811093356 0)
(0.0525179116664 0.252056155342 0)
(0.0555200372261 0.241660967573 0)
(0.0582567074268 0.230664147309 0)
(0.0606850626802 0.219110747836 0)
(0.0627555442376 0.207054997514 0)
(0.0644118643264 0.194564472081 0)
(0.0655938394553 0.18172501374 0)
(0.0662443880486 0.168644509544 0)
(0.0663210226601 0.155451930297 0)
(0.0658075894295 0.142287524517 0)
(0.0647171344315 0.129283494948 0)
(0.063065874386 0.116559068199 0)
(0.0608781373429 0.104216537181 0)
(0.0581359241486 0.0923748499647 0)
(0.0548694500232 0.0811614621305 0)
(0.0510278650297 0.0707915908406 0)
(0.0468650154962 0.0615005697689 0)
(0.0427402935392 0.0532956868722 0)
(0.0388671899792 0.0459764472268 0)
(0.0351876044319 0.0393303478972 0)
(0.0315137109034 0.0333421661136 0)
(0.027878223756 0.0281126448722 0)
(0.0244103154764 0.0236560970479 0)
(0.0211981597006 0.0199012468513 0)
(0.0182728246064 0.0167579599175 0)
(0.0156370180208 0.0141519285339 0)
(0.0132984493144 0.0120235432307 0)
(0.0112825307768 0.0103012436837 0)
(0.00959904040032 0.00888321542265 0)
(0.00819079560192 0.00767691968784 0)
(0.00698608448353 0.00663842603152 0)
(0.00594182819972 0.00575538355825 0)
(0.00504602566695 0.00501532202014 0)
(0.00429180095065 0.00438915555637 0)
(0.00364584093483 0.00385301150106 0)
(0.00308957810474 0.00339803232946 0)
(0.00261346124516 0.00301028582838 0)
(0.00221242429415 0.00262185910285 0)
(0.00201425377744 0.0023685093764 0)
(0.00180490733894 0.00202087732426 0)
(0.00167307496675 0.00175070711876 0)
(0.00157295144862 0.00146886273164 0)
(0.00151474121081 0.001198310184 0)
(0.0013784849528 0.000862453737908 0)
(0.00139918114174 0.000637985533458 0)
(0.00154938190049 0.00050508858535 0)
(0.00157001430611 0.000333688802893 0)
(0.00155625905998 0.000182413576355 0)
(0.00153558334365 6.0083263361e-05 0)
(-0.0945907132247 0.00728816545209 0)
(-0.0999702561019 0.0235151808582 0)
(-0.0995436271048 0.0395115345591 2.46445732976e-27)
(-0.0986476181526 0.0555405528638 0)
(-0.0974544246105 0.0713731341002 0)
(-0.0959806478517 0.0869729105657 0)
(-0.0942405738446 0.102292393681 0)
(-0.0922503604223 0.117287804808 0)
(-0.0900277893372 0.131918769315 0)
(-0.087591834876 0.146148658248 0)
(-0.0849622224542 0.159944747466 0)
(-0.0821589767956 0.17327830173 0)
(-0.0792019821553 0.186124570529 0)
(-0.0761105466909 0.198462697131 0)
(-0.0729029949394 0.210275541965 0)
(-0.0695962812882 0.221549421848 0)
(-0.0662056539548 0.232273769295 0)
(-0.0627443648094 0.242440719202 0)
(-0.0592234580205 0.252044635422 0)
(-0.0556516301283 0.261081594518 0)
(-0.0520351897069 0.269548848794 0)
(-0.0483780976179 0.27744429314 0)
(-0.0446821030946 0.28476596002 0)
(-0.0409469413458 0.291511563047 0)
(-0.0371705968034 0.29767810295 0)
(-0.0333495915538 0.303261541305 0)
(-0.0294793060485 0.308256539818 0)
(-0.0255543019952 0.312656257733 0)
(-0.0215686704332 0.316452200982 0)
(-0.0175163905157 0.319634102587 0)
(-0.0133917474462 0.322189911962 0)
(-0.00918973338994 0.324105764846 0)
(-0.00490656764897 0.32536606255 0)
(-0.000540231565832 0.325953694121 0)
(0.00390896839141 0.325850354771 0)
(0.00843783876875 0.325037012394 0)
(0.0130397618146 0.323494536424 0)
(0.0177042490806 0.321204483855 0)
(0.0224166196243 0.318150025194 0)
(0.027157875927 0.314316970945 0)
(0.0319048072972 0.309694833805 0)
(0.0366303664096 0.304277834995 0)
(0.0413042969457 0.298065740495 0)
(0.0458939681553 0.291064402408 0)
(0.0503652746618 0.283285894569 0)
(0.05468340662 0.274748177111 0)
(0.0588132168734 0.265474335618 0)
(0.0627188800894 0.25549155491 0)
(0.0663626176651 0.244830233436 0)
(0.0697023284111 0.23352376739 0)
(0.072688383104 0.221609807419 0)
(0.075260195134 0.209133861736 0)
(0.0773441434169 0.196155898644 0)
(0.0788555243333 0.182759784405 0)
(0.0797083701998 0.169063059217 0)
(0.0798358766065 0.155219868752 0)
(0.0792184797254 0.141406381233 0)
(0.0778976766576 0.127773900465 0)
(0.0759009612461 0.114447228369 0)
(0.0732890495442 0.101499733832 0)
(0.0699687525169 0.0890502860721 0)
(0.0660150325741 0.0771849775385 0)
(0.0610433635545 0.0662672362423 0)
(0.0555647989874 0.0568312284934 0)
(0.050324880201 0.048856705093 0)
(0.045733682511 0.0418488798167 0)
(0.0415246582743 0.0353129653669 0)
(0.0371144860174 0.0293121884656 0)
(0.0326279725748 0.0241816520799 0)
(0.0283692198171 0.0199681140279 0)
(0.024484832582 0.0165265871503 0)
(0.0209873086182 0.0137085243122 0)
(0.0178410452041 0.0114275169721 0)
(0.0150425898614 0.00964547002752 0)
(0.0126595593413 0.00829807809351 0)
(0.0107514545077 0.00722746336598 0)
(0.00920029188056 0.00628406902264 0)
(0.00786073159453 0.00543618825048 0)
(0.00667234890057 0.00471495139063 0)
(0.00564935129581 0.00413290341614 0)
(0.00481358341295 0.00364296546494 0)
(0.00409285621871 0.00321153395509 0)
(0.0034673137153 0.00284633676712 0)
(0.00293465613212 0.00252283239131 0)
(0.0025377547458 0.0022226680221 0)
(0.00231633339782 0.00196648370016 0)
(0.0021148701096 0.00167895616488 0)
(0.00193366326107 0.00138584770045 0)
(0.00184537940568 0.00113953629048 0)
(0.00172685162545 0.000870947432987 0)
(0.00169317770128 0.000667331488434 0)
(0.00158388079575 0.000431168991366 0)
(0.00161385448185 0.000303065255932 0)
(0.00169521124803 0.000220715126398 0)
(0.00165997490414 0.000119664715678 0)
(0.00163768370394 3.92440665545e-05 0)
(-0.110043767967 0.00742146519897 0)
(-0.116296482549 0.0240097792655 0)
(-0.115789850867 0.0403267629802 -2.46407742133e-27)
(-0.114731983436 0.0566788561398 0)
(-0.113323818704 0.0728223699134 0)
(-0.111585383509 0.088718843634 0)
(-0.10953411601 0.104318343887 0)
(-0.107189707055 0.119575099433 0)
(-0.104573784151 0.134447195661 0)
(-0.101709390155 0.148896944237 0)
(-0.0986204467964 0.162891051001 0)
(-0.0953312137233 0.176400699896 0)
(-0.0918657551025 0.18940154029 0)
(-0.0882474163138 0.201873580142 0)
(-0.084498323122 0.21380098354 0)
(-0.0806389093924 0.225171772581 0)
(-0.076687493566 0.235977434306 0)
(-0.0726599170384 0.246212439216 0)
(-0.0685692704665 0.255873683682 0)
(-0.0644257206584 0.264959877544 0)
(-0.0602364570848 0.273470904732 0)
(-0.0560057552959 0.281407190188 0)
(-0.05173515548 0.288769105973 0)
(-0.0474237302211 0.295556444561 0)
(-0.043068420401 0.301767976515 0)
(-0.0386644033565 0.307401096444 0)
(-0.034205476214 0.312451548207 0)
(-0.0296844362589 0.316913212092 0)
(-0.0250934683597 0.32077793767 0)
(-0.0204245485425 0.324035390787 0)
(-0.0156699099334 0.326673009585 0)
(-0.0108225089589 0.328675904568 0)
(-0.0058766445534 0.330026886719 0)
(-0.00082861817589 0.330706641099 0)
(0.00432255399149 0.330694021317 0)
(0.00957440128249 0.329966525915 0)
(0.0149202792121 0.328500986004 0)
(0.0203487390483 0.326274468219 0)
(0.0258430553213 0.323265381871 0)
(0.0313809996359 0.319454750464 0)
(0.0369349363642 0.314827569449 0)
(0.0424723088715 0.309374130889 0)
(0.0479565340111 0.303091148832 0)
(0.0533482596904 0.295982489314 0)
(0.0586068258034 0.288059298894 0)
(0.0636916558681 0.279339384648 0)
(0.068563149731 0.269845793961 0)
(0.0731826074423 0.259604799108 0)
(0.0775106138003 0.24864368844 0)
(0.0815035729064 0.236989232256 0)
(0.0851082023242 0.224668000476 0)
(0.0882544631169 0.211710227876 0)
(0.0908488433917 0.198159365165 0)
(0.0927720088845 0.184088891945 0)
(0.0938894070149 0.169624572555 0)
(0.0940861344062 0.154961762666 0)
(0.0933331858009 0.140349028642 0)
(0.0917514407152 0.12596565934 0)
(0.0893705544396 0.111950119407 0)
(0.0863881153909 0.0982840807887 0)
(0.0824856069268 0.085100651462 0)
(0.0780726828377 0.0722362790097 0)
(0.0715325110611 0.0603416932628 0)
(0.0640862471875 0.0507823132238 0)
(0.0573685286064 0.043464665365 0)
(0.0522778355123 0.0371770784023 0)
(0.0479493898408 0.0307147616107 0)
(0.0426996081502 0.0244516562663 0)
(0.0371085241242 0.0193749864315 0)
(0.0319204765288 0.0155210238912 0)
(0.0273453203064 0.0125271298236 0)
(0.0233049082677 0.0101211178077 0)
(0.0196573816024 0.00821281575853 0)
(0.0163580557127 0.00684586399727 0)
(0.0135813579454 0.00601184786616 0)
(0.0115473968583 0.00542448883203 0)
(0.00998789248978 0.00478644426506 0)
(0.00857582622653 0.00411064912277 0)
(0.00723973473427 0.00354411492834 0)
(0.00607879372472 0.00315658499144 0)
(0.0052133772717 0.00283265767263 0)
(0.00444219319844 0.00250664815227 0)
(0.00375822018519 0.00223688307147 0)
(0.00319020232473 0.00198334309218 0)
(0.00282262077389 0.00176113280132 0)
(0.00257709406008 0.00151894291863 0)
(0.00240375887947 0.0012908047027 0)
(0.00222774966677 0.00103728353952 0)
(0.00207923787843 0.000800534837167 0)
(0.00192489897374 0.000574153590489 0)
(0.00182972729952 0.000400721291763 0)
(0.00179186325426 0.000270708238215 0)
(0.00169444862698 0.000153050672266 0)
(0.00177634181031 0.000104178845788 0)
(0.00172232231985 6.19734866066e-05 0)
(0.00169337465588 1.86926603751e-05 0)
(-0.125841814622 0.00757718483659 0)
(-0.132984214179 0.024589261982 0)
(-0.13239072098 0.0412815214978 0)
(-0.13115996919 0.0580115972558 0)
(-0.129522557809 0.0745183612217 0)
(-0.127502325414 0.0907608079906 0)
(-0.125120302247 0.106686071032 0)
(-0.122400200719 0.122246007739 0)
(-0.119368013941 0.137396882935 0)
(-0.116051387177 0.152099767573 0)
(-0.112478976627 0.166320713334 0)
(-0.108679809172 0.180030834315 0)
(-0.104682650017 0.193206285945 0)
(-0.100515381511 0.205828142062 0)
(-0.09620439977 0.217882167682 0)
(-0.091774039624 0.229358481152 0)
(-0.0872460472667 0.240251102882 0)
(-0.0826391253888 0.250557392138 0)
(-0.0779685813936 0.260277384975 0)
(-0.0732461066112 0.2694130576 0)
(-0.0684797087826 0.277967552677 0)
(-0.0636738043774 0.285944413929 0)
(-0.0588294609338 0.293346876634 0)
(-0.0539447589547 0.300177253725 0)
(-0.049015230942 0.306436441283 0)
(-0.0440343293272 0.312123544783 0)
(-0.038993885992 0.317235606151 0)
(-0.033884544643 0.321767397087 0)
(-0.0286961750769 0.325711245293 0)
(-0.0234182980381 0.329056845118 0)
(-0.0180405825072 0.331791166413 0)