/*--------------------------------*- C++ -*----------------------------------*\
| =========                 |                                                 |
| \\      /  F ield         | OpenFOAM: The Open Source CFD Toolbox           |
|  \\    /   O peration     | Version:  v1906                                 |
|   \\  /    A nd           | Web:      www.OpenFOAM.com                      |
|    \\/     M anipulation  |                                                 |
\*---------------------------------------------------------------------------*/
FoamFile
{
    version     2.0;
    format      ascii;
    class       surfaceScalarField;
    location    "691";
    object      phi;
}
// * * * * * * * * * * * * * * * * * * * * * * * * * * * * * * * * * * * * * //

dimensions      [0 3 -1 0 0 0 0];
oriented        oriented;


internalField   nonuniform List<scalar> 
18240
(
-0.000352223120519
0.000352250064386
-0.000737889276015
0.000385697437261
-0.0011232089095
0.000385347456133
-0.00150356330848
0.000380386585524
-0.00187688073233
0.000373344462654
-0.00224141808093
0.000364570430315
-0.00259566039663
0.000354268538467
-0.00293824681392
0.00034262046817
-0.00326801672422
0.000329795282312
-0.00358395266838
0.000315971022074
-0.0038852402409
0.000301312015074
-0.00417119295652
0.000285988860526
-0.00444131957954
0.000270150066401
-0.0046952298704
0.000253947519985
-0.00493271222612
0.00023750468786
-0.0051536224415
0.000220948520622
-0.00535797530046
0.000204373991387
-0.00554581829905
0.000187882342764
-0.00571733983915
0.000171541343256
-0.00587272901352
0.000155429493347
-0.00601230195956
0.000139591331242
-0.00613634802299
0.000124087264548
-0.00624527467966
0.000108943497083
-0.00633943989487
9.42071831857e-05
-0.00641931538124
7.9890712708e-05
-0.00648530481453
6.60320293521e-05
-0.00653792460717
5.26332992804e-05
-0.00657760776658
3.97262298727e-05
-0.0066049012899
2.73052754534e-05
-0.006620255873
1.53979580791e-05
-0.00662423928192
3.99333467973e-06
-0.00661731021262
-6.88556739613e-06
-0.00660004410689
-1.72579986801e-05
-0.00657289794878
-2.71027191397e-05
-0.00653645069451
-3.64409976319e-05
-0.00649115327251
-4.52542344521e-05
-0.00643758007537
-5.35687368934e-05
-0.00637616880916
-6.13685209987e-05
-0.00630748230122
-6.86838319956e-05
-0.00623193932183
-7.55008595886e-05
-0.00615008513245
-8.18531994413e-05
-0.00606231492026
-8.7728897929e-05
-0.00596915132995
-9.31642342794e-05
-0.00587096228112
-9.81487072931e-05
-0.00576824382372
-0.000102720599701
-0.00566133414735
-0.000106870467671
-0.00555069984998
-0.00011063785212
-0.00543664798407
-0.000114013933391
-0.00531961396119
-0.000117038825893
-0.00519987345685
-0.000119703981033
-0.00507782997651
-0.000122049419668
-0.0049537284295
-0.000124066546557
-0.00482794056525
-0.000125794756843
-0.00470068195782
-0.000127225230914
-0.00457229338564
-0.000128396288638
-0.00444296292016
-0.000129298793163
-0.00431300155338
-0.000129969715671
-0.00418257198128
-0.000130399670646
-0.00405195671488
-0.000130624110514
-0.00392129507621
-0.000130633554212
-0.00379084230243
-0.000130461924802
-0.00366071614737
-0.0001300999209
-0.00353114548422
-0.000129579987062
-0.00340222781503
-0.000128893300458
-0.00327416617741
-0.000128070961582
-0.00314703872114
-0.000127104957771
-0.00302102276642
-0.000126025159256
-0.00289617749605
-0.000124824632504
-0.00277265430887
-0.000123532125584
-0.00265049351336
-0.000122142001098
-0.00252982017923
-0.000120681908559
-0.0024106555896
-0.000119147609407
-0.00229309805524
-0.000117565626259
-0.00217714971167
-0.000115933140065
-0.00206288181282
-0.000114275426433
-0.00195027733287
-0.000112591001784
-0.00183938046182
-0.000110903731316
-0.00173015532212
-0.000109213324019
-0.00162261941905
-0.000107542013665
-0.0015167186906
-0.000105890498417
-0.00141244480819
-0.000104279143861
-0.00130972667959
-0.000102709405518
-0.00120853151501
-0.00010119950767
-0.00110877286738
-9.97513753775e-05
-0.00101039552229
-9.83807470186e-05
-0.000913300159113
-9.70895475775e-05
-0.000817412397424
-9.58902888064e-05
-0.000722624613711
-9.47834853807e-05
-0.000628850959381
-9.37754253468e-05
-0.000535990052565
-9.28580703816e-05
-0.00044397742864
-9.20135801206e-05
-0.000352797587667
-9.11782485081e-05
-0.000262615936574
-9.01814271741e-05
-0.000174197122903
-8.84186820603e-05
-9.06531992631e-05
-8.35445293328e-05
-9.06531832575e-05
-0.000389328863277
0.000741608151663
-0.000823992273341
0.000820392686522
-0.00125618503632
0.000817571204469
-0.00168207338604
0.000806307117195
-0.00209973366775
0.000791035561549
-0.00250738195032
0.000772251163065
-0.002903364139
0.000750281388573
-0.00328618330957
0.000725472395767
-0.00365453952758
0.000698181998325
-0.00400731409481
0.000668778669665
-0.00434359374938
0.000637621987571
-0.00466263657453
0.000605065086468
-0.00496389211083
0.000571435689807
-0.00524695500714
0.00053704411197
-0.0055115861885
0.000502165671678
-0.00575765815268
0.000467054429285
-0.00598518111716
0.000431926385906
-0.00619424277976
0.000396978129271
-0.00638504209622
0.000362369633101
-0.00655782509912
0.00032824671265
-0.0067129276326
0.000294722267801
-0.00685070774401
0.000261901579258
-0.00697159764513
0.000229861130486
-0.0070760324856
0.000198676097716
-0.00716451112373
0.000168396289089
-0.00723752075541
0.000139075478133
-0.00729560573631
0.000110744323769
-0.00733928752015
8.34414438137e-05
-0.00736914065242
5.71834400412e-05
-0.00738570748129
3.1997695323e-05
-0.00738957979806
7.88958498706e-06
-0.00738131060073
-1.51225087129e-05
-0.00736150364179
-3.70422230489e-05
-0.00733071579482
-5.78590938335e-05
-0.00728954996351
-7.7585358226e-05
-0.00723855600171
-9.62176267391e-05
-0.00717832893741
-0.000113775665878
-0.00710940527805
-0.000130262626043
-0.00703236517417
-0.000145705170366
-0.00694772532228
-0.000160112270167
-0.00685604463093
-0.000173516534678
-0.00675781444775
-0.000185931841136
-0.0066535671082
-0.00019739563018
-0.00654376421763
-0.000207925630955
-0.00642890742402
-0.000217562869477
-0.00630942547517
-0.000226327783463
-0.0061857864939
-0.00023426370254
-0.0060583845343
-0.000241392637237
-0.00592765262647
-0.000247758972966
-0.00579394952535
-0.00025338523563
-0.0056576727489
-0.000258315751972
-0.00551914619999
-0.000262572673082
-0.00537873243756
-0.000266199342177
-0.00523672180946
-0.000269216864384
-0.0050934431772
-0.000271666935309
-0.0049491551754
-0.000273569215853
-0.00480415465758
-0.000274963368268
-0.0046586706518
-0.000275867490575
-0.00451296980679
-0.000276319119206
-0.00436725359204
-0.00027633494076
-0.00422176010459
-0.000275950519264
-0.00407666502074
-0.000275181491206
-0.00393217916751
-0.000274061791702
-0.00378845371473
-0.000272606502128
-0.00364567302157
-0.000270848359912
-0.00350396451783
-0.000268802417105
-0.00336348639536
-0.000266500644216
-0.0032243426008
-0.000263958529103
-0.00308666505049
-0.000261207609436
-0.00295053410499
-0.000258264134516
-0.00281605503761
-0.000255159393635
-0.00268328431653
-0.000251910541209
-0.00255230014682
-0.000248548618522
-0.00242313481977
-0.000245091635681
-0.00229583917895
-0.000241570213368
-0.00217042124133
-0.000238002994537
-0.00204690450188
-0.000234419857954
-0.00192527296666
-0.000230839722088
-0.00180552322115
-0.0002272912989
-0.00168761596993
-0.000223793332381
-0.00157152183829
-0.000220372874865
-0.00145717947064
-0.00021704798836
-0.00134453503745
-0.000213843523414
-0.00123350691972
-0.000210776283795
-0.00112401893736
-0.000207868271966
-0.00101597161497
-0.00020513425259
-0.000909269142602
-0.00020259232877
-0.000803797055559
-0.00020025361495
-0.000699442523857
-0.000198129652098
-0.00059607623801
-0.00019622314093
-0.000493558603861
-0.000194530700257
-0.000391701919717
-0.00019303391019
-0.000290186967576
-0.000191696322353
-0.000188166416714
-0.000190439277595
-8.32918701665e-05
-0.000188419283707
-0.000173945461486
-0.000396286499057
0.0011379241281
-0.000836593683571
0.00126073144913
-0.00127504194503
0.00125605094606
-0.00170711559383
0.00123841255966
-0.00213068600179
0.00121463745519
-0.00254388327817
0.00118548034124
-0.00294500527083
0.00115143488505
-0.00333253163551
0.00111303080052
-0.00370514444178
0.00107082634379
-0.00406172610689
0.00102539252053
-0.00440136508239
0.000977292522498
-0.00472333909208
0.000927071413042
-0.00502711260627
0.000875240757925
-0.00531231137478
0.000822275291656
-0.00557871715991
0.000768602946782
-0.0058262382457
0.000714607963461
-0.00605490557425
0.000660625075903
-0.00626484246136
0.000606947423732
-0.0064562646887
0.000553822996691
-0.00662945113031
0.000501465426975
-0.00678474892007
0.000450050874556
-0.00692254544575
0.000399730133747
-0.00704327860708
0.000350624667835
-0.00714740984384
0.00030283900293
-0.00723543891683
0.000256455188778
-0.00730787727108
0.000211545015558
-0.00736526650012
0.000168162699663
-0.00740815131726
0.000126356835633
-0.00743710093195
8.61614147505e-05
-0.00745268106417
4.76076681266e-05
-0.00745547769089
1.07136594392e-05
-0.00744606778657
-2.45034243779e-05
-0.00742504497578
-5.80385943999e-05
-0.00739298889825
-8.98871508647e-05
-0.00735049233755
-0.00012005659627
-0.00729812935355
-0.000148553656983
-0.00723648391579
-0.000175396967729
-0.00716611702035
-0.00020060372597
-0.00708759661457
-0.000224202708843
-0.00700146388376
-0.000246220436779
-0.00690826437319
-0.000266694487848
-0.00680851369949
-0.000285659246259
-0.00670272969686
-0.00030315943781
-0.00659139781158
-0.000319235587515
-0.00647500412379
-0.000333937735942
-0.00635400064871
-0.000347310704828
-0.00622883899655
-0.000359407929513
-0.00609993579946
-0.000370276670469
-0.00596770680396
-0.000379971921767
-0.00583253260223
-0.000388541669633
-0.00569479287162
-0.000396040808143
-0.00555483258477
-0.000402516575124
-0.00541299615233
-0.000408022428594
-0.00526959424619
-0.000412603747983
-0.00512493753714
-0.000416311594705
-0.0049793042653
-0.000419188788947
-0.00483297332037
-0.000421283494083
-0.00468619266161
-0.000422635730394
-0.00453921144778
-0.000423290691241
-0.00439224942245
-0.000423285768144
-0.00424552787739
-0.000422663518359
-0.00409924010398
-0.000421459226449
-0.00395358096166
-0.000419713416698
-0.00380871852401
-0.000417459989923
-0.00366482211473
-0.000414738192125
-0.00352203527181
-0.000411581328717
-0.00338050211578
-0.000408028091468
-0.00324034178117
-0.000404111875987
-0.00310167306493
-0.000399871399061
-0.00296459045978
-0.000395340625402
-0.00282918702573
-0.000390558613406
-0.00269553216688
-0.000385560086119
-0.00256369272616
-0.000380384476233
-0.00243371261498
-0.000375067162897
-0.00230563211113
-0.000369647694414
-0.00217946944011
-0.000364161734181
-0.00205523828878
-0.00035864846158
-0.00193293139757
-0.000353143253604
-0.00181253627571
-0.000347684264349
-0.00169402085078
-0.000342305878086
-0.00157734739085
-0.000337044474558
-0.00146246022473
-0.00033193266808
-0.00134929785241
-0.000327004255799
-0.00123778273479
-0.000322289250954
-0.001127831568
-0.00031781799626
-0.0010193470701
-0.000313616958089
-0.000912226265581
-0.000309711948858
-0.000806353927131
-0.000306124609656
-0.000701608049977
-0.000302874666269
-0.000597852977061
-0.00029997726023
-0.000494937915666
-0.000297445227427
-0.000392680745851
-0.000295290223901
-0.000290844709636
-0.000293531438218
-0.000189121325113
-0.000292163152261
-8.7661955489e-05
-0.000289879480117
-0.000261607449224
-0.000402490120293
0.00154044374198
-0.000848914629687
0.00170718743049
-0.00129346423916
0.00170063212832
-0.00173139664653
0.00167637663467
-0.00216044685466
0.00164371928812
-0.00257865507778
0.00160372030946
-0.00298426097231
0.00155707247871
-0.00337571279217
0.00150451447325
-0.00375167906544
0.00144682440615
-0.0041110485608
0.00138479398388
-0.00445292733289
0.00131920317094
-0.00477662516741
0.00125080131508
-0.00508164305908
0.00118029057986
-0.00536765227461
0.00110831663547
-0.00563447829773
0.00103546090704
-0.0058820778669
0.000962239662025
-0.00611052391032
0.000889102986598
-0.00631998406592
0.000816439629363
-0.00651070917645
0.000744579819534
-0.00668301492098
0.000673803045881
-0.00683727473138
0.000604342132303
-0.00697390474269
0.000536391733102
-0.00709336086998
0.000470111867751
-0.00719612646314
0.000405635779423
-0.00728271270019
0.000343071996149
-0.00735364800575
0.000282510974894
-0.00740948078832
0.000224025432037
-0.00745076972082
0.000167675768247
-0.0074780879789
0.000113508873523
-0.00749201372572
6.156263706e-05
-0.00749313534454
1.18636162963e-05
-0.00748204145886
-3.55689837533e-05
-0.00745932682535
-8.07258733838e-05
-0.00742558227875
-0.000123604380127
-0.00738140102512
-0.000164211574055
-0.00732736819858
-0.000202560271466
-0.00726406752792
-0.000238672535638
-0.00719207074162
-0.000272575491279
-0.00711194472975
-0.000304304859334
-0.00702424087826
-0.000333900528155
-0.00692950273538
-0.000361410077023
-0.00682825539678
-0.000386884143077
-0.00672101368501
-0.000410379942677
-0.0066082716975
-0.000431956491892
-0.00649051147218
-0.000451678137187
-0.00636819277445
-0.000469609705643
-0.00624176219839
-0.000485820073891
-0.00611164325131
-0.000500377317514
-0.00597824580772
-0.000513352332242
-0.00584195651691
-0.00052481405584
-0.00570314850871
-0.000534833163379
-0.00556217213587
-0.000543477421509
-0.00541936480803
-0.000550815462099
-0.00527504205209
-0.000556912327473
-0.00512950733997
-0.000561833327745
-0.00498304344351
-0.000565639816866
-0.00483592211232
-0.00056839311575
-0.00468839568486
-0.000570150546321
-0.00454070647782
-0.000570969394657
-0.0043930786262
-0.000570903203307
-0.00424572706224
-0.000570005720454
-0.00409884956474
-0.0005683274352
-0.00395263523344
-0.000565919451108
-0.00380725675962
-0.000562830228669
-0.00366287833899
-0.000559109306693
-0.00351964819657
-0.000554804214648
-0.003377705917
-0.000549963975166
-0.00323717528843
-0.000544636149721
-0.003098171063
-0.000538870063633
-0.00296079219501
-0.000532713965645
-0.00282512806279
-0.000526217942409
-0.00269125218654
-0.000519431187167
-0.00255922795503
-0.000512404588943
-0.00242910289647
-0.000505188124898
-0.00230091394779
-0.000497833131559
-0.00217468234117
-0.000490389844812
-0.0020504184484
-0.000482909370207
-0.0019281173221
-0.000475441400977
-0.00180776313067
-0.000468035910975
-0.0016893253772
-0.000460741078142
-0.00157276293288
-0.000453604721123
-0.00145802093404
-0.000446672449746
-0.00134503440157
-0.000439988860024
-0.00123372579296
-0.000433595922907
-0.00112400816441
-0.000427533944869
-0.00101578328983
-0.000421840199909
-0.000908944203935
-0.000416549670366
-0.000803373586805
-0.000411693970152
-0.000698945216309
-0.000407302067417
-0.000595521778914
-0.000403399901745
-0.000492953857067
-0.000400012168392
-0.000391077615233
-0.000397165506893
-0.000289718844942
-0.000394890164696
-0.000188747345875
-0.000393134618869
-8.86528626426e-05
-0.000389974218766
-0.000350260820406
-0.000410488676946
0.00195096189375
-0.000865402334745
0.00216213252158
-0.00131821615001
0.0021534775038
-0.00176399582374
0.00212218793296
-0.00220034137735
0.00208009647636
-0.00262518782025
0.00202859845871
-0.00303670159725
0.00196861798435
-0.00343328925555
0.00190113395479
-0.00381360492612
0.00182717192325
-0.00417654799271
0.00174776900062
-0.00452125423352
0.00166394137074
-0.00484707940419
0.00157665854624
-0.00515358019104
0.00148682341244
-0.00544049105636
0.00139525963175
-0.00570770213044
0.00130270406015
-0.0059552355774
0.00120980524736
-0.00618322549688
0.00111712494843
-0.00639189758056
0.00102514377607
-0.00658155353855
0.000934267688871
-0.00675255546039
0.000844836855049
-0.00690531527187
0.000757133620776
-0.00704028360546
0.000671391665376
-0.00715794357943
0.000587803163348
-0.00725880315579
0.000506526543526
-0.00734339204032
0.000427691726179
-0.00741225627388
0.000351405858628
-0.00746595702153
0.000277756418146
-0.00750506629193
0.000206815024057
-0.00753016666402
0.000138638755297
-0.00754184737753
7.32725456629e-05
-0.00754070443842
1.07493306602e-05
-0.00752733639185
-4.89087469096e-05
-0.00750234478879
-0.000105689793477
-0.00746632992051
-0.000159591990036
-0.00741989107256
-0.000210623818326
-0.00736362230167
-0.00025880290623
-0.00729811272208
-0.000304156676628
-0.0072239423276
-0.000346720956165
-0.00714168250086
-0.000386540494022
-0.00705189198855
-0.000423667387251
-0.00695511772527
-0.000458161452213
-0.00685189106071
-0.000490088486105
-0.00674272894894
-0.000519520522102
-0.00662813049918
-0.000546533991484
-0.00650857856403
-0.000571209922859
-0.00638453664814
-0.000593632067758
-0.0062564508792
-0.000613887097701
-0.0061247472827
-0.00063206276627
-0.00598983410876
-0.000648248163004
-0.00585209945129
-0.000662531967537
-0.00571191386243
-0.000675002803684
-0.00556962827594
-0.000685747645729
-0.0054255768373
-0.000694852317345
-0.00528007506642
-0.000702400088977
-0.005133422796
-0.000708472346584
-0.00498590249748
-0.000713147415523
-0.00483778222735
-0.000716501413282
-0.00468931402735
-0.000718607302709
-0.00454073676219
-0.000719535911186
-0.00439227451663
-0.000719355198164
-0.0042441392386
-0.00071813140325
-0.00409652907034
-0.000715928475965
-0.00394963072499
-0.000712809284835
-0.00380361772628
-0.000708835147483
-0.00365865249856
-0.000704067026409
-0.00351488452142
-0.000698565082173
-0.0033724521386
-0.000692389778132
-0.00323148067308
-0.000685601397314
-0.00309208400456
-0.000678261000034
-0.00295436270894
-0.000670429858474
-0.00281840546061
-0.000662170232282
-0.00268428727431
-0.000653544709699
-0.00255207080292
-0.000644616797818
-0.00242180474991
-0.000635450177738
-0.00229352511437
-0.00062610912518
-0.00216725383202
-0.000616657711392
-0.00204300001172
-0.000607160085984
-0.00192075883893
-0.000597679657999
-0.00180051282118
-0.000588279274089
-0.00168223097246
-0.00057902041895
-0.00156587007452
-0.000569963320327
-0.00145137413753
-0.000561166197549
-0.00133867565999
-0.000552685317253
-0.00122769534042
-0.000544574316692
-0.00111834329153
-0.000536884231787
-0.00101051893095
-0.000529662924103
-0.00090411203162
-0.000522955128743
-0.000799002669681
-0.000516802087582
-0.000695061887107
-0.000511241774888
-0.000592151629721
-0.000506309174963
-0.000490125724057
-0.000502037439217
-0.000388831404716
-0.000498458913998
-0.000288118811868
-0.000495601559327
-0.000187889945949
-0.000493364000441
-8.86114527591e-05
-0.000489253639591
-0.000438872237591
-0.000420658991554
0.00237165032179
-0.00088659904486
0.00262810392778
-0.00135009179112
0.00261700178972
-0.00180596227791
0.0025780899961
-0.00225164723577
0.00252581306031
-0.0026849539258
0.00246193682252
-0.00310395994442
0.00238765574538
-0.00350702266869
0.00230422848568
-0.00389278354632
0.00221296468612
-0.00426016151591
0.00211517892198
-0.00460833762354
0.00201214950614
-0.00493673276947
0.00190508577459
-0.00524498158831
0.00179510437169
-0.00553290415478
0.00168321437122
-0.00580047803921
0.00157031014627
-0.00604781145313
0.00145717086134
-0.00627511923049
0.00134446491145
-0.00648270138326
0.00123275807112
-0.00667092537041
0.00112252375291
-0.00684021105993
0.00101415452705
-0.00699101923228
0.000907973649064
-0.00712384213585
0.000804246275834
-0.00723919692588
0.000703189469299
-0.00733762022937
0.000604981153686
-0.00741966482697
0.000509767369279
-0.00748589655822
0.000417668366484
-0.00753689270331
0.000328783010107
-0.00757323987625
0.000243192313766
-0.00759553298861
0.000160961584533
-0.00760437327303
8.21421579447e-05
-0.00760036733803
6.77225774967e-06
-0.00758412456865
-6.51231018367e-05
-0.00755625629169
-0.000133530188125
-0.00751737312345
-0.000198447773475
-0.00746808356802
-0.000259886574756
-0.0074089913763
-0.000317868841318
-0.00734069413389
-0.000372428297686
-0.0072637806521
-0.000423609395166
-0.00717882972975
-0.000471467047885
-0.00708640773154
-0.000516065627
-0.0069870676464
-0.000557478487018
-0.0068813469656
-0.000595786748683
-0.00676976712124
-0.00063107867918
-0.00665283173352
-0.000663448340987
-0.00653102646414
-0.000692994902288
-0.00640481765934
-0.000719821239449
-0.00627465262029
-0.000744033258525
-0.00614095863766
-0.000765738530342
-0.00600414364739
-0.00078504569099
-0.00586459562369
-0.000802063182949
-0.00572268356782
-0.000816898799
-0.00557875720516
-0.000829658591704
-0.00543314822817
-0.000840446612106
-0.00528617021827
-0.000849364042846
-0.00513812004668
-0.000856509174479
-0.00498927792529
-0.000861976797991
-0.00483990885038
-0.000865858435445
-0.00469026267565
-0.000868242001853
-0.0045405754847
-0.000869212279262
-0.00439106958629
-0.000868850820669
-0.00424195471488
-0.000867236615258
-0.00409342787042
-0.000864446173642
-0.00394567428032
-0.000860554303487
-0.00379886704671
-0.000855634287121
-0.00365316784629
-0.000849758666355
-0.00350872639142
-0.000842999417241
-0.00336568089085
-0.000835428648399
-0.00322415737409
-0.000827118688722
-0.00308426997195
-0.000818142623566
-0.00294612017954
-0.000808574241638
-0.00280979703574
-0.000798488370396
-0.00267537641122
-0.000787960663518
-0.00254292116757
-0.000777067732156
-0.00241248054712
-0.000765886788659
-0.00228409037905
-0.000754495601328
-0.00215777262964
-0.000742972031856
-0.00203353570156
-0.000731393857078
-0.00191137417809
-0.000719838247005
-0.00179126923825
-0.000708381502302
-0.00167318860652
-0.000697098517834
-0.00155708708826
-0.000686062479142
-0.00144290671518
-0.000675344349266
-0.00133057738694
-0.000665012560447
-0.00122001718363
-0.000655132555326
-0.00111113307752
-0.000645766507951
-0.00100382136299
-0.000636972956781
-0.000897968379605
-0.000628806608793
-0.000793451000979
-0.000621318138838
-0.000690137430651
-0.000614554248409
-0.000587887982115
-0.000608557748006
-0.000486556255784
-0.000603367980228
-0.000385992594873
-0.000599021471431
-0.000286051370994
-0.000595542747305
-0.000186626560507
-0.000592788607284
-8.81402923141e-05
-0.000587740004162
-0.000527013036143
-0.000433264827256
0.00280494453667
-0.000912936142578
0.00310780658602
-0.00138970136177
0.00309379847796
-0.00185807005132
0.0030464902287
-0.00231527168884
0.00298304627837
-0.0027589561725
0.00290565296102
-0.00318709538931
0.00281582668022
-0.0035979925626
0.00271515747224
-0.00399028259961
0.00260528660885
-0.00436291883203
0.00248784714254
-0.00471514930328
0.00236441203097
-0.00504648565535
0.00223645427522
-0.00535666835971
0.00210531927089
-0.00564563071168
0.00197220899062
-0.00591346435782
0.00183817607429
-0.00616038744114
0.00170412626421
-0.00638671690518
0.00157082666842
-0.00659284483897
0.00143891828854
-0.00677921949782
0.00130893061803
-0.00694633014347
0.00118129731414
-0.0070946958787
0.00105637139226
-0.00722485730591
0.000934439582781
-0.00733737104685
0.000815734894558
-0.00743280591155
0.000700447507236
-0.00751174078963
0.000588733477745
-0.00757476315573
0.000480721696954
-0.00762246838538
0.000376518880818
-0.00765545895703
0.00027621319141
-0.00767434389294
0.000179876440747
-0.0076797376893
8.75654693159e-05
-0.0076722595361
-6.76828479375e-07
-0.00765253131907
-8.48227246047e-05
-0.00762117618623
-0.000164857232806
-0.00757881681823
-0.00024077958621
-0.00752607325147
-0.000312603142093
-0.0074635606671
-0.000380355010137
-0.00739188737004
-0.000444075776459
-0.00731165258782
-0.000503818987932
-0.00722344457168
-0.000559650507719
-0.00712783862906
-0.000611647677836
-0.00702539551848
-0.000659898365769
-0.00691665984634
-0.000704499882403
-0.00680215885255
-0.00074555781527
-0.00668240124127
-0.000783184807245
-0.00655787640367
-0.000817499287265
-0.00642905370293
-0.000848624212852
-0.00629638213398
-0.000876685798389
-0.00616029004795
-0.000901812316003
-0.00602118522288
-0.000924132911304
-0.00587945498562
-0.000943776541522
-0.00573546663851
-0.000960870955131
-0.00558956791348
-0.000975541840741
-0.00544208767969
-0.000987912042067
-0.00529333663851
-0.000998100978748
-0.00514360820736
-0.0010062241524
-0.00499317934142
-0.00101239288532
-0.00484231147321
-0.00101671415046
-0.00469125133178
-0.00101929063632
-0.00454023180804
-0.00102022089135
-0.00438947264775
-0.00101959968103
-0.00423918113298
-0.00101751839055
-0.00408955255171
-0.00101406558979
-0.00394077062059
-0.00100932759343
-0.00379300768206
-0.00100338911754
-0.0036464248509
-0.000996333874495
-0.00350117194488
-0.000988245191455
-0.00335738738894
-0.000979206519246
-0.00321519793744
-0.000969301903096
-0.00307471841656
-0.000958616315468
-0.00293605132827
-0.00094723590687
-0.00279928652965
-0.000935248116956
-0.00266450082022
-0.000922741684467
-0.00253175765755
-0.000909806539892
-0.00240110681682
-0.000896533596091
-0.0022725842195
-0.00088301446087
-0.00214621173005
-0.000869341061111
-0.00202199714772
-0.000855605233796
-0.0018999341752
-0.000841898245263
-0.00178000259276
-0.000828310320898
-0.00166216840931
-0.000814930119569
-0.00154638421749
-0.000801844254335
-0.0014325895166
-0.000789136770902
-0.00132071122934
-0.000776888700249
-0.00121066417166
-0.000765177581979
-0.00110235169929
-0.000754077084043
-0.000995666292106
-0.000743656609518
-0.000890490293532
-0.000733981026362
-0.000786696644605
-0.000725110420877
-0.000684149710765
-0.000717099955116
-0.000582706395329
-0.000709999906419
-0.000482217918345
-0.000703855726572
-0.000382531504186
-0.000698706836519
-0.000283496065788
-0.000694576681766
-0.000184993824275
-0.000691291278919
-8.74123306629e-05
-0.000685322360683
-0.000614425195445
-0.000448584506015
0.00325355836179
-0.000944949821568
0.00360420308687
-0.00143781703863
0.00358669711527
-0.00192129257128
0.00352999721889
-0.00239234443804
0.00345412968364
-0.00284843029834
0.00336177042015
-0.00328739898793
0.00325482706992
-0.00370749838135
0.00313528864853
-0.00410736927454
0.00300518940176
-0.00448602247477
0.00286653232888
-0.00484280326086
0.00272122492022
-0.00517734829743
0.00257103148898
-0.00548953922389
0.00241754247533
-0.00577945683134
0.00226215892484
-0.00604733829103
0.00210608993131
-0.00629353944234
0.00195035982425
-0.00651850279502
0.00179582245679
-0.00672273172301
0.00164317961704
-0.00690677035321
0.0014930016221
-0.00707118880045
0.00134574804513
-0.00721657279202
0.0012017875782
-0.00734351705444
0.00106141588934
-0.00745262147592
0.000924871202821
-0.00754448941142
0.000792347114805
-0.00761972731356
0.000664002822126
-0.00767894516871
0.000539970714323
-0.00772275718899
0.00042036176085
-0.00775178241069
0.000305268927387
-0.00776664496325
0.000194769132712
-0.00776797383341
8.8924068818e-05
-0.00775640187506
-1.22195036893e-05
-0.00773256514336
-0.000108630646871
-0.0076971009565
-0.000200293124659
-0.00765064586016
-0.000287206914839
-0.00759383361291
-0.000369388192591
-0.00752729282785
-0.000446869172421
-0.00745164473591
-0.000519697866517
-0.00736750083972
-0.000587937495012
-0.00727546084207
-0.000651665778166
-0.00717611054532
-0.000710973892123
-0.00707002013516
-0.000765965388889
-0.00695774247638
-0.000816754822339
-0.0068398118601
-0.000863466432214
-0.00671674277016
-0.000906232582496
-0.00658902913317
-0.000945192345674
-0.00645714357318
-0.000980489887145
-0.00632153715922
-0.00101227307037
-0.00618263912899
-0.00104069189885
-0.00604085709691
-0.00106589724044
-0.00589657720226
-0.00108803942208
-0.00575016471965
-0.00110726716062
-0.00560196456415
-0.00112372639644
-0.0054523022185
-0.00113755951119
-0.00530148449862
-0.0011489044813
-0.00514980068213
-0.00115789445377
-0.0049975234076
-0.00116465728084
-0.00484490986023
-0.00116931549448
-0.00469220265644
-0.00117198624425
-0.00453963093332
-0.00117278166151
-0.00438741107355
-0.00117180916303
-0.00423574756075
-0.00116917213155
-0.00408483343156
-0.00116497048633
-0.00393485080655
-0.00115930155064
-0.00378597101465
-0.00115226074298
-0.00363835477499
-0.00114394246945
-0.00349215200808
-0.00113444077584
-0.00334750171373
-0.00112385010817
-0.00320453154638
-0.00111226578836
-0.00306335748688
-0.00109978452561
-0.00292408329842
-0.00108650463087
-0.00278680011523
-0.00107252622418
-0.00265158590406
-0.00105795116689
-0.00251850508794
-0.00104288297205
-0.00238760811903
-0.00102742649012
-0.00225893122741
-0.00101168757782
-0.00213249617676
-0.000995772606493
-0.00200831019168
-0.000979787967538
-0.00188636592947
-0.000963839482741
-0.00176664160527
-0.000948031825264
-0.00164910118297
-0.000932467902904
-0.00153369469357
-0.000917248260941
-0.00142035862673
-0.000902470493713
-0.00130901642343
-0.000888228680252
-0.00119957903773
-0.000874612864918
-0.00109194557523
-0.000861708565111
-0.00098600399709
-0.00084959635395
-0.000881631885596
-0.000838351472756
-0.000778697277469
-0.000828043533341
-0.000677059667174
-0.000818736302746
-0.000576571131176
-0.000810487414106
-0.000477077356956
-0.000803348070648
-0.000378420233623
-0.000797362654975
-0.000280441498638
-0.000792555339737
-0.00018300910389
-0.000788723218693
-8.64877511237e-05
-0.000781843541234
-0.000700913400386
-0.000466956774155
0.00372054435302
-0.000983322342748
0.00412059983405
-0.00149542779883
0.00409883385188
-0.00199687267317
0.00403147348094
-0.00248429924394
0.003941587694
-0.00295493328381
0.00383243600244
-0.00340648446208
0.00370640988021
-0.003837150026
0.00356598597184
-0.00424559862587
0.00341366986492
-0.00463093288742
0.00325189859169
-0.0049926375558
0.0030829616889
-0.00533051976657
0.00290894593109
-0.00564464768146
0.00273170270073
-0.00593529180382
0.00255283546522
-0.00620287247747
0.00237370306892
-0.0064479150185
0.00219543489899
-0.00667101350594
0.00201895347997
-0.0068728026845
0.00184500135095
-0.00705393761941
0.00167416906111
-0.00721507970004
0.00150692258967
-0.00735688819644
0.0013436284275
-0.00748001585678
0.00118457579476
-0.00758510778819
0.00102999520327
-0.00767280230587
0.000880073521084
-0.00774373317396
0.000734965335476
-0.0077985322223
0.00059480115183
-0.0078378320015
0.000459692617444
-0.00786226783446
0.00032973550682
-0.00787247920487
0.000205010871262
-0.00786911020616
8.55850316924e-05
-0.00785280886816
-2.84913258657e-05
-0.00782422697054
-0.000137183509511
-0.00778401769437
-0.000240473872832
-0.00773283367696
-0.000338362948578
-0.00767132466467
-0.000430869779597
-0.00760013501172
-0.000518031999163