/*--------------------------------*- C++ -*----------------------------------*\
| =========                 |                                                 |
| \\      /  F ield         | OpenFOAM: The Open Source CFD Toolbox           |
|  \\    /   O peration     | Version:  v1906                                 |
|   \\  /    A nd           | Web:      www.OpenFOAM.com                      |
|    \\/     M anipulation  |                                                 |
\*---------------------------------------------------------------------------*/
FoamFile
{
    version     2.0;
    format      ascii;
    class       volScalarField;
    location    "536";
    object      p;
}
// * * * * * * * * * * * * * * * * * * * * * * * * * * * * * * * * * * * * * //

dimensions      [0 2 -2 0 0 0 0];


internalField   nonuniform List<scalar> 
9216
(
273.706230385
273.785995668
273.951046307
274.202787057
274.539797856
274.960491668
275.462900727
276.044714787
276.703322022
277.435846779
278.239189687
279.110064157
280.045035071
281.040551533
282.092981596
283.198639109
284.35381315
285.554788135
286.797867846
288.079389056
289.39574086
290.74337266
292.118809917
293.518657534
294.939613158
296.378466943
297.832113343
299.297548028
300.771878858
302.25232049
303.736205048
305.220974242
306.704189934
308.183525497
309.656775887
311.121846563
312.576763939
314.019662945
315.448797449
316.86252636
318.259324119
319.637765509
320.996536246
322.33441669
323.65029258
324.94313784
326.212025508
327.456109854
328.674637539
329.86692926
331.032391168
332.170496236
333.280795951
334.362901596
335.416496181
336.441315809
337.437161803
338.403882283
339.341384406
340.249616257
341.128579108
341.978309686
342.798892322
343.590441656
344.35311454
345.087093218
345.79259684
346.469865158
347.119169526
347.740797161
348.335061507
348.902287121
349.442819315
349.957009751
350.445225279
350.907834332
351.345214929
351.757741963
352.145794335
352.509743258
352.849958499
353.166797814
353.460612296
353.731737056
353.98049569
354.207192337
354.412115336
354.595530882
354.757686189
354.898805518
355.019094643
355.118743276
355.197941797
355.256934136
355.296660022
355.312726961
273.62651216
273.70663979
273.872034412
274.124777254
274.46322393
274.885712622
275.39023084
275.974431117
276.635665547
277.37102322
278.177369704
279.051385062
279.989602041
280.988440523
282.044241184
283.153294078
284.311866354
285.516224248
286.7626548
288.047481641
289.367081494
290.717894726
292.09643779
293.499309687
294.92320149
296.364899753
297.82129406
299.289378169
300.766256256
302.249142302
303.735365371
305.222367876
306.707710212
308.18906708
309.664231842
311.131112188
312.587733728
314.032234466
315.462867997
316.877997016
318.27609613
319.655744508
321.015628385
322.354532985
323.671344813
324.96504301
326.234701526
327.479480071
328.698626263
329.891466338
331.057407365
332.195927853
333.306580098
334.388980825
335.442813705
336.467820131
337.463801922
338.430612302
339.368158771
340.276394327
341.155320463
342.004978642
342.825453345
343.616863802
344.379367001
345.113149657
345.818431102
346.495455469
347.144494387
347.765839376
348.359804278
348.926717875
349.466926019
349.980784494
350.468660824
350.930927436
351.367963133
351.780146626
352.167857684
352.531471102
352.871357565
353.187878115
353.481384763
353.752215541
354.000694889
354.22712938
354.43180793
354.614998273
354.776947034
354.91787689
355.037985988
355.137443649
355.216382234
355.2748634
355.312755988
355.328797268
273.460708785
273.541984766
273.70891228
273.963960189
274.305452178
274.73168159
275.240574657
275.829716104
276.496386488
277.237602233
278.050156736
278.930660486
279.875580175
280.881274695
281.944028878
283.06008308
284.225660218
285.436988406
286.690321435
287.981955088
289.308242057
290.665603127
292.05053782
293.459631753
294.889564234
296.337112897
297.79915923
299.272691282
300.754807787
302.242719446
303.733752012
305.225346504
306.715061474
308.200572056
309.679671525
311.15026955
312.610392992
314.058183256
315.491896444
316.90989992
318.310671885
319.692797245
321.054966708
322.395972078
323.714704985
325.010151745
326.281391846
327.527592524
328.748007122
329.941969524
331.108892506
332.248262146
333.359636269
334.442638941
335.496959067
336.522345054
337.518603601
338.48559458
339.423230015
340.331469196
341.210317833
342.059823379
342.88007431
343.671195624
344.433348182
345.166724337
345.871547266
346.548066687
347.196558126
347.817318689
348.410666209
348.976935072
349.516475223
350.029648047
350.516825239
350.978384765
351.414709622
351.826183918
352.213191555
352.576112496
352.915321399
353.231184134
353.524056425
353.794280666
354.042184615
354.268078565
354.472254109
354.654981674
354.81650926
354.957060078
355.07683056
355.175986412
355.254656443
355.312915799
355.350703458
355.368475724
273.205792284
273.288355357
273.457680489
273.716333122
274.0625757
274.494625871
275.010315978
275.607125834
276.282224674
277.032515356
277.854678732
278.745216782
279.700493753
280.716773976
281.790256366
282.91710474
284.093474583
285.315535673
286.579491618
287.881595804
289.218165042
290.585590356
291.980346298
293.398998061
294.838207842
296.294739488
297.765462918
299.24735712
300.737513273
302.233136564
303.731548349
305.230186947
306.726609025
308.218489647
309.703622729
311.179920194
312.645411727
314.098243113
315.536675272
316.959081845
318.363947577
319.749865253
321.115533527
322.459753333
323.781425291
325.079545721
326.353203771
327.601577181
328.823929259
330.019604544
331.18802576
332.328689495
333.441163239
334.525081193
335.580141465
336.606102073
337.602778365
338.570039241
339.50780481
340.416042843
341.294766637
342.144031675
342.963933648
343.754605272
344.516214402
345.248960947
345.953075008
346.628813827
347.276459896
347.896317902
348.488712756
349.053986512
349.592496309
350.104611262
350.590710322
351.051179172
351.486408029
351.896788585
352.282711801
352.64456494
352.982729408
353.29757794
353.589472532
353.858761837
354.105779231
354.330840458
354.534241846
354.716258179
354.877140973
355.017116362
355.136383013
355.235109427
355.313430727
355.371443206
355.409130867
355.427257818
272.860681527
272.944893581
273.11750843
273.381115245
273.733883061
274.173918729
274.698922513
275.30622763
275.992848327
276.755529754
277.590797141
278.495002993
279.464371226
280.49503721
281.583083449
282.724570523
283.915563628
285.152154733
286.430481057
287.746740024
289.097201528
290.478217638
291.88623057
293.317778909
294.769502844
296.238148238
297.720570193
299.213735781
300.714726544
302.220740301
303.729092842
305.237218811
306.742672739
308.243129442
309.736383996
311.220351175
312.69306481
314.152676411
315.59745376
317.025778786
318.436145455
319.827156995
321.197523204
322.546057141
323.871671987
325.173377359
326.45027587
327.701559209
328.926504556
330.124470577
331.294893827
332.437284791
333.55122439
334.636360178
335.692403039
336.719123609
337.716349224
338.683960597
339.621889029
340.530113344
341.408657335
342.257586922
343.077007775
343.867062628
344.627929014
345.359816655
346.062965236
346.737641799
347.384138485
348.002769891
348.593870733
349.157793132
349.694904191
350.205583215
350.690219205
351.149208044
351.582949948
351.991846659
352.376298901
352.73670364
353.07345161
353.386924687
353.677493544
353.945515203
354.191330853
354.415263624
354.617616587
354.798670741
354.958683163
355.097885121
355.216480262
355.314642882
355.392516657
355.450213221
355.487736123
355.505912199
272.423593705
272.509897551
272.686748435
272.956742596
273.31791997
273.768236505
274.305215833
274.925996777
275.627389341
276.405932005
277.257947292
278.179594218
279.166916305
280.215884288
281.322433201
282.482493797
283.69201865
284.947003388
286.243503708
287.577648769
288.945651679
290.343817587
291.768550009
293.216355732
294.68384876
296.167753484
297.664907364
299.172263161
300.686890896
302.20597945
303.726837943
305.246896545
306.763707355
308.274944933
309.778405993
311.27200893
312.753792994
314.22191696
315.674657488
317.110407022
318.52767142
319.925067162
321.301318379
322.65525351
323.985801869
325.29198992
326.572937537
327.827854062
329.056034425
330.256855132
331.429770402
332.574308226
333.690066636
334.776709956
335.833965305
336.861619107
337.859513884
338.827545073
339.765658112
340.673845551
341.552144413
342.400633539
343.219431158
344.008692401
344.768606976
345.499396765
346.201313524
346.874636466
347.519669918
348.136740825
348.726196316
349.288401102
349.82373493
350.332589885
350.815367743
351.272477214
351.704331239
352.111344214
352.493929302
352.852495703
353.187446036
353.49917372
353.788060498
354.054473983
354.298765369
354.521267197
354.72229128
354.902126702
355.061037978
355.199263296
355.317012952
355.414468181
355.491780462
355.549070696
355.586350553
355.604452548
271.892251463
271.981146286
272.163261877
272.441194704
272.812815771
273.275883752
273.827693462
274.46513372
275.184753723
275.982829945
276.855429923
277.798471249
278.807774332
279.879108121
281.008228642
282.19091057
283.422972474
284.700296467
286.018843182
287.374662905
288.76390375
290.182817546
291.627764135
293.095214521
294.581753331
296.084080794
297.599014502
299.12349097
300.654567111
302.189421539
303.7253557
305.259794619
306.790287721
308.314509375
309.830258437
311.335457796
312.828153446
314.306513089
315.768824362
317.213492619
318.639038376
320.044094375
321.427402383
322.787809691
324.12426543
325.435816679
326.721604481
327.980859737
329.212899096
330.417120805
331.59300064
332.740087863
333.858001322
334.946425649
336.005107636
337.033852746
338.032521833
339.001028004
339.93933369
340.847447848
341.725423341
342.573354413
343.391374302
344.179652892
344.938394448
345.667835338
346.368241781
347.039907536
347.683151573
348.29831566
348.885761898
349.445870167
349.97903552
350.485665491
350.966177364
351.42099539
351.850547984
352.255264905
352.635574458
352.991900706
353.324660749
353.634262044
353.921099829
354.185554617
354.427989823
354.648749487
354.848156143
355.026508818
355.184081185
355.321119894
355.437843124
355.53443952
355.611067655
355.667854892
355.70481688
355.722779328
271.263832021
271.355875559
271.544391624
271.83196954
272.216263971
272.6947809
273.264523934
273.92206606
274.663629629
275.48516562
276.382427767
277.351039553
278.386552493
279.484495102
280.640412629
281.84989824
283.108616619
284.412321199
285.756866215
287.138214772
288.552443952
289.995747891
291.46443952
292.954951582
294.463837302
295.987771014
297.523548874
299.068089723
300.618436082
302.171755206
303.725339904
305.276609518
306.823110625
308.36251747
309.892631604
311.411381374
312.916820905
314.407128636
315.880605387
317.335672
318.770866572
320.184841322
321.576359142
322.944289866
324.287606318
325.605380187
326.896777771
328.161055647
329.397556312
330.605703834
331.784999567
332.935017948
334.055402434
335.145861591
336.206165361
337.236141535
338.235672424
339.204691747
340.143181721
341.051170338
341.928728822
342.775969221
343.593042124
344.380134448
345.137467286
345.865293757
346.563896847
347.233587197
347.874700833
348.487596805
349.072654741
349.630272292
350.160862505
350.664851085
351.142673609
351.594772658
352.02159494
352.42358837
352.801199171
353.154868993
353.485032084
353.792112519
354.076521523
354.338654889
354.578890516
354.797586075
354.995076822
355.17167356
355.327660788
355.463295028
355.578803395
355.674382596
355.750198137
355.806382714
355.842955639
355.860733874
270.534904859
270.630725137
270.826914493
271.126043039
271.525490761
272.022442759
272.613535389
273.294946534
274.062493465
274.911727892
275.838022966
276.836649793
277.902841932
279.031847504
280.21896955
281.459595818
282.749219606
284.083453338
285.458036568
286.868839906
288.3118662
289.78325002
291.279256319
292.796278854
294.330838826
295.879583962
297.439288153
299.006851611
300.579301469
302.153792658
303.727608564
305.298162236
306.862997183
308.419787688
309.966338579
311.500584674
313.020589729
314.524544848
316.010766414
317.477693518
318.923884978
320.348015939
321.748874145
323.125355917
324.476461903
325.801292642
327.099044016
328.369002627
329.610541164
330.823113796
332.006251645
333.159558385
334.28270599
335.375430678
336.43752908
337.468854629
338.469314215
339.438865076
340.37751194
341.285304386
342.162334408
343.008734149
343.824673763
344.610359364
345.366031026
346.091960783
346.788450599
347.455830274
348.094455246
348.704704297
349.286977123
349.841691786
350.369282045
350.87019457
351.344886074
351.793820359
352.217465325
352.616289941
352.990761222
353.34134123
353.668484121
353.972633264
354.254218448
354.513653202
354.751332242
354.967629053
355.162893639
355.337450437
355.491596412
355.625599379
355.739696535
355.834093303
355.908962507
355.964442484
356.00055662
356.018113017
269.701356038
269.801669439
270.006979407
270.319817852
270.737216246
271.255953231
271.872203524
272.581653056
273.379620153
274.261170708
275.221220956
276.254625108
277.356246422
278.52101196
279.743952357
281.020228712
282.345148969
283.714176215
285.122931104
286.567190358
288.042882922
289.546085045
291.073015191
292.62002947
294.183617976
295.760402228
297.347133732
298.940693541
300.538092598
302.136472611
303.733106699
305.325400965
306.910895591
308.487265026
310.052317946
311.603996739
313.140376376
314.659662725
316.160190286
317.640419407
319.09893301
320.534432898
321.945735686
323.331768431
324.691564025
326.024256405
327.329075649
328.605343013
329.852465975
331.06993332
332.257310342
333.414234186
334.540409395
335.635603675
336.699643939
337.732412619
338.733844286
339.703922562
340.642677325
341.550182183
342.426552178
343.271941691
344.0865425
344.870581922
345.624321019
346.348052774
347.042100237
347.706814551
348.342572874
348.949776141
349.528846665
350.080225583
350.60437014
351.101750841
351.572848475
352.018151055
352.438150689
352.833340415
353.204211036
353.551247969
353.874928157
354.175717046
354.454065666
354.710407833
354.945157485
355.158706175
355.351420737
355.523641127
355.675678477
355.807813334
355.920294136
356.013336056
356.087119901
356.141790017
356.177375102
356.194674153
268.758293034
268.863928391
269.080029257
269.409059775
269.847608059
270.391936903
271.037640565
271.779793144
272.613100287
273.532039797
274.530983523
275.604297535
276.746419674
277.951915639
279.215516217
280.532138919
281.896897553
283.305103012
284.752258216
286.234049577
287.746336889
289.285143029
290.846644488
292.427163377
294.023161263
295.631234944
297.24811406
298.87066025
300.495867501
302.120863282
303.742909445
305.359404305
306.967884338
308.566024175
310.151636919
311.722673649
313.277222271
314.813505678
316.329879286
317.824827964
319.29696244
320.745015232
322.167836191
323.564387715
324.933739721
326.275064439
327.587631095
328.870800552
330.124019974
331.34681756
332.538797417
333.699634616
334.829070485
335.926908181
336.993008575
338.027286481
339.029707236
340.000283648
340.939073282
341.84617607
342.721732208
343.565920273
344.378955524
345.161088302
345.912602471
346.633813844
347.325068515
347.986741067
348.619232613
349.222968633
349.798396613
350.345983471
350.866212785
351.359581856
351.826598605
352.267778376
352.683640639
353.074705663
353.441491172
353.784509031
354.104261977
354.401240448
354.67591951
354.928755922
355.160185347
355.370619741
355.560444913
355.730018299
355.87966692
356.009685589
356.120335311
356.211841956
356.284395214
356.338146451
356.373130365
356.390136298
267.699923307
267.811854181
268.040702067
268.388819139
268.852225958
269.42652773
270.106586631
270.886714994
271.760866869
272.722810632
273.766273609
274.885055819
276.073112935
277.324611308
278.633959429
279.995820922
281.405114015
282.85700196
284.346878075
285.870348297
287.42321336
289.001452133
290.601207078
292.218772478
293.850585648
295.493221154
297.143387709
298.797927316
300.453816018
302.108165668
303.758225474
305.401384821
307.035175837
308.657273203
310.265494949
311.857802033
313.432297131
314.987222644
316.520957966
318.032016086
319.519039597
320.980796189
322.416173721
323.824174955
325.203912031
326.554600776
327.875554912
329.166180241
330.425968864
331.654493511
332.851402036
334.016412134
335.14930634
336.249927367
337.318173817
338.353996296
339.357393971
340.328411547
341.267136675
342.173697731
343.048261952
343.891033829
344.702253714
345.482196539
346.231170567
346.949516106
347.637604099
348.295834534
348.924634636
349.524456795
350.095776239
350.639088426
351.154906207
351.643756758
352.106178333
352.542716881
352.953922561
353.340346201
353.702535759
354.041032796
354.356369018
354.649062918
354.919616528
355.168512328
355.396210323
355.603145294
355.789724265
355.956324166
356.103289737
356.230931626
356.339524728
356.429306889
356.50047763
356.553195931
356.587503745
356.604179885
266.519398411
266.638785828
266.882706329
267.25333387
267.745956676
268.35533603
269.075406402
269.89952912
270.820736015
271.831941927
272.926115735
274.096407706
275.336235302
276.639332891
277.999772576
279.411963631
280.870637492
282.370824106
283.907824203
285.477180751
287.07465192
288.696186995
290.337906182
291.996084746
293.667141646
295.347632433
297.034245934
298.72380392
300.413262905
302.099717008
303.780400743
305.45269305
307.114120603
308.762357763
310.395227915
312.010703117
313.60690282
315.18209166
316.734676408
318.263202162
319.766347876
321.242921331
322.691853654
324.112193478
325.503100851
326.863840977
328.193777882
329.492368068
330.759154235
331.993759142
333.195879656
334.365281083
335.501791823
336.605298429
337.675741103
338.713109698
339.717440226
340.6888119
341.627344673
342.533197255
343.406565537
344.247681341
345.056811412
345.834256532
346.580350668
347.295460048
347.979982056
348.634343904
349.259000997
349.854434968
350.421151375
350.959677057
351.47055719
351.95435206
352.411633628
352.842981921
353.248981307
353.630216716
353.987269846
354.320715405
354.631117425
354.919025684
355.18497227
355.429468309
355.653000877
355.856030123
356.038986608
356.202268872
356.346241235
356.471231853
356.577530991
356.665389563
356.735017977
356.786583959
356.820137285
356.836445215
265.20861206
265.336862838
265.598663082
265.995910424
266.522938302
267.173416121
267.940095524
268.815146262
269.790467691
270.857950446
272.009676971
273.238060687
274.53592948
275.896563241
277.313696711
278.78149856
280.294536092
281.847733004
283.436325493
285.05582033
286.701957033
288.37067546
290.058089417
291.760466621
293.474214914
295.195874369
296.922114465
298.649735213
300.375670902
302.096994324
303.810922533
305.514822031
307.206212028
308.882765978
310.542312954
312.182837409
313.802477772
315.399523967
316.972413941
318.519729362
320.04019056
321.532650882
322.996090544
324.429610133
325.832423844
327.203852588
328.543317023
329.850330618
331.124492804
332.365482294
333.573050632
334.747016064
335.887257789
336.993710683
338.066360552
339.105239979
340.110424789
341.082031164
342.02021336
342.925162015
343.797102943
344.636296332
345.44303622
346.217650118
346.960498646
347.671975059
348.352504533
349.002543142
349.622576433
350.213117585
350.774705119
351.307900196
351.813283518
352.291451912
352.743014638
353.168589507
353.568798868
353.944265529
354.29560868
354.623439851
354.928358964
355.210950516
355.471779916
355.711390014
355.930297836
356.128991554
356.307927695
356.467528599
356.608180138
356.730229681
356.8339843
356.919709383
356.987627256
357.037914984
357.070631394
357.086530962
263.757936179
263.896782833
264.179905127
264.60877758
265.176474351
265.875238695
266.696303695
267.630339922
268.667855044
269.799514876
271.016374854
272.310025842
273.6726661
275.09711578
276.576791134
278.105653913
279.678148411
281.289135201
282.93382747
284.607733367
286.306606107
288.026402479
289.763250024
291.513422819
293.273325716
295.039486412
296.808554257
298.577304104
300.342643303
302.101618422
303.851424643
305.589412652
307.313091957
309.020134097
310.708374062
312.375810095
314.02060209
315.641068702
317.235683364
318.80306934
320.341993983
321.851362323
323.330210157
324.77769676
326.19309737
327.575795545
328.925275505
330.24111452
331.522975419
332.770599301
333.983798506
335.162449946
336.306488883
337.415903251
338.490728606
339.531043786
340.536967331
341.508654672
342.446296088
343.350115367
344.220369075
345.057346321
345.861368841
346.632791268
347.372001377
348.079420178
348.755501681
349.400732248
350.015629417
350.600740192
351.156638756
351.683923664
352.183214555
352.655148464
353.100375816
353.519556204
353.913354017
354.282434011
354.627456891
354.949074946
355.247927802
355.524638326
355.779808712
356.014016792
356.22781257
356.421715031
356.596209203
356.751743514
356.888727402
357.00752924
357.108474496
357.191844185
357.257873667
357.306750509
357.338543082
357.353991778
262.155871521
262.307484941
262.616219872
263.082907537
263.698938835
264.454675051
265.339385134
266.341845771
267.450854257
268.655619132
269.94602028
271.312750385
272.747359794
274.242231335
275.790510667
277.386013635
279.023126545
280.69670983
282.402010992
284.134589395
285.890253443
287.665009788
289.455024017
291.256592546
293.066125452
294.880139672
296.695261037
298.508232781
300.315927543
302.11535849
303.903692461
305.678259689
307.436557149
309.17625309
310.895188587
312.591377275
314.263003373
315.908418245
317.526135725
319.114826407
320.673311044
322.200553253
323.695651669
325.15783176
326.586437422
327.980922517
329.340842423
330.665845684
331.955665806
333.210113283
334.429067898
335.612471434
336.760320874
337.872662241
338.949585168
339.991218334
340.997725796
341.969304299
342.906181504
343.808615104
344.676892696
345.511332249
346.312282982
347.080126429
347.815277468
348.518185114
349.189332889
349.829238614
350.438453541
351.017560766
351.567172932
352.087929259
352.580491988
353.045542339
353.483776113
353.895899028
354.282621924
354.644655914
354.982707565
355.297474161
355.589639119
355.859867577
356.108802207
356.337059269
356.545224946
356.733851956
356.903456488
357.05451542
357.187463874
357.302693038
357.400548291
357.481327752
357.545280866
357.592606262
357.623383102
357.638336207
260.388579045
260.555729362
260.895518065
261.407797719
262.081676609
262.905005169
263.864492996
264.946515767
266.13777154
267.425748757
268.799005345
270.247285096
271.761510048
273.333690685
274.956791287
276.624579297
278.331478157
280.07243474
281.842806048
283.638265646
285.454728147
287.288289529
289.135181706
290.991740816
292.854389376
294.719632081
296.584063445
298.444383763
300.297418739
302.140137266
303.969669462
305.783319095
307.578566959
309.353076387
311.104694799
312.831453154
314.531563411
316.203414285
317.845565708
319.456742165
321.035825095
322.581844499
324.093970026
325.571501707
327.013860554
328.420579163
329.791292414
331.125728309
332.423699003
333.685092047
334.909861944
336.098022113
337.249637399
338.364817312
339.443710127
340.486498004
341.493393231
342.464635641
343.400491193
344.301251651
345.167235216
345.998787893
346.796285366
347.560135086
348.290778283
348.988691647
349.654388431
350.288418797
350.891369294
351.4638614
352.006549165
352.520116003
353.005270766
353.462743243
353.893279231
354.297635353
354.676573728
355.030856629
355.361241199
355.668474299
355.953287534
356.216392496
356.458476265
356.680197199
356.882181027
357.065017286
357.229256081
357.375405215
357.50392763
357.615239219
357.709706923
357.787647137
357.849324514
357.894949923
357.924613765
357.939023745
258.439240894
258.625533887
259.003403819
259.571207361
260.31490823
261.218969725
262.266743124
263.441553001
264.727530232
266.110158244
267.576548076
269.115493132
270.717368831
272.373941728
274.078141197
275.823831117
277.605603733
279.418605687
281.258397532
283.120843166
285.002023563
286.898169716
288.805611686
290.720743372
292.64000441
294.559880449
296.476919742
298.387760977
300.289163779
302.178037594
304.051465508
305.906716964
307.74125255
309.552729042
311.339000709
313.098118346
314.828325814
316.528054704
318.195917668
319.830700676
321.431354183
322.996983472
324.526838425
326.020303015
327.476884751
328.89620426
330.277985071
331.622043616
332.928279427
334.196665542
335.427239189
336.620092868
337.775366025
338.893237519
339.973919121
341.017650227
342.024693938
342.99533461
343.929876856
344.828645932
345.691989325
346.52027927
347.313915896
348.073330615
348.798989383
349.491395503
350.151091638
350.778660828
351.374726365
351.939950457
352.475031734
352.980701697
353.457720276
353.90687071
354.328953955
354.724782829
355.095176055
355.440952327
355.762924508
356.061893996
356.338645328
356.593941037
356.828516823
357.043077032
357.238290514
357.414786839
357.573152924
357.713930025
357.837611141
357.944638749
358.035402893
358.110239738
358.16943018
358.213197828
358.24164559
358.255462302
256.287173261
256.497405338
256.922613703
257.558844795
258.387658397
259.388899192
260.541486095
261.824864881
263.220049477
264.710232036
266.281007724
267.92030592
269.618134841
271.366237377
273.157731625
274.986782017
276.848323483
278.737843869
280.651219261
282.584591422
284.534275594
286.496688993
288.468294967
290.445563223
292.424950807
294.402908906
296.375913355
298.340511127
300.293367571
302.231312015
304.151367398
306.050760528
307.926927974
309.777518548
311.600394367
313.393629411
315.155504704
316.884501318
318.57929239
320.238734147
321.861855686
323.447847738
324.996050892
326.505943581
327.977130218
329.409329674
330.802364138
332.156148267
333.470678552
334.746022808
335.982309862
337.17971958
338.338473484
339.458826247
340.541058393
341.585470447
342.592378783
343.562113294
344.495016906
345.391446844
346.251777429
347.076404073
347.865748046
348.620261532
349.340432491
350.026788868
350.679901753
351.300387206
351.888906582
352.446165289
352.972910051
353.469924847
353.938025755
354.378055006
354.790874531
355.177359268
355.538390447
355.874848977
356.187609053
356.477531999
356.745460409
356.992212593
357.218577363
357.425309207
357.613123859
357.782694315
357.934647287
358.069560112
358.187958071
358.290312156
358.377037165
358.448490165
358.504969373
358.546712286
358.573834711
358.58700479
253.906568122
254.147277618
254.632282272
255.35400917
256.287744193
257.406974463
258.684746824
260.095588821
261.616777001
263.228967391
264.916284919
266.666029295
268.468169886
270.314775595
272.19947744
274.117015399
276.062886117
278.033085975
280.023931949
282.031938193
284.053726998
286.0859578
288.125266282
290.16821627
292.211275997
294.250833474
296.283248321
298.304928012
300.312403664
302.302396014
304.271852487
306.217951708
308.138103438
310.029947622
311.891355802
313.720429782
315.515494532
317.275088586
318.99795457
320.683029174
322.32943127
323.936448765
325.503524888
327.030244366
328.516320027
329.961580154
331.365956457
332.729472478
334.052232153
335.33440836
336.576231443
337.777977953
338.939959919
340.06251508
341.145998503
342.190775971
343.197219462
344.165704916
345.096612356
345.990328256
346.847249882
347.667791164
348.452389566
349.20151329
349.91566818
350.59540373
351.241317666
351.854058762
352.43432766
352.982875663
353.500501598
353.988047007
354.446389995
354.876438176
355.279121093
355.65538249
356.006172683
356.332441183
356.635129651
356.915165196
357.173454012
357.410875382
357.62827606
357.826465084
358.006209063
358.168227956
358.313191376
358.441715399
358.554359879
358.651626189
358.733955378
358.801726841
358.855257059
358.894797814
358.920479061
358.932946172
251.264664903
251.54501739
252.106982628
252.937207996
254.00189082
255.265707197
256.693921212
258.254867408
259.921432479
261.671612515
263.488319369
265.358697054
267.273225307
269.224825529
271.208091598
273.218692979
275.252949294
277.307549848
279.379380932
281.465421923
283.562675092
285.668102647
287.778558631
289.89072231
292.001058367
294.105842547
296.201246638
298.28346365
300.348830616
302.39392502
304.415605879
306.411003396
308.377501015
310.31272922
312.214570852
314.081162119
315.910881084
317.7023333
319.454341135
321.165933532
322.836332172
324.464935739
326.051303833
327.595140802
329.096280572
330.554672902
331.97037068
333.343517801
334.674337112
335.963117964
337.210203419
338.415977341
339.580851944
340.705256326
341.789626645
342.834398419
343.840001451
344.806857638
345.7353818
346.625985425
347.479082968
348.29510017
349.074483626
349.817710788
350.525299502
351.197816302
351.835882792
352.440179642
353.011447967
353.550488043
354.058155535
354.535355594
354.983035325
355.40217521
355.793780077
356.158870062
356.49847192
356.813610799
357.10530253
357.374546352
357.622318055
357.849563497
358.057192548
358.24607351
358.417028072
358.570826857
358.708185566
358.829761728
358.936151995
359.027889987
359.105444547
359.169218385
359.219547188
359.25669806
359.280815396
359.292519634
248.319015925
248.652289783
249.315487862
250.285814097
251.516097219
252.958781174
254.568863084
256.306981092
258.141034586
260.046496669
262.005691155
264.006457398
266.040653419
268.102812431
270.18908887
272.296513702
274.422518916
276.564668644
278.72053052
280.887625374
283.063401194
285.245189831
287.430125301
289.615035634
291.796357216
293.970173063
296.132350002
298.278746193
300.405418653
302.508761883
304.585542645
306.632858524
308.648072906
310.628804232
312.572947079
314.478682092
316.344453623
318.168945395
319.951070428
321.689963555
323.384964708
325.035599337
326.641559376
328.202683899
329.718941732
331.190416926
332.617295774
333.999854678
335.338447828
336.633493805
337.885461159
339.094853412
340.262194276
341.388013933
342.472837215
343.517174402
344.521515288
345.486326923
346.412055274
347.299130664
348.147976605
348.959021261
349.73271057
350.469521871
351.169976871
351.834652876
352.464191421
353.059303707
353.620772564
354.149450931
354.646257098
355.112167229
355.548205863
355.955435286
356.334944555
356.68783886
357.015229598
357.318225278
357.597923165
357.855401501
358.091712134