/*--------------------------------*- C++ -*----------------------------------*\
| =========                 |                                                 |
| \\      /  F ield         | OpenFOAM: The Open Source CFD Toolbox           |
|  \\    /   O peration     | Version:  v1906                                 |
|   \\  /    A nd           | Web:      www.OpenFOAM.com                      |
|    \\/     M anipulation  |                                                 |
\*---------------------------------------------------------------------------*/
FoamFile
{
    version     2.0;
    format      ascii;
    class       surfaceScalarField;
    location    "192";
    object      phia;
}
// * * * * * * * * * * * * * * * * * * * * * * * * * * * * * * * * * * * * * //

dimensions      [0 3 -1 0 0 0 0];
oriented        oriented;


internalField   nonuniform List<scalar> 
18240
(
0.00139135338491
-0.00138909800988
0.00291523666489
-0.00152111394418
0.00443829485556
-0.00152078495656
0.00594351983972
-0.00150234670794
0.0074218297132
-0.00147615868884
0.00886784336719
-0.00144303384844
0.0102740542787
-0.00140418499563
0.0116367147253
-0.00135958316164
0.0129490643184
-0.00131045457155
0.014208861005
-0.00125662937208
0.015410115229
-0.00119950012766
0.0165521285282
-0.00113876571659
0.0176296954127
-0.00107596093913
0.0186436309075
-0.00101061999851
0.0195894604232
-0.00094438232759
0.0204694161972
-0.000876586990621
0.0212796487518
-0.000808950536888
0.0220236563035
-0.000740602459576
0.0226980801974
-0.000673316598438
0.0233075124484
-0.000606009284984
0.0238489447076
-0.000540503595173
0.0243278792133
-0.000475513466454
0.0247415287182
-0.000412906194646
0.0250961363846
-0.00035120867379
0.02538902711
-0.000292332806954
0.025627024462
-0.000234640833855
0.025807479887
-0.000180085694679
0.0259376594176
-0.000126885082613
0.0260148759708
-7.70306125311e-05
0.0260467085965
-2.86190068026e-05
0.0260303868029
1.63254399249e-05
0.0259736934829
5.98093010387e-05
0.0258737296289
9.97939353209e-05
0.0257383643145
0.000138368435416
0.0255645570068
0.000173469301372
0.0253601902074
0.000207244690331
0.0251220693745
0.000237627095407
0.0248580052179
0.000266806825944
0.0245646451888
0.000292719129292
0.0242496664868
0.000317579103242
0.0239095626236
0.000339330388792
0.0235518213112
0.000360194477368
0.0231727932255
0.000378132108961
0.0227797389153
0.000395357519681
0.022368882159
0.000409853359544
0.0219472224928
0.000423811359773
0.0215108781822
0.000435243537905
0.0210665698396
0.000446308196216
0.0206103354161
0.000455050524087
0.0201486005957
0.000463582747229
0.0196773528835
0.000469989828441
0.0192027200796
0.000476329210868
0.0187206718859
0.000480729238083
0.0182370346422
0.00048518232214
0.0177477959122
0.000487866905779
0.0172584863057
0.000490703836224
0.0167651472765
0.000491926129397
0.0162730156793
0.000493375307605
0.0157782228263
0.000493346589827
0.0152857189251
0.000493597902882
0.0147917580104
0.000492492383168
0.0143010042204
0.000491699061246
0.0138098636889
0.000489657313115
0.0133227170001
0.000487944961054
0.0128361458001
0.000485083809784
0.0123542420967
0.000482557148747
0.0118737809376
0.000478976974855
0.0113985616266
0.000475730997799
0.0109255637038
0.000471526604537
0.0104582834873
0.000467653810658
0.00999391082949
0.000462921101954
0.00953563072187
0.000458520291482
0.00908084383839
0.00045336381102
0.00863241237175
0.000448543795936
0.00818794519783
0.000443079345159
0.00774997404672
0.000437962518706
0.00731631090625
0.000432319168451
0.00688914934312
0.00042704009142
0.0064664993304
0.00042135761219
0.00605021385192
0.00041606062648
0.00563849679084
0.000410485508663
0.00523286097406
0.000405317508433
0.00483170444447
0.000399993618201
0.00443620923042
0.000395092164406
0.00404497719928
0.00039014262335
0.00365888833403
0.000385605696421
0.00327679194256
0.000381078973788
0.00289937040368
0.000376861253366
0.0025259064343
0.000372513679741
0.00215734342093
0.000367945776269
0.00179437470149
0.000362112349854
0.00144058442372
0.000353155757005
0.0011049638185
0.000334926301918
0.000809256029007
0.000295029782944
0.000463592756126
0.000344647068077
0.000462989776637
0.00153804923504
-0.00292466046298
0.00325552190151
-0.00323582249587
0.00496419919142
-0.00322683951982
0.00664966566
-0.00318502626202
0.00830415117334
-0.00312805837689
0.0099213403741
-0.00305741990153
0.0114940952774
-0.00297439517587
0.0130170747093
-0.00287974686167
0.0144840743254
-0.00277495855488
0.0158911204166
-0.00266085506594
0.0172331417013
-0.00253908324487
0.0185076290439
-0.00241043787705
0.0197106734415
-0.00227663571392
0.0208412038785
-0.0021383522817
0.0218964064462
-0.00199729426622
0.0228765382071
-0.00185395078431
0.0237797482819
-0.00170996172042
0.0246074586308
-0.00156558956598
0.0253586148562
-0.00142237689622
0.0260356157316
-0.00128034658772
0.0266380278548
-0.00114093535664
0.0271690373815
-0.00100393438257
0.0276286681109
-0.000870682207084
0.0280207186661
-0.000740760249455
0.0283455277227
-0.000615423431661
0.0286073521827
-0.000494070042918
0.0288067280492
-0.000377886831841
0.028948237441
-0.000266115557794
0.0290325168498
-0.000159886322763
0.0290643568144
-5.8307636092e-05
0.0290444120274
3.75392361664e-05
0.0289775785279
0.000128657567353
0.028864476967
0.000214006596284
0.0287100359725
0.000294680426821
0.0285147815056
0.000369677620838
0.0282835839455
0.000440165086448
0.0280168358474
0.000505173116573
0.0277192932771
0.000565921824016
0.0273911896738
0.000621469517505
0.0270371191722
0.000673071822832
0.0266571387462
0.000719811410904
0.0262556436114
0.000762963452885
0.0258325063591
0.000801631306436
0.0253918978236
0.000837094970705
0.0249335057008
0.00086847568847
0.0244612598747
0.000897045324897
0.0239746703238
0.000921940043906
0.0234774190813
0.000944411600741
0.0229688516725
0.000963608852768
0.022452402276
0.000980753021249
0.0219272714858
0.000995003590345
0.0213966531428
0.00100754188745
0.0208596268577
0.00101753718977
0.0203191578884
0.00102612341584
0.0197742327309
0.00103247970962
0.019227604098
0.00103768668991
0.0186781945688
0.00104093540178
0.0181285607985
0.00104324945506
0.0175775907982
0.00104383525469
0.0170276618837
0.00104365761614
0.0164776542454
0.00104194369486
0.015929779183
0.00103959967151
0.0153829321206
0.00103587989952
0.0148391686536
0.00103163347387
0.0142974168957
0.00102614934194
0.0137595815448
0.00102022203285
0.0132246351854
0.00101318236537
0.0126943325095
0.00100577314335
0.0121676962189
0.000997373863936
0.0116463269347
0.000988678240648
0.0111292981601
0.000979119881641
0.0106180500975
0.000969345426893
0.0101117034868
0.00095884649602
0.00961152937495
0.000948223701666
0.00911668981523
0.000937028669117
0.00862827853268
0.000925815994978
0.00814549187896
0.000914197465668
0.00766923865981
0.000902680576482
0.00719874328651
0.00089093557629
0.00673472528985
0.00087942067036
0.00627643297187
0.000867861128955
0.0058243954484
0.00085666193216
0.00537788490558
0.00084559734579
0.00493724530887
0.000835012067435
0.00450177937586
0.000824717424533
0.00407166171523
0.000814980589477
0.0036462466548
0.000805618235323
0.00322557718775
0.000796765713505
0.00280909159383
0.000788135338726
0.00239672740053
0.000779526553073
0.00198789844652
0.000770130332937
0.0015817644043
0.000758547281699
0.0011742349543
0.000741685778118
0.000754357419311
0.000714184763117
0.0003439101494
0.00075429737684
0.000806469442304
0.00156458136836
-0.00448671697262
0.00330324447248
-0.00497177085166
0.00503581672745
-0.00495671362504
0.00674497544162
-0.00489145414391
0.00842251520547
-0.00480291703226
0.0100614382176
-0.00469361549102
0.0116548462211
-0.00456514227645
0.0131968165127
-0.00441899860713
0.0146815670842
-0.00425707397746
0.0161044996039
-0.00408108609634
0.0174611226449
-0.00389310638033
0.0187482539166
-0.00369489469242
0.0199627157321
-0.00348854278476
0.0211027065118
-0.003275707365
0.0221662818192
-0.00305837265781
0.0231529004169
-0.00283798528425
0.0240617022777
-0.00261633663425
0.0248932320073
-0.00239460074988
0.0256475300625
-0.00217433220975
0.0263260325035
-0.00195641005758
0.0269294891516
-0.00174214591045
0.027460034896
-0.00153213487749
0.0279189523248
-0.00132746389881
0.0283089041933
-0.00112847377457
0.0286315536047
-0.000936058313467
0.028889943498
-0.000750340997501
0.0290859916192
-0.000572053097288
0.029222998735
-0.000401133829168
0.0293030322227
-0.000238178431751
0.0293295442654
-8.29702681516e-05
0.0293046641848
6.40123478472e-05
0.0292319066547
0.000203118261016
0.0291133890304
0.000333965169632
0.0289526105272
0.000457010748307
0.0287516155778
0.00057195809172
0.0285138240602
0.000679355099626
0.0282411578746
0.000778970512843
0.0279369049782
0.000871419808218
0.0276028288137
0.000956523806453
0.0272420475987
0.00103494716613
0.0268561405652
0.00110654857473
0.026448026969
0.00117202394015
0.0260190865124
0.00123125839577
0.0255720225452
0.00128496396067
0.0251080079991
0.00133304072383
0.024629519966
0.00137620216006
0.024137526038
0.0014143541811
0.0236342771528
0.00144819938959
0.023120543497
0.00147764017098
0.0225983550778
0.00150335625694
0.0220682998455
0.0015252396284
0.0215322005975
0.00154393779881
0.0209904829052
0.00155932587449
0.0204447790663
0.00157201095072
0.01989537676
0.00158184822255
0.0193437397426
0.00158939973401
0.0187900436658
0.00159449924823
0.0182356050144
0.00159766123468
0.0176805138428
0.00159870050911
0.017125961562
0.00159808528348
0.016571976238
0.00159561562646
0.0160196417196
0.00159171679992
0.0154689442426
0.00158618156914
0.0149208748271
0.00157939828236
0.0143753921531
0.00157116031179
0.0138334022324
0.00156182567052
0.013294845067
0.00155119755731
0.0127605454499
0.00153961093656
0.0122304273387
0.00152688661744
0.0117052318311
0.00151334253505
0.0111848650107
0.00149882415259
0.0106699792673
0.00148363732278
0.0101604568985
0.00146765649114
0.0096568531081
0.00145117803535
0.00915901892997
0.00143410783685
0.00866740419897
0.00141673363533
0.00818182032211
0.00139899230483
0.00770260353968
0.00138116134328
0.00722951873158
0.00136320631991
0.00676278315833
0.00134539111092
0.00630211029103
0.00132770505083
0.00584759526986
0.00131039267691
0.0053988984094
0.00129345970556
0.00495599335837
0.00127712218937
0.00451848740924
0.0012613894894
0.00408623321236
0.00124643233204
0.0036587797419
0.00123223858897
0.00323583587797
0.00121889726622
0.00281681568407
0.00120632208824
0.002401074095
0.00119445423002
0.00198730637463
0.00118307604801
0.00157299090289
0.00117208259607
0.0011520782959
0.00116186250722
0.000710611613769
0.00115487427454
0.000292954735521
0.0011712054036
0.00109907843767
0.00158761382673
-0.00607179774985
0.00334887278624
-0.00673030527542
0.00510425178431
-0.00670937769194
0.00683555800272
-0.00662003575885
0.00853422337382
-0.00649887528663
0.0101928148393
-0.00634949254295
0.0118043547367
-0.00617398781725
0.0133626103835
-0.00597455325209
0.0148618702851
-0.00575365934535
0.0162972878457
-0.00551382370963
0.0176645620413
-0.00525773461542
0.0189603054946
-0.00498798919674
0.0201816332935
-0.00470726459064
0.021326564898
-0.0044180328038
0.0223935300614
-0.00412278379149
0.023381813308
-0.00382371818282
0.024290987688
-0.00352302292138
0.0251214096661
-0.00322254221046
0.0258735906591
-0.00292410458975
0.026548747799
-0.00262917067009
0.0271481233512
-0.00233920680482
0.0276735942904
-0.002055307339
0.0281269468771
-0.00177860875499
0.028510543493
-0.00150988316843
0.0288265579768
-0.00124998502321
0.0290776949751
-0.000999414287636
0.0292663891137
-0.000758790129108
0.0293955694773
-0.000528384611682
0.029467826379
-0.000308618888807
0.0294862139012
-9.95713385419e-05
0.0294533890551
9.85059367487e-05
0.0293724449551
0.000285699067197
0.0292460280899
0.000461897244912
0.0290771963191
0.000627324871539
0.0288685215593
0.000781992331812
0.0286229664717
0.000926236604327
0.0283429771899
0.0010601629878
0.0280313729701
0.00118419514217
0.0276904355707
0.00129851073115
0.0273228051534
0.00140359636141
0.0269305715966
0.00149968165714
0.0265161713432
0.00158729518432
0.0260814851612
0.00166670006652
0.025628730587
0.00173844767717
0.025159570612
0.00180281818176
0.0246759976044
0.00186036890778
0.0241794564362
0.00191138201413
0.023671715824
0.00195640510768
0.0231540093922
0.00199570881156
0.0226278911516
0.00202981737963
0.0220943974141
0.00205897785786
0.0215548828577
0.00208367916032
0.0210102059262
0.00210413518379
0.0204615425429
0.00212079061053
0.0199095972932
0.00213381955357
0.0193553913494
0.00214361674358
0.0187995014688
0.00215031385353
0.0182428192177
0.00215425432387
0.0176858198162
0.00215552866234
0.0171292892925
0.00215443151491
0.0165736250197
0.00215101764645
0.0160195281934
0.00214553933711
0.0154673379986
0.00213802414134
0.014917686557
0.00212869095162
0.0143708686077
0.00211755080128
0.013827456912
0.00210479983844
0.0132877093973
0.0020904439691
0.012752143123
0.00207466707003
0.0122209806632
0.00205748052521
0.0116946814584
0.00203906535798
0.0111734292132
0.00201944715795
0.010657619704
0.00199881102546
0.0101473905207
0.00197720270871
0.00964306497898
0.00195481560869
0.00914472544832
0.00193171840042
0.00865261326936
0.00190811373694
0.0081667462254
0.00188409280003
0.0076872747096
0.00185986558648
0.00721414385884
0.00183554246607
0.00674740623697
0.00181133612676
0.00628692836893
0.00178737013666
0.00583266040946
0.00176385279426
0.00538438654194
0.00174091227212
0.00494195156187
0.00171874255023
0.0045050528573
0.00169746462975
0.00407342225302
0.00167724468255
0.00364665372069
0.00165818101332
0.00322433049604
0.00164039700684
0.00280586336451
0.00162395805177
0.00239052294494
0.0016089645601
0.00197724359041
0.00159555463751
0.00156445667529
0.00158408592778
0.0011499733813
0.00157554082758
0.000732209347196
0.0015718815121
0.000329918133195
0.00157275457644
0.00142861068849
0.00161706881001
-0.00768632230005
0.00340959849354
-0.00852012265794
0.00519572942032
-0.00849277812648
0.00695662250595
-0.00837820276852
0.00868332394461
-0.00822285587795
0.0103680033273
-0.00803145339671
0.0120034476419
-0.00780672310824
0.0135831703268
-0.00755156998846
0.0151013752301
-0.0072691722784
0.0165530829209
-0.00696284594538
0.0179340384481
-0.00663602436192
0.0192408196441
-0.00629211578927
0.0204706936913
-0.00593450993703
0.0216217149823
-0.00556644250848
0.0226925417948
-0.00519103208099
0.0236825333217
-0.00481115473073
0.0245915370332
-0.0044295119885
0.0254199941499
-0.00404851534059
0.026168708559
-0.00367038308163
0.0268389689094
-0.00329703265787
0.0274323072673
-0.00293020214863
0.0279506434417
-0.00257134509269
0.0283960395015
-0.00222176901698
0.0287708676728
-0.00188252644649
0.0290775615681
-0.00155456300454
0.0293188049822
-0.00123859879319
0.0294972792273
-0.000935280379529
0.0296158680507
-0.0006450514049
0.0296773989143
-0.000368307260037
0.0296848601751
-0.000105256551945
0.0296411376368
0.000143921173193
0.0295492409217
0.000379219083036
0.0294120370139
0.000600638751677
0.0292324842237
0.000808343789748
0.0290133648712
0.00100249098173
0.0287575274496
0.00118338168676
0.0284676182625
0.00135129344574
0.0281463295714
0.00150663423705
0.0277961327544
0.00164977273865
0.0274195308152
0.00178119495633
0.0270187927995
0.00190133353407
0.0265962094934
0.00201072665341
0.0261538304316
0.00210984723503
0.0256937213061
0.00219926296245
0.0252177035817
0.00227946546768
0.024727612594
0.00235103106091
0.0242250414715
0.0024144509981
0.0237115984081
0.0024702914254
0.0231886553961
0.00251902532423
0.022657603493
0.00256119128994
0.02211960812
0.00259722858904
0.0215758605621
0.00262763363965
0.0210273402149
0.00265279898556
0.0204750609038
0.00267316728718
0.0199198414006
0.00268907571955
0.0193625446831
0.0027009064174
0.0188038566472
0.00270893706762
0.0182445167863
0.00271348758273
0.0176851059772
0.00271477780338
0.0171262668692
0.00271306937044
0.016568500389
0.00270853083007
0.0160123747011
0.0027013741575
0.0154583312287
0.00269172768912
0.0149068809077
0.00267976620827
0.014358419605
0.00266559133092
0.013813411052
0.00264935486475
0.0132722125867
0.00263114657188
0.012735244486
0.00261110935853
0.0122028260126
0.00258933453923
0.0116753310759
0.00256596868859
0.0111530357901
0.0025411159383
0.0106362606008
0.00251493578113
0.0101252295256
0.00248755254275
0.00962019918099
0.00245914414957
0.00912133071778
0.00242985858584
0.00862880607073
0.00239989346433
0.00814271264098
0.00236941967149
0.00766314724657
0.00233865205462
0.00719011411485
0.00230778026543
0.00672361680175
0.00227703053257
0.00626356921676
0.00224660392104
0.00580987566862
0.00221672965088
0.0053623545994
0.00218761072261
0.00492080626305
0.00215946892692
0.00448494748562
0.00213249827268
0.0040544654554
0.00210690253696
0.00362896084684
0.00208285808861
0.00320798044045
0.00206054732401
0.00279096686002
0.00204014165332
0.00237726360548
0.00202184522823
0.00196606823487
0.00200592189071
0.00155652898248
0.00199283624231
0.00114799701598
0.00198333475017
0.000741044671117
0.00197803189382
0.000344234737701
0.00196876491046
0.00177248599922
0.00165424447241
-0.00933802022145
0.00348719983588
-0.0103503431363
0.00531286269899
-0.0103157073039
0.00711166509736
-0.0101742694461
0.00887416055052
-0.00998262125777
0.0105920836423
-0.00974664960826
0.0122578918507
-0.00946980940022
0.0138648273029
-0.0091557898039
0.0154069428914
-0.00880858045897
0.016879152459
-0.00843235852912
0.0182772100196
-0.00803139821549
0.0195977244901
-0.00760996233966
0.0208380980791
-0.00717223539237
0.0219965172716
-0.0067222354375
0.0230718614713
-0.00626377703212
0.0240636821345
-0.00580040488156
0.0249720932527
-0.00533538758281
0.025797750018
-0.00487167234056
0.0265417318271
-0.00441190805897
0.0272055306557
-0.00395841762105
0.0277909362471
-0.00351324484492
0.0283000415897
-0.00307813732531
0.0287351354162
-0.00265460817259
0.029098726756
-0.00224391946471
0.0293934446628
-0.00184714817073
0.0296220785674
-0.00146516206663
0.0297874807478
-0.0010986836765
0.0298926168083
-0.000748255810962
0.0299404671549
-0.000414303120911
0.029934083905
-9.70901171817e-05
0.0298764905154
0.000203216558075
0.0297707432709
0.00048659401816
0.0296198319156
0.000753093574801
0.0294267454524
0.00100289783982
0.0291943732783
0.0012362455679
0.0289255780193
0.00145348318714
0.0286230982309
0.00165499467592
0.0282896253888
0.00184125339286
0.0279277096403
0.00201275199524
0.0275398393643
0.00217005554705
0.027128350445
0.00231373290549
0.0266955072296
0.00244441001622
0.0262434153295
0.00256270332219
0.0257741030885
0.00266927233559
0.0252894381587
0.00276475563346
0.0247912091337
0.00284982185434
0.0242810460409
0.00292510818541
0.0237605017449
0.00299126972664
0.0232309765313
0.00304892062575
0.0226937992575
0.00309868182014
0.0221501559326
0.00314112474928
0.0216011703236
0.00317681806272
0.0210478363538
0.00320627424838
0.020491097734
0.00322999579816
0.0199317837281
0.00324842479222
0.0193706870689
0.00326198903772
0.0188085026127
0.00327105500864
0.0182459027336
0.00327597413766
0.017683478162
0.00327703900001
0.0171218099148
0.00327452966665
0.016561411876
0.00326867326456
0.0160027984353
0.00325968985026
0.0154464286059
0.00324775481217
0.0148927683407
0.00323304416474
0.0143422361072
0.00321569914282
0.0137952601386
0.00319586961394
0.0132522253964
0.00317368117306
0.0127135251302
0.00314927563587
0.0121795099777
0.00312278015575
0.0116505341222
0.00309434435532
0.0111269071484
0.00306411087658
0.0106089349931
0.00303224863237
0.0100968752456
0.00299892509134
0.00959097343876
0.00296433520376
0.00909142238625
0.00292867536723
0.00859839406433
0.00289216805204
0.00811200374352
0.00285503753943
0.00763233796464
0.00281753048181
0.00715942353291
0.00277989389556
0.00669325176346
0.00274239155242
0.00623375259583
0.00270528435918
0.00578081520127
0.00266884328975
0.00533426664053
0.00263333243708
0.00489388872218
0.00259901867065
0.0044594001285
0.00256615826032
0.00403046875343
0.00253500446083
0.00360669673311
0.00250579924081
0.00318762885729
0.00247878298301
0.00277274068969
0.00245419468285
0.0023614516636
0.00243229905836
0.00195316607521
0.0024134099322
0.00154732260329
0.00239789733131
0.0011436126217
0.00238623175353
0.000742581187377
0.00237829961618
0.000348453250784
0.00236213339299
0.00212054361552
0.0016999584089
-0.0110354207538
0.00358288143785
-0.0122305415689
0.00545737345698
-0.0121874534014
0.00730289775206
-0.0120170526555
0.00910939697094
-0.0117863806672
0.0108680821229
-0.0115025974476
0.0125709993578
-0.0111699938149
0.0142110833977
-0.0107931444659
0.0157821938834
-0.0103769698939
0.017279148827
-0.00992659989243
0.0186977064205
-0.00944725577117
0.0200345550789
-0.00894412427461
0.0212872551397
-0.00842226842448
0.0224541985005
-0.00788653228738
0.0235345255122
-0.0073414842435
0.0245280667415
-0.00679135477467
0.0254352484089
-0.00624001198916
0.0262570284058
-0.00569093190004
0.0269948030794
-0.00514720398971
0.0276503496873
-0.00461153054351
0.0282257455467
-0.00408625609644
0.0287233262209
-0.00357338646509
0.0291456232072
-0.00307462988603
0.0294953401985
-0.00259142168028
0.0297753070596
-0.00212496303104
0.0299884687844
-0.00167623916137
0.0301378482326
-0.00124604717639
0.0302265396938
-0.000835004584256
0.0302576736355
-0.00044356788117
0.0302344104161
-7.20361089761e-05
0.0301599065379
0.000279434016047
0.030037307231
0.000610824794876
0.0298697174103
0.000922235292195
0.0296601949317
0.00121388785066
0.0294117254739
0.0014861022786
0.0291272207848
0.00173929048421
0.0288094972478
0.0019739412906
0.0284612773858
0.00219061299005
0.0280851720734
0.00238991928561
0.0276836853747
0.00257252380864
0.0272591984992
0.00273912642355
0.0268139781995
0.00289046047616
0.0263501613362
0.00302727877654
0.025869767119
0.00315035330025
0.0253746815793
0.00326046012291
0.0248666736215
0.00335838152923
0.0243473795756
0.00344488980646
0.0238183229476
0.00352075108754
0.0232808994542
0.00358670822665
0.0227363999218
0.00364348635103
0.0221859965176
0.00369177557908
0.0216307680701
0.00373223803688
0.0210716877121
0.00376549132715
0.0205096497357
0.00379211717164
0.0199454587406
0.0038126467596
0.0193798567855
0.00382757092833
0.0188135136282
0.00383732797236
0.0182470530027
0.00384231555922
0.0176810435295
0.00384288133826
0.017116023004
0.00383933617081
0.0165524891662
0.00383194752256
0.0159909209666
0.00382095380005
0.0154317687591
0.00380655971041
0.0148754726459
0.00378895085336
0.0143224513279
0.00376829077304
0.0137731169008
0.00374473503558
0.0132278626657
0.00371842912824
0.0126870745855
0.00368952129406
0.0121511183504
0.00365815997402
0.0116203480866
0.00362450548845
0.0110950928066
0.00358872651837
0.0105756632657
0.00355100962499
0.0100623382708
0.00351155484376
0.00955537036432
0.00347058309191
0.00905497282413
0.00342833034616
0.00856132466653
0.00338505349327
0.00807455848297
0.00334102307017
0.00759476557556
0.00329652764084
0.00712198513612
0.00325186566468
0.00665620967219
0.00320734871589
0.00619737535344
0.00316329267997
0.00574536794634
0.00312002042985
0.00530001428697
0.00307785276235
0.00486108848455
0.00303711093993
0.00442830407214
0.00299810838028
0.00400132068376
0.00296115412263
0.0035797380437
0.00292654674325
0.00316310302522
0.00289458014185
0.00275091676698
0.00286554603028
0.00234265153239
0.00283973995003
0.00193776427988
0.00281746444981
0.00153580578271
0.00279906640296
0.00113648622395
0.00278482281448
0.000739855821876
0.00277412136974
0.000348491459767
0.00275268669352
0.00246867701056
0.00175497213427
-0.0127878365462
0.00369811106652
-0.0141709362036
0.00563137023692
-0.0141179662554
0.00753302931122
-0.0139159623948
0.0093922569025
-0.0136428608843
0.011199634148
-0.0133072288466
0.0129467155473
-0.0129143299818
0.0146260784778
-0.0124697664044
0.0162313690927
-0.0119795230591
0.0177573114088
-0.0114498133975
0.0191996929473
-0.0108869174329
0.0205553227952
-0.0102970488261
0.0218219745708
-0.00968623095982
0.0229983131216
-0.00906020317412
0.0240838110476
-0.00842433869279
0.0250786592173
-0.0077835887706
0.0259836706289
-0.00714244213659
0.0268001886534
-0.00650490590422
0.0275299923858
-0.00587450534496
0.0281752173347
-0.00525429827653
0.0287382764201
-0.00464690818629
0.0292218051809
-0.00405456095487
0.0296286061464
-0.00347913488407
0.0299616208563
-0.00292220026921
0.0302238938277
-0.00238506578094
0.0304185620995
-0.00186880346708
0.0305488262086
-0.00137427999486
0.0306179449214
-0.000902163863789
0.0306292033527
-0.000452945451255
0.0305859070551
-2.69354113903e-05
0.030491347723
0.000375714529088
0.0303487968532
0.000755017095197
0.0301614709996
0.00111111605154
0.0299325316022
0.00144430074052
0.0296650530634
0.00175496674891
0.0293620275276
0.00204362051275
0.0290263375308
0.00231084902786
0.0286607645539
0.00255732369476
0.0282679660615
0.00278377140456
0.0278504859617
0.00299098017315
0.0274107354854
0.00317977307042
0.0269510043483
0.00335101407816
0.0264734451856
0.00350558522926
0.0259800848361
0.00364439136767
0.0254728120788
0.00376834052087
0.0249533892419
0.00387834670732
0.0244234431919
0.00397531299877
0.0238844776229
0.00406013244475
0.023337867252
0.00413367339112
0.0227848713502
0.00419677919286
0.022226630919
0.0042502554692
0.0216641837529
0.00429486971312
0.0210984641022
0.00433134076663
0.0205303191096
0.00436033947366
0.0199605101768
0.00438248055922
0.0193897301571
0.00439832544607
0.0188186053938
0.00440837672296
0.0182477128763
0.00441308370992
0.0176775818455
0.004412839402
0.0171087097441
0.00440798897919
0.0165415622301
0.00439882914907
0.015976587519
0.00438561853445
0.0154142144286
0.00436857854688
0.0148548636311
0.00434790578538
0.0142989434207
0.00432377347951
0.013746857942
0.00429634419885
0.0131990008404
0.00426577132099
0.0126557605964
0.00423221090174
0.0121175122721
0.0041958224623
0.0115846203555
0.00415677924245
0.0110574295642
0.00411526773083
0.0105362657487
0.00407149523367
0.0100214267162
0.00402568840913
0.00951318165168
0.00397809813541
0.00901176283224
0.00392899649124
0.00851736433721
0.00387867924875
0.00803013521859
0.00382746186364
0.00755017796374
0.0037756794485
0.00707754355737
0.00372368254124
0.00661222989773
0.00367183501665
0.0061541789899
0.00362050980389
0.00570327560562
0.00357008539704
0.00525934624543
0.0035209422645
0.00482215817906
0.00347345837992
0.00439142010063
0.00342800704639
0.00396678221321
0.00338495241764
0.00354783977828
0.00334464964426
0.00313413827818
0.00330744207336
0.00272518157225
0.00327366135648
0.00232044835336
0.00324363254174
0.00191943953985
0.0032176773169
0.00152166082483
0.00319606280429
0.0011266740322
0.00317898908123
0.000734319819152
0.0031657155504
0.000346424719368
0.00313982627742
0.00281470482498
0.00182019349769
-0.0146054662312
0.00383467616275
-0.0161826877513
0.00583749150227
-0.0161180289693
0.00780543651755
-0.0158811561155
0.0097267428584
-0.0155614146311
0.0115912354694
-0.0151689670041
0.0133898889334
-0.0147102299471
0.0151148826977
-0.0141920052341
0.0167596294604
-0.0136215195407
0.0183187820248
-0.0130062185056
0.0197881885509
-0.0123535867534
0.0211648432642
-0.0116709759571
0.0224467981032
-0.0109654754199
0.0236330792514
-0.0102437920153
0.0247235759063
-0.00951216811465
0.0257189372655
-0.00877631023994
0.0266204531182
-0.00804135143293
0.0274299454334
-0.00731182847321
0.0281496571257
-0.00659168896555
0.0287821565722
-0.00588431564918
0.0293302527755
-0.00519257207629
0.0297969296875
-0.0045188602586
0.0301852983893
-0.00386518349178
0.0304985646739
-0.00323320925501
0.0307400109513
-0.0026243194411
0.0309129821993
-0.00203965234821
0.0310208775839
-0.00148012420473
0.0310671353937
-0.000946447310782
0.0310552196512
-0.000439131987916
0.0309885963059
4.15029716081e-05
0.0308707176511
0.000495327438589
0.0307049953111
0.000922386427855
0.0304947807925
0.00132289423119
0.0302433459222
0.00169720933344
0.0299538750366
0.00204582755366
0.0296294419268
0.00236935322544
0.0292730127159
0.00266849524155
0.0288874255614
0.00294403941229
0.0284753982254
0.00319684723929
0.0280395107505
0.00342783169275
0.0275822143447
0.00363795715922
0.0271058178773
0.00382821917492
0.0266124958182
0.00399964391037
0.0261042791834
0.00415327160868
0.0255830617644
0.00429015414211
0.0250505959799
0.00441134150304
0.0245084977339
0.00451787719821
0.0239582470498
0.00461078700898
0.0234011927225
0.00469107238639
0.0228385574606
0.00475970114573
0.0222714433506
0.0048176002215
0.0217008407002
0.00486564815714
0.021127635107
0.00490466868117
0.0205526187887
0.00493542556064
0.01997649927
0.00495861847019
0.0193999117773
0.00497488057414
0.0188234288943
0.00498477774327
0.0182475725518
0.00498880899021
0.0176728234763
0.00498740974784
0.0170996312352
0.00498095492645
0.0165284232326
0.0049697651945
0.015959611475
0.0049541126522
0.0153935992168
0.0049342297605
0.0148307845058
0.00491031606498
0.0142715641661
0.00488254860064
0.0137163338646
0.00485108862819
0.0131654891544
0.00481609233187
0.0126194223998
0.00477771651557
0.0120785214819
0.00473612774593
0.0115431645363
0.00469150675356
0.0110137164987
0.00464405552082
0.0104905226738
0.00459399910452
0.00997390442486
0.00454158995888
0.00946415244362
0.00448710824979
0.00896152202159
0.00443086278209
0.00846622720605
0.00437318980445
0.00797843622627
0.00431445125054
0.00749826713297
0.00425503232957
0.00702578377628
0.00419533767235
0.00656099346641
0.00413578833254
0.00610384345068
0.00407681625789
0.00565422071316
0.00401886149147
0.00521194915527
0.00396236538098
0.00477679164995
0.00390776864621
0.00434844782776
0.00385550416509
0.00392655921594
0.00380599644519
0.00351070949712
0.00375965470008
0.00310043251414
0.00371687306373
0.00269522514033
0.00367802791256
0.0022945594979
0.0036434708602
0.00189788003822
0.00361351783303
0.00150467362755
0.00358847712857
0.00111443085
0.00356851002022
0.000726680248876
0.00355265572783
0.000343007243513
0.00352268774682
0.00315735896592
0.00189669599203
-0.0164996090747
0.00399480488974
-0.0182780587406
0.00607899575119
-0.0181994738303
0.00812428948995
-0.0179236989457
0.0101177753035
-0.0175521459666
0.0120483815676
-0.0170968164131
0.013906420232