/*--------------------------------*- C++ -*----------------------------------*\
| =========                 |                                                 |
| \\      /  F ield         | OpenFOAM: The Open Source CFD Toolbox           |
|  \\    /   O peration     | Version:  v1906                                 |
|   \\  /    A nd           | Web:      www.OpenFOAM.com                      |
|    \\/     M anipulation  |                                                 |
\*---------------------------------------------------------------------------*/
FoamFile
{
    version     2.0;
    format      ascii;
    class       volScalarField;
    location    "6";
    object      p;
}
// * * * * * * * * * * * * * * * * * * * * * * * * * * * * * * * * * * * * * //

dimensions      [0 2 -2 0 0 0 0];


internalField   nonuniform List<scalar> 
9216
(
-645.274769844
-644.782284377
-643.919754381
-642.799121184
-641.325061134
-639.489388025
-637.320015119
-634.908517809
-632.297226632
-629.430164008
-626.300556577
-622.902487165
-619.267707206
-615.408362226
-611.360268039
-607.132927182
-602.762364186
-598.256120641
-593.649966165
-588.949238906
-584.18867348
-579.371071956
-574.529458599
-569.663884619
-564.805397987
-559.951320595
-555.130251479
-550.336982399
-545.596608227
-540.899334285
-536.269424476
-531.697588915
-527.204722552
-522.777131622
-518.433711634
-514.160034866
-509.972144587
-505.853517239
-501.819487336
-497.854445207
-493.973132731
-490.158177385
-486.422306276
-482.747792878
-479.147631804
-475.605414908
-472.13490498
-468.720983418
-465.377920581
-462.091667149
-458.876721784
-455.71991132
-452.635714313
-449.611679889
-446.662071725
-443.775071982
-440.964593138
-438.219433703
-435.553061314
-432.95502759
-430.438380503
-427.994304918
-425.638997487
-423.402356658
-421.259458165
-419.045604875
-416.869485857
-414.82406021
-412.869225049
-410.992656092
-409.196935652
-407.477388308
-405.837629143
-404.273812363
-402.789049354
-401.379848182
-400.048710815
-398.79245462
-397.6130099
-396.507506775
-395.477363782
-394.520042665
-393.636528502
-392.82446731
-392.084202839
-391.41387687
-390.813867343
-390.282760741
-389.820665376
-389.426626013
-389.100422038
-388.83836326
-388.631756977
-388.481617424
-388.379853885
-388.326267212
-645.616187607
-645.208907567
-644.400086179
-643.247658702
-641.758776109
-639.900234767
-637.718328299
-635.283906823
-632.627335003
-629.728137572
-626.563624004
-623.139458735
-619.477544353
-615.596895332
-611.523586304
-607.276649452
-602.882058876
-598.357829002
-593.7290958
-589.012254843
-584.230893233
-579.399248828
-574.53881892
-569.661357251
-564.786302916
-559.922725532
-555.087120676
-550.285921149
-545.532554238
-540.830411406
-536.191300472
-531.617377406
-527.118073841
-522.692525673
-518.346965966
-514.077135126
-509.886294311
-505.769343679
-501.731285569
-497.769372939
-493.887068698
-490.077964267
-486.342634386
-482.673885879
-479.07329933
-475.535414894
-472.063083883
-468.652063177
-465.306001559
-462.021520279
-458.802748839
-455.646918867
-452.55839595
-449.534831895
-446.580654522
-443.693812194
-440.878678528
-438.133430011
-435.4623048
-432.863698226
-430.341666142
-427.894930232
-425.527550892
-423.239178423
-421.018795085
-418.840939859
-416.726439579
-414.695896249
-412.746005127
-410.87362256
-409.079669854
-407.36298092
-405.724621026
-404.163426165
-402.680118575
-401.273458808
-399.943866912
-398.690066974
-397.512227833
-396.409066872
-395.380541528
-394.42538426
-393.543375336
-392.733231228
-391.994538417
-391.326201277
-390.727886748
-390.198688651
-389.738310891
-389.346255091
-389.021246295
-388.747667341
-388.549726764
-388.405849367
-388.295798079
-388.244081945
-646.351948238
-645.972771957
-645.166316052
-643.977783396
-642.459797784
-640.598797331
-638.406139238
-635.945302858
-633.227251939
-630.254635412
-627.023242261
-623.540538851
-619.823784698
-615.892657019
-611.769999773
-607.477345342
-603.037926432
-598.472744394
-593.804065816
-589.05142635
-584.235353619
-579.373312397
-574.483592698
-569.581254313
-564.6821605
-559.798768656
-554.944150057
-550.128035168
-545.360719637
-540.649364619
-536.002219821
-531.424612102
-526.922772736
-522.499015525
-518.157443958
-513.89480762
-509.706738151
-505.591747467
-501.554201341
-497.596698696
-493.720204497
-489.920640141
-486.19369013
-482.534185943
-478.940063807
-475.408636235
-471.939764822
-468.532241217
-465.186993326
-461.903664237
-458.683774922
-455.527463644
-452.436561269
-449.411479885
-446.454177549
-443.565199331
-440.746511285
-437.99869306
-435.323613516
-432.721777054
-430.194799686
-427.742835868
-425.366567617
-423.063966646
-420.82968826
-418.658301178
-416.55663931
-414.531876659
-412.585022288
-410.71565304
-408.924095258
-407.210158113
-405.574086997
-404.015519057
-402.534437125
-401.13029112
-399.802850703
-398.551432222
-397.375641886
-396.274700225
-395.248083181
-394.294938421
-393.414631837
-392.606254297
-391.869124895
-391.202408832
-390.6054836
-390.077603138
-389.618224163
-389.226741394
-388.901362151
-388.625895482
-388.432513016
-388.272497637
-388.169089211
-388.102223018
-647.476779514
-647.088415743
-646.28549153
-645.08340952
-643.52187434
-641.613846354
-639.377483943
-636.844271039
-634.040056796
-630.973443225
-627.650243057
-624.081182058
-620.282775563
-616.274604837
-612.078538678
-607.716695133
-603.211751933
-598.585538502
-593.85976103
-589.054759832
-584.190391079
-579.284855847
-574.355677818
-569.418585324
-564.488546267
-559.578642584
-554.701129044
-549.866400215
-545.084072727
-540.36207099
-535.7078124
-531.127214011
-526.625585437
-522.205157917
-517.870950615
-513.619388318
-509.43930036
-505.328760971
-501.295248108
-497.344681605
-493.479347722
-489.695208546
-485.984200192
-482.340167763
-478.759516925
-475.23978892
-471.780138471
-468.380074421
-465.040116231
-461.760736865
-458.543113744
-455.388185575
-452.297425916
-449.271973164
-446.313394989
-443.422873348
-440.60193813
-437.851694807
-435.173509543
-432.568255758
-430.036929498
-427.579841523
-425.197023176
-422.88721392
-420.64826786
-418.47899941
-416.382082645
-414.360631572
-412.416065757
-410.548798331
-408.759156849
-407.047178211
-405.412922638
-403.856189323
-402.376795013
-400.974334934
-399.648432739
-398.398530747
-397.224105522
-396.124484356
-395.099028289
-394.14697538
-393.267597011
-392.460076063
-391.723654534
-391.057539449
-390.461007913
-389.933315994
-389.473779953
-389.081685293
-388.755871206
-388.491973976
-388.283421981
-388.115356738
-388.01711064
-387.913509441
-649.019807296
-648.629311922
-647.814886554
-646.571086424
-644.953665156
-642.982348608
-640.678008221
-638.063984534
-635.16205309
-631.987184626
-628.552534487
-624.873188528
-620.967386294
-616.855680939
-612.560264853
-608.103844677
-603.509313571
-598.799017744
-593.994748515
-589.117215758
-584.186196782
-579.220114059
-574.236272711
-569.250502
-564.27744399
-559.330222087
-554.420763689
-549.559519703
-544.755826937
-540.017686504
-535.352176929
-530.765215622
-526.261639424
-521.842825069
-517.513850714
-513.271682726
-509.100543496
-504.995783294
-500.967828794
-497.025888221
-493.173776287
-489.407481328
-485.715909799
-482.090753817
-478.527029224
-475.021896797
-471.574225852
-468.183785459
-464.851165687
-461.577260023
-458.36337726
-455.210863416
-452.12129001
-449.096139378
-446.137017638
-443.245373285
-440.422708691
-437.670311368
-434.989450454
-432.38109849
-429.846107265
-427.384893713
-424.997561604
-422.683636687
-420.442442423
-418.273890078
-416.179260233
-414.160135028
-412.217629288
-410.352312174
-408.564534441
-406.854400618
-405.221923212
-403.666934925
-402.18920488
-400.788358172
-399.463977387
-398.215530429
-397.042457233
-395.94410582
-394.919805313
-393.968812327
-393.09037454
-392.283693805
-391.547986534
-390.882456864
-390.286340204
-389.758866035
-389.299270018
-388.906738403
-388.580181272
-388.316679853
-388.102930408
-387.973031178
-387.837624107
-387.726246006
-651.087536253
-650.654515183
-649.805577633
-648.515870917
-646.833466798
-644.783312928
-642.38858589
-639.671171137
-636.651751008
-633.348910842
-629.780755848
-625.966446819
-621.926904297
-617.684517821
-613.262680786
-608.685093092
-603.975339783
-599.156399632
-594.25044758
-589.278549697
-584.26061255
-579.215190963
-574.159524536
-569.109411871
-564.07929679
-559.082180777
-554.129743037
-549.232289026
-544.398901837
-539.637426559
-534.954654591
-530.35630209
-525.846677471
-521.426210705
-517.09939837
-512.862902623
-508.698662462
-504.599646305
-500.577872975
-496.645628376
-492.807731674
-489.060477848
-485.390471419
-481.786465795
-478.241881347
-474.753255733
-471.319245551
-467.939780962
-464.615655334
-461.348113717
-458.13873262
-454.989199146
-451.901307444
-448.876814721
-445.917480448
-443.024952439
-440.200816612
-437.446490022
-434.763269004
-432.152214661
-429.61420005
-427.149793275
-424.759311777
-422.442795908
-420.200233551
-418.031890388
-415.938546286
-413.921137994
-411.980457449
-410.117012541
-408.331114489
-406.622874128
-404.992273869
-403.439150132
-401.963245587
-400.564189895
-399.241543483
-397.994778718
-396.823316744
-395.726509763
-394.703672098
-393.754066068
-392.876930355
-392.071474061
-391.336905275
-390.672429692
-390.077269522
-389.550649687
-389.091793166
-388.699891839
-388.374086086
-388.113313221
-387.91426124
-387.773668644
-387.626307794
-387.542652908
-653.698405278
-653.223364861
-652.32418875
-650.970832146
-649.207352572
-647.059644031
-644.552039845
-641.707009276
-638.546361819
-635.091738292
-631.365186729
-627.3896272
-623.189021325
-618.788135645
-614.21215222
-609.486182744
-604.634874275
-599.68204791
-594.650468995
-589.561642813
-584.435719007
-579.291393504
-574.145897142
-569.014961007
-563.912854492
-558.852386772
-553.844975833
-548.900676398
-544.02827273
-539.235329087
-534.528312082
-529.912613035
-525.391767326
-520.96549362
-516.637076215
-512.402535685
-508.241276892
-504.145462772
-500.12994188
-496.207900544
-492.384652718
-488.657057008
-485.009991522
-481.428715235
-477.904811587
-474.434036854
-471.014827251
-467.647244504
-464.332341338
-461.071713793
-457.867268771
-454.721033087
-451.635079867
-448.611434843
-445.65206015
-442.758795516
-439.93335974
-437.177299831
-434.49199811
-431.878619892
-429.338129646
-426.871251915
-424.478508896
-422.160254535
-419.91679546
-417.748539264
-415.656073779
-413.640039933
-411.70100691
-409.839374894
-408.055389219
-406.349130545
-404.720551161
-403.169473049
-401.695618737
-400.298609188
-398.977989787
-397.733227208
-396.563731301
-395.468851347
-394.447894962
-393.50012586
-392.624782343
-391.821080704
-391.08823539
-390.425465388
-389.832009353
-389.30711535
-388.850026932
-388.45995294
-388.135990209
-387.87685538
-387.678283062
-387.520759438
-387.395708087
-387.322765632
-656.882547795
-656.3666749
-655.406760224
-653.974081697
-652.111542735
-649.845764861
-647.201929508
-644.203982288
-640.876017276
-637.242946572
-633.330607416
-629.165649194
-624.77532855
-620.18716262
-615.428548974
-610.526359522
-605.506606736
-600.394155597
-595.21253067
-589.983767163
-584.728337022
-579.465098743
-574.211299125
-568.982581794
-563.793031391
-558.655215036
-553.580250234
-548.577865908
-543.656484996
-538.823304183
-534.084405569
-529.444762453
-524.90683753
-520.469960297
-516.135664266
-511.898400459
-507.734752451
-503.638800508
-499.629001873
-495.717009409
-491.908349949
-488.200627605
-484.577265974
-481.019675032
-477.517403351
-474.065309826
-470.661581202
-467.306399147
-464.001102523
-460.74765376
-457.548326098
-454.405502224
-451.321565363
-448.298821037
-445.339460521
-442.445524635
-439.618890603
-436.861247339
-434.174091368
-431.558706333
-429.016169977
-426.547351243
-424.152937454
-421.833477481
-419.589446636
-417.42132172
-415.329610993
-413.314809896
-411.377344591
-409.517519485
-407.735509079
-406.03135171
-404.404963166
-402.856143515
-401.384592329
-399.989917333
-398.671647772
-397.429242039
-396.262098963
-395.169564163
-394.15094016
-393.205493365
-392.332465533
-391.531085402
-390.800584067
-390.140210363
-389.549242887
-389.026990315
-388.572776191
-388.185881579
-387.865438666
-387.610118648
-387.415572882
-387.261761763
-387.147053303
-387.08003033
-660.670968635
-660.114248217
-659.085191722
-657.559774867
-655.580401291
-653.175149605
-650.370524632
-647.192775777
-643.669165522
-639.82841197
-635.700421029
-631.315811407
-626.705426269
-621.899870489
-616.929090326
-611.822012319
-606.606250766
-601.307891054
-595.951340802
-590.559243051
-585.152437337
-579.74995945
-574.369069614
-569.025300457
-563.732520795
-558.503007124
-553.347524376
-548.275408048
-543.294653822
-538.412014444
-533.633123832
-528.962447516
-524.401065052
-519.948153546
-515.603041695
-511.357017589
-507.185258856
-503.085959661
-499.080304843
-495.177518236
-491.382965784
-487.694962261
-484.095523733
-480.561984378
-477.081722177
-473.648620966
-470.260592761
-466.917933092
-463.622283765
-460.37598853
-457.181711745
-454.042207404
-450.960190884
-447.93825895
-444.978850056
-442.084214986
-439.256405883
-436.497261693
-433.80840838
-431.191251092
-428.646985299
-426.176604471
-423.780925698
-421.460624936
-419.216277172
-417.048398186
-414.957461447
-412.943882807
-411.007998286
-409.15003478
-407.37010509
-405.66820008
-404.044199019
-402.497872742
-401.028897768
-399.636862466
-398.321280727
-397.081598061
-395.917203914
-394.82743715
-393.811597759
-392.868953524
-391.998753734
-391.200241744
-390.472674038
-389.815338932
-389.227578483
-388.708794479
-388.258448199
-387.876034143
-387.560978458
-387.312343895
-387.126466227
-386.983814522
-386.88141739
-386.818152669
-665.098300463
-664.499962686
-663.393714315
-661.763708524
-659.650075731
-657.08308931
-654.091496946
-650.70491244
-646.95475441
-642.874304266
-638.498097555
-633.861152469
-628.998282646
-623.943516304
-618.729651832
-613.387910856
-607.947702168
-602.436460206
-596.879564564
-591.30030793
-585.71991503
-580.157587044
-574.630573586
-569.154254872
-563.742236333
-558.40644553
-553.157232877
-548.003471464
-542.952658092
-538.011028685
-533.183695092
-528.47450805
-523.882830451
-519.407940332
-515.046371029
-510.78517171
-506.599377466
-502.492672672
-498.488716779
-494.593829878
-490.812640596
-487.143935341
-483.568174254
-480.058506063
-476.600075028
-473.18575703
-469.813179302
-466.482754456
-463.196438587
-459.956971108
-456.767422573
-453.63093234
-450.55056012
-447.529204674
-444.569560588
-441.674096831
-438.845047144
-436.084406572
-433.393933767
-430.775155392
-428.229377268
-425.757700768
-423.361043335
-421.040170005
-418.795718863
-416.628231182
-414.538161854
-412.525880161
-410.591659987
-408.735669628
-406.957966997
-405.258499197
-403.63710657
-402.093530136
-400.627419217
-399.238341803
-397.925792611
-396.689203684
-395.527952002
-394.441369644
-393.428751686
-392.489367757
-391.622473213
-390.82732724
-390.103212014
-389.449460452
-388.865482699
-388.350792885
-387.905039803
-387.528013087
-387.219670612
-386.980067631
-386.807213389
-386.68348491
-386.605178912
-386.536522006
-670.207161625
-669.565224905
-668.371861172
-666.626213438
-664.360738836
-661.608370824
-658.401389994
-654.774150346
-650.763435835
-646.408076384
-641.747997104
-636.823212441
-631.672966798
-626.335082722
-620.845489927
-615.237918711
-609.543712868
-603.791747118
-598.008412201
-592.217659042
-586.441074998
-580.697988386
-575.00558397
-569.379028252
-563.831595222
-558.374792132
-553.018481313
-547.770997656
-542.639264854
-537.628924546
-532.744490351
-527.989034387
-523.359847882
-518.856577186
-514.472284628
-510.189254563
-505.983431724
-501.864176142
-497.858563428
-493.970108664
-490.201438998
-486.551445994
-482.998705962
-479.51220861
-476.074885686
-472.678619371
-469.32076645
-466.001868071
-462.724208027
-459.490931243
-456.305525652
-453.171522665
-450.092334442
-447.071165279
-444.110971319
-441.214440937
-438.383992843
-435.621776819
-432.929684157
-430.309355933
-427.762200319
-425.289408985
-422.891979728
-420.570740842
-418.326374122
-416.159435959
-414.070370416
-412.059513473
-410.127095054
-408.273234632
-406.497944439
-404.80112845
-403.182590651
-401.642038712
-400.179094962
-398.793302443
-397.48413639
-396.251010895
-395.093290086
-394.010294965
-393.001315036
-392.065617268
-391.202461347
-390.411116704
-389.690886896
-389.041139456
-388.461343971
-387.951110621
-387.51024746
-387.13884362
-386.837445599
-386.607312104
-386.44960629
-386.354134534
-386.349616317
-386.225535969
-676.047777455
-675.363835858
-674.06913221
-672.195769482
-669.758591346
-666.794661608
-663.340749173
-659.437493866
-655.128467065
-650.459226299
-645.476033588
-640.224620719
-634.74921318
-629.091819672
-623.291782655
-617.385515966
-611.406404152
-605.384799628
-599.348103038
-593.320883192
-587.325032151
-581.379928517
-575.502610028
-569.707940502
-564.008773718
-558.41610738
-552.939228986
-547.585852237
-542.362248272
-537.273397033
-532.323143909
-527.513491485
-522.839363556
-518.300755693
-513.88664222
-509.574621411
-505.342501001
-501.205071654
-497.194201906
-493.310561413
-489.553462398
-485.921451011
-482.390669831
-478.926122859
-475.50863489
-472.129159258
-468.78481986
-465.476310435
-462.20625544
-458.97821469
-455.796097088
-452.663829534
-449.585175903
-446.563646611
-443.602456436
-440.704512137
-437.872412855
-435.108460182
-432.414670708
-429.79279303
-427.244324926
-424.770535385
-422.372484108
-420.051046982
-417.806934003
-415.640711091
-413.55281085
-411.543544081
-409.613103285
-407.761568026
-405.988907559
-404.294986999
-402.679572202
-401.142338536
-399.682877395
-398.300706544
-396.995277104
-395.7659843
-394.612174508
-393.533156125
-392.528207523
-391.596590008
-390.737560086
-389.950390426
-389.234392593
-388.588952171
-388.013565913
-387.507890333
-387.071807648
-386.705517587
-386.40974906
-386.1862011
-386.037350395
-385.960062992
-385.939194392
-385.822866072
-682.67344759
-681.952050273
-680.545713856
-678.528988653
-675.896906378
-672.691467528
-668.955052005
-664.736095201
-660.086533852
-655.060034871
-649.710308024
-644.089664129
-638.247927588
-632.231726106
-626.084080191
-619.8442402
-613.547684007
-607.226235931
-600.908247503
-594.618822178
-588.380049968
-582.211247432
-576.129186287
-570.14831137
-564.280941757
-558.537456723
-552.926465585
-547.454964072
-542.128487333
-536.951286421
-531.926454022
-527.054311638
-522.328164474
-517.746913527
-513.294329046
-508.945441929
-504.680438508
-500.519645762
-496.500399268
-492.619539737
-488.872841034
-485.257909247
-481.747614988
-478.303275577
-474.903797786
-471.539317577
-468.206791292
-464.907098466
-461.643221799
-458.419140495
-455.23918542
-452.107673769
-449.028716925
-446.006123262
-443.043360578
-440.143544997
-437.309449909
-434.543518703
-431.847885681
-429.224394573
-426.674622323
-424.19989988
-421.801336148
-419.479839325
-417.236138236
-415.070799879
-412.984245285
-410.976759793
-409.048503926
-407.199518586
-405.429734599
-403.738977037
-402.126975606
-400.593369911
-399.137720607
-397.759515506
-396.458180821
-395.233087629
-394.083562946
-393.008896538
-392.008352664
-391.081179175
-390.226623174
-389.443948278
-388.73245992
-388.091535689
-387.520663752
-387.019481382
-386.587820094
-386.225771396
-385.933767866
-385.712622341
-385.562518612
-385.474679309
-385.408167229
-385.335475509
-690.145984812
-689.388282604
-687.86757211
-685.688626745
-682.835408077
-679.354631621
-675.295586336
-670.716225247
-665.678691572
-660.246395545
-654.481832997
-648.444895935
-642.191723291
-635.774014782
-629.238734449
-622.628075626
-615.979618848
-609.326588946
-602.69817807
-596.119880808
-589.613833592
-583.19913146
-576.892125978
-570.706692865
-564.6544758
-558.745103151
-552.986383134
-547.384481303
-541.944095
-536.668666749
-531.560387924
-526.617038495
-521.832032379
-517.200506366
-512.699398332
-508.305066972
-504.000683083
-499.812295835
-495.781942442
-491.901416793
-488.163671651
-484.564722238
-481.073025978
-477.646627913
-474.262781711
-470.910967869
-467.5880642
-464.295182928
-461.035682363
-457.813965536
-454.634778316
-451.502819719
-448.422535108
-445.398019741
-442.432980143
-439.530731054
-436.694206314
-433.92598076
-431.228292483
-428.603069499
-426.05195302
-423.576324375
-421.177326623
-418.855890112
-416.612750676
-414.448471378
-412.363455903
-410.357964849
-408.432124911
-406.58594112
-404.819304086
-403.132000807
-401.523721586
-399.994070804
-398.542573852
-397.168688023
-395.871809301
-394.651283158
-393.506411208
-392.436461977
-391.440678269
-390.518289662
-389.668523635
-388.890624889
-388.183875286
-387.547623883
-386.981314071
-386.484512555
-386.056930469
-385.698418249
-385.408946148
-385.188476475
-385.035609433
-384.940228855
-384.863511619
-384.799950288
-698.533314981
-697.743173695
-696.105199082
-693.743181686
-690.640320528
-686.847197903
-682.420756023
-677.430660509
-671.951631299
-666.058910393
-659.82542822
-653.319876424
-646.605517339
-639.739618342
-632.773322214
-625.751831991
-618.714766126
-611.6966167
-604.72723099
-597.832293929
-591.033775943
-584.350345664
-577.797736001
-571.389069504
-565.135143143
-559.044677822
-553.124537893
-547.379926739
-541.814589671
-536.431051269
-531.230340251
-526.206917582
-521.355400713
-516.665150586
-512.105229961
-507.656532077
-503.306459456
-499.087167387
-495.043343568
-491.160461903
-487.43000064
-483.845736721
-480.370309445
-476.959038449
-473.587877966
-470.245860843
-466.92990162
-463.641398151
-460.384104792
-457.162845966
-453.982772599
-450.84894739
-447.766132889
-444.738690858
-441.77055021
-438.865205364
-436.025736207
-433.254831748
-430.554820919
-427.927699639
-425.375161225
-422.898621777
-420.499247612
-418.177977717
-415.935547254
-413.772505859
-411.689236806
-409.685970513
-407.762800101
-405.91969112
-404.156495065
-402.472957085
-400.868728602
-399.343374186
-397.896383606
-396.527178311
-395.235122875
-394.019531201
-392.879677393
-391.814801893
-390.824122494
-389.906841975
-389.062161833
-388.289296059
-387.5874915
-386.956049307
-386.394348911
-385.901860091
-385.47813899
-385.122805057
-384.835463426
-384.615480172
-384.460892785
-384.362039883
-384.282744596
-384.220919555
-707.902630711
-707.092793059
-705.335143156
-702.76866969
-699.386844399
-695.241981361
-690.39859856
-684.940929838
-678.959573322
-672.544398413
-665.780910108
-658.74808087
-651.517243341
-644.151738505
-636.70709473
-629.231507389
-621.766490263
-614.347572063
-607.004993078
-599.764346677
-592.647163966
-585.671422772
-578.851993862
-572.201021573
-565.728252842
-559.441317494
-553.345971153
-547.446313029
-541.745013837
-536.243566125
-530.941331164
-525.828901704
-520.902006218
-516.143366523
-511.514314195
-507.00262928
-502.600767058
-498.347665511
-494.288555967
-490.400680217
-486.675761292
-483.10471655
-479.64275258
-476.243210205
-472.881199155
-469.545564144
-466.233387538
-462.94641253
-459.688803751
-456.465801533
-453.282941579
-450.145628352
-447.058914757
-444.027406235
-441.055228923
-438.146037133
-435.303034847
-432.529008643
-429.826359025
-427.197135627
-424.643066582
-422.165590637
-419.765882198
-417.444879451
-415.203304789
-413.041688584
-410.960385195
-408.95959244
-407.039363997
-405.19962545
-403.440184289
-401.760743763
-400.16091142
-398.640211623
-397.198093077
-395.833940414
-394.547080885
-393.336795153
-392.202323348
-391.142875222
-390.157636181
-389.24577813
-388.406467767
-387.638881915
-386.94222135
-386.315731694
-385.758716186
-385.270542646
-384.850631071
-384.498398341
-384.213187224
-383.994138394
-383.839148165
-383.739047774
-383.659028156
-383.597404977
-718.332562678
-717.519541272
-715.645404011
-712.859610366
-709.168808924
-704.627458556
-699.311356233
-693.320942372
-686.767054248
-679.757998862
-672.394628969
-664.768032606
-656.958668247
-649.036458901
-641.061429614
-633.084646042
-625.149240954
-617.291439315
-609.541498512
-601.924552022
-594.461335373
-587.168809038
-580.06068156
-573.147850278
-566.438770615
-559.939766405
-553.655295482
-547.588189028
-541.739918769
-536.110776153
-530.697396569
-525.487754344
-520.476067488
-515.637105614
-510.928116231
-506.345238729
-501.885947305
-497.59684395
-493.521321789
-489.626000454
-485.904865058
-482.345332741
-478.893462636
-475.501610196
-472.144603802
-468.811392923
-465.499370355
-462.210678127
-458.949901521
-455.722679706
-452.534908207
-449.392300328
-446.300169491
-443.263332462
-440.286086279
-437.37221723
-434.525031883
-431.74739087
-429.041748852
-426.410189124
-423.854460434
-421.376006994
-418.976000036
-416.655362717
-414.414796613
-412.254801801
-410.175698951
-408.177645067
-406.260652096
-404.424599182
-402.669248781
-400.994256421
-399.399185031
-397.883512974
-396.446646947
-395.087928766
-393.806646996
-392.602042786
-391.473320346
-390.419652038
-389.440188177
-388.534062525
-387.700403298
-386.938342689
-386.247031751
-385.625653694
-385.073437585
-384.589656109
-384.173604969
-383.824567195
-383.54174241
-383.324098828
-383.169588473
-383.069524052
-382.989440259
-382.927626718
-729.924057329
-729.12291964
-727.142970444
-724.133985881
-720.102886911
-715.116080089
-709.262420889
-702.662339393
-695.452853682
-687.765937357
-679.721401794
-671.424620323
-662.966307899
-654.423366685
-645.86027491
-637.330647009
-628.878787702
-620.541106994
-612.347372068
-604.321766281
-596.483782518
-588.848956296
-581.429472652
-574.234660285
-567.271400022
-560.544460068
-554.056779083
-547.809733509
-541.803442225
-536.036630729
-530.501684134
-525.187197576
-520.08111003
-515.14778891
-510.348241164
-505.685578918
-501.163481738
-496.838084954
-492.745483391
-488.84048001
-485.121318321
-481.571035791
-478.125165274
-474.736291043
-471.379556486
-468.044310616
-464.728388011
-461.434377881
-458.167284592
-454.933124505
-451.738116743
-448.588247362
-445.489050458
-442.445520384
-439.462090124
-436.542650305
-433.690581151
-430.908795519
-428.199778383
-425.565629519
-423.00809843
-420.528621371
-418.128349907
-415.808182125
-413.568785472
-411.410622894
-409.333970957
-407.338941727
-405.425497199
-403.593467774
-401.842563922
-400.172392041
-398.582464032
-397.072211107
-395.640991681
-394.288103515
-393.012790195
-391.814251832
-390.691650335
-389.644118786
-388.670765927
-387.770685181
-386.942960137
-386.186676363
-385.500930569
-384.884845836
-384.337577718
-383.858314684
-383.44626189
-383.100588951
-382.82038549
-382.604614995
-382.45125623
-382.351799961
-382.271936891
-382.209990873
-742.810723139
-742.03169544
-739.965135498
-736.74575358
-732.344188321
-726.857249905
-720.386943614
-713.082128567
-705.115172348
-696.648958766
-687.826726532
-678.770530252
-669.58232534
-660.346129393
-651.130500992
-641.990991852
-632.972354806
-624.110459068
-615.433884031
-606.965231563
-598.722183104
-590.718351432
-582.963960521
-575.466390893
-568.230618106
-561.259567171
-554.554414136
-548.114880466
-541.939563564
-536.02492242
-530.357878755
-524.929104391
-519.717383351
-514.67560726
-509.775845009
-505.025236267
-500.436472411
-496.075478464
-491.964014703
-488.048056773
-484.329416623
-480.784699349
-477.339875712
-473.948661532
-470.586981911
-467.244830168
-463.920602949
-460.617375431
-457.340568631
-454.096545583
-450.891811168
-447.732578607
-444.624561731
-441.572889915
-438.582097382
-435.65614367
-432.798455343
-430.011968805
-427.299178283
-424.662176739
-422.102698261
-419.622152078
-417.221657877
-414.902073136
-412.664022366
-410.507918891
-408.433989275
-406.442290622
-404.532731289
-402.705084632
-400.959006847
-399.294047921
-397.709667146
-396.20524182
-394.780080755
-393.433431153
-392.164490306
-390.972410945
-389.856311268
-388.815278919
-387.848379646
-386.954660849
-386.133160438
-385.382913289
-384.702962948
-384.092370998
-383.550227833
-383.075648353
-382.667753029
-382.325643438
-382.048354792
-381.834757932
-381.682896891
-381.584507151
-381.505092968
-381.442980117
-757.20080727
-756.453471646
-754.311652427
-750.918180746
-746.124955723
-740.065410703
-732.868558554
-724.732883561
-715.877879417
-706.506091525
-696.789034382
-686.867539429
-676.855263782
-666.842867091
-656.902079103
-647.089293578
-637.448613366
-628.014325817
-618.81289266
-609.864511189
-601.184342772
-592.783464899
-584.669617541
-576.847783314
-569.320646866
-562.08896117
-555.151860847
-548.507202629
-542.151798388
-536.078409552
-530.269719556
-524.715116717
-519.38304989
-514.21930417
-509.209391165
-504.364853096
-499.709831126
-495.313265319
-491.178995877
-487.252320853
-483.533610364
-479.988655003
-476.539041463
-473.139618881
-469.767342572
-466.413050537
-463.075805899
-459.759207038
-456.469079874
-453.212101787
-449.995015565
-446.824214662
-443.705542425
-440.644220774
-437.644842306
-434.71140161
-431.847337092
-429.055582811
-426.338614722
-423.698499397
-421.136933363
-418.655284122
-416.25462152
-413.935751616
-411.699241409
-409.545446973
-407.47453304
-405.486496632
-403.581182718
-401.758304278
-400.01745491
-398.358125975
-396.779716717
-395.281548922
-393.862874904
-392.522889997
-391.26073869
-390.075525165
-388.966317774
-387.932157719
-386.972062176
-386.085031959
-385.270054986
-384.52611601
-383.852203428
-383.24732249
-382.71050006
-382.24078586
-381.837240417
-381.498891021
-381.224704584
-381.013578018
-380.863545496
-380.76636382
-380.687503873
-380.625371966
-773.449604707
-772.796216949
-770.548724917
-766.993337225
-761.781488045
-755.038892085
-746.956904284
-737.813177296
-727.89645394
-717.457926409
-706.701369582
-695.787299014
-684.840298462
-673.956139232
-663.207914018
-652.651077082
-642.327433685
-632.268248248
-622.496620004
-613.029292643
-603.878020463
-595.050603462
-586.551671294
-578.383281277
-570.54538002
-563.036165108
-555.852414381
-548.989856437
-542.442867906
-536.198151075
-530.23901836
-524.546619287
-519.076001487
-513.776789075
-508.648171091
-503.705790245
-498.986326616
-494.554363728