/*--------------------------------*- C++ -*----------------------------------*\
| =========                 |                                                 |
| \\      /  F ield         | OpenFOAM: The Open Source CFD Toolbox           |
|  \\    /   O peration     | Version:  v1906                                 |
|   \\  /    A nd           | Web:      www.OpenFOAM.com                      |
|    \\/     M anipulation  |                                                 |
\*---------------------------------------------------------------------------*/
FoamFile
{
    version     2.0;
    format      ascii;
    class       volScalarField;
    location    "6";
    object      pa;
}
// * * * * * * * * * * * * * * * * * * * * * * * * * * * * * * * * * * * * * //

dimensions      [0 2 -2 0 0 0 0];


internalField   nonuniform List<scalar> 
9216
(
407.195754834
406.482484153
405.118082056
403.451438545
401.453952619
398.88089104
395.56462474
392.464468811
389.402228585
386.214680672
382.931663203
379.642163604
376.361597103
373.150765533
370.010632649
366.99351827
364.091465612
361.34808464
358.748425387
356.328435487
354.067700041
351.995526424
350.086967525
348.365934312
346.804706422
345.423336288
344.189723998
343.11974768
342.179500998
341.385942667
340.703255681
340.145250703
339.677229009
339.316984766
339.02922441
338.831538937
338.689799722
338.624585381
338.602036327
338.647349125
338.730039597
338.87984675
339.066432731
339.318874941
339.603465944
339.946909994
340.313076837
340.729299178
341.160090416
341.63351959
342.113800862
342.629296756
343.14422434
343.687203808
344.222670838
344.779364813
345.322202939
345.879863073
346.418265064
346.965783728
347.49042053
348.017276815
348.509813266
348.930706272
349.323900241
349.915938147
350.523094859
350.974497188
351.348751507
351.670239191
351.94782155
352.187183508
352.391134027
352.561920022
352.701326581
352.810332
352.890746639
352.942890412
352.968893175
352.96868066
352.944775226
352.896816791
352.827519833
352.736416386
352.626762012
352.498030988
352.352978405
352.190693302
352.013441548
351.819484136
351.611433919
351.391294807
351.165983884
350.935371246
350.729391119
350.592908233
407.603919985
407.069811106
405.930706539
404.252497015
402.269940322
399.867392247
396.881057745
394.176156423
391.711878022
389.050155779
386.344825371
383.647206561
380.991184805
378.398466519
375.892194363
373.485327229
371.194346752
369.025182149
366.989030593
365.086273414
363.323911167
361.697990817
360.212136798
358.859228582
357.640215386
356.545092674
355.571995711
354.708202969
353.950494314
353.287105273
352.713039977
352.216216069
351.793429272
351.438238309
351.147769556
350.912422872
350.726500584
350.582627658
350.476446531
350.405443535
350.369292881
350.370153631
350.407833456
350.48207692
350.586514688
350.717292688
350.868402792
351.038751615
351.223435964
351.422117925
351.629727132
351.846426142
352.067143457
352.29251139
352.517481889
352.74307138
352.964280664
353.182397506
353.392571748
353.59597123
353.787162841
353.963462333
354.110415913
354.210377047
354.279811739
354.393732888
354.535492189
354.656013595
354.742429556
354.794492938
354.816823959
354.810473121
354.779426735
354.723920171
354.647206575
354.549125875
354.432582772
354.297332798
354.146134154
353.97882663
353.798112131
353.603956136
353.398926207
353.183176828
352.959318329
352.727584914
352.490120761
352.247012322
351.999942516
351.749135686
351.500250739
351.273958384
351.022259583
350.755066469
350.566678093
350.427608968
408.358616364
407.968568744
406.687589796
404.92246153
402.956095075
400.628322621
398.021930678
395.336104555
392.727024605
390.129881673
387.552132037
385.012343474
382.532866339
380.129406305
377.820504189
375.616207981
373.5297854
371.565434501
369.731651265
368.027734909
366.458369581
365.019004366
363.711361216
362.527919263
361.467887274
360.520945667
359.683824389
358.943726482
358.295802343
357.7264718
357.229864903
356.793298891
356.41552086
356.091425358
355.818535385
355.586558294
355.393849942
355.231176155
355.097982733
354.99105166
354.916022014
354.873373684
354.867395567
354.891115611
354.937721074
355.000633526
355.079060579
355.168265731
355.267647543
355.372974462
355.483746972
355.596163899
355.709832919
355.821358082
355.930409109
356.033904865
356.131479867
356.220172574
356.299251445
356.365047189
356.414777408
356.440992604
356.43491312
356.386797305
356.306488897
356.231705245
356.18286121
356.135383627
356.074757424
355.993463969
355.891484814
355.768011263
355.625401554
355.463750774
355.285484443
355.090814599
354.882023518
354.659423839
354.425207421
354.17985223
353.925512457
353.662841551
353.393937509
353.11965161
352.842055716
352.562082407
352.281509408
352.001289526
351.72315186
351.449453946
351.186909031
350.955360841
350.684167345
350.472388926
350.254903187
350.049338421
409.441805399
409.047169896
407.730291102
405.79141274
403.577634967
401.119876275
398.457214239
395.682265832
392.912034227
390.171002253
387.473834027
384.83695506
382.278080762
379.812937197
377.45624777
375.218998355
373.11068338
371.136857075
369.302057415
367.607207453
366.05288094
364.636409961
363.355326278
362.20413911
361.177793609
360.268172112
359.467699512
358.765635697
358.152002117
357.614159689
357.141477248
356.724174673
356.36106406
356.054756921
355.796718969
355.573207195
355.382393979
355.219014437
355.080788571
354.96888117
354.889670765
354.847729754
354.845161599
354.871191264
354.915633302
354.975932915
355.050010597
355.13483544
355.22840432
355.327924943
355.431577155
355.53682366
355.642036985
355.744917737
355.843975693
355.937040627
356.022605158
356.098376191
356.162390628
356.211500909
356.242151294
356.249191628
356.22756467
356.174912039
356.099255555
356.018082812
355.942513797
355.865537343
355.77878129
355.676659912
355.55717083
355.419390366
355.263902504
355.091123306
354.902259162
354.698084375
354.479970973
354.24885548
354.006208114
353.753117389
353.49115701
353.221564239
352.946000511
352.665828624
352.382738537
352.098095331
351.813483928
351.530397387
351.250952662
350.97834194
350.717573722
350.47192297
350.221164125
350.016689549
349.769692272
349.606119463
410.926414278
410.362450155
408.901552961
406.834613656
404.44925807
401.84855056
399.075191214
396.200166039
393.303260201
390.429191154
387.605561925
384.854579312
382.195378298
379.644687549
377.216219489
374.920903074
372.766549714
370.758423865
368.8991359
367.189318854
365.627552342
364.210972157
362.935108015
361.794344059
360.781618464
359.888714014
359.105837022
358.421725057
357.82343354
357.297235173
356.830017614
356.413280998
356.048762691
355.746419404
355.496155932
355.275883179
355.079112243
354.904605842
354.751292291
354.622788738
354.527871396
354.474570958
354.463940362
354.482543505
354.518143747
354.56926456
354.633539381
354.708688245
354.792286198
354.88214056
354.975964518
355.071731757
355.167331436
355.260897151
355.350445666
355.434165581
355.510052484
355.576138832
355.630077422
355.669365142
355.690908175
355.691672495
355.669151442
355.623520524
355.559649978
355.485712737
355.406820515
355.321548504
355.226031511
355.117096961
354.99280139
354.852307128
354.69548973
354.522689153
354.334529534
354.131817467
353.915499318
353.686614896
353.446313516
353.195815823
352.936449592
352.669596077
352.396728066
352.119322964
351.838890635
351.556866465
351.274721055
350.994096616
350.717256816
350.44767448
350.19045315
349.950350863
349.729480266
349.443793653
349.226175479
349.055746992
412.642220857
412.079703036
410.465908335
408.229759922
405.697987908
402.976442325
400.098025528
397.121412194
394.11099193
391.115807468
388.171298841
385.305253368
382.540090627
379.894243746
377.382078673
375.014556561
372.799090577
370.740327762
368.840081416
367.098147379
365.512186976
364.078454165
362.791530791
361.644895365
360.630470952
359.738987142
358.959279198
358.278419552
357.681306081
357.152100703
356.676210789
356.245900543
355.867321323
355.557060133
355.305506756
355.082619883
354.872925313
354.677450117
354.499208006
354.343262722
354.221989164
354.146966938
354.120387998
354.125735172
354.147594328
354.184790702
354.235076231
354.296333878
354.36621344
354.442618598
354.523285838
354.606232106
354.689330858
354.770721985
354.848383178
354.920500286
354.985044128
355.040114686
355.083518225
355.113164666
355.126718422
355.122294492
355.098653297
355.056331149
354.997984522
354.927532831
354.847486293
354.757865066
354.657031872
354.543317289
354.415370865
354.272517052
354.114484344
353.94146179
353.753840444
353.552285835
353.33755747
353.110605404
352.872441148
352.62423528
352.367213025
352.102731638
351.832179987
351.557011562
351.278642276
350.998465561
350.717867589
350.438423026
350.162355592
349.893140083
349.635750603
349.393821195
349.15854204
348.871892128
348.617676706
348.325765917
414.698442756
414.220175717
412.447063182
410.011358072
407.332235358
404.493293673
401.503302822
398.410124758
395.273138344
392.144233245
389.064580915
386.067002823
383.177633744
380.417205993
377.801438861
375.341811185
373.045805747
370.917695973
368.958763747
367.168044593
365.542430048
364.077266141
362.766261645
361.601882224
360.575026744
359.675134277
358.889519168
358.203190729
357.598655341
357.057604034
356.564076396
356.111675681
355.712005784
355.387500594
355.129354495
354.900085894
354.675762053
354.456051424
354.24719641
354.05822633
353.905045777
353.803622062
353.758077212
353.748050955
353.754529115
353.776459621
353.81172368
353.858214172
353.913707886
353.97610407
354.043231361
354.11307315
354.183562825
354.252788455
354.318776011
354.379673291
354.433536045
354.478515639
354.512657881
354.534165051
354.541263034
354.532629819
354.507535534
354.466296943
354.410289979
354.341418259
354.260990828
354.169276539
354.065614737
353.949150072
353.819054895
353.674845467
353.516289817
353.343488626
353.15673313
352.956551062
352.743595269
352.518695369
352.282777299
352.036917449
351.782276046
351.520137955
351.251839055
350.978767727
350.702286514
350.423716544
350.144362289
349.865719671
349.589862464
349.320152582
349.061642312
348.818371597
348.58422217
348.3251097
347.959116541
347.547872776
417.153841819
416.814046552
414.86008005
412.182090784
409.333812375
406.361410768
403.238010344
400.001668632
396.711513427
393.423504812
390.184297735
387.031645082
383.995525344
381.0992126
378.36002203
375.790106417
373.39712554
371.18497947
369.154406101
367.303582588
365.628550945
364.123602031
362.7814539
361.593374
360.54905924
359.636390208
358.840863916
358.145040625
357.528670277
356.970687623
356.453898098
355.97418503
355.549834954
355.208015482
354.940131478
354.702501541
354.464430921
354.219626267
353.976782232
353.751709007
353.563597123
353.433582992
353.367634013
353.341030274
353.331193401
353.337199031
353.356965228
353.388387066
353.429303844
353.477620826
353.531220629
353.588075297
353.646156736
353.703532782
353.758269356
353.808516257
353.85241124
353.888182734
353.914070917
353.928490551
353.930002339
353.917551815
353.89055475
353.84906357
353.793705714
353.725386014
353.644772255
353.552085347
353.447052738
353.329237281
353.19815506
353.053493742
352.895097174
352.723041215
352.537565583
352.339107842
352.12823767
351.905689615
351.672309481
351.429091474
351.177126727
350.917633216
350.651887806
350.381224574
350.106951487
349.830339573
349.552638242
349.275235939
349.000132701
348.730709199
348.472150866
348.229450889
347.994895944
347.716501548
347.258412674
346.72011743
420.048132167
419.890916393
417.719729564
414.743289061
411.688734534
408.553112946
405.264221799
401.850990366
398.374921486
394.897416377
391.470988178
388.138406381
384.93344681
381.881913872
379.002557275
376.308107994
373.806140238
371.50003289
369.389676899
367.472238466
365.74261228
364.193895944
362.81753019
361.603442548
360.539819272
359.612780275
358.805608546
358.098115476
357.466887154
356.88796748
356.343126169
355.831716449
355.380022623
355.018885128
354.738832204
354.491865001
354.240169036
353.96923467
353.690375422
353.42705724
353.202051692
353.04231055
352.955102245
352.910835851
352.883858266
352.873318371
352.87713663
352.893181883
352.919322461
352.953459583
352.993507107
353.037431788
353.08323111
353.128968845
353.17274503
353.212728545
353.247130025
353.274251992
353.292477594
353.30036246
353.296654036
353.280408533
353.251052683
353.208413696
353.152683869
353.084222381
353.003330706
352.910113786
352.804439663
352.686066989
352.554717428
352.410198638
352.252427738
352.081479098
351.897571522
351.701079782
351.49251658
351.27253648
351.041922309
350.801590241
350.552573767
350.29602156
350.033162401
349.765272319
349.493622806
349.219432424
348.943892756
348.668351598
348.394691692
348.126314074
347.868821266
347.627091477
347.390661805
347.08621125
346.52930122
345.846496267
423.413672876
423.479153384
421.042389646
417.699516754
414.390360752
411.052124067
407.558537496
403.929839333
400.231648976
396.532037852
392.889842816
389.35290464
385.958625772
382.73501
379.701888601
376.872119815
374.252818934
371.846405372
369.651610359
367.664220644
365.877746908
364.283793093
362.872334631
361.631687913
360.548330081
359.606308579
358.786407663
358.065313116
357.416202969
356.812122362
356.234237235
355.686615407
355.205095946
354.823052947
354.528959228
354.271335275
354.004850173
353.706265071
353.389576829
353.086052658
352.822714658
352.632805777
352.523865374
352.46092244
352.416021783
352.388356454
352.375795487
352.376178451
352.387359257
352.407234019
352.433718565
352.464780337
352.49842464
352.532722484
352.565795016
352.59584024
352.621120864
352.640005813
352.65097039
352.652663181
352.643922414
352.623845671
352.591813386
352.547492916
352.490797087
352.421776727
352.340494135
352.246950505
352.141038654
352.022605977
351.891478429
351.747544484
351.590767618
351.421234787
351.239147688
351.044846379
350.83879282
350.621587193
350.393950372
350.156740597
349.910929549
349.657612428
349.397962627
349.133211335
348.864579554
348.593245199
348.320335575
348.047075897
347.775201112
347.507925246
347.250559632
347.00850139
346.767799614
346.432937539
345.769276786
344.932890506
427.278685484
427.607348268
424.846172263
421.057780499
417.435807508
413.847617085
410.104286427
406.217424147
402.25821906
398.302458584
394.415738201
390.650907527
387.048583958
383.638449089
380.440736721
377.467854573
374.725807291
372.215593501
369.934268329
367.875926861
366.032314319
364.393338555
362.947210878
361.680473107
360.577597395
359.620338968
358.786601032
358.049659802
357.379029182
356.744905171
356.128468007
355.539978951
355.026381753
354.622325282
354.312880812
354.042719209
353.758672737
353.430569446
353.074128092
352.728076802
352.425295474
352.205379284
352.074644779
351.992069939
351.928551292
351.883238233
351.85393666
351.838425108
351.834527964
351.840112977
351.853086551
351.871404189
351.893073119
351.916165203
351.938818708
351.959251992
351.975769247
351.986783595
351.990832922
351.986615442
351.973014507
351.949125434
351.914277892
351.86801272
351.810067261
351.740291379
351.658594252
351.564880153
351.459030736
351.340915031
351.210412978
351.067450381
350.912024095
350.744222888
350.564242691
350.372391148
350.169097875
349.95491157
349.730508695
349.496688965
349.254376955
349.004609491
348.748515247
348.487270384
348.222054308
347.953969455
347.684055677
347.413359352
347.143228617
346.876366837
346.617275281
346.369515398
346.114226921
345.733239467
344.883766128
343.980845317
431.672500964
432.301527582
429.149968146
424.824704897
420.82085875
416.927764001
412.884475394
408.693042998
404.431567435
400.18463103
396.024895875
392.009940061
388.182969632
384.574468171
381.20423787
378.083338744
375.215980212
372.601043405
370.23345704
368.105145937
366.205827769
364.523386449
363.044105501
361.752479113
360.630794516
359.658170755
358.809314171
358.053683938
357.356995914
356.686900438
356.025880897
355.392167593
354.844691777
354.417751941
354.091820162
353.806714397
353.501196741
353.14096164
352.742378975
352.351315347
352.008376206
351.759314235
351.607137292
351.50406847
351.421316016
351.357921477
351.311590787
351.280031657
351.261008028
351.252348744
351.251928699
351.257685542
351.267613826
351.279783684
351.292337664
351.30351042
351.311628749
351.315138128
351.312608479
351.302767363
351.284507959
351.256913062
351.219254464
351.17098492
351.111712045
351.041158647
350.959116145
350.865416978
350.759905041
350.642449942
350.512942403
350.371329182
350.217614512
350.051891722
349.874340865
349.685251549
349.485017108
349.274152514
349.053285991
348.823175667
348.584692556
348.338829132
348.08665942
347.829313228
347.567905177
347.30347642
347.036934391
346.769062262
346.500830685
346.233868672
345.971020545
345.713400711
345.4353048
345.003336192
344.082915898
343.030815178
436.63683174
437.597933327
433.977313772
429.016129253
424.539615464
420.273099264
415.876327638
411.330783153
406.724049211
402.150662526
397.690525556
393.405386287
389.340015008
385.524582461
381.977245852
378.706738059
375.714517753
372.996704801
370.545470953
368.350219202
366.398249872
364.675246472
363.165295226
361.850707546
360.711289905
359.723259383
358.857658725
358.079767201
357.351261038
356.637916716
355.925785935
355.243872352
354.660829287
354.209565105
353.866034059
353.563117352
353.231659951
352.835394657
352.39150126
351.953414145
351.570165537
351.293584655
351.120779075
350.996429561
350.893927426
350.812101344
350.748544177
350.700861068
350.666741102
350.643950022
350.630320448
350.623756078
350.622232148
350.623804981
350.626616083
350.628902728
350.629006245
350.625385006
350.61662832
350.601469585
350.578802229
350.547681373
350.507333866
350.457135611
350.396607566
350.325372698
350.243142534
350.149680042
350.044795688
349.92833469
349.800188623
349.660298464
349.508673127
349.345393663
349.170632188
348.984651207
348.787821784
348.580619001
348.363638508
348.137590133
347.903306049
347.661725474
347.413878816
347.160838991
346.903669991
346.643323915
346.380598929
346.116061032
345.850153889
345.583789208
345.318595104
345.053010002
344.75859683
344.295685331
343.347084885
342.057000144
442.228557515
443.54965534
439.357386299
433.647255855
428.585238525
423.860779753
419.048224082
414.09578508
409.100001088
404.165960987
399.380554503
394.808676571
390.495265583
386.468584084
382.743765419
379.325904157
376.212784411
373.39691945
370.867234261
368.610127274
366.610267361
364.850855555
363.313675057
361.978606114
360.822789691
359.819118246
358.934568638
358.129760087
357.362263046
356.59688692
355.826534177
355.094621018
354.474604652
353.997131117
353.634908745
353.310879273
352.94872825
352.511541358
352.018663726
351.531945387
351.108861732
350.80720952
350.614973176
350.468620201
350.345940567
350.245438056
350.164548636
350.100753918
350.051641188
350.014899704
349.988301879
349.969709092
349.957064198
349.948404175
349.941857152
349.935657754
349.928146509
349.917788071
349.903172377
349.883033402
349.856248474
349.821849729
349.779015698
349.727068458
349.665453647
349.593727125
349.511527895
349.418569537
349.314617476
349.19949618
349.073075848
348.93529199
348.786137956
348.625688239
348.454092623
348.271598143
348.078543249
347.875377912
347.662656149
347.441054975
347.21135804
346.974465751
346.73135563
346.483055841
346.230567844
345.974794945
345.716426413
345.455843484
345.193255386
344.928828103
344.663063491
344.393959469
344.08870627
343.587986195
342.517476375
341.020101018
448.524339315
450.212213043
445.317612031
438.721546935
432.941604298
427.654233985
422.351297128
416.940086988
411.513087479
406.187417448
401.056458141
396.186733064
391.621333541
387.384713816
383.487178979
379.928863415
376.702726985
373.796988343
371.196711846
368.885018815
366.843638704
365.053204457
363.492985501
362.140322332
360.969359494
359.949308746
359.042548015
358.204757906
357.389561473
356.562294088
355.726088773
354.942292467
354.284896784
353.780257025
353.398011343
353.048819921
352.650698058
352.167039649
351.621134313
351.084632207
350.623036471
350.299557054
350.089205271
349.920109845
349.776923571
349.657613575
349.559394463
349.479588224
349.415662715
349.36521311
349.325942149
349.295656421
349.272260085
349.253759866
349.238265748
349.223997641
349.209290779
349.192601712
349.17251752
349.147758308
349.117187327
349.079804576
349.034753649
348.981302751
348.918846132
348.846876177
348.764982308
348.672824372
348.570135431
348.456704215
348.332385213
348.197089632
348.050801364
347.893571489
347.725537462
347.546917253
347.358030084
347.159289339
346.951222481
346.734462889
346.509761299
346.277968655
346.040024233
345.796904334
345.549573917
345.298872234
345.045438553
344.789564993
344.531129229
344.270017832
344.006150973
343.735193726
343.419751814
342.877397211
341.66229357
339.938518832
455.611582658
457.626241505
451.865712195
444.223138398
437.579999287
431.60469048
425.724436892
419.801252967
413.904690987
408.162492675
402.673056838
397.502189491
392.688581649
388.250396899
384.191214639
380.504625714
377.177795227
374.19385644
371.533663104
369.176724109
367.101770702
365.286703589
363.708254942
362.340990728
361.155823684
360.117762633
359.184163198
358.305535226
357.432352587
356.53284375
355.623918576
354.786432511
354.091975162
353.560130837
353.15609628
352.776324999
352.335706853
351.799225962
351.196121373
350.609482802
350.112190772
349.770985245
349.54292131
349.350343214
349.186478297
349.048377134
348.93294282
348.837314138
348.758823428
348.694963687
348.643357728
348.601751096
348.567999978
348.54007626
348.516061892
348.494158815
348.472685245
348.450087832
348.424937897
348.395943368
348.361942412
348.321911447
348.274953299
348.220299116
348.157290177
348.085376177
348.004093302
347.913065066
347.811981386
347.700606834
347.578763786
347.446348261
347.303317117
347.149708397
346.985631191
346.811287266
346.626962504
346.433048537
346.230033416
346.018522887
345.799222444
345.57295009
345.340597186
345.103104872
344.86139042
344.61627724
344.368350307
344.117817081
343.86450519
343.607736564
343.346428792
343.075501876
342.75087105
342.162509343
340.792239844
338.824052844
463.557432859
465.809257181
458.983591804
450.107912885
442.444338248
435.651561723
429.092998767
422.596303808
416.202560362
410.029207993
404.179187376
398.714630656
393.666456735
389.043794344
384.841272069
381.044556264
377.633985255
374.587160628
371.880370242
369.489501632
367.390197637
365.55771567
363.966140734
362.587177954
361.388103184
360.329263277
359.362444113
358.432973577
357.489482295
356.507274781
355.521701797
354.629108965
353.897119733
353.33843716
352.909920095
352.492461859
352.001408283
351.404957323
350.740661357
350.10486702
349.578247711
349.222260311
348.974059863
348.758596975
348.574290968
348.417594085
348.285166374
348.173977154
348.081224335
348.004294533
347.940725223
347.888194205
347.844505017
347.807586979
347.775491089
347.746392027
347.718589882
347.690510525
347.660711089
347.62787635
347.590825722
347.548503179
347.499983486
347.444454726
347.381222921
347.309689473
347.229355592
347.139799354
347.040682694
346.931732085
346.812750085
346.683600688
346.54422556
346.394632508
346.234915409
346.065243654
345.885884576
345.697193132
345.499633967
345.293771104
345.08028173
344.859937848
344.633599398
344.402163571
344.166526035
343.927468042
343.685564654
343.440997367
343.193328139
342.941684676
342.684358972
342.413336156
342.078940416
341.445052463
339.910961273
337.681638829
472.383360929
474.722808077
466.610557034
456.297426402
447.429986216
439.693099702
432.362152728
425.233635544
418.323391002
411.717741192
405.519712839
399.78277056
394.525882704
389.745891705
385.426458228
381.543952138
378.071319916
374.980278484
372.242632574
369.830679949
367.717219515
365.874917087
364.275312023
362.887026969
361.67334972
360.589327183
359.58075643
358.587910583
357.559715697
356.484217197
355.421188465
354.472835749
353.701989207
353.116603926
352.658695597
352.195207957
351.645529371
350.98111291
350.252301528
349.569726179
349.021969856
348.653050379
348.381922506
348.144675241
347.940332599
347.765320911
347.6161802
347.489736969
347.383060971
347.293428228
347.218287003
347.155242209
347.102039184
347.056561647
347.016822527
346.980968469
346.947272426
346.91414125
346.880107624
346.843838497
346.804124535
346.759887372
346.710165127
346.654117617
346.591007762
346.520206011
346.441169154
346.353446743
346.25665983
346.150511884
346.034769546
345.909278771
345.773948382
345.628770214
345.473805268
345.309205863
345.135203883
344.952133899
344.760421098
344.560604893
344.353318736
344.139306435
343.919383591
343.694419619
343.465269821
343.232714515
342.997291582
342.759119363
342.517758431
342.271743566
342.018242227
341.748389399
341.405417147
340.72371347
339.019525996
336.515080865
482.024092206
484.236699216
474.604541112
462.64207019
452.376716146
443.579883403
435.400073284
427.602589245
420.17149659
413.152515196
406.63876338
400.668108337
395.242540059
390.343561918
385.941983957
382.004171393
378.495376373
375.381685752
372.630658157
370.211475409
368.094361403
366.249717727
364.646530948
363.250207517
362.01945029
360.9034124
359.841481844
358.769771228
357.640898348
356.461901404
355.320966313
354.318096928
353.508454119
352.895586256
352.401041086
351.882387747
351.265184241
350.525334961
349.730617906
349.004727943
348.443169588
348.063518958
347.768151823
347.509106886
347.284890956
347.091805941
346.926240563
346.7848708
346.664627083
346.562671355
346.476355673
346.403208579
346.340913531
346.287303773
346.240353293
346.198173726
346.159012645
346.12124891
346.083395553
346.044091628
346.002107714
345.956332988
345.905781786
345.849575736
345.786950751
345.717235615
345.639859996
345.554332019
345.460248646
345.35727469
345.2451568
345.123705165
344.992811483
344.852433019
344.702614133
344.543471549
344.375218631
344.198151598
344.012673706
343.819282432
343.618585696
343.411282468
343.198160667
342.980047966
342.757782698
342.53210401
342.303546985
342.072211439
341.837382211
341.597427098
341.348876108
341.079748044
340.727823322
340.000331462
338.119746224
335.32579171
492.276300245
494.081260867
482.697669003
468.887220312
457.058534075
447.119096506
438.045879381
429.568717553
421.638830238
414.257012294
407.485492137
401.340169329
395.801579187
390.833253167
386.392281592
382.434873982
378.919163397
375.806198491
373.060125655
370.647598066
368.536888366
366.696389804
365.092650544
363.687461007
362.434306948
361.275672178
360.144456582
358.974461038
357.727989029
356.438346545
355.218098482
354.16210511
353.316263774
352.674819099
352.135390135
351.55166332
350.85606564
350.034961746
349.175927178
348.412594381
347.84456452
347.454844522
347.133616347
346.852403617
346.608369081
346.397428173
346.215733976
346.059770719
345.926319631
345.81241686
345.715316527
345.632465938
345.56148424
345.500152944
345.446402299
345.398310565
345.354092532
345.312103577
345.270827598
345.228883548
345.185011249
345.138078861
345.087065692
345.031069943
344.969288504
344.901025423
344.825669646
344.742705517
344.651690072
344.552266957
344.444144857
344.327115506
344.20103413
344.065840919
343.921543739
343.76824161
343.606109691
343.435424152
343.256547124
343.069952878
342.876204872
342.675975911
342.470009152
342.259105659
342.044061124
341.825613435
341.604255472
341.380019138
341.152211129
340.918591965
340.674555958
340.407465721
340.0481595
339.273294619
337.211753678
334.116102363
502.778067276
503.823469546
490.454024595
474.643242545
461.190808345
450.066504601
440.104052396
430.98940517
422.626822907
414.965863641
408.023142562
401.784035162
396.20339896
391.225639938
386.794316956
382.856646415
379.364854944
376.276369028
373.553005328
371.159936366
369.064095704
367.232306989
365.628561838
364.210564008
362.925697544
361.709198334
360.487865002
359.196639667
357.816091165
356.414511225
355.114400246
354.005271065
353.127239436
352.455696888
351.860688414
351.199506106
350.413387336
349.505909039
348.586853633
347.796655116
347.22922859
346.826291789
346.478443039
346.174963109
345.91125102
345.68270736
345.485183553
345.314956805
345.168641727
345.043148772
344.935627539
344.843444412
344.76415224
344.69547846
344.635310847
344.581688763
344.5327984
344.486963237
344.442645255
344.398432706
344.353045168
344.305317711
344.254208382
344.198778717
344.138202958
344.071745773
343.998773307
343.918729644
343.831150396
343.735639612
343.631886664
343.519644803
343.398751601
343.269109192
343.130708045
342.98360825
342.827966125
342.664016843
342.492100946
342.312648821
342.126199138
341.933378059
341.73490128
341.531525074
341.324026353
341.113093747
340.899214323
340.682400975
340.461675815
340.23469265
339.996286355
339.730695674
339.363712381
338.544331415
336.29697457
332.886537655
513.073295476
512.676741438
497.303337465
479.549263733
464.461034938
452.149518252
441.363049911
431.720377523
423.051988924
415.236883489
408.240593769
402.009415991
396.470689347
391.550550072
387.181279104
383.303396368
379.865595648
376.82353904
374.138389332
371.774949219
369.699678392
367.878083974
366.271463457
364.832609839
363.501975042
362.207105008
360.870397621
359.433839711
357.906053958
356.393975589
355.016998185
353.855938495
352.94800931
352.2411787
351.575169442
350.820677055
349.931461189
348.93359003
347.961524165
347.160872837
346.598124965
346.175141093
345.802439378
345.477235778
345.194182645
344.948326044
344.735268996
344.551077166
344.392207801
344.255438113
344.137817247
344.036627587
343.949356122
343.873676858
343.80743168
343.748624822
343.695406834
343.646076042
343.599062441
343.552933399
343.506375889
343.458204826
343.407342893
343.352830689
343.293804134
343.229506336
343.159263249
343.08249779
342.998704932
342.907468865
342.808438786
342.701349563
342.585999045
342.462271723
342.330117998
342.189579694
342.040771604
341.883908587
341.719287175
341.547314497
341.368482045
341.183389608