/*--------------------------------*- C++ -*----------------------------------*\
| =========                 |                                                 |
| \\      /  F ield         | OpenFOAM: The Open Source CFD Toolbox           |
|  \\    /   O peration     | Version:  v1906                                 |
|   \\  /    A nd           | Web:      www.OpenFOAM.com                      |
|    \\/     M anipulation  |                                                 |
\*---------------------------------------------------------------------------*/
FoamFile
{
    version     2.0;
    format      ascii;
    class       volVectorField;
    location    "486";
    object      U;
}
// * * * * * * * * * * * * * * * * * * * * * * * * * * * * * * * * * * * * * //

dimensions      [0 1 -1 0 0 0 0];


internalField   nonuniform List<vector> 
9216
(
(0.00270988133057 -0.00271238475342 0)
(0.00285716426061 -0.00875327272511 1.17228109422e-27)
(0.00284901019909 -0.0148882337881 1.84109937211e-31)
(0.00281173173287 -0.0210235949264 0)
(0.00275998330418 -0.0270561619462 0)
(0.00269521774497 -0.0329616768659 0)
(0.00261913000929 -0.0387142992583 0)
(0.00253305311015 -0.0442910574394 0)
(0.00243830032922 -0.0496717595342 0)
(0.00233612969739 -0.0548390065234 0)
(0.00222782197956 -0.059778132227 0)
(0.0021145640203 -0.0644771663283 0)
(0.00199753298488 -0.0689266849896 0)
(0.00187776395574 -0.0731196827665 0)
(0.00175626401326 -0.0770513476408 0)
(0.00163386989861 -0.0807188842556 0)
(0.00151139370385 -0.0841212605257 0)
(0.00138946746574 -0.0872590260148 0)
(0.00126871781576 -0.0901340684562 0)
(0.00114959311794 -0.0927494569541 0)
(0.00103256411009 -0.0951092301202 0)
(0.000917929569096 -0.0972182771784 0)
(0.00080604028845 -0.0990821653007 0)
(0.000697080883914 -0.100707059697 0)
(0.000591315654374 -0.102099587318 0)
(0.000488845304218 -0.103266789099 0)
(0.000389873703361 -0.104216012844 0)
(0.000294439891702 -0.104954888667 0)
(0.000202705789888 -0.105491242636 0)
(0.000114665507735 -0.105833088104 0)
(3.0455943137e-05 -0.105988541029 0)
(-4.99781638385e-05 -0.105965886035 0)
(-0.000126552328921 -0.105773357873 0)
(-0.000199346846193 -0.105419229781 0)
(-0.000268275060023 -0.104911785804 0)
(-0.00033344757314 -0.104259287975 0)
(-0.000394804943887 -0.103469926441 0)
(-0.00045248794864 -0.102551817229 0)
(-0.000506456829253 -0.101512952714 0)
(-0.000556877571695 -0.100361201219 0)
(-0.000603726885188 -0.0991042642253 0)
(-0.000647191793825 -0.0977496762612 0)
(-0.00068726240111 -0.0963047697607 0)
(-0.000724142426477 -0.0947766758722 0)
(-0.000757831752491 -0.0931722970854 0)
(-0.000788545954195 -0.0914983087289 0)
(-0.000816291173653 -0.0897611400996 0)
(-0.000841290191631 -0.0879669769274 0)
(-0.00086355183629 -0.0861217504695 0)
(-0.000883301519694 -0.0842311401764 0)
(-0.000900547833441 -0.0823005707964 0)
(-0.000915514996902 -0.0803352149845 0)
(-0.000928208906382 -0.0783399972379 0)
(-0.000938849341561 -0.0763195952373 0)
(-0.000947438107945 -0.0742784501184 0)
(-0.000954188415181 -0.0722207659442 0)
(-0.000959097332735 -0.0701505247605 0)
(-0.000962370168324 -0.0680714828586 0)
(-0.000963999750748 -0.0659871899294 0)
(-0.000964183255177 -0.0639009815686 0)
(-0.000962910390172 -0.0618160010759 0)
(-0.000960370545336 -0.0597351872146 0)
(-0.000956552187264 -0.0576612982805 0)
(-0.000951637899061 -0.0555968950935 0)
(-0.000945616872967 -0.0535443664574 0)
(-0.000938665863053 -0.0515059071354 0)
(-0.000930776848757 -0.0494835449475 0)
(-0.000922121707652 -0.0474791144094 0)
(-0.000912696756977 -0.0454942852702 0)
(-0.000902669413562 -0.0435305322386 0)
(-0.00089204147043 -0.0415891656751 0)
(-0.000880975868928 -0.0396712984747 0)
(-0.00086948025081 -0.0377778790531 0)
(-0.000857712391361 -0.0359096560271 0)
(-0.000845685664427 -0.0340672142242 0)
(-0.000833551576554 -0.0322509381164 0)
(-0.000821328508926 -0.0304610509157 0)
(-0.000809160136177 -0.0286975772131 0)
(-0.00079706884256 -0.0269603856029 0)
(-0.000785188710453 -0.0252491511297 0)
(-0.000773544774771 -0.0235634013247 0)
(-0.000762259496942 -0.0219024787367 0)
(-0.000751358946491 -0.0202655906908 0)
(-0.000740951502959 -0.0186517726347 0)
(-0.000731061611668 -0.0170599421565 0)
(-0.000721779074704 -0.0154888652405 0)
(-0.000713119407716 -0.0139372184872 0)
(-0.000705138506299 -0.0124035682003 0)
(-0.000697808755791 -0.0108864626885 0)
(-0.000691067598973 -0.00938448202119 0)
(-0.000684624211374 -0.00789649294484 0)
(-0.000677719806621 -0.00642218963887 0)
(-0.000668244296503 -0.00496384117624 0)
(-0.000646663749525 -0.00354140550046 0)
(-0.000607285351399 -0.00201444321759 0)
(-0.000960395580361 -0.000960188309773 0)
(0.00877297988405 -0.00288742204355 0)
(0.0097005410031 -0.0097711540057 0)
(0.00967814527285 -0.0166421000069 -1.2310311115e-27)
(0.00954870987038 -0.0235184456844 0)
(0.00936959622526 -0.030270289023 0)
(0.0091481466402 -0.0368758806131 0)
(0.00888877467788 -0.0433077928276 0)
(0.00859567610177 -0.0495407850136 0)
(0.00827317619382 -0.0555524461855 0)
(0.00792557390269 -0.0613234343615 0)
(0.00755718183477 -0.0668374950627 0)
(0.00717209438612 -0.0720814144195 0)
(0.0067742643349 -0.0770448693023 0)
(0.00636727312839 -0.0817202522845 0)
(0.00595447638135 -0.0861024306706 0)
(0.00553878306428 -0.0901885152714 0)
(0.00512286822563 -0.0939775912489 0)
(0.00470895026574 -0.0974704845379 0)
(0.00429905964218 -0.100669508697 0)
(0.00389479981318 -0.103578262468 0)
(0.00349765997842 -0.106201416318 0)
(0.00310874720604 -0.108544555301 0)
(0.00272913380143 -0.110614011955 0)
(0.00235955255901 -0.112416754335 0)
(0.00200077328558 -0.113960260731 0)
(0.00165325734683 -0.115252444674 0)
(0.00131756086614 -0.116301561717 0)
(0.000993948582832 -0.117116160301 0)
(0.000682823794586 -0.1177050096 0)
(0.000384304238666 -0.118077064292 0)
(9.86814457677e-05 -0.118241411662 0)
(-0.000174057639415 -0.11820719087 0)
(-0.000433742804084 -0.117983674624 0)
(-0.000680485180909 -0.117580173827 0)
(-0.000914179530408 -0.11700595673 0)
(-0.00113503304436 -0.116270258138 0)
(-0.00134302540971 -0.11538223518 0)
(-0.00153845353927 -0.114350950454 0)
(-0.00172136977656 -0.113185334728 0)
(-0.00189214917986 -0.111894170475 0)
(-0.00205090639127 -0.110486059266 0)
(-0.00219808209614 -0.108969407821 0)
(-0.00233384159537 -0.107352401354 0)
(-0.00245867722702 -0.105642992866 0)
(-0.00257279184877 -0.103848882971 0)
(-0.00267671432682 -0.101977512717 0)
(-0.00277067167256 -0.100036050231 0)
(-0.00285521429404 -0.0980313870553 0)
(-0.00293058031799 -0.0959701313601 0)
(-0.00299732752664 -0.0938586073796 0)
(-0.00305569376163 -0.0917028547831 0)
(-0.00310623206198 -0.0895086305469 0)
(-0.00314917072542 -0.0872814135491 0)
(-0.0031850484159 -0.0850264078872 0)
(-0.00321407771358 -0.0827485517302 0)
(-0.00323677658453 -0.0804525209993 0)
(-0.00325333883768 -0.0781427411489 0)
(-0.00326425861184 -0.0758233899846 0)
(-0.0032697112958 -0.0734984112523 0)
(-0.00327016735166 -0.0711715155491 0)
(-0.00326578677831 -0.0688461945192 0)
(-0.00325701888945 -0.0665257189558 0)
(-0.00324401347618 -0.0642131529083 0)
(-0.00322720293298 -0.061911348535 0)
(-0.00320673283368 -0.0596229595888 0)
(-0.00318302320311 -0.0573504329037 0)
(-0.00315622132058 -0.055096021354 0)
(-0.00312673887709 -0.0528617723657 0)
(-0.00309472947968 -0.0506495405885 0)
(-0.00306059893734 -0.0484609740326 0)
(-0.00302451006669 -0.046297527142 0)
(-0.00298686340398 -0.0441604454303 0)
(-0.00294783163292 -0.0420507795374 0)
(-0.00290780851105 -0.0399693691546 0)
(-0.00286697531911 -0.0379168587977 0)
(-0.00282571583724 -0.0358936818116 0)
(-0.00278421693048 -0.0339000782724 0)
(-0.00274284778032 -0.0319360795878 0)
(-0.00270179670089 -0.0300015289449 0)
(-0.00266141280635 -0.0280960669402 0)
(-0.00262188083398 -0.0262191546667 0)
(-0.00258352360986 -0.0243700605799 0)
(-0.00254651643584 -0.0225478863972 0)
(-0.00251114841594 -0.0207515555255 0)
(-0.00247757709011 -0.0189798418987 0)
(-0.00244604565453 -0.0172313604345 0)
(-0.00241667547248 -0.0155045990853 0)
(-0.00238963006861 -0.013797910979 0)
(-0.00236492778847 -0.0121095439575 0)
(-0.00234250840821 -0.0104376117398 0)
(-0.00232195906007 -0.0087800340399 0)
(-0.00230223348452 -0.0071342107958 0)
(-0.00228057192326 -0.00549576965072 0)
(-0.00224928144319 -0.00385486218509 0)
(-0.0021689754351 -0.00216433255388 0)
(-0.00201301850085 -0.000605272277445 0)
(0.0150186439051 -0.00293329826236 0)
(0.0166294349778 -0.00993194566387 0)
(0.0165687488322 -0.0168931446572 -1.22899179188e-27)
(0.0163377847596 -0.0238701366482 0)
(0.01602610422 -0.0307189624814 0)
(0.0156434742451 -0.0374163613903 0)
(0.0151964046668 -0.0439338690907 0)
(0.0146918242813 -0.0502456915136 0)
(0.0141370652886 -0.0563290954965 0)
(0.0135395746434 -0.0621646006054 0)
(0.0129067560668 -0.0677359835773 0)
(0.0122457259776 -0.0730301985869 0)
(0.011563238104 -0.0780372089612 0)
(0.0108655035197 -0.0827497726045 0)
(0.0101582055682 -0.0871631821986 0)
(0.00944637945542 -0.0912749976445 0)
(0.00873450450037 -0.09508476545 0)
(0.00802642253583 -0.098593757056 0)
(0.00732548424779 -0.101804713962 0)
(0.00663448154869 -0.104721625932 0)
(0.00595582518112 -0.107349524237 0)
(0.00529147027081 -0.109694311849 0)
(0.00464310829019 -0.11176260875 0)
(0.00401207238008 -0.113561631394 0)
(0.00339953403505 -0.115099082596 0)
(0.0028063819952 -0.116383069608 0)
(0.0022334201671 -0.117422026611 0)
(0.00168121949066 -0.11822465881 0)
(0.00115031768706 -0.118799885303 0)
(0.000641046396054 -0.119156797902 0)
(0.000153733399002 -0.119304617354 0)
(-0.000311481115283 -0.119252657947 0)
(-0.00075443486602 -0.119010288896 0)
(-0.00117516125931 -0.118586906139 0)
(-0.00157366288047 -0.117991892485 0)
(-0.00195012858923 -0.117234590715 0)
(-0.00230470270106 -0.116324268048 0)
(-0.0026377161761 -0.115270090255 0)
(-0.00294944365309 -0.114081090535 0)
(-0.00324034261263 -0.112766146113 0)
(-0.0035108006936 -0.111333951056 0)
(-0.00376138197091 -0.109792996453 0)
(-0.0039925661033 -0.108151548352 0)
(-0.00420500066744 -0.106417632407 0)
(-0.00439923382158 -0.10459901738 0)
(-0.00457597177405 -0.102703204563 0)
(-0.00473580683597 -0.100737417244 0)
(-0.00487947899619 -0.0987085949747 0)
(-0.00500760120981 -0.0966233886507 0)
(-0.00512092408019 -0.0944881591427 0)
(-0.00522006028187 -0.0923089776195 0)
(-0.00530575118378 -0.0900916279146 0)
(-0.00537859218413 -0.0878416110424 0)
(-0.00543930010867 -0.0855641502082 0)
(-0.00548844120535 -0.0832641985792 0)
(-0.00552669794551 -0.0809464458294 0)
(-0.00555460120625 -0.0786153277142 0)
(-0.00557279505153 -0.0762750327856 0)
(-0.00558177450029 -0.0739295126664 0)
(-0.00558214662127 -0.0715824878205 0)
(-0.00557437499851 -0.0692374572259 0)
(-0.00555903543125 -0.0668977021642 0)
(-0.00553656807905 -0.0645662946486 0)
(-0.00550752590585 -0.062246098743 0)
(-0.00547233528703 -0.0599397771927 0)
(-0.00543153545171 -0.0576497900869 0)
(-0.00538554835326 -0.0553783999186 0)
(-0.00533490741704 -0.0531276679866 0)
(-0.00528003745193 -0.0508994581924 0)
(-0.00522147130616 -0.0486954317784 0)
(-0.0051596407515 -0.0465170507227 0)
(-0.00509507982985 -0.044365571709 0)
(-0.00502822768615 -0.0422420497919 0)
(-0.00495961770197 -0.040147332387 0)
(-0.00488969337831 -0.0380820640777 0)
(-0.00481898247374 -0.0360466813933 0)
(-0.00474792699529 -0.0340414192165 0)
(-0.00467704173666 -0.0320663068284 0)
(-0.00460675942614 -0.0301211763924 0)
(-0.00453757303775 -0.0282056606097 0)
(-0.0044698969662 -0.026319203343 0)
(-0.00440419247529 -0.0244610589646 0)
(-0.00434084555686 -0.0226303051689 0)
(-0.00428027457407 -0.0208258439378 0)
(-0.00422282481102 -0.0190464161076 0)
(-0.00416885656955 -0.0172906031858 0)
(-0.00411865474439 -0.0155568418266 0)
(-0.00407249311808 -0.0138434219101 0)
(-0.00403055339128 -0.0121484895315 0)
(-0.00399295877915 -0.0104700143551 0)
(-0.00395970453298 -0.00880571833609 0)
(-0.0039307185793 -0.00715287779126 0)
(-0.00390599618827 -0.00550781304159 0)
(-0.00388581955239 -0.00386419186056 0)
(-0.00385557424375 -0.00223233885705 0)
(-0.00353255181245 -0.000641043554907 0)
(0.0214121234628 -0.00297863736697 0)
(0.0237268578958 -0.0100823583504 0)
(0.0236371740436 -0.0171390923944 1.22842110608e-27)
(0.0233026287274 -0.0242123335603 0)
(0.0228520231199 -0.0311520591842 0)
(0.0222998082745 -0.0379335143494 0)
(0.0216554300211 -0.0445270577869 0)
(0.0209289760024 -0.0509061898405 0)
(0.0201311076967 -0.0570478254284 0)
(0.0192726768028 -0.0629324298787 0)
(0.0183644144811 -0.0685439789229 0)
(0.0174166364368 -0.0738698276003 0)
(0.0164390550866 -0.0789004955712 0)
(0.0154406043901 -0.0836294001841 0)
(0.0144293769997 -0.0880525548265 0)
(0.0134125550032 -0.0921682583861 0)
(0.012396446294 -0.0959767860786 0)
(0.0113864870282 -0.0994800997143 0)
(0.0103873396018 -0.102681579559 0)
(0.00940292903835 -0.105585788702 0)
(0.00843656779847 -0.108198265722 0)
(0.00749099573138 -0.110525351494 0)
(0.00656850700573 -0.112574041975 0)
(0.00567097470878 -0.114351870063 0)
(0.00479996653652 -0.115866806715 0)
(0.00395674571386 -0.117127183459 0)
(0.00314237133916 -0.118141626408 0)
(0.00235767526393 -0.118919004182 0)
(0.00160334913041 -0.119468380864 0)
(0.000879901207149 -0.119798977337 0)
(0.000187734443204 -0.119920131524 0)
(-0.000472906762049 -0.119841278318 0)
(-0.00110185987458 -0.119571882816 0)
(-0.00169911759935 -0.119121437729 0)
(-0.00226474691467 -0.118499421785 0)
(-0.00279895825569 -0.117715268175 0)
(-0.00330202549348 -0.116778332354 0)
(-0.00377435922119 -0.115697862892 0)
(-0.00421642192739 -0.114482971838 0)
(-0.00462880259295 -0.113142608552 0)
(-0.00501212748761 -0.111685533871 0)
(-0.00536713592908 -0.110120298079 0)
(-0.00569458750623 -0.108455219965 0)
(-0.00599533899436 -0.106698369768 0)
(-0.00627024898727 -0.104857553807 0)
(-0.00652025621381 -0.102940302876 0)
(-0.00674628271943 -0.100953862671 0)
(-0.00694931370445 -0.0989051876084 0)
(-0.00713030032212 -0.0968009368236 0)
(-0.00729024123182 -0.0946474730329 0)
(-0.00743008609136 -0.0924508635386 0)
(-0.00755081879986 -0.0902168833403 0)
(-0.00765336260662 -0.0879510202106 0)
(-0.00773866503198 -0.0856584810207 0)
(-0.00780760544108 -0.083344199717 0)
(-0.00786108133326 -0.0810128455483 0)
(-0.0078999189625 -0.0786688325593 0)
(-0.00792496058671 -0.0763163283497 0)
(-0.00793697851522 -0.0739592637217 0)
(-0.00793676252045 -0.071601340629 0)
(-0.00792503734821 -0.0692460407316 0)
(-0.00790254937121 -0.0668966314925 0)
(-0.00786998741535 -0.064556172793 0)
(-0.00782806745217 -0.0622275205317 0)
(-0.00777745640421 -0.0599133308824 0)
(-0.00771885376218 -0.0576160612918 0)
(-0.0076529180937 -0.0553379725334 0)
(-0.0075803444832 -0.0530811274707 0)
(-0.00750179356299 -0.0508473914458 0)
(-0.00741796402111 -0.0486384295624 0)
(-0.00732952425062 -0.046455706285 0)
(-0.00723717936668 -0.0443004821638 0)
(-0.00714160577157 -0.0421738135436 0)
(-0.00704351248942 -0.0400765496497 0)
(-0.00694357917421 -0.0380093332668 0)
(-0.00684251167815 -0.0359725989372 0)
(-0.00674098409057 -0.0339665752032 0)
(-0.0066396886249 -0.0319912844264 0)
(-0.00653928230051 -0.0300465469913 0)
(-0.00644043114995 -0.028131983004 0)
(-0.00634376203149 -0.0262470185418 0)
(-0.00624990112241 -0.0243908892264 0)
(-0.00615943118625 -0.0225626483877 0)
(-0.00607292406107 -0.020761172191 0)
(-0.00599090337769 -0.0189851690447 0)
(-0.00591387049885 -0.0172331850896 0)
(-0.00584227241906 -0.0155036126327 0)
(-0.00577652092382 -0.0137946917992 0)
(-0.0057169675427 -0.0121045097399 0)
(-0.00566392405768 -0.0104309838331 0)
(-0.00561767024742 -0.00877183323146 0)
(-0.00557854486612 -0.00712451743335 0)
(-0.00554708064955 -0.00548616255029 0)
(-0.00552322297117 -0.00385231332722 0)
(-0.00548155253815 -0.00224482409256 0)
(-0.00493760252355 -0.000657075004048 0)
(0.0279124237222 -0.00303817436265 0)
(0.0309329829804 -0.010280125437 0)
(0.0308116935906 -0.0174693890874 0)
(0.0303682303562 -0.0246719984752 0)
(0.0297714199315 -0.0317330760321 0)
(0.0290408438451 -0.0386261561256 0)
(0.0281893786189 -0.0453201651278 0)
(0.0272307005599 -0.0517876885058 0)
(0.0261791868226 -0.0580051984206 0)
(0.0250494150805 -0.0639531365196 0)
(0.0238557197409 -0.0696158097832 0)
(0.0226118168607 -0.0749811865895 0)
(0.0213305324816 -0.0800406086503 0)
(0.0200236043028 -0.0847884512528 0)
(0.0187015819342 -0.0892217575637 0)
(0.0173737801559 -0.0933398716284 0)
(0.0160483090008 -0.0971440860598 0)
(0.014732126577 -0.100637318531 0)
(0.0134311436018 -0.103823823004 0)
(0.012150322057 -0.106708940887 0)
(0.0108938057776 -0.109298890763 0)
(0.0096650239381 -0.111600596272 0)
(0.00846681503461 -0.113621546838 0)
(0.00730151086349 -0.1153696882 0)
(0.00617103730222 -0.116853336064 0)
(0.00507696909052 -0.118081109367 0)
(0.00402060347717 -0.119061876903 0)
(0.00300298655819 -0.119804714584 0)
(0.00202496392253 -0.120318868438 0)
(0.00108718508857 -0.120613722204 0)
(0.000190138810045 -0.120698762225 0)
(-0.000665856773899 -0.120583568964 0)
(-0.00148061996647 -0.120277734403 0)
(-0.00225413171988 -0.119790883833 0)
(-0.00298650364548 -0.119132620431 0)
(-0.00367799668089 -0.118312497073 0)
(-0.00432899340182 -0.117339984331 0)
(-0.00494001532639 -0.116224439771 0)
(-0.00551169238013 -0.114975078085 0)
(-0.00604477878965 -0.113600943357 0)
(-0.00654011952319 -0.112110882969 0)
(-0.00699866489342 -0.110513524276 0)
(-0.00742143461176 -0.10881725361 0)
(-0.0078095316837 -0.107030198416 0)
(-0.00816410503613 -0.105160212063 0)
(-0.0084863634616 -0.1032148619 0)
(-0.00877753782981 -0.101201420152 0)
(-0.00903889580938 -0.0991268578942 0)
(-0.00927170464559 -0.0969978417472 0)
(-0.00947724732781 -0.0948207333086 0)
(-0.00965678681164 -0.0926015910511 0)
(-0.00981158417428 -0.0903461744269 0)
(-0.00994286505669 -0.0880599499402 0)
(-0.0100518402278 -0.0857480987484 0)
(-0.0101396748359 -0.0834155256781 0)
(-0.0102075115643 -0.0810668689457 0)
(-0.0102564430296 -0.0787065105678 0)
(-0.010287537427 -0.0763385866327 0)
(-0.0103018140505 -0.0739669976136 0)
(-0.0103002709312 -0.0715954177293 0)
(-0.0102838630826 -0.0692273037378 0)
(-0.0102535312981 -0.0668659021658 0)
(-0.0102101823951 -0.0645142556575 0)
(-0.0101547180662 -0.0621752073919 0)
(-0.0100880162302 -0.0598514045246 0)
(-0.0100109587964 -0.0575452996661 0)
(-0.00992441326056 -0.0552591516565 0)
(-0.00982925836687 -0.0529950245949 0)
(-0.00972636532097 -0.0507547866037 0)
(-0.00961662067373 -0.0485401072812 0)
(-0.00950090687363 -0.0463524555129 0)
(-0.00938012206129 -0.0441930964453 0)
(-0.00925516005464 -0.0420630893845 0)
(-0.00912692711922 -0.0399632853088 0)
(-0.00899632176916 -0.0378943258335 0)
(-0.00886424879353 -0.0358566420915 0)
(-0.00873159940714 -0.0338504553927 0)
(-0.00859926292795 -0.0318757779753 0)
(-0.00846810782718 -0.0299324157527 0)
(-0.00833899139914 -0.0280199711546 0)
(-0.00821274216618 -0.0261378479895 0)
(-0.00809016779417 -0.0242852562935 0)
(-0.00797203917656 -0.0224612191008 0)
(-0.00785909671151 -0.0206645788983 0)
(-0.00775203630405 -0.0188940056154 0)
(-0.00765151424007 -0.0171480036541 0)
(-0.00755813583737 -0.0154249195674 0)
(-0.00747246059251 -0.0137229472204 0)
(-0.00739499778162 -0.0120401321444 0)
(-0.00732622162662 -0.0103743719933 0)
(-0.00726659425678 -0.00872342051239 0)
(-0.00721662554346 -0.00708489942368 0)
(-0.00717687811327 -0.00545635636003 0)
(-0.00714630070521 -0.00383388331947 0)
(-0.00708940602816 -0.00224117562588 0)
(-0.00636452221197 -0.000659080535664 0)
(0.0345574461336 -0.00311361281429 0)
(0.038294790047 -0.0105332909647 0)
(0.0381372854889 -0.0178945905909 0)
(0.0375768840095 -0.0252639162712 0)
(0.0368234976481 -0.0324806930512 0)
(0.0359023343135 -0.0395163602109 0)
(0.034830264868 -0.046338105096 0)
(0.0336251101071 -0.0529174114921 0)
(0.032305479704 -0.0592302632495 0)
(0.0308901230391 -0.0652571663966 0)
(0.0293973470713 -0.0709829578873 0)
(0.0278445444251 -0.0763965008736 0)
(0.0262478494505 -0.0814902932057 0)
(0.0246219109952 -0.0862600285392 0)
(0.0229797794902 -0.0907041431266 0)
(0.0213328815509 -0.0948233754104 0)
(0.019691072998 -0.0986203573162 0)
(0.0180627390264 -0.102099250027 0)
(0.0164549349864 -0.105265430041 0)
(0.0148735388124 -0.108125227446 0)
(0.0133234154806 -0.110685713781 0)
(0.0118085690036 -0.112954535412 0)
(0.0103322898589 -0.114939785859 0)
(0.00889727732227 -0.116649910816 0)
(0.00750575095418 -0.118093638498 0)
(0.00615953323842 -0.119279929252 0)
(0.00486012242743 -0.120217938043 0)
(0.00360873860235 -0.120916985348 0)
(0.00240636520097 -0.121386532024 0)
(0.00125376851289 -0.121636155736 0)
(0.000151519997488 -0.121675522071 0)
(-0.000900005053003 -0.121514389709 0)
(-0.00190060132615 -0.121162505414 0)
(-0.00285025160212 -0.120629660746 0)
(-0.00374910808937 -0.119925614414 0)
(-0.0045974966478 -0.119060070746 0)
(-0.00539590492259 -0.118042645957 0)
(-0.00614498202483 -0.11688283615 0)
(-0.00684552351032 -0.115589986258 0)
(-0.00749846808079 -0.114173260859 0)
(-0.00810487925583 -0.112641617043 0)
(-0.00866593954943 -0.111003780007 0)
(-0.00918292969733 -0.109268221389 0)
(-0.00965722128195 -0.107443140807 0)
(-0.0100902546706 -0.105536450511 0)
(-0.0104835312376 -0.103555763392 0)
(-0.010838591213 -0.101508384155 0)
(-0.0111570065577 -0.0994013037349 0)
(-0.0114403598068 -0.09724119671 0)
(-0.0116902385753 -0.0950344216391 0)
(-0.0119082163781 -0.0927870240222 0)
(-0.0120958495803 -0.0905047416662 0)
(-0.0122546610226 -0.0881930121337 0)
(-0.012386140109 -0.0858569819144 0)
(-0.0124917298863 -0.0835015169568 0)
(-0.0125728306649 -0.0811312140792 0)
(-0.0126307908553 -0.0787504129154 0)
(-0.0126669141627 -0.0763632078341 0)
(-0.0126824540488 -0.0739734595415 0)
(-0.0126786240055 -0.071584805793 0)
(-0.0126565949818 -0.0692006710704 0)
(-0.0126175077929 -0.0668242747139 0)
(-0.0125624724331 -0.0644586375554 0)
(-0.0124925812936 -0.0621065866599 0)
(-0.0124089090374 -0.0597707584619 0)
(-0.0123125252461 -0.0574536000412 0)
(-0.012204493602 -0.0551573690432 0)
(-0.0120858827469 -0.052884132089 0)
(-0.011957763825 -0.0506357623569 0)
(-0.0118212187961 -0.0484139362332 0)
(-0.0116773358944 -0.046220129794 0)
(-0.0115272151272 -0.0440556149903 0)
(-0.0113719616992 -0.0419214563064 0)
(-0.0112126889245 -0.0398185076865 0)
(-0.0110505100653 -0.0377474104459 0)
(-0.0108865391592 -0.0357085918418 0)
(-0.0107218819075 -0.033702264945 0)
(-0.0105576350491 -0.0317284293792 0)
(-0.0103948769554 -0.0297868734976 0)
(-0.0102346661031 -0.0278771774546 0)
(-0.0100780319164 -0.0259987176848 0)
(-0.00992597278961 -0.02415067217 0)
(-0.00977944759995 -0.0223320269517 0)
(-0.00963937362938 -0.0205415831884 0)
(-0.00950661918712 -0.0187779651495 0)
(-0.00938200202488 -0.0170396283639 0)
(-0.00926628412523 -0.015324868318 0)
(-0.00916017252096 -0.0136318290665 0)
(-0.00906431979311 -0.0119585124757 0)
(-0.00897933359025 -0.0103027891421 0)
(-0.00890579211754 -0.00866242070633 0)
(-0.00884426584321 -0.00703508686491 0)
(-0.00879521924272 -0.00541844432613 0)
(-0.0087567374107 -0.00380860710664 0)
(-0.00868433985924 -0.00222908250817 0)
(-0.00778915557806 -0.000656599004933 0)
(0.0413842486378 -0.00320705728797 0)
(0.0458542636208 -0.0108475660546 0)
(0.0456541054439 -0.0184230134544 1.218849631e-27)
(0.0449659082945 -0.025999206882 0)
(0.04404214746 -0.0334084261801 0)
(0.0429143277408 -0.0406194800215 0)
(0.0416040311964 -0.0475974470803 0)
(0.0401339437552 -0.054312536104 0)
(0.0385275786861 -0.0607402544867 0)
(0.0368084368108 -0.0668613445456 0)
(0.0349992664822 -0.0726614699046 0)
(0.0331214824251 -0.0781307715359 0)
(0.0311947556518 -0.0832633349183 0)
(0.0292367640415 -0.0880566192405 0)
(0.0272630870899 -0.0925108898886 0)
(0.0252872161623 -0.0966286855025 0)
(0.0233206551867 -0.100414340109 0)
(0.0213730810109 -0.103873571843 0)
(0.0194525423268 -0.107013141927 0)
(0.0175656728143 -0.109840582144 0)
(0.0157179061979 -0.112363985008 0)
(0.0139136771222 -0.114591848664 0)
(0.0121566040342 -0.116532967284 0)
(0.0104496447252 -0.118196357537 0)
(0.00879522716617 -0.119591211934 0)
(0.00719535088669 -0.120726870734 0)
(0.00565166586534 -0.121612805148 0)
(0.00416552675137 -0.122258605916 0)
(0.00273803170501 -0.122673972853 0)
(0.0013700441456 -0.12286870138 0)
(6.22128579188e-05 -0.1228526636 0)
(-0.00118504130352 -0.12263582514 0)
(-0.00237149208408 -0.122228115733 0)
(-0.0034971284699 -0.121639524938 0)
(-0.00456214541315 -0.120879999183 0)
(-0.00556694217556 -0.119959426796 0)
(-0.00651211535838 -0.118887601612 0)
(-0.00739845312492 -0.117674189116 0)
(-0.00822692355916 -0.116328693602 0)
(-0.0089986644217 -0.114860427127 0)
(-0.00971496730075 -0.113278480894 0)
(-0.0103772638344 -0.111591699485 0)
(-0.0109871069192 -0.109808658307 0)
(-0.011546154829 -0.107937644446 0)
(-0.0120561510036 -0.105986641072 0)
(-0.0125189075583 -0.103963315406 0)
(-0.0129362851057 -0.101875010264 0)
(-0.0133101770142 -0.0997287390368 0)
(-0.0136424905578 -0.0975311840038 0)
(-0.0139351331121 -0.0952886977516 0)
(-0.0141899957628 -0.0930073075071 0)
(-0.0144089424873 -0.0906927220571 0)
(-0.0145937972244 -0.0883503409478 0)
(-0.0147463369322 -0.0859852655514 0)
(-0.0148682828996 -0.0836023116031 0)
(-0.0149612982775 -0.081206022691 0)
(-0.0150269840358 -0.0788006842289 0)
(-0.015066881078 -0.0763903373631 0)
(-0.0150824706599 -0.0739787923555 0)
(-0.0150751805527 -0.0715696409188 0)
(-0.0150463890753 -0.0691662671359 0)
(-0.0149974341207 -0.0667718565849 0)
(-0.0149296193644 -0.0643894034872 0)
(-0.0148442244998 -0.0620217156962 0)
(-0.0147425118794 -0.0596714175588 0)
(-0.0146257361863 -0.0573409507101 0)
(-0.0144951498323 -0.0550325730511 0)
(-0.0143520105529 -0.0527483561473 0)
(-0.01419758433 -0.0504901814397 0)
(-0.0140331499725 -0.0482597356205 0)
(-0.0138599989854 -0.0460585056232 0)
(-0.0136794368889 -0.0438877735677 0)
(-0.013492780133 -0.0417486120672 0)
(-0.0133013545205 -0.0396418801601 0)
(-0.0131064897695 -0.0375682201847 0)
(-0.0129095157778 -0.0355280557148 0)
(-0.0127117556737 -0.0335215907612 0)
(-0.0125145207708 -0.0315488102335 0)
(-0.0123191029387 -0.0296094817814 0)
(-0.0121267689947 -0.0277031588882 0)
(-0.0119387530737 -0.0258291852785 0)
(-0.0117562510419 -0.0239867004414 0)
(-0.0115804133906 -0.0221746462971 0)
(-0.0114123401494 -0.0203917747637 0)
(-0.0112530748295 -0.0186366562385 0)
(-0.0111036004897 -0.0169076887956 0)
(-0.0109648356661 -0.0152031082671 0)
(-0.0108376329813 -0.0135209991171 0)
(-0.0107227791232 -0.0118593075183 0)
(-0.0106209985181 -0.0102158572306 0)
(-0.0105329588832 -0.0085883732201 0)
(-0.0104592694734 -0.00697451000575 0)
(-0.0104003227097 -0.00537189029909 0)
(-0.0103535597248 -0.00377648750143 0)
(-0.0102661011086 -0.00221128682028 0)
(-0.00920509667831 -0.000651726045825 0)
(0.0484339492278 -0.00332061913202 0)
(0.0536565999981 -0.0112295837919 0)
(0.0534054306933 -0.0190651666926 -1.21820070042e-27)
(0.0525753582471 -0.0268919099187 0)
(0.0514634113833 -0.0345331898099 0)
(0.0501083353051 -0.0419545342382 0)
(0.0485373812345 -0.0491184979639 0)
(0.0467790457599 -0.0559938699109 0)
(0.0448626117792 -0.0625557757645 0)
(0.0428170676731 -0.0687854840545 0)
(0.040670182014 -0.0746699177144 0)
(0.0384478035738 -0.0802010172308 0)
(0.0361733930531 -0.0853750172882 0)
(0.0338677686035 -0.090191703038 0)
(0.0315490342223 -0.0946536972245 0)
(0.0292326518908 -0.0987658138342 0)
(0.0269316182573 -0.102534499291 0)
(0.0246567080808 -0.105967369998 0)
(0.0224167533562 -0.10907284561 0)
(0.0202189317753 -0.111859871174 0)
(0.0180690461998 -0.11433771726 0)
(0.0159717807941 -0.11651584551 0)
(0.013930926283 -0.118403826298 0)
(0.0119495688164 -0.120011295795 0)
(0.0100302423152 -0.121347940481 0)
(0.0081750445229 -0.122423498698 0)
(0.00638572135098 -0.123247770295 0)
(0.00466372302459 -0.123830627571 0)
(0.0030102388577 -0.124182022625 0)
(0.00142621461103 -0.124311982788 0)
(-8.7633596597e-05 -0.124230623706 0)
(-0.00153083724556 -0.123948103458 0)
(-0.00290315419929 -0.123474601642 0)
(-0.00420458238262 -0.122820323147 0)
(-0.00543536200886 -0.121995437181 0)
(-0.00659597191375 -0.121010049733 0)
(-0.00768712433877 -0.119874165919 0)
(-0.00870975720584 -0.118597653326 0)
(-0.00966502223878 -0.117190206482 0)
(-0.0105542711108 -0.115661313473 0)
(-0.0113790381105 -0.114020225265 0)
(-0.0121410217555 -0.112275928364 0)
(-0.0128420638574 -0.110437121043 0)
(-0.0134841285534 -0.108512193467 0)
(-0.014069279734 -0.106509211724 0)
(-0.0145996593851 -0.10443590588 0)
(-0.0150774651548 -0.102299661892 0)
(-0.0155049296312 -0.100107517358 0)
(-0.0158842995491 -0.0978661608631 0)
(-0.0162178173972 -0.0955819347782 0)
(-0.0165077035814 -0.0932608412045 0)
(-0.0167561416058 -0.0909085508033 0)
(-0.0169652643877 -0.0885304141169 0)
(-0.0171371441325 -0.0861314749861 0)
(-0.0172737838019 -0.0837164855516 0)
(-0.0173771124873 -0.0812899223137 0)
(-0.017448982582 -0.078856002658 0)
(-0.0174911708733 -0.0764187012401 0)
(-0.0175053812497 -0.0739817656334 0)
(-0.017493250893 -0.0715487306571 0)
(-0.0174563574653 -0.0691229309148 0)
(-0.0173962289301 -0.0667075111037 0)
(-0.017314353391 -0.0643054338562 0)
(-0.0172121904322 -0.0619194849153 0)
(-0.0170911813598 -0.0595522757046 0)
(-0.0169527597895 -0.0572062433647 0)
(-0.0167983601421 -0.054883648593 0)
(-0.016629425555 -0.0525865715818 0)
(-0.0164474130624 -0.0503169065829 0)
(-0.0162537976818 -0.0480763555064 0)
(-0.0160500735927 -0.0458664211401 0)
(-0.0158377541598 -0.0436884003804 0)
(-0.0156183693089 -0.0415433779945 0)
(-0.0153934620486 -0.0394322211953 0)
(-0.0151645828864 -0.0373555753931 0)
(-0.0149332838654 -0.0353138612558 0)
(-0.0147011111324 -0.03330727327 0)
(-0.0144695976085 -0.0313357798008 0)
(-0.0142402547628 -0.0293991247051 0)
(-0.0140145648624 -0.027496830403 0)
(-0.0137939727711 -0.0256282023776 0)
(-0.0135798784809 -0.023792334967 0)
(-0.0133736295338 -0.021988118376 0)
(-0.0131765143629 -0.0202142467833 0)
(-0.0129897558534 -0.0184692274865 0)
(-0.0128145060556 -0.0167513910398 0)
(-0.0126518415459 -0.0150589024932 0)
(-0.0125027602867 -0.0133897740551 0)
(-0.0123681795361 -0.0117418794281 0)
(-0.0122489352195 -0.0101129708086 0)
(-0.0121457805729 -0.00850070459165 0)