/*--------------------------------*- C++ -*----------------------------------*\
| =========                 |                                                 |
| \\      /  F ield         | OpenFOAM: The Open Source CFD Toolbox           |
|  \\    /   O peration     | Version:  v1906                                 |
|   \\  /    A nd           | Web:      www.OpenFOAM.com                      |
|    \\/     M anipulation  |                                                 |
\*---------------------------------------------------------------------------*/
FoamFile
{
    version     2.0;
    format      ascii;
    class       surfaceScalarField;
    location    "247";
    object      phia;
}
// * * * * * * * * * * * * * * * * * * * * * * * * * * * * * * * * * * * * * //

dimensions      [0 3 -1 0 0 0 0];
oriented        oriented;


internalField   nonuniform List<scalar> 
18240
(
0.000915469632636
-0.00091398428533
0.00183696765821
-0.000919773454674
0.00276679946801
-0.000928429397698
0.00369328592207
-0.000924686557166
0.00461109037077
-0.000916474961585
0.00551797072287
-0.000905008682122
0.00641042700558
-0.000891204354723
0.00728730629326
-0.000874937738122
0.00814530323777
-0.000856827287801
0.00898383409404
-0.000836522513008
0.00979961257054
-0.000814698107525
0.0105925751745
-0.000790891541233
0.0113594333985
-0.000765872446725
0.0121006343563
-0.000739072886129
0.0128128712254
-0.000711353627706
0.0134970808935
-0.000682032160932
0.0141499078676
-0.000652052012186
0.0147727338407
-0.000620608925908
0.0153621112353
-0.000588719200495
0.0159198077127
-0.000555451856813
0.0164422339304
-0.000521890075824
0.0169314709463
-0.000486979104407
0.017383741621
-0.000451864232404
0.0178013712235
-0.000415374416496
0.0181803620068
-0.000378717309206
0.0185232181325
-0.000340621549748
0.0188257109655
-0.000302357357073
0.0190904784537
-0.000262572421858
0.0193130796898
-0.000222603330832
0.0194962590589
-0.000181043760032
0.0196354169013
-0.000139298196787
0.0197334043733
-9.5931303959e-05
0.0197855523826
-5.24210621601e-05
0.0197948514435
-7.34210426083e-06
0.0197566963877
3.77544027667e-05
0.0196742828344
8.42531036642e-05
0.0195432385112
0.000130527752967
0.0193670562049
0.000177888229508
0.0191417964483
0.000224638829
0.0188713684821
0.000271987553363
0.0185524814
0.000318179469598
0.0181895862432
0.000364299727023
0.0177802547555
0.000408554267715
0.017329603889
0.000451896920193
0.0168362564579
0.000492521863851
0.0163060893259
0.000531256353609
0.0157389098484
0.000566324551383
0.0151413940962
0.000598455119713
0.0145145680274
0.000625961783253
0.0138658366385
0.000649531624372
0.0131973251683
0.000667653578663
0.0125169384403
0.000681060927643
0.0118275852857
0.000688516967175
0.0111372528169
0.00069089317594
0.0104491403646
0.000687308012368
0.00977077238503
0.000678825412688
0.00910506984856
0.000664937955348
0.00845854781661
0.000646885314603
0.00783334759957
0.000624480659778
0.00723456870774
0.000599059521842
0.0066632549788
0.000570645168585
0.00612292002247
0.000540547484131
0.00561344707634
0.000508859711734
0.00513686438044
0.000476743268757
0.00469206450805
0.000444245397685
0.00427987824781
0.000412310260891
0.00389849325474
0.000380889160064
0.00354788648142
0.000350706936782
0.00322582584126
0.000321620851138
0.00293174194099
0.000294169184143
0.00266321655666
0.000268135962447
0.00241938061578
0.000243911587729
0.00219780689632
0.000221228309687
0.00199751129898
0.000200363786867
0.00181618328313
0.000181019512199
0.00165285249819
0.000163391749396
0.00150540577774
0.000147169170974
0.00137297128189
0.000132488141289
0.00125369444416
0.000119025140573
0.00114691026807
0.000106831123196
0.00105123550868
9.54472378065e-05
0.000966819412844
8.44557448476e-05
0.000894943010444
7.16650024234e-05
0.000836182152566
5.87883904887e-05
0.000778120714754
5.78716936174e-05
0.000718587970496
5.95461562674e-05
0.000665542841538
5.28745348001e-05
0.000619823673758
4.57053128321e-05
0.000571146583567
4.85131809502e-05
0.000513506321674
5.75834694932e-05
0.000451379216237
6.19482500363e-05
0.000385087406101
6.61705640669e-05
0.000306579634972
7.83375709749e-05
0.000210989098051
9.53878058141e-05
0.000101385478718
0.000109350468478
0.000101267390696
0.000926387553451
-0.00183883310276
0.00193846474046
-0.00193016600425
0.00293640656029
-0.00192476688953
0.00392426604766
-0.00191083890579
0.0049010767873
-0.00189169993273
0.00586522052833
-0.00186743000797
0.00681406673039
-0.00183848636169
0.00774580368336
-0.0018049395425
0.00865778951642
-0.00176727521991
0.00954851805956
-0.00172550724085
0.0104154979602
-0.00168017104999
0.0112575893481
-0.0016312354513
0.0120724717844
-0.00157928541391
0.0128593760361
-0.00152423233599
0.0136161418461
-0.00146669388661
0.0143423481338
-0.00140650399218
0.0150359615438
-0.0013442924124
0.0156968640829
-0.00127979665151
0.016323098577
-0.00121364156386
0.0169147879037
-0.00114545655848
0.0174699902894
-0.00107585143293
0.017988999239
-0.00100434548544
0.0184698285135
-0.000931532917069
0.0189128745093
-0.000856832469307
0.0193160577207
-0.000780830885007
0.0196798219918
-0.000702865740844
0.0200019666934
-0.000623532241449
0.0202829482447
-0.000542114895039
0.020520444135
-0.000459238335287
0.0207149139477
-0.000374168420093
0.0208639476261
-0.000287586642414
0.0209680357197
-0.000198780086944
0.0210247507568
-0.000108512445531
0.021034670213
-1.61386641135e-05
0.020995461007
7.74629930168e-05
0.0209078873337
0.000172824945457
0.0207698620068
0.000268927384909
0.0205824689332
0.000366149020538
0.0203440506792
0.000463309418679
0.0200561701626
0.000560603120982
0.0197178018479
0.000656683979113
0.0193311573402
0.000751548060364
0.0188960458315
0.000843695548829
0.0184154910187
0.000932929720565
0.0178903179875
0.00101763027759
0.0173244958293
0.00109743976224
0.0167199965754
0.00117067956615
0.0160818051324
0.00123690324406
0.0154130761995
0.00129448230697
0.014719762248
0.00134301163082
0.0140060771194
0.00138108204
0.0132787073109
0.00140852099664
0.0125425839876
0.00142434972256
0.0118046728767
0.00142883208509
0.011070073287
0.00142159452248
0.0103454175166
0.00140345645044
0.00963533458587
0.00137469325962
0.00894550785446
0.00133664370624
0.00827953762862
0.00129011699701
0.00764169804804
0.00123679744265
0.00703421236915
0.00117780014
0.00645974856636
0.00111488826092
0.00591910219328
0.00104918842196
0.00541344969204
0.000982263760557
0.00494238327429
0.000915015316098
0.00450591309507
0.00084865000319
0.00410277600033
0.000783756390619
0.00373218635216
0.000721175061232
0.00339235686546
0.000661209042442
0.00308202297761
0.00060439394868
0.00279913719404
0.000550808036777
0.00254220267571
0.00050074991128
0.00230911146858
0.000454130321128
0.00209831787427
0.000411072593883
0.0019077953743
0.000371373247551
0.00173607341387
0.000335037599035
0.00158129337653
0.000301796632145
0.00144212568096
0.000271585748464
0.001316904945
0.000244105851007
0.00120442390841
0.000219245175693
0.00110307787068
0.000196663657098
0.00101132428039
0.000176142155949
0.000925692965592
0.000157174233941
0.000843717800868
0.000140693152966
0.000770365555251
0.000131117757422
0.000705564055982
0.000124278038973
0.000650757589667
0.000107576038974
0.000604342782604
9.20439014443e-05
0.000559211418635
9.3538892083e-05
0.000510259665559
0.000106427472043
0.000451488968884
0.00012058137869
0.000385175502116
0.000132346150772
0.000311246553211
0.000152089758901
0.000221500955153
0.000184926077445
0.00010854972362
0.000222075618246
0.000209696638868
0.000944579911886
-0.00278185155654
0.0019527519409
-0.0029366777046
0.00295573995621
-0.0029261073978
0.00395011658988
-0.00290354347596
0.00493360756597
-0.00287354891814
0.00590407757067
-0.00283622674811
0.00685910376865
-0.00279187904095
0.00779657844413
-0.00274074233533
0.00871417854579
-0.00268325339981
0.00961003637573
-0.00261969865497
0.010482045471
-0.00255057494865
0.0113286415593
-0.0024761757665
0.0121479646838
-0.00239702545706
0.0129387628198
-0.00231339182487
0.0136994148775
-0.00222579248632
0.0144289594959
-0.00213443479144
0.0151259796437
-0.00203979648451
0.0157897570972
-0.00194199428492
0.0164190233219
-0.00184143907474
0.0170132389141
-0.00173813649636
0.0175712158836
-0.00163241678908
0.0180925203706
-0.00152416976187
0.0185759764656
-0.00141364605556
0.019021187856
-0.00130063071893
0.0194269327282
-0.00118531196853
0.0197927975698
-0.00106739658724
0.0201174773304
-0.000947039032461
0.0204005107008
-0.000823904983731
0.0206404987917
-0.000698153943649
0.0208369292275
-0.000569457462602
0.020988331822
-0.000438027257982
0.0210941747631
-0.000303593292944
0.0211529759688
-0.000166469214351
0.0211642537443
-2.65066810337e-05
0.0211266159896
0.000115821357089
0.0210397435115
0.000260481496993
0.0209024771673
0.000406788197908
0.0207148097454
0.000554471669636
0.0204759933403
0.000702593702115
0.0201865123104
0.00085061106183
0.0198462287035
0.000997313044293
0.0194563091915
0.0011418698933
0.0190174278854
0.00128280617871
0.0185316203479
0.00141902234996
0.0180005579156
0.00154881637482
0.0174273044391
0.00167087139331
0.0168146732073
0.00178334095244
0.0161668602247
0.00188480069099
0.015487880508
0.00197341339328
0.0147830492521
0.00204784861821
0.0140574817823
0.00210653698867
0.0133173957351
0.00214855014508
0.0125686569241
0.00217292747594
0.011817900344
0.00217948247281
0.0110711382352
0.00216815823543
0.010334736544
0.00213971220776
0.00961413672333
0.00209506686971
0.00891474231506
0.00203586100436
0.0082408048223
0.00196381004276
0.00759625039453
0.00188115467717
0.00698375268579
0.00179004636465
0.00640553928715
0.00169289711122
0.00586266969639
0.00159181059093
0.00535582999027
0.00148890269149
0.00488476572645
0.00138584611938
0.00444901617917
0.00128421122366
0.00404743376435
0.00118512573755
0.00367882161686
0.00108961637651
0.00334150315648
0.000998337532866
0.00303386610591
0.000911879560993
0.00275397485318
0.000830531707251
0.00250004107068
0.000754550751532
0.00227007244485
0.000683951425052
0.00206228181623
0.000618745898374
0.00187476435384
0.00055875950792
0.00170585127761
0.000503845179649
0.00155380954797
0.000453719428127
0.00141714277443
0.000408155158372
0.00129430099231
0.000366836844063
0.00118391238049
0.000329540326206
0.00108444825484
0.000296022007749
0.000994280032485
0.000266220339895
0.000910771565374
0.000240577311563
0.000832999313013
0.000218380210731
0.000762076279244
0.000201943883001
0.000701602690048
0.000184664308032
0.000639900989616
0.000169175863348
0.000577779457038
0.000154071249176
0.000528167707564
0.000143044879815
0.000488816127068
0.000145660957429
0.000430598320221
0.000178655199395
0.000355835912854
0.000206958409735
0.000276377270769
0.000231387400059
0.000186461821245
0.000274639432456
9.53118795937e-05
0.00031300660249
0.00030490470996
0.000955468460718
-0.00373575409281
0.00196884791924
-0.00394840240679
0.00297865678015
-0.00393425948435
0.00398030850128
-0.00390353285748
0.00497111797379
-0.00386270405676
0.00594865572626
-0.00381210444386
0.00691049433685
-0.00375206811146
0.00785437859414
-0.00368297097422
0.00877806961953
-0.00360530306548
0.00967955970765
-0.00351954144502
0.0105568679178
-0.00342625429833
0.0114082834026
-0.00332595739704
0.0122321113951
-0.00321924321248
0.0130269478876
-0.00310661437134
0.0137913769256
-0.00298863674174
0.0145242780765
-0.0028657496594
0.0152244764755
-0.00273844434116
0.0158910845075
-0.00260705284015
0.0165231065747
-0.00247195416783
0.0171198165754
-0.0023333440125
0.0176803217158
-0.00219146948762
0.0182039779022
-0.00204638158337
0.0186899174054
-0.00189819856605
0.0191375032229
-0.0017468418173
0.0195458263331
-0.0015923254132
0.0199141988739
-0.00143447580123
0.0202416258766
-0.00127324475194
0.0205273349388
-0.00110841343553
0.0207702280109
-0.000939925249418
0.0209694446418
-0.000767576866877
0.0211237994276
-0.000591369340115
0.0212323745752
-0.000411183998877
0.0212939510587
-0.000227150634464
0.0213076266174
-3.93182302185e-05
0.0212722471526
0.00015197235028
0.021187043929
0.00034642312698
0.0210510717884
0.000543404587746
0.0208638572085
0.000742296680898
0.0206248476087
0.000942120161974
0.0203340589949
0.00114188308615
0.0199915391414
0.00134022503748
0.0195980028863
0.00153576645157
0.0191543117999
0.00172677072006
0.0186620856312
0.0019114926352
0.0181232016549
0.00208786364268
0.0175403722686
0.00225383852119
0.0169166646948
0.00240711337857
0.0162560301579
0.00254547907514
0.015562833657
0.00266659027955
0.0148423067438
0.00276834059164
0.0141000584687
0.00284869788504
0.0133424132165
0.00290609850871
0.012575871447
0.00293932970737
0.011807320193
0.00294788904227
0.0110434570668
0.00293184188144
0.0102909234389
0.00289206376491
0.00955576366416
0.00283001671944
0.00884355971068
0.00274785615872
0.00815898764463
0.00264815277001
0.00750597463472
0.00253394373627
0.00688736862652
0.00240841648094
0.00630517405018
0.00227486519253
0.00576039239763
0.0021363614178
0.00525334396769
0.00199573363321
0.00478361063678
0.00185536343392
0.00435035452988
0.00171726715641
0.00395227039249
0.00158301434888
0.00358784378818
0.00145386432943
0.00325528267593
0.00133072578237
0.00295272138958
0.00121428421584
0.00267814661663
0.00110495561526
0.00242957030157
0.00100299072939
0.00220495733411
0.000908432674276
0.00200237126323
0.00082121237349
0.0018198987557
0.000741115191832
0.00165576840179
0.000667867960809
0.00150827147865
0.000601109577404
0.00137585473654
0.000540471664056
0.00125703386998
0.000485556731197
0.00115045274305
0.000436024127722
0.00105477106846
0.000391606324761
0.000968632980673
0.000352263084666
0.000889943918516
0.000319173664568
0.000817757266441
0.000290471289545
0.000750335573818
0.000269273417973
0.000684069927128
0.000250827903268
0.000618941588055
0.000234195073965
0.000560009898458
0.000212893861218
0.0004977697275
0.000205166210288
0.000431649569033
0.000211652310437
0.000383889308699
0.000226278068463
0.000312962127506
0.000277732026546
0.000225605847189
0.000318565613731
0.000150677730874
0.000349391115471
7.85626719616e-05
0.000384931767641
0.000383354831345
0.000966707275013
-0.00470089650231
0.00198987950472
-0.00496992411773
0.00300957377102
-0.00495229707604
0.0040211007704
-0.00491340153411
0.00502163998045
-0.00486158821314
0.00600859778262
-0.00479740650001
0.00697947781025
-0.00472129697543
0.00793192904518
-0.00463377096431
0.00886370189884
-0.004535431362
0.00977272198162
-0.00442691847223
0.0106570333111
-0.0043089322571
0.0115148778181
-0.00418217221831
0.0123446184617
-0.00404736729459
0.0131448220914
-0.00390520820553
0.013914162265
-0.00375638452325
0.0146515053852
-0.00360151082658
0.0153557938199
-0.00344117292703
0.0160261362346
-0.0032758503932
0.0166616736557
-0.00310597429306
0.017261676371
-0.00293184933537
0.0178253965123
-0.00275372544424
0.0183521749469
-0.00257172127758
0.0188412854867
-0.00238590967716
0.0192920549652
-0.00219624284631
0.0197037028487
-0.00200265006385
0.0200754762788
-0.00180496278049
0.0204064883165
-0.00160302152679
0.0206958679817
-0.00139659998796
0.0209425987334
-0.00118551939019
0.0211456832542
-0.000969572167632
0.0213039850424
-0.000748643411545
0.021416407794
-0.000522630791357
0.0214817439597
-0.000291576092082
0.0214988694712
-5.55884837549e-05
0.0214666031368
0.000185025971607
0.0213839156853
0.000429840193846
0.0212498016597
0.000678179262208
0.0210634992952
0.000929200937287
0.0208243744942
0.00118177826733
0.0205321447767
0.00143458787183
0.0201867715585
0.00168600663502
0.0197886807069
0.0019342089067
0.0193386605022
0.00217707873046
0.0188380732287
0.00241231375354
0.0182887586569
0.00263735276592
0.0176932343564
0.00284948722309
0.017054606622
0.00304581225664
0.0163767520876
0.00322336029761
0.0156642235604
0.00337910038641
0.0149223832461
0.00351012610417
0.0141572580178
0.00361373204275
0.0133755689662
0.0036876704817
0.0125844724596
0.0037302801833
0.0117914575653
0.00374074119556
0.0110039787474
0.00371913381568
0.0102292945177
0.00366655180107
0.00947410047457
0.00358499617193
0.00874442802822
0.00347730793977
0.00804538094074
0.00334696884264
0.00738106317789
0.00319802917454
0.00675439930881
0.00303484384655
0.00616720561239
0.00286182809094
0.00562022425988
0.00268311330472
0.00511336349469
0.00250237735427
0.00464582497473
0.00232269038997
0.00421634998504
0.00214654559962
0.003823304453
0.00197587211516
0.00346484162418
0.0018121541131
0.00313892758206
0.00165647702845
0.0028434432427
0.00150961956079
0.00257619447002
0.0013720646354
0.00233500034381
0.00124405748161
0.00211769961159
0.0011256132316
0.00192222301437
0.00101657823911
0.00174658613017
0.000916646041466
0.00158894132361
0.000825412589848
0.001447562075
0.000742390769737
0.00132087855355
0.000667059966634
0.00120745919572
0.00059888102591
0.00110604399288
0.000537345105026
0.0010155653124
0.000481990464826
0.000935268144786
0.000432470537642
0.000865386898899
0.000388959269277
0.000800812031145
0.000354953515573
0.000738878623568
0.00033110463228
0.000675825333121
0.00031377234911
0.000608957861607
0.000300945894252
0.000527957713894
0.000293769986292
0.00045213935648
0.000280857105548
0.00038192651029
0.000281728816373
0.000324361761071
0.000283698355254
0.000273612758787
0.00032832650985
0.00019668010584
0.000395344203842
0.000122271642525
0.000423618421718
6.2176221836e-05
0.000444833950444
0.000445442562516
0.000979815936047
-0.00567915123927
0.00201608183925
-0.00600454526686
0.00304866094378
-0.00598322248949
0.00407283438985
-0.00593592172006
0.0050857063771
-0.00587280751906
0.00608457037241
-0.00579461921004
0.00706684698283
-0.00570192367476
0.00803009994241
-0.00559537639227
0.00897203487996
-0.00547572180165
0.0098905254635
-0.00534376882959
0.0107836074377
-0.00520037940416
0.0116495024923
-0.00504643942795
0.0124866015232
-0.00488284715275
0.0132934830834
-0.00471048087299
0.0140688837512
-0.00453018890817
0.014811710507
-0.00434275567198
0.0155209982584
-0.00414889619463
0.0161959172717
-0.00394922389334
0.016835719606
-0.00374425383828
0.0174397447864
-0.00353437591184
0.0180073594758
-0.00331987015977
0.0185379663181
-0.00310088775909
0.019030941873
-0.0028774795277
0.0194856533545
-0.00264958393593
0.0199013991364
-0.00241706635751
0.0202774360817
-0.00217971108187
0.0206129241684
-0.0019372678302
0.0209069646794
-0.0016894449608
0.0211585494737
-0.00143596121991
0.0213666101906
-0.00117654098553
0.0215299731058
-0.000910972095489
0.0216474207627
-0.000639099473943
0.0217176563869
-0.000360894644607
0.02173938118
-7.64544124499e-05
0.0217112712366
0.000213929955419
0.0216320722437
0.000509773312604
0.0215005901889
0.000810328951452
0.021315801708
0.00111459685813
0.0210768555583
0.00142126507949
0.0207831923723
0.00172873217072
0.0204345507735
0.00203506314655
0.0200310884609
0.00233802789931
0.0195733878378
0.00263507139197
0.0190625740048
0.00292336339366
0.0185003219466
0.0031997786448
0.0178889754976
0.00346095467964
0.017231564634
0.00370328707898
0.016531927055
0.00392301438199
0.0157947297893
0.00411626559135
0.0150255589283
0.0042792261141
0.0142308850951
0.00440829815522
0.0134180275771
0.00450039178545
0.0125949579261
0.00455318842398
0.0117700630612
0.00456545560027
0.0109517804363
0.00453722073495
0.0101482724357
0.00446985111963
0.00936706094131
0.0043659888058
0.00861483215521
0.00422930977791
0.00789723839796
0.00406433000106
0.00721868521122
0.00387634344829
0.00658214653165
0.00367114511562
0.00598917478969
0.00345456405882
0.00544006801471
0.00323199341811
0.00493415090296
0.00300807629762
0.00447005307069
0.0027865838009
0.00404596380514
0.00257044276683
0.00365979819066
0.00236186035622
0.00330931407431
0.00216247439073
0.00299216232557
0.00197347905184
0.00270593247568
0.00179571196118
0.00244818823486
0.001629684
0.00221652368303
0.00147560780951
0.00200860430319
0.00133342771584
0.00182221147507
0.00120287362261
0.00165525894125
0.00108350635519
0.00150581922028
0.000974762962121
0.00137212875219
0.00087599350889
0.00125260225544
0.000786498686278
0.00114583360342
0.000705561276919
0.00105060442674
0.00063248390145
0.000965887559182
0.00056661743334
0.000890639558156
0.000507628232522
0.000823843622003
0.000455664630454
0.000757414961357
0.000421284865609
0.000693689442474
0.000394727070022
0.000626452740051
0.000380900033728
0.000563541715592
0.000363736344484
0.000504753755543
0.00035242928251
0.000433184627853
0.00035228314102
0.000354705028362
0.000360059662592
0.000272464052949
0.000365799861009
0.000218577362005
0.000382066964493
0.000171487282319
0.00044225913636
0.000106296839545
0.000488646823421
5.32365096359e-05
0.000497732347255
0.000498579275212
0.000995376582027
-0.00667297326922
0.00204775780441
-0.00705528593997
0.00309617874643
-0.00702999737694
0.00413583709922
-0.00697393205624
0.00516374506301
-0.00689906904026
0.00617709101752
-0.00680631840735
0.00717319753726
-0.00669638524683
0.00814954181963
-0.0065700762851
0.00910376310818
-0.00642830202218
0.0100336844976
-0.00627205152397
0.0109373151687
-0.00610237717785
0.0118128671528
-0.00592036355972
0.0126587480915
-0.00572710918086
0.0134735694112
-0.0055236919215
0.0142561276655
-0.00531114976223
0.0150054022638
-0.00509044589136
0.015720525026
-0.00486245197379
0.0164007677425
-0.00462791779053
0.017045502289
-0.00438746212973
0.017654181532
-0.00414155269156
0.018226295231
-0.00389050945573
0.0187613504638
-0.00363449841555
0.0192588302477
-0.00337354859445
0.0197181797101
-0.00310755861953
0.0201387723717
-0.00283632384757
0.0205199050458
-0.00255955062708
0.0208607729079
-0.0022768878394
0.0211604724998
-0.00198794448596
0.0214179842084
-0.00169232330366
0.0216321826902
-0.00138964293799
0.0218018271819
-0.0010795752207
0.0219255814606
-0.00076186993168
0.0220020168449
-0.000436404849876
0.0220296467457
-0.00010322004392
0.0220069472737
0.00023743278017
0.0219324099801
0.000585051003645
0.021804582131
0.000938835343897
0.0216221363752
0.00129765710631
0.0213839270101
0.00166002691426
0.0210890690508
0.00202407808295
0.0207370009566
0.0023875572758
0.0203275627788
0.00274782733284
0.0198610565312
0.00310187716078
0.019338319412
0.00344633556607
0.0187607854268
0.00377748736566
0.0181305659288
0.00409128596485
0.017450534868
0.00438337398498
0.016724435287
0.0046491124013
0.0159569970862
0.00488365539649
0.0151540394603
0.0050820871612
0.0143225426249
0.00523966603957
0.0134705982746
0.00535217370304
0.012607242733
0.00541636226061
0.0117420998654
0.00543040112069
0.0108849171773
0.00539419184726
0.0100451046368
0.00530944938577
0.00923122178407
0.00517964724477
0.00845081892241
0.00500948260454
0.00771030170079
0.00480460825582
0.00701454711073
0.00457185395348
0.00636655611038
0.00431888935361
0.00576746927754
0.00405341243541
0.0052168634623
0.00378236738832
0.00471322076677
0.00351150574688
0.00425434159543
0.00324526168453
0.00383770319128
0.00298689956162
0.00346064645324
0.00273875031919
0.00312048022035
0.0025024902888
0.00281449065602
0.00227933331294
0.00253994088641
0.00207013987064
0.00229409702493
0.00187541826237
0.00207428795417
0.00169531913492
0.00187796284931
0.001529663281
0.00170273403132
0.00137802061109
0.00154638961983
0.0012397719989
0.001406915389
0.00111416050099
0.00128249727116
0.00100033352931
0.00117153381483
0.000897382574489
0.00107263995613
0.000804372592881
0.000984662772872
0.000720375691973
0.000906710430489
0.000644481916234
0.000838061939432
0.000576189514571
0.000777553222634
0.000516083000955
0.000715029826042
0.000483709157858
0.000650424999745
0.000459229356906
0.000589378434701
0.000441832750839
0.000521822427596
0.000431170621191
0.000455360908022
0.000418756254424
0.000384541483043
0.000422956633504
0.000320282585908
0.000424169066327
0.000246857858821
0.000439066178894
0.000176653240553
0.000452120736926
0.000140493591353
0.000478283940235
9.13443040596e-05
0.000537625156679
4.54971638907e-05
0.00054340358503
0.000543999117304
0.00101368518682
-0.00768511304469
0.0020852158487
-0.00812519141133
0.00315249219681
-0.00809563531361
0.00421055850561
-0.00803036100842
0.005256309251
-0.00794318061111
0.00628680770705
-0.00783517863789
0.0072992646493
-0.00770720301086
0.00829105464519
-0.00756022857152
0.00925973820081
-0.00739534827091
0.010203075986
-0.00721375531258
0.0111190443452
-0.00701671422343
0.0120058421046
-0.00680553611837
0.0128618965004
-0.00658154433426
0.013685859426
-0.00634604530709
0.0144766007025
-0.00610029159908
0.0152331915367
-0.00584545136625
0.0159548835196
-0.00558257367985
0.0166410794118
-0.00531256247079
0.0172912995906
-0.00503615174097
0.0179051445601
-0.0047538916622
0.0184822553843
-0.00446614096136
0.0190222764138
-0.00417307043954
0.0195248187106
-0.00387467476535
0.0199894316182
-0.00357079158549
0.0204155757068
-0.00326112712665
0.0208026066516
-0.00294528265129
0.0211497575659
-0.00262278495718
0.0214561325781
-0.00229311300298
0.0217206948555
-0.0019557297641
0.0219422673285
-0.00161011167066
0.0221195255525
-0.00125578531303
0.02225100846
-0.000892360630873
0.0223351229168
-0.000519586487718
0.0223701726017
-0.000137395324688
0.0223543813716
0.000254036434143
0.022285947007
0.000654238009192
0.02216308702
0.00106238422236
0.021984117107
0.00147725541655
0.0217475144608
0.00189719269905
0.0214520111875
0.00232008305313
0.0210966616361
0.00274334136985
0.0206809345823
0.00316392592752
0.0202047705191
0.00357834355408
0.0196686644623
0.00398267951271
0.0190737183851
0.0043726008218
0.018421737931
0.00474337081514
0.0177153216704
0.00508982804658
0.0169580207227
0.0054063923131
0.0161545124683
0.00568708620638
0.0153108126841
0.00592566424486
0.0144344387718
0.00611587808974
0.013534453107
0.00625196892442
0.0126212836138
0.00632932492209
0.0117062388048
0.00634522025265
0.0108008458363
0.00629935926093
0.00991619667
0.00619387160371
0.00906211302887
0.00603349778823
0.00824718003693
0.00582417725306
0.00747892013939
0.00557261756342
0.0067629705136
0.00528754476777
0.00610235175191
0.00497925092018
0.00549749713197
0.00465801866768
0.00494684699094
0.0043327873484
0.00444761095358
0.00401052917636
0.00399644275889
0.00369624108447
0.00358989014509
0.00339328006756
0.00322462887261
0.00310386180321
0.00289748883867
0.00282949357116
0.00260538911779
0.00257131304833
0.00234523997751
0.00233017911293
0.0021139568123
0.00210660388751
0.00190854402596
0.00190064667052
0.00172619705943
0.00171193333944
0.00156433705205
0.00153981050823
0.00142061281523
0.00138342839006
0.00129291313952
0.00124179120659
0.00117936668331
0.00111380825315
0.00107834500325
0.000998329608578
0.000988464799382
0.000894174408993
0.000908586708879
0.000800171422538
0.000837788964018
0.000715193325817
0.000775009314983
0.000638883018921
0.000713925574524
0.000577075197919
0.000656148378786
0.000541388845258
0.00059893854504
0.000516332120426
0.000543722011256
0.000496934259915
0.000484032716148
0.00049073363868
0.000413620816884
0.00048902940007
0.000344728262145
0.000491700488992
0.000272616461725
0.000496126015971
0.000219215805093
0.000492316433573
0.000159632966271
0.000511554582933
0.000112641266733
0.000525111215212
8.01091109642e-05
0.000570010916272
3.87371129991e-05
0.00058463060866
0.000582644572748
0.00103494930733
-0.00871853150928
0.00212879202576
-0.00921741531841
0.00321804637014
-0.00918326822635
0.00429756564754
-0.00910825393766
0.00536408426022
-0.00900807376783
0.00641452030512
-0.00888398656539
0.00744594592651
-0.00873700058094
0.00845561826705
-0.00856827090158
0.0094409979251
-0.00837909914906
0.0103997747376
-0.00817090307879
0.0113298784074
-0.00794519247726
0.0122294957608
-0.00770353061321
0.0130970705561
-0.00744750320104
0.0139313084701
-0.00717867375461
0.0147311628663
-0.00689854760573
0.0154958234288
-0.00660852482286
0.01622468535
-0.00630986441312
0.016917320111
-0.0060036428816
0.0175734298153
-0.00569072844927
0.0181928049496
-0.00537175666834
0.018775272394
-0.0050471254028
0.0193206515921
-0.00471699580775
0.0198287091805
-0.00438131159153
0.0202991257756
-0.00403982291746
0.0207314662316
-0.00369212124415
0.0211251610921
-0.00333767281334
0.0214794907168
-0.00297585443193
0.0217935753194
-0.00260598477457
0.0220663647503
-0.00222735593556
0.0222966311758
-0.00183926712472
0.0224829619663
-0.00144105902912
0.0226237587693
-0.00103215657881
0.0227172437286
-0.000612127414246
0.0227614769211
-0.000180743479241
0.0227543878721
0.000261951828038
0.0226938217429
0.000715569415431
0.0225776030463
0.00117930814047
0.0224036112874
0.00165188907626
0.0221698718562
0.00213151208435
0.0218746478887
0.00261582042507
0.0215165385476
0.00310189895463
0.0210945623001
0.0035862796186
0.0206082368025
0.00406497693074
0.0200576373636
0.00453351178487
0.0194434604109
0.00498694013804
0.0187670884965
0.00541983032963
0.0180307090685
0.00582622650401
0.017237494391
0.00619955884677
0.016391882765
0.00653259278737
0.0154999257226
0.0068174622643
0.0145696626865
0.00704594652652
0.013611314091
0.00721009332487
0.0126371520884
0.00730323932624
0.0116608303531
0.00732129583778
0.0106962752107
0.00726366115588
0.00975697000939
0.00713293611187
0.00885406368742
0.00693616225074
0.00799717288291
0.00668081370841
0.00719565650389
0.0063738754953
0.00645651295441
0.00602641343576
0.00578275498091
0.00565274341112
0.00517357548846
0.00526695009186
0.0046255528466
0.00488058274676
0.00413399265495
0.00450189481965
0.00369393694827
0.00413611716681
0.00330079017375
0.00378628008231
0.00295049375164
0.00345402107185
0.00263947240941
0.0031403957192
0.0023643405967
0.00284633790262
0.00212166056685
0.00257275361159
0.00190791881202
0.00232025675029
0.00171969790042
0.00208878447552
0.00155390554389
0.00187765470245
0.00140775991771
0.00168588773445
0.00127876381857
0.00151235659213
0.00116470834438
0.00135577842858
0.00106366162939
0.00121478332483
0.000973965854417
0.00108794908141
0.000894247579954
0.00097381344574
0.000823424725719
0.000870911098192
0.000760729893158
0.00077780101237
0.000705533687708
0.000693990358485
0.000647957570101
0.000634558311065
0.000590053410857
0.000599192334224
0.000534991484876
0.000571285059106
0.000478733874128
0.000553076291712
0.000424378041819
0.0005449620419