/*--------------------------------*- C++ -*----------------------------------*\
| =========                 |                                                 |
| \\      /  F ield         | OpenFOAM: The Open Source CFD Toolbox           |
|  \\    /   O peration     | Version:  v1906                                 |
|   \\  /    A nd           | Web:      www.OpenFOAM.com                      |
|    \\/     M anipulation  |                                                 |
\*---------------------------------------------------------------------------*/
FoamFile
{
    version     2.0;
    format      ascii;
    class       volScalarField;
    location    "183";
    object      pa;
}
// * * * * * * * * * * * * * * * * * * * * * * * * * * * * * * * * * * * * * //

dimensions      [0 2 -2 0 0 0 0];


internalField   nonuniform List<scalar> 
9216
(
1041.34938854
1040.97592854
1040.17401893
1038.97349289
1037.37131567
1035.37061687
1032.97542841
1030.19138846
1027.02447741
1023.48218088
1019.57204292
1015.30315552
1010.68442411
1005.72637082
1000.43909289
994.834388034
988.923399245
982.719070942
976.233481894
969.480632091
962.473470091
955.227002773
947.755031883
940.073565692
932.197284866
924.14322592
915.927005896
907.566734264
899.079031161
890.483118191
881.796671447
873.040028722
864.231927141
855.393762394
846.545258322
837.708710072
828.904635394
820.155937256
811.483587453
802.910648686
794.458037495
786.148360004
778.001799824
770.039735739
762.280794811
754.744241878
747.446235519
740.402998683
733.627310506
727.131490175
720.924155485
715.013065273
709.402167733
704.094348877
699.088779056
694.383595001
689.973528165
685.852519295
682.011591947
678.441373178
675.130164467
672.066333224
669.236531977
666.627925871
664.226517573
662.019190512
659.992114858
658.132602717
656.42758662
654.865294926
653.433804402
652.122547545
650.920944732
649.819757155
648.809806394
647.883186168
647.032076613
646.249827034
645.529866853
644.866659922
644.254671121
643.689116598
643.163287367
642.684592773
642.268930804
641.914933844
641.613500338
641.36427757
641.16860636
641.021762447
640.916758608
640.843957087
640.79433998
640.763710559
640.748097269
640.742652828
1041.72134331
1041.34683821
1040.55554506
1039.35519856
1037.75038177
1035.74535076
1033.34476092
1030.55427279
1027.38015744
1023.82975197
1019.91089202
1015.63245746
1011.00368579
1006.03483308
1000.73637206
995.119777122
989.196608646
982.979427724
976.480769373
969.7141889
962.693128182
955.432090854
947.945406905
940.248528076
932.356697497
924.286351368
916.053701915
907.676225966
899.171171428
890.557108989
881.85237278
873.076648927
864.249363791
855.391277071
846.522831069
837.665717659
828.841201075
820.071629178
811.378743897
802.78511108
794.312434239
785.982885201
777.81743928
769.837098789
762.061270559
754.508886957
747.196850627
740.141071186
733.355006773
726.850649175
720.637196944
714.722031852
709.109557854
703.802210265
698.799481191
694.098981593
689.695646455
685.582838536
681.751700092
678.192263948
674.892906826
671.841425218
669.024542659
666.428908599
664.040619507
661.846114729
659.831690968
657.984289246
656.290999793
654.739746648
653.318788326
652.017310256
650.824929678
649.732207618
648.730167944
647.810741076
646.966307599
646.190086775
645.475717169
644.817610953
644.210604148
643.650383197
643.133209614
642.6588458
642.241974972
641.890142365
641.593596623
641.349848329
641.155407246
641.008587561
640.905944688
640.834949886
640.785640096
640.756490517
640.742463534
640.736727073
1042.5220239
1042.13312625
1041.33825906
1040.13292905
1038.52132718
1036.50757125
1034.09647832
1031.29374607
1028.10582367
1024.54005017
1020.60444592
1016.30786638
1011.65974718
1006.67029275
1001.35018429
995.710811082
989.763946223
983.522025986
976.997797471
970.204648429
963.156229822
955.866836009
948.351004393
940.62394171
932.701101206
924.598648272
916.333015306
907.92139631
899.381278609
890.730955326
881.989031343
873.174938989
864.308419244
855.410023469
846.500566321
837.601597316
828.734822312
819.92252944
811.18697803
802.550765947
794.03618745
785.66553569
777.460436112
769.4420849
761.630569943
754.045056114
746.703113278
739.620869436
732.812374006
726.289753549
720.06264938
714.138421601
708.521705389
703.214708907
698.216919685
693.525516863
689.135224864
685.038820843
681.227100358
677.689435065
674.413803702
671.387351541
668.596434322
666.027130653
663.665253647
661.496787209
659.507847352
657.685038043
656.015365709
654.486522601
653.086764575
651.805131838
650.631300422
649.555751918
648.569609468
647.66476879
646.833730262
646.069705058
645.366459469
644.718420136
644.120571795
643.568653356
643.058887358
642.591843455
642.183101356
641.838577431
641.554881181
641.321313951
641.129052677
640.984336808
640.886036957
640.81642737
640.769631372
640.742516717
640.72794086
640.72057319
1043.72549278
1043.33059116
1042.52978321
1041.31614862
1039.69365309
1037.66631219
1035.23901939
1032.41754656
1029.20848655
1025.6192707
1021.6580792
1017.33385615
1012.65620115
1007.63539245
1002.28226798
996.608264269
990.625292907
984.345800991
977.782647496
970.94918894
963.859158652
956.526778646
948.966642119
941.193849493
933.223892497
925.072809532
916.757067804
908.293731223
899.700336448
890.99506594
882.196609756
873.324333621
864.398124505
855.43853994
846.466627122
837.504041918
828.572832704
819.695516439
810.894819788
802.193702548
793.615052558
785.18165206
776.915828574
768.839367055
760.973125985
753.336906409
745.949050333
738.826287876
731.983346381
725.432811341
719.184790572
713.246842112
707.623750623
702.31758019
697.327608089
692.650529358
688.280546574
684.209699315
680.428061257
676.924138753
673.685122847
670.697302379
667.946310983
665.417492411
663.096088382
660.967521998
659.017511486
657.232274526
655.598579214
654.103883941
652.736339194
651.484874607
650.33916311
649.28966684
648.327575342
647.444822633
646.634011289
645.888413443
645.20189473
644.568916357
643.984481428
643.444127934
642.943190365
642.489174805
642.095968587
641.765915946
641.495404806
641.270562685
641.089481749
640.952177935
640.853580986
640.786371668
640.742491814
640.71578023
640.700685904
640.693208983
1045.3402495
1044.94024414
1044.1315955
1042.906606
1041.26920396
1039.22339408
1036.77415024
1033.92735574
1030.6897561
1027.06893356
1023.07324608
1018.71179772
1013.99436841
1008.93138558
1003.53385152
997.813323194
991.781843978
985.451937823
978.836551083
971.949065332
964.803252674
957.413308655
949.793821597
941.959823513
933.926770766
925.710608415
917.327757713
908.795187519
900.13040316
891.351518994
882.477238576
873.526919547
864.520542406
855.478754478
846.422814059
837.374602378
828.35653084
819.391508013
810.502799055
801.7139373
793.048528702
784.530103714
776.18186631
768.026488833
760.085812352
752.38059525
744.93017963
737.75221335
730.862309239
724.273777432
717.997327166
712.04087366
706.409358119
701.10470918
696.125847049
691.468841582
687.12709947
683.091676347
679.351577731
675.894146069
672.705420617
669.770544119
667.074106601
664.600489372
662.334117704
660.259703191
658.36239667
656.62794446
655.042768749
653.594060484
652.269807311
651.058834873
649.950793787
648.936161926
648.006202226
647.152938784
646.369096845
645.648063836
644.98382277
644.370908665
643.804362978
643.279578033
642.792126604
642.355835913
641.98238127
641.67091071
641.415709838
641.204152731
641.030901929
640.900191687
640.807366612
640.742995229
640.700148266
640.67386092
640.658631635
640.650996119
1047.37093032
1046.96546649
1046.14716606
1044.90785021
1043.25153636
1041.18230166
1038.70524313
1035.82639859
1032.55270165
1028.89193516
1024.85267648
1020.44424592
1015.67664659
1010.56051156
1005.10704442
999.327972633
993.235496078
986.842253964
980.161287825
973.206027748
965.990273784
958.528203718
950.834372852
942.923741485
934.811689459
926.514058326
918.047174862
909.427901625
900.673663791
891.80250241
882.83309341
873.784795948
864.677661397
855.532462329
846.370676302
837.214483323
828.086709619
819.010777991
810.010597421
801.110453484
792.334834064
783.70825303
775.255010279
766.998949912
758.963160473
751.169676294
743.639129819
736.39041183
729.440299104
722.803108016
716.490352209
710.510468105
704.868604536
699.566535831
694.602687291
689.972301309
685.667699776
681.678638364
677.992684213
674.595645473
671.472017404
668.605444565
665.97914242
663.576264728
661.380191588
659.374754042
657.544394525
655.874291546
654.350443039
652.959730521
651.689949428
650.529822199
649.468985047
648.497962694
647.608124743
646.791635273
646.041389722
645.350948412
644.714460038
644.126575147
643.582369486
643.076450496
642.610130777
642.198699709
641.847502124
641.555787349
641.312328106
641.110027574
640.949848978
640.832969333
640.744762713
640.682430894
640.641682824
640.613582201
640.597544028
640.589379404
1049.82275463
1049.41099734
1048.58112523
1047.32444872
1045.64513725
1043.54740187
1041.03650971
1038.118703
1034.80114907
1031.0918864
1026.99976261
1022.53437464
1017.70600078
1012.52553921
1007.00444113
1001.15465567
994.98857262
988.518982476
981.759037253
974.72223233
967.422390801
959.873669745
952.090568454
944.0879563
935.88110045
927.485708921
918.917971055
910.194608581
901.332923329
892.350850915
883.267004123
874.100723342
864.872113991
855.602077767
846.312327353
837.025384498
827.76455379
818.553868587
809.418005623
800.382162432
791.47189916
782.712938746
774.130931733
765.751180489
757.598331261
749.696029617
742.066547504
734.730379003
727.705816007
721.008511863
714.651060057
708.642618606
702.988633403
697.690695868
692.746576892
688.150432717
683.893157104
679.962825299
676.345141896
673.023933504
669.981695888
667.200157036
664.66079206
662.345239814
660.235607784
658.314685671
656.566080857
654.974320762
653.524914735
652.204404558
651.000378818
649.901470104
648.897323383
647.97855445
647.136688173
646.364092853
645.653899525
644.999920389
644.396554294
643.838681048
643.321558497
642.839398362
642.39921746
642.015906267
641.688510612
641.414556197
641.185598621
640.998555707
640.853453664
640.743768848
640.660012796
640.600061585
640.561002106
640.532468867
640.515937802
640.507682539
1052.70178054
1052.28268974
1051.43920742
1050.16201739
1048.45548641
1046.32400357
1043.77305611
1040.80914162
1037.4397175
1033.67313617
1029.51857906
1024.98598289
1020.08596703
1014.8297563
1009.22910966
1003.29624924
997.043800468
990.484738382
983.6323495
976.500204685
969.102149475
961.452307415
953.565098667
945.455270516
937.137937767
928.628632303
919.943356453
911.098643495
902.111618859
893.000066512
883.782486932
874.478166193
865.10723014
855.690698629
846.250517628
836.809582116
827.391723688
818.021678335
808.725006298
799.527982548
790.457431411
781.540527479
772.804539924
764.276544183
755.983081588
747.949788016
740.200971826
732.759157779
725.644580357
718.87464894
712.463399718
706.420987395
700.753286198
695.461674757
690.543070036
685.990197933
681.792099937
677.934717564
674.401398017
671.173442738
668.230791405
665.552748569
663.118634815
660.908264877
658.902261769
657.082228038
655.430840314
653.931905247
652.570400963
651.332508611
650.205616665
649.178293383
648.24023763
647.382212454
646.595968089
645.874153008
645.210220043
644.598325958
644.033230028
643.510189092
643.024863702
642.572186963
642.162498858
641.807361475
641.505177825
641.250642403
641.039033811
640.868063402
640.734801217
640.630332742
640.55328863
640.495335917
640.455546239
640.4300896
640.412718174
640.404627155
1056.01507749
1055.58750027
1054.72824254
1053.42723841
1051.68908357
1049.51838841
1046.92090788
1043.90345276
1040.4738309
1036.64077797
1032.4138787
1027.80348609
1022.82063286
1017.47694611
1011.78455843
1005.75602926
999.404268553
992.742478359
985.784102759
978.542801816
971.032437267
963.267083591
955.261049864
947.028922468
938.585614362
929.946427422
921.127117816
912.143968026
903.013863786
893.754371846
884.383818986
874.921377042
865.38714482
855.802221553
846.188772202
836.570069118
826.970513256
817.415613891
807.931934846
798.54698335
789.289057483
780.187028491
771.270082022
762.567397521
754.107791764
745.919304557
738.028744577
730.461165428
723.239278637
716.382786059
709.907664171
703.825447971
698.1426479
692.86039529
687.974487688
683.475740818
679.35079062
675.582926473
672.152571861
669.037827315
666.215361065
663.661421765
661.352692611
659.266852255
657.382854334
655.681018422
654.143030843
652.751937608
651.492156239
650.349503974
649.311192033
648.365773905
647.503064371
646.714053393
645.99080196
645.326335378
644.714525692
644.149977446
643.627907181
643.144031042
642.694286229
642.275057438
641.89853325
641.574818161
641.299145746
641.065032558
640.871301031
640.71554704
640.592491331
640.496728155
640.423161507
640.368728906
640.329292327
640.306146792
640.287692853
640.279958398
1059.77081801
1059.33350624
1058.45618555
1057.12789012
1055.35348708
1053.13784625
1050.48704438
1047.40826509
1043.90973807
1040.00065701
1035.69109431
1030.99190295
1025.91461876
1020.47135426
1014.6746995
1008.53762133
1002.07337837
995.29544348
988.217450623
980.853157597
973.216437523
965.321289309
957.181873489
948.81256314
940.228010127
931.443219424
922.473629261
913.335196345
904.044486564
894.61876906
885.076112059
875.435494696
865.716911371
855.941481569
846.131541896
836.310729532
826.504027389
816.737782194
807.039662336
797.438571439
787.964486941
778.648246691
769.521261551
760.615182341
751.96150525
743.59114022
735.533912285
727.817998937
720.46924531
713.510356223
706.959935165
700.831473622
695.132429713
689.863666182
685.019492628
680.588076844
676.552891271
672.89404226
669.588435502
666.610092643
663.931437797
661.524830133
659.36375933
657.423471807
655.681149687
654.115816462
652.708175408
651.440500662
650.296632259
649.262024368
648.323761694
647.47045514
646.692127021
645.980091413
645.326832265
644.72586391
644.171597105
643.659201402
643.184472848
642.743706432
642.333266333
641.951350145
641.611058324
641.31939952
641.068551437
640.855309405
640.681197397
640.542045675
640.430971511
640.342788847
640.271593624
640.218152584
640.182014569
640.15906758
640.141059578
640.13312441
1063.97835808
1063.52997813
1062.6321615
1061.27289723
1059.45735814
1057.19072007
1054.47943541
1051.33113031
1047.75453258
1043.75938358
1039.3563359
1034.55684515
1029.37305018
1023.8176536
1017.90379678
1011.6449449
1005.05477588
998.147092639
990.935750294
983.434618944
975.657568138
967.618490662
959.331345055
950.810228217
942.069455585
933.123655545
923.987863148
914.677619063
905.209075139
895.599100398
885.865400395
876.026651413
866.102640974
856.114410181
846.084393984
836.036540904
825.996409968
815.99121702
806.04983464
796.20271168
786.481730404
776.9199695
767.55140837
758.410551252
749.532018529
740.950080551
732.698159806
724.808233526
717.310100885
710.230402771
703.591364477
697.409293229
691.693132721
686.443448088
681.652580064
677.30476899
673.379172874
669.852405902
666.697371474
663.882798918
661.375412827
659.142545741
657.153847153
655.381931769
653.802272773
652.392740581
651.133163462
650.005060974
648.991656468
648.07803785
647.251241199
646.50005514
645.814820551
645.187304657
644.610548452
644.078694503
643.586825573
643.130812863
642.707169386
642.312929639
641.945204582
641.603926496
641.301219378
641.040848104
640.815249059
640.626191179
640.472619065
640.347711235
640.245777584
640.163927724
640.098411959
640.047360014
640.011331159
639.988423985
639.972376617
639.963976346
1068.64831077
1068.18742408
1067.26653113
1065.87238615
1064.01052007
1061.68645729
1058.90708982
1055.68055943
1052.01618254
1047.92434579
1043.41639422
1038.50450039
1033.20153039
1027.5208954
1021.47640868
1015.08213718
1008.3522725
1001.30101234
993.94247815
986.29066017
978.359409546
970.162464208
961.713516243
953.026301861
944.114710501
934.992897412
925.675395869
916.177227194
906.514017383
896.70211525
886.75873031
876.702098206
866.551654384
856.328228023
846.054228033
835.753827739
825.453108195
815.180168083
804.96515234
794.840212722
784.8393571
774.998213324
765.353686219
755.94355597
746.806019947
737.979228641
729.500795509
721.407260803
713.733351896
706.51090175
699.767194747
693.522747994
687.788879987
682.565833581
677.843527616
673.599687005
669.807155166
666.439693583
663.466284829
660.848385254
658.544666873
656.515767369
654.726823447
653.147864425
651.753042751
650.519506302
649.426460877
648.454681379
647.586659234
646.807036819
646.102961181
645.463584919
644.879710055
644.343703891
643.849339017
643.391542854
642.966227787
642.570107479
642.200544535
641.855418548
641.532685729
641.232932843
640.968974219
640.740814648
640.543246882
640.379319636
640.243179748
640.129963016
640.036720248
639.962105005
639.90201805
639.855998696
639.820549701
639.796436382
639.783274927
639.775204
1073.79263204
1073.31769561
1072.37096228
1070.93776307
1069.02402538
1066.63567623
1063.78011069
1060.46607218
1056.70356311
1052.50373233
1047.87874155
1042.84162023
1037.40610246
1031.5864578
1025.39731074
1018.8534662
1011.96973868
1004.76081051
997.241116252
989.424782423
981.325609898
972.957122933
964.332653952
955.46547535
946.368936308
937.056607858
927.542409569
917.840728384
907.966540455
897.9355321
887.764258249
877.470334873
867.072659487
856.591657398
846.049539336
835.470551802
824.881204203
814.310437809
803.789726493
793.353060324
783.036821676
772.879509945
762.921366109
753.203886238
743.769321259
734.660188144
725.918868417
717.587216259
709.706016826
702.31393735
695.445470498
689.127643767
683.375734735
678.189519491
673.556918289
669.443212225
665.810565827
662.63405794
659.880319268
657.49973689
655.438595425
653.64842327
652.089303753
650.729306898
649.542301827
648.505613737
647.598275992
646.800272777
646.092954587
645.46027564
644.889827043
644.371482535
643.896635962
643.458404462
643.051534666
642.671917566
642.316469564
641.982903615
641.669569176
641.375304207
641.098816457
640.84330926
640.618908454
640.42211892
640.253017103
640.110147226
639.989997627
639.889896709
639.807925248
639.741144791
639.686287805
639.64378184
639.611613687
639.586744407
639.57657474
639.568785718
1079.42470869
1078.93404321
1077.95852258
1076.48179417
1074.51024235
1072.05024233
1069.10976775
1065.69825366
1061.82650381
1057.50655731
1052.75154216
1047.57550199
1041.99321319
1036.01997703
1029.67140932
1022.96321456
1015.91097861
1008.52997374
1000.83501722
992.840379386
984.559774868
976.006421246
967.193173398
958.132697447
948.837665364
939.320932573
929.595685194
919.675555908
909.574737717
899.308096809
888.891342542
878.34125191
867.675938613
856.915172504
846.080714542
835.196669125
824.28979946
813.389806006
802.529495311
791.744836913
781.07483896
770.561261079
760.248136414
750.181182487
740.407173325
730.973419692
721.927481882
713.317141695
705.19038656
697.594762154
690.575271042
684.169323832
678.399268147
673.263042725
668.752122288
664.803855793
661.358559397
658.408297604
655.922618554
653.83155573
652.060775054
650.549227631
649.252169283
648.137612221
647.181333981
646.362478572
645.660740674
645.054878172
644.524171506
644.051051257
643.62444189
643.235725649
642.876822058
642.541685954
642.226451669
641.928137419
641.644873665
641.37554186
641.119646834
640.877169548
640.64816974
640.436434649
640.250152584
640.084670987
639.940977878
639.818844482
639.715562191
639.630885249
639.560981337
639.501975154
639.453148638
639.414708616
639.384661962
639.362230409
639.352922855
639.345653002
1085.55946317
1085.05125559
1084.04377458
1082.51871432
1080.48295125
1077.94336533
1074.9085808
1071.3888301
1067.39584277
1062.94270043
1058.04366328
1052.71397918
1046.96966609
1040.82727519
1034.3036282
1027.41554419
1020.17956258
1012.6116952
1004.72722223
996.540577659
988.065323346
979.314250019
970.299558419
961.033125538
951.526767208
941.792477136
931.842586376
921.689860699
911.347580676
900.829622306
890.150629396
879.326267751
868.373556264
857.311270547
846.160384815
834.944539301
823.690494042
812.428529797
801.192750109
790.021209395
778.955845076
768.042124297
757.328458126
746.865381105
736.704694251
726.898784937
717.500477602
708.563613702
700.14415684
692.300922422
685.094196575
678.579130334
672.791199464
667.719339839
663.385250612
659.654611348
656.412456984
653.723328548
651.571374541
649.840699087
648.420383506
647.232529907
646.230473133
645.386345421
644.682262849
644.101841149
643.626887737
643.233611152
642.896896447
642.595170032
642.321203895
642.069968854
641.833057693
641.605025345
641.384411402
641.169334934
640.959399477
640.754821219
640.556392827
640.365274756
640.182485142
640.013012312
639.862926883
639.727208531
639.608932862
639.508855285
639.424867496
639.356200107
639.296404038
639.244400778
639.202779914
639.169453399
639.143511111
639.123935068
639.112525682
639.107099329
1092.21345949
1091.68572244
1090.64289664
1089.06433658
1086.95746734
1084.32971144
1081.19042803
1077.55075744
1073.42350262
1068.82295483
1063.76470258
1058.26541043
1052.34258024
1046.01426911
1039.29878182
1032.21431881
1024.77862499
1017.00864258
1008.92023832
1000.52802145
991.845319573
982.884305086
973.656284614
964.172078844
954.442423136
944.478283111
934.291029885
923.892481526
913.29489973
902.511001608
891.554114314
880.438460567
869.179567693
857.7947786
846.303819261
834.729423489
823.097949585
811.439975909
799.790764208
788.190549304
776.684519065
765.322448892
754.157897193
743.247043809
732.647329541
722.416357895
712.6116503
703.292211981
694.521567744
686.371639587
678.925082711
672.268922263
666.465286727
661.457791768
657.413130753
653.99300811
650.917018464
648.522031019
646.811665771
645.548141764
644.554507041
643.738432844
643.059474632
642.504461333
642.067552935
641.742472692
641.514505097
641.355720938
641.231954074
641.111197526
640.995274636
640.889284893
640.780034044
640.661053147
640.536763868
640.40544634
640.268627497
640.128057629
639.985968218
639.844867995
639.706911107
639.578660744
639.459706671
639.35331414
639.261733489
639.183389731
639.120155882
639.064204847
639.012944543
638.971062074
638.938259573
638.910638848
638.888814657
638.871710238
638.859682985
638.855892555
1099.40502298
1098.85560644
1097.77380222
1096.13619926
1093.95077858
1091.22554627
1087.97067235
1084.19833737
1079.92258022
1075.1590987
1069.92502418
1064.23868594
1058.11934394
1051.5868781
1044.66141487
1037.3628938
1029.71059466
1021.72266877
1013.41573299
1004.80460851
995.90225093
986.719950366
977.267742143
967.555017228
957.59111909
947.38580858
936.949440184
926.292877217
915.427318572
904.364172586
893.115166105
881.69267392
870.110229873
858.38317627
846.529383432
834.570060167
822.530592282
810.441388031
798.338610004
786.264677299
774.268427346
762.404708484
750.733373549
739.317513771
728.221212915
717.507355351
707.23672681
697.470499372
688.276495361
679.738728779
671.970668822
665.122132729
659.32658219
654.306418298
650.827362589
647.886395618
644.490042352
642.197042301
641.097912529
640.505031211
640.076028431
639.708644564
639.39901989
639.169916472
639.046259764
639.039449905
639.147045791
639.328940756
639.522357138
639.622367365
639.663611511
639.71165647
639.735765825
639.722900515
639.695788339
639.64718903
639.581669111
639.502949992
639.414716301
639.3211867
639.225665401
639.133303139
639.046017038
638.969594066
638.903646365
638.847916746
638.801889688
638.757165675
638.719343086
638.689136877
638.663889907
638.641856605
638.622980849
638.609242815
638.598049568
638.595279512
1107.15435101
1106.58090004
1105.45628891
1103.75371484
1101.48172389
1098.64890377
1095.26632453
1091.34735393
1086.90746647
1081.96398406
1076.53582395
1070.64324621
1064.30758722
1057.55091961
1050.39562552
1042.86384623
1034.9768606
1026.75441653
1018.21414376
1009.37112224
1000.23776277
990.824049495
981.138193891
971.187567277
960.97968918
950.522931713
939.826682532
928.901004093
917.756113317
906.402005591
894.848488313
883.105580188
871.184190738
859.096938021
846.859043601
834.489353841
822.011457141
809.454879216
796.856184304
784.259871165
771.718802838
759.293963755
747.05318824
735.068638308
723.412974175
712.155016924
701.356075765
691.073524946
681.370347538
672.332869896
664.107003442
656.964828183
651.203522812
645.059218926
642.969547806
641.636999626
640.585237382
640.138371658
640.018154234
639.97671321
639.896818895
639.753045285
639.574911358
639.405856676
639.263797451
639.142682851
638.999698332
638.753047802
638.359670634
638.066875831
638.188004148
638.478029022
638.710790604
638.801571049
638.874944247
638.906260828
638.907886501
638.887519493
638.84897904
638.799659407
638.742126507
638.683714872
638.629794817
638.582064046
638.540811655
638.506524729
638.475886171
638.445143529
638.42148847
638.400286676
638.381065857
638.364371482
638.349819467
638.338789732
638.32955044
638.327692984
1115.48362183
1114.88361442
1113.71217907
1111.93837383
1109.57120304
1106.61980667
1103.09623678
1099.01524683
1094.39398719
1089.25166037
1083.60922064
1077.489141
1070.91517262
1063.91201994
1056.50485773
1048.71865347
1040.57732619
1032.10280333
1023.31412405
1014.22675186
1004.85228938
995.19880762
985.271784955
975.075659912
964.615459761
953.897991696
942.931967123
931.727101177
920.292950514
908.638078899
896.769983474
884.695677217
872.422639914
859.959868627
847.31892317
834.515174578
821.569243902
808.508683923
795.369612974
782.198191345
769.05164408
755.998367907
743.116718599
730.49159542
718.208332458
706.344224097
694.957659503
684.092323481
673.787296822
664.092073551
655.070853034
646.791706989
642.342620304
641.422731977
641.577648433
641.72897862
641.631773835
641.481043266
641.360026699
641.242074747
641.0854102
640.869756751
640.613008389
640.338170584
640.056954697
639.778382543
639.490365489
639.185272137
638.89687663
638.696700456
638.562500686
638.313217681
637.897196012
637.813811294
638.049241405
638.1912302
638.255582409
638.290438325
638.29449795
638.286137028
638.263931627
638.240188868
638.216375514
638.194336264
638.175818877
638.161138466
638.143416633
638.127022064
638.114224053
638.101709987
638.089924117
638.079416618
638.070920749
638.062113947
638.056120836
638.054384921
1124.41705771
1123.78779243
1122.56549109
1120.71396485
1118.24246493
1115.16054258
1111.48135207
1107.22130984
1102.39957625
1097.03752541
1091.15839951
1084.7871362
1077.95024352
1070.67554679
1062.99168912
1054.92729465
1046.50984188
1037.76430436
1028.71179013
1019.36838388
1009.74457878
999.845569421
989.67268755
979.225876365
968.506587487
957.519933516
946.274697882
934.781318461
923.04943426
911.086271856
898.896490981
886.483186604
873.849392486
860.999402353
847.939886787
834.681271556
821.239593524
807.638790309
793.913117055
780.109466353
766.289352059
752.529998594
738.923738978
725.574299926
712.587767488
700.058459558
688.03880236
676.549020042
665.581895908
655.025913659
644.200026829
642.885433179
642.732948137
642.912163992
643.209414832
643.467109331
643.576018127
643.545364858
643.421169693
643.23909235
643.004636073
642.721536169
642.397627746
642.038842542
641.655908562
641.250062967
640.806795897
640.319491085
639.822289699
639.378227172
639.007439533
638.690756151
638.440647085
638.222366708
637.872797544
637.5168978
637.583443342
637.715526214
637.752700267
637.787642737
637.797976172
637.806371538
637.80868187
637.808490053
637.808900536
637.809424208
637.804333674
637.801344172
637.798365935
637.794930473
637.791487003
637.788128337
637.785303162
637.780411888
637.777212901
637.775368745
1133.9809293
1133.31965746
1132.0425824
1130.10689463
1127.52148976
1124.29604617
1120.44500143
1115.9869182
1110.94345728
1105.33851448
1099.19781226
1092.54891433
1085.42135996
1077.84661818
1069.85762618
1061.48778775
1052.76945426
1043.73197405
1034.39960505
1024.78958936
1014.91095478
1004.76464514
994.345465168
983.646197841
972.662789419
961.398592379
949.8642301
938.073066335
926.036324184
913.760111782
901.245351245
888.489841717
875.490859318
862.246820204
848.758082951
835.028291139
821.066620801
806.891048286
792.531640703
778.034171927
763.463514896
748.906563795
734.473748086
720.296620064
706.517013973
693.269417718
680.596852788
668.490701677
656.837983505
644.763375784
643.484457755
644.192208541
644.71334349
645.14243432
645.488098221
645.772539816
645.935478903
645.950577648
645.833614638
645.615571307
645.31610123
644.956480784
644.546101607
644.090214219
643.601829171
643.083158844
642.526540016
641.929019367
641.311761228
640.709326514
640.130685403
639.569636235
639.052780936
638.615820034
638.287506257
638.023963143
637.678863287
637.23623227
637.175557467
637.308299303
637.344465753
637.387134281
637.410563485
637.427776487
637.443465482
637.45552813
637.463760979
637.472787868
637.477487895
637.483006435
637.488096219
637.491461616
637.493860659
637.494269809
637.49268527
637.491343251
1144.2033897
1143.50748399
1142.17228864
1140.14659426
1137.43758294
1134.05442484
1130.01327205
1125.33574165
1120.04681024
1114.17330207
1107.74346485
1100.78740963
1093.33780315
1085.43024444
1077.10296695
1068.3956597
1059.34743983
1049.99406792
1040.36476867
1030.47902794
1020.34421735
1009.95500909
999.295852346
988.347533103
977.096775974
965.545306997
953.709391684
941.609831959
929.262215811
916.671737862
903.833809237
890.738565044
877.375880662
863.737262992
849.81539148
835.604778573
821.104715413
806.323745181
791.284358675
776.027848872
760.619626504
745.155413432
729.766581117
714.623993327
699.929256515
685.91770338
672.599409776
659.862022749
646.895498395
645.398842116
646.028083627
646.786316301
647.266715914
647.71816643
648.110218867
648.419128695
648.589497854
648.597463888
648.450478032
648.173708612
647.793398744
647.339379705
646.826328836
646.263528993
645.665587087
645.037906656
644.379990618
643.693867899
642.992957466
642.29485827
641.603220121
640.91206102
640.227218552
639.566866246
638.958351108
638.425701123
638.017513509
637.713676571
637.384543013
636.972454651
636.874242942
636.986147793