/*--------------------------------*- C++ -*----------------------------------*\
| =========                 |                                                 |
| \\      /  F ield         | OpenFOAM: The Open Source CFD Toolbox           |
|  \\    /   O peration     | Version:  v1906                                 |
|   \\  /    A nd           | Web:      www.OpenFOAM.com                      |
|    \\/     M anipulation  |                                                 |
\*---------------------------------------------------------------------------*/
FoamFile
{
    version     2.0;
    format      ascii;
    class       volScalarField;
    location    "749";
    object      pa;
}
// * * * * * * * * * * * * * * * * * * * * * * * * * * * * * * * * * * * * * //

dimensions      [0 2 -2 0 0 0 0];


internalField   nonuniform List<scalar> 
9216
(
976.648585376
976.283991456
975.543195753
974.423003915
972.92707973
971.059693186
968.826213124
966.233006939
963.287387644
959.997540029
956.372466719
952.421909589
948.156294349
943.586650469
938.724558795
933.582075575
928.171687947
922.50624714
916.598935736
910.463213806
904.112800279
897.561633906
890.823869173
883.913851937
876.846128378
869.63543324
862.296708652
854.845101402
847.295987161
839.664972058
831.967917212
824.220939135
816.440426921
808.643035823
800.845691717
793.065570928
785.32008351
777.62683458
770.003580269
762.468167695
755.038459166
747.73225182
740.567168401
733.560561857
726.729372893
720.090027588
713.658261289
707.449016811
701.476230809
695.752737262
690.290010132
685.098076955
680.18521834
675.557907036
671.220486779
667.175172075
663.421755097
659.957712134
656.777993999
653.875273605
651.23986409
648.860119271
646.722493162
644.812072904
643.11276527
641.607985273
640.280956202
639.115316351
638.095186205
637.20547926
636.431780595
635.760599154
635.179316292
634.676457802
634.241624612
633.865637306
633.540357786
633.258718007
633.014510166
632.802391712
632.617696171
632.456427041
632.315079169
632.190620343
632.079884008
631.983966118
631.905044204
631.84249658
631.794988815
631.760309208
631.736093643
631.719728503
631.708935346
631.702468395
631.699248834
631.698136381
977.012717376
976.646974041
975.904921579
974.781676333
973.281452833
971.408670311
969.168782272
966.568226417
963.614380601
960.315499208
956.680652468
952.719654516
948.442998846
943.861785097
938.987656892
933.832733342
928.409554638
922.731023365
916.810362078
910.661068108
904.296885716
897.731776172
890.979905058
884.055627285
876.973488091
869.748220731
862.394757983
854.928238759
847.364025702
839.717715929
832.005159238
824.242466848
816.446024488
808.63249363
800.818811278
793.022176424
785.260030404
777.550022463
769.909964266
762.357770726
754.911385122
747.588694932
740.407427519
733.385044891
726.538612883
719.884681239
713.439129268
707.217036378
701.232503375
695.498514065
690.026727163
684.827327948
679.908790692
675.277731187
670.938661966
666.893883388
663.143283513
659.6843225
656.511932939
653.618639004
650.994600985
648.627887774
646.504673573
644.609638532
642.92627048
641.437496262
640.126192339
638.975721108
637.970107198
637.094166518
636.333433448
635.674287438
635.104030982
634.611098896
634.18510476
633.816895571
633.498433516
633.222727296
632.98367876
632.776021122
632.595193555
632.437280739
632.298901697
632.177187343
632.069613077
631.975582432
631.897758402
631.837053107
631.790561614
631.756515396
631.733176311
631.717470199
631.706977227
631.700925659
631.698062388
631.696918856
977.754934785
977.386027774
976.639748078
975.510162846
974.001521641
972.11830528
969.866061552
967.251336781
964.281625624
960.965307741
957.311581754
953.330393843
949.032367204
944.428729557
939.531244892
934.35214621
928.904075373
923.200026419
917.253298109
911.077451667
904.686278874
898.093776033
891.314128263
884.361699241
877.251030114
869.996842517
862.614048761
855.117764123
847.523323777
839.846299364
832.10251742
824.308074103
816.479348549
808.633009996
800.786018758
792.955617635
785.159313336
777.41484534
769.740141104
762.153257465
754.672306035
747.315366168
740.10038145
733.045048175
726.16668804
719.482119231
713.007511171
706.758243376
700.748742905
694.992328484
689.501022835
684.285373868
679.354234834
674.714566235
670.371203731
666.326682086
662.581053838
659.131805613
655.973790977
653.099283847
650.498082139
648.157718866
646.063750249
644.200075668
642.549217723
641.09307833
639.813727603
638.694021865
637.717795515
636.869766541
636.135333975
635.500634788
634.95273646
634.47990472
634.071743371
633.719203088
633.414438424
633.150654427
632.921950782
632.723235429
632.550133006
632.39889205
632.266290138
632.149585966
632.04627707
631.955959368
631.882921695
631.826059645
631.781572397
631.749248418
631.727645821
631.712835667
631.703262807
631.69785143
631.695031098
631.693641869
978.88274089
978.510169385
977.757382381
976.618037158
975.096468719
973.197261572
970.926102153
968.289698781
965.295725031
961.952752266
958.270178301
954.258152379
949.927499371
945.289643891
940.356537091
935.140586635
929.654592361
923.911687868
917.925290116
911.709056821
905.276853134
898.642726827
891.820892717
884.825725038
877.671757807
870.373691515
862.946405732
855.404975795
847.764692884
840.041085553
832.249942153
824.407330927
816.529617708
808.633478889
800.735907042
792.854207603
785.005984235
777.209111307
769.48169128
761.841996783
754.308395682
746.899261238
739.632866263
732.527266284
725.600170427
718.868807249
712.349781916
706.058932187
700.011173802
694.220341744
688.699010058
683.458298864
678.507648107
673.854580585
669.504441339
665.4601646
661.722063316
658.287700366
655.151807126
652.306293885
649.74039182
647.440814596
645.392184487
643.577270202
641.976929658
640.571288233
639.341034463
638.268308008
637.33682347
636.531341186
635.837079852
635.239748941
634.725950853
634.283641175
633.902408951
633.573428494
633.289199435
633.043268359
632.83003148
632.644661764
632.48306272
632.341734956
632.217675323
632.10831826
632.011130504
631.927188177
631.860562903
631.808281635
631.768214615
631.739041585
631.718882296
631.705486619
631.697043436
631.692089923
631.689354399
631.688014962
980.399120737
980.021842688
979.260253912
978.107679535
976.568592112
974.647728388
972.350965745
969.685233931
966.658451657
963.279452889
959.557908974
955.504247581
951.129570514
946.445572122
941.464460238
936.198881247
930.661851005
924.86669293
918.826984562
912.556513427
906.069242824
899.379287669
892.500900224
885.4484651
878.236502704
870.879680002
863.3928274
855.79096046
848.089305118
840.30332503
832.448750167
824.541603382
816.598225002
808.635293129
800.66983646
792.71923787
784.801226014
776.933852699
769.135453723
761.424591981
753.819981751
746.340395076
739.004551224
731.830992783
724.837951228
718.043207139
711.463947194
705.116621033
699.016795262
693.178999625
687.616556645
682.341380376
677.363738028
672.691964998
668.332152901
664.287833839
660.559717794
657.145512381
654.03981526
651.234038088
648.716666895
646.473219866
644.487159321
642.739966532
641.209801521
639.873812342
638.710480876
637.701095207
636.829695407
636.081559378
635.441704794
634.895068419
634.427374197
634.026011388
633.680579558
633.382707527
633.125501517
632.903041974
632.710110988
632.542207477
632.395630757
632.267233405
632.154305437
632.054531589
631.965450777
631.890139217
631.831454552
631.785313142
631.749599474
631.723910271
631.706567621
631.6950369
631.687552462
631.683132259
631.680638938
631.679402503
982.308705097
981.925524377
981.152770892
979.983387383
978.422036914
976.473660884
974.144386867
971.44143221
968.37303337
964.948364239
961.177450189
957.071078913
952.64071024
947.898386803
942.856647641
937.52844654
931.92707701
926.06610546
919.959314051
913.620654227
907.064211668
900.30418277
893.354862441
886.230642405
878.946018973
871.515608918
863.954172075
856.276639235
848.498144018
840.634057351
832.700023946
824.711997005
816.686271851
808.639515797
800.588790563
792.551565283
784.545716644
776.589513285
768.701581414
760.900849789
753.206472505
745.637730424
738.213912593
730.954182367
723.877432933
717.002139618
710.34621411
703.926865777
697.76046621
691.862415406
686.246983202
680.927122093
675.914202244
671.217686857
666.844714494
662.799681967
659.083870828
655.69524555
652.628302175
649.873771195
647.419294827
645.248519432
643.343722664
641.68575983
640.248228038
639.003146337
637.925430911
636.995564097
636.199232358
635.523449234
634.952936234
634.471121522
634.062061048
633.712084935
633.410918506
633.151134077
632.926916454
632.733147082
632.565018431
632.41832256
632.289938684
632.177194058
632.077739753
631.989576399
631.911119066
631.846423646
631.795546746
631.75558057
631.725554398
631.70490102
631.690276176
631.680685758
631.674617739
631.670517776
631.668260601
631.667125632
984.617294694
984.226918462
983.440525411
982.250595244
980.662033047
978.680040875
976.311061818
973.562674478
970.44351343
966.963177906
963.132135794
958.961624432
954.463550397
949.650390514
944.535096181
939.131003225
933.451749266
927.511200625
921.32339036
914.902468865
908.262667733
901.418277216
894.383636755
887.173137694
879.801236639
872.282477866
864.631522996
856.863186449
848.99247526
841.034632076
833.00518109
824.919972633
816.795228115
808.647581968
800.494116576
792.352387693
784.240436226
776.176782328
768.180397975
760.270654792
752.467245136
744.790076334
737.25914042
729.8943646
722.715450747
715.741713692
708.991930482
702.484204338
696.235854736
690.263304448
684.581975897
679.206108862
674.148520345
669.420188135
665.029725124
660.982737914
657.281314474
653.923820019
650.9048257
648.213975323
645.838414149
643.758076288
641.954472033
640.411375105
639.093688546
637.964127512
636.99156458
636.156093405
635.448475062
634.860299847
634.37538096
633.974007242
633.6370672
633.348856887
633.099579633
632.883852053
632.697801725
632.537486251
632.398310225
632.27603891
632.168545906
632.073799608
631.989800149
631.914999872
631.8489611
631.795416748
631.753247782
631.720969886
631.697541666
631.681120692
631.669404546
631.661772405
631.657315477
631.654010123
631.652179177
631.651279398
987.331961697
986.933008343
986.130362342
984.915946436
983.294963861
981.272938413
978.85670183
976.0542764
972.874784818
969.328346964
965.425971788
961.179445801
956.601220744
951.704302692
946.50214507
941.008547869
935.237565575
929.203426036
922.920462486
916.403060299
909.665619654
902.722534274
895.588185747
888.276951972
880.803227813
873.181455657
865.426163764
857.552010579
849.573833738
841.506702745
833.365975799
825.167355998
816.926949956
808.661324736
800.38755869
792.123283181
783.886709912
775.6966386
767.572439489
759.534006074
751.601674249
743.796107258
736.138148024
728.648646612
721.348272724
714.257332092
707.395598761
700.782191528
694.435477611
688.373039307
682.611606831
677.166992582
672.053836646
667.285180687
662.871696759
658.820716269
655.135371576
651.814589562
648.853627639
646.239790264
643.962093002
641.990723153
640.307532603
638.912234775
637.750130738
636.766298724
635.91877771
635.188197258
634.579205381
634.094463375
633.71410181
633.411689668
633.162257421
632.945967779
632.754430109
632.586910277
632.443054004
632.320605477
632.214381203
632.118943622
632.034388407
631.959578122
631.892552866
631.832653656
631.780435759
631.738584334
631.706122766
631.681761062
631.664470671
631.652110083
631.644167381
631.638732203
631.635583903
631.633824903
631.632554993
631.632005967
990.461128734
990.05211924
989.230437341
987.987348423
986.328415798
984.25955436
981.788067047
978.922513274
975.672605462
972.049091577
968.063632335
963.728675093
959.057326934
954.063229598
948.760438684
943.163309937
937.286395329
931.144351915
924.751866079
918.123595517
911.274130325
904.217973689
896.969541254
889.543177294
881.95318477
874.213866215
866.339572469
858.344757211
850.244036055
842.05224977
833.784533064
825.456383947
817.083738507
808.683046103
800.271340292
791.866301672
783.486306107
775.150451173
766.878553416
758.691109078
750.609212502
742.654428886
734.848623116
727.213751569
719.771634655
712.543728993
705.550939309
698.813477673
692.350832397
686.181775335
680.324480406
674.796541957
669.614910767
664.795400619
660.351687427
656.293587411
652.62543846
649.346629721
646.455363337
643.931890483
641.777883458
639.932824133
638.379841355
637.180072384
636.225706197
635.428104508
634.725037641
634.097941306
633.589299308
633.227068905
632.975978164
632.795965401
632.65253901
632.517270756
632.385049233
632.26646602
632.167170755
632.08730815
632.018805814
631.951129027
631.890600809
631.837381813
631.788093678
631.744085072
631.706288572
631.676474764
631.654114838
631.637946175
631.626749177
631.619204133
631.614525264
631.612010086
631.610575984
631.610390627
631.609827383
631.609709499
994.014659969
993.593999372
992.750295505
991.474044836
989.771243033
987.648275324
985.113010775
982.174652629
978.843618871
975.131407441
971.050456173
966.613999363
961.835923859
956.730627119
951.312880029
945.597697325
939.600219103
933.335606885
926.818957999
920.065241258
913.089256211
905.905616486
898.528756211
890.972956547
883.252388275
875.381165728
867.37340808
859.243305233
851.005187491
842.673599427
834.263381084
825.789751613
817.268402695
808.715595701
800.148257709
791.584071678
783.041552524
774.540099815
766.100016686
757.742484411
749.489482549
741.363648376
733.388073057
725.586044447
717.980751831
710.594995378
703.450929573
696.569925652
689.972541028
683.678700586
677.707951512
672.079838943
666.814082033
661.930304762
657.446734967
653.377049709
649.726560111
646.493575662
643.687332735
641.261808058
639.279149575
637.574770039
636.126317057
635.208752521
634.545641292
633.990939631
633.436929904
632.846890735
632.381632291
632.166366029
632.098166348
632.097144365
632.109170397
632.076303038
632.000752037
631.928289772
631.87427165
631.843716933
631.820358861
631.777079792
631.739863425
631.710541642
631.678467823
631.6504594
631.627263344
631.609374369
631.597425324
631.589844604
631.585327304
631.58300123
631.581743525
631.581780941
631.582794906
631.584083864
631.584556557
631.584865605
998.003967992
997.569923858
996.700966564
995.386703102
993.633644382
991.448738816
988.840531326
985.818992157
982.395377619
978.582074828
974.392441219
969.840641209
964.941482546
959.710254916
954.162573251
948.314229093
942.181053812
935.778798496
929.123035292
922.229084852
915.111973022
907.78641807
900.266846831
892.567435701
884.702170092
876.684915422
868.529493485
860.2497607
851.859687834
843.373443448
834.805486765
826.170665976
817.484332603
808.76246478
800.021794421
791.279932491
782.555482206
773.868128133
765.238687351
756.689107035
748.242393157
739.922456469
731.753869603
723.761537374
715.970307223
708.404556686
701.087845932
694.042692807
687.290606454
680.852359549
674.748602094
669.000655609
663.631401161
658.665610401
654.12892122
650.041869825
646.409509188
643.220735949
640.529446611
638.178090078
636.481593031
634.866949844
633.124727955
632.730390811
632.565334275
632.413783663
632.204462688
631.9956355
631.912750638
631.912062171
631.932880964
631.935404252
631.873694435
631.731485227
631.601878136
631.534609468
631.519652477
631.564682071
631.62379539
631.599263034
631.583271734
631.584423989
631.565700803
631.553117409
631.54512273
631.538858481
631.537620876
631.538225371
631.540100102
631.543099969
631.546362265
631.549461821
631.552558035
631.55550974
631.557331429
631.558101145
1002.4421418
1001.99281499
1001.09508049
999.737518863
997.927255335
995.67191023
992.980832997
989.864903779
986.336370385
982.408668468
978.096237567
973.414335002
968.378850149
963.006120761
957.312753683
951.315453039
945.030860728
938.475415173
931.665235386
924.61603694
917.343085148
909.861187538
902.184723918
894.327707746
886.303869275
878.126749302
869.809794143
861.366446612
852.810233743
844.154856478
835.414291553
826.602903475
817.735581834
808.827895282
799.89625713
790.958095415
782.032015105
773.13793756
764.297198973
755.532586348
746.868286822
738.329727443
729.943285709
721.735868117
713.734372662
705.965100069
698.453203203
691.222341044
684.294654963
677.691219887
671.432990235
665.542332686
660.04510805
654.972704675
650.363807048
646.253300768
642.64508273
639.472579665
636.941713975
634.22040009
633.302504435
632.364185393
632.29457362
632.365259071
632.378704168
632.341756709
632.264843366
632.168236056
632.089317282
632.039096089
632.002710017
631.959035854
631.890256149
631.801721739
631.719958367
631.666895825
631.659060795
631.688126405
631.639009552
631.412026626
631.387195387
631.460163842
631.449476478
631.452361284
631.462209993
631.465023411
631.475262204
631.483769402
631.491894691
631.500645196
631.508662944
631.515681989
631.521228635
631.525726839
631.529055581
631.530449683
1007.34409953
1006.87739193
1005.94700486
1004.54034102
1002.66525636
1000.3301731
997.545396634
994.322884223
990.676052378
986.619568205
982.169138456
977.341298454
972.153202131
966.622413907
960.76670331
954.60384546
948.151432694
941.426705572
934.446413045
927.226712163
919.783115584
912.130491301
904.283112496
896.254748677
888.05878291
879.70833743
871.216392008
862.595887245
853.859815193
845.021308318
836.093744323
827.090868847
818.026957115
808.917003815
799.776935824
790.623838845
781.476183575
772.354033707
763.279213113
754.275403318
745.36813657
736.584645288
727.953530821
719.504224826
711.266251696
703.268349802
695.537601608
688.098786794
680.974243097
674.184377375
667.748961852
661.689462397
656.032963742
650.817781096
646.105128017
641.959454156
638.372551035
634.798867691
633.059850621
632.744381344
632.742231647
632.662165444
632.622501034
632.638747291
632.630029203
632.5949299
632.531489192
632.44705923
632.359862137
632.284326234
632.219198315
632.150694968
632.066215358
631.96706966
631.867915846
631.78469054
631.728285653
631.686879272
631.614317156
631.550036219
631.562344456
631.530937447
631.322108426
631.327421389
631.380482245
631.384279216
631.411600088
631.427493872
631.44184727
631.457155834
631.470330056
631.481224256
631.489786876
631.496057056
631.500855594
631.502910387
1012.7267717
1012.24034328
1011.27300921
1009.81081871
1007.86250033
1005.43743361
1002.54706055
999.204612033
995.424879144
991.223970093
986.619069213
981.628199207
976.269986323
970.563426241
964.527649711
958.181689653
951.544256121
944.633529761
937.466988386
930.061282259
922.432172211
914.594538526
906.562459519
898.349346761
889.968113445
881.431346317
872.751454988
863.94078527
855.011702508
845.976666171
836.848326235
827.639650527
818.364111659
809.035918999
799.670288968
790.28374213
780.894411172
771.522340371
762.189750231
752.921231044
743.743817142
734.686882345
725.781787548
717.061216864
708.558170055
700.304657539
692.330283289
684.661061202
677.318981134
670.322447156
663.687667495
657.431428293
651.577282088
646.162945093
641.270825705
636.906368776
633.564793897
633.157814326
633.058695337
633.090095383
633.120378179
633.089757981
633.048348833
633.018433956
632.987383929
632.944527942
632.879486887
632.793047013
632.697626987
632.605013047
632.515698932
632.422023094
632.316672006
632.200394809
632.083165914
631.97692896
631.88893744
631.811145134
631.722000604
631.637632661
631.581402603
631.51215461
631.468581044
631.45532819
631.355551312
631.272215073
631.34924179
631.370271662
631.389880812
631.41363864
631.432721179
631.447750879
631.459229408
631.467552505
631.473600107
631.47637469
1018.60932019
1018.10053991
1017.09145936
1015.56657554
1013.53566049
1011.00924081
1008.00011171
1004.52301069
1000.59434298
996.231897739
991.454574041
986.282116862
980.734858769
974.833460712
968.598646315
962.050929494
955.210341895
948.096174987
940.726757641
933.119293988
925.289784447
917.253045603
909.022830034
900.612028484
892.03291706
883.297400205
874.417203044
865.403989582
856.269418777
847.025179843
837.683059781
828.255065372
818.753636445
809.191928514
799.584153369
789.945962174
780.294855112
770.650599265
761.035627348
751.475375097
741.998496343
732.636869602
723.425284259
714.400674003
705.600784501
697.062250262
688.818294193
680.896561047
673.318215336
666.098152307
659.245974863
652.768373703
646.672315102
640.937623862
635.48261489
633.741894207
633.365412206
633.521335502
633.587942668
633.623406156
633.615638258
633.570321812
633.521361146
633.476356701
633.43053662
633.374590373
633.299870664
633.205512238
633.100082769
632.990431657
632.876950129
632.757226791
632.628448094
632.492227603
632.355417273
632.226250399
632.109409862
632.00053773
631.889802695
631.7826146
631.690212192
631.599093721
631.522099534
631.458616916
631.413637832
631.393969564
631.345877486
631.311375523
631.333877695
631.371801817
631.397423606
631.41650809
631.430825322
631.441153725
631.448200289
631.45175417
1025.01340175
1024.47928192
1023.42304936
1021.82741335
1019.70340255
1017.06292292
1013.92038676
1010.29231636
1006.19701085
1001.65421312
996.684801204
991.310501421
985.553612814
979.436727266
972.982432627
966.21299369
959.150017992
951.814125782
944.224655184
936.399440448
928.354701806
920.105075703
911.663793811
903.042987778
894.254062055
885.30805061
876.215873941
866.988450949
857.636689955
848.171439137
838.603490565
828.943681961
819.203140301
809.393628999
799.527975083
789.620554232
779.687821485
769.748876113
759.826037064
749.945387151
740.137213533
730.436237655
720.881462635
711.515405618
702.382439435
693.526023308
684.984995256
676.78952213
668.959745751
661.505985965
654.429520811
647.719397878
641.311739702
634.753665404
634.081570984
634.12594908
634.133536545
634.213552477
634.211361128
634.202621761
634.174183453
634.12597582
634.071487688
634.015028055
633.953503185
633.880617978
633.790687593
633.68316635
633.563880036
633.435915565
633.299499017
633.15488573
633.002058107
632.843327767
632.683670735
632.528703843
632.381654726
632.240947088
632.103163241
631.971237583
631.85011527
631.735597556
631.630959622
631.540531372
631.466791894
631.414294697
631.393284786
631.352512124
631.256307904
631.332330055
631.366482615
631.388918207
631.405512194
631.417608477
631.425761894
631.430027664
1031.96348505
1031.40060293
1030.29107616
1028.61555297
1026.38658237
1023.61774025
1020.32538072
1016.52814741
1012.24656099
1007.50262595
1002.31948731
996.721130961
990.73210453
984.377228895
977.681274028
970.668586551
963.362674368
955.785774655
947.958449639
939.899268916
931.624641056
923.148847987
914.484306405
905.642031373
896.632213799
887.464768173
878.149694401
868.697161475
859.117360416
849.420287198
839.615624988
829.712807385
819.721305773
809.651067738
799.5130529
789.319833122
779.086258123
768.830191581
758.573309322
748.341920334
738.167749271
728.088554947
718.148371043
708.396990405
698.888142237
689.675685328
680.807691362
672.318338136
664.226876434
656.540136632
649.25164094
642.304624737
635.239478479
634.380111374
634.639268396
634.867224708
634.911224242
634.920162355
634.889981847
634.857432377
634.812952701
634.757160173
634.694366256
634.625617722
634.548190497
634.457623705
634.350379662
634.227656931
634.092164971
633.944393658
633.78552943
633.616717561
633.439247052
633.255686095
633.069958689
632.886233565
632.707236216
632.533299041
632.36419048
632.202222788
632.050090981
631.907504911
631.776760644
631.66085336
631.560541702
631.479167589
631.417986365
631.356749075
631.338821918
631.331772177
631.348360074
631.367557943
631.384321998
631.397738189
631.407194031
631.412169341
1039.48723539
1038.89162757
1037.72176881
1035.95591571
1033.60847334
1030.6950531
1027.23435914
1023.2475696
1018.75781332
1013.78969923
1008.36894267
1002.52207351
996.276181621
989.658643702
982.696783858
975.417441386
967.84644878
960.008053712
951.924349
943.614798488
935.095960875
926.381507258
917.482592357
908.408563126
899.167876795
889.768982276
880.220867333
870.533070722
860.715253851
850.776664228
840.725799756
830.570417282
820.317903637
809.975860095
799.552778886
789.058762177
778.506319381
767.91128898
757.29389317
746.679912088
736.101929065
725.600573228
715.225524365
705.035781912
695.098256137
685.482988038
676.254130042
667.451442061
659.093024124
651.179642598
643.660443871
636.080620441
635.16341676
635.365442293
635.61306135
635.698643538
635.702433496
635.679290423
635.633479522
635.582766263
635.524052305
635.458193721
635.385332649
635.303954223
635.211063105
635.103141636
634.978123239
634.838582677
634.684966301
634.516449359
634.334867779
634.14171164
633.938798885
633.728689586
633.514689824
633.300233546
633.087991469
632.879507439
632.67613435
632.480179307
632.293978092
632.119000884
631.957713171
631.812658865
631.685482992
631.578086968
631.489437586
631.414312068
631.369575708
631.35222024
631.335698039
631.347041926
631.365987602
631.381491315
631.393075038
631.399043312
1047.61598269
1046.98301496
1045.74468139
1043.8764568
1041.39502543
1038.31850232
1034.66846491
1030.46914625
1025.74674439
1020.52884745
1014.84404055
1008.72166268
1002.19162847
995.284215755
988.029735187
980.458035247
972.597839523
964.475960326
956.116476571
947.540005474
938.763228104
929.798837706
920.656042654
911.341648409
901.86154925
892.222214877
882.431592974
872.498964806
862.433944551
852.245340981
841.940448723
831.525004434
821.003746512
810.381261834
799.662851473
788.855342251
777.967980748
767.013525591
756.009584232
744.980175686
733.957551841
722.984303605
712.115667152
701.421547249
690.98699187
680.907554675
671.278059487
662.144710259
653.517068202
645.345206431
637.15933153
636.20572329
636.435503619
636.612942982
636.647591465
636.621538936
636.570896896
636.509956476
636.441758357
636.373278864
636.301638782
636.22504094
636.140767144
636.045702588
635.936555366
635.810433337
635.666555247
635.508039264
635.334109941
635.143617653
634.938660184
634.72092568
634.492364803
634.25535343
634.012715527
633.767403564
633.522055942
633.278855913
633.039958637
632.807910832
632.585305933
632.37455941
632.178479314
631.999831399
631.840933996
631.703561349
631.587661809
631.492017473
631.421603486
631.376188907
631.344854254
631.328084866
631.349583971
631.368967311
631.384318526
631.391750484
1056.38529538
1055.70949121
1054.3931674
1052.40855861
1049.77516219
1046.51419655
1042.65080485
1038.2129533
1033.23047018
1027.73431981
1021.75621561
1015.32850283
1008.48415039
1001.25667782
993.679879446
985.787268368
977.611229972
969.181939409
960.526160644
951.666108015
942.618613819
933.394888177
924.001144411
914.440230453
904.714092245
894.826392834
884.784152859
874.597278636
864.276375271
853.830475887
843.265719549
832.585320169
821.790564665
810.88217367
799.861424615
788.730955798
777.495646805
766.163843519
754.748966215
743.271455258
731.761145677
720.260389866
708.828226292
697.545602534
686.520916643
675.889477878
665.813601235
656.335945802
647.398683139
638.502621517
637.474479097
637.752549258
637.916630648
637.844059635
637.725946518
637.611400468
637.502931388
637.403051779
637.310955825
637.225179845
637.139971603
637.050425934
636.951811538
636.840032952
636.711592409
636.56429987
636.399337074
636.218672607
636.020983748
635.806653889
635.577654786
635.335681585
635.082505928
634.820106508
634.550739931
634.276826081
634.000764297
633.724891252
633.451669732
633.183848524
632.924347353
632.67619227
632.442645738
632.226959665
632.032084462
631.860368063
631.713029676
631.590602627
631.494879017
631.424433159
631.372826305
631.337708667
631.327546406
631.35908836
631.382614638
631.391952254
1065.83568289
1065.11052512
1063.70494913
1061.58750264
1058.78112334
1055.31089821
1051.20648848
1046.50052359
1041.22716667
1035.42115573
1029.11747926
1022.35153099
1015.15943551
1007.57824723
999.645804389
991.400122682
982.878310399
974.115072843
965.140951884
955.980538908
946.6510091
937.161442634
927.513463851
917.703625208
907.727503953
897.584495344
887.281100135
876.829774472
866.244198338
855.534881846
844.706876336
833.759992509
822.690803871
811.495058564
800.169147243
788.71059049
777.118665976
765.395696902
753.548955049
741.592868567
729.551690105
717.463389665
705.385826969
693.406546064
681.658804591
670.334861163
659.761102718
649.8943525
640.16103636
638.983667467
639.276005623
639.445758208
639.296885987
639.050817482
638.826618963
638.637927334
638.480160742
638.347747426
638.23343578
638.129534168
638.027514076
637.920295815
637.801999563
637.668051316
637.515003745
637.341544084
637.150710512
636.943270669
636.718307448
636.478196692
636.224828156
635.959767003
635.684349428
635.399897667
635.107882307
634.809974467
634.508032141
634.204121591
633.900611927
633.600242326
633.306085375
633.021516531
632.750207209
632.495952212
632.262419651
632.052842331
631.869692565
631.7147786
631.589519314
631.492943419
631.421243931
631.370664674
631.340764405
631.347793091
631.392029145
631.402139453
1076.01344862
1075.23118901
1073.72279542
1071.45304119
1068.44887714
1064.74019739
1060.36257169
1055.35465596
1049.75587455
1043.60508908
1036.94046562
1029.80017965
1022.22335838
1014.25076338
1005.92489073
997.289333015
988.387390458
979.260013498
969.943242927
960.465425745
950.844663274
941.0871959
931.187694837
921.132515428
910.906464556
900.501833296
889.925616151
879.19693588
868.336604256
857.358806672
846.267403941
835.057042104
823.717390207
812.237770005
800.609028621
788.822847061
776.871608006
764.749749096
752.4561464
739.996410575
727.385116429
714.649430186
701.835956059
689.02407785
676.357720267
664.07391246
652.917076992
642.179202457
640.740469533
640.973442267
641.141484191
640.938711621
640.583589049
640.229067376
639.929923036
639.688404092
639.494227096
639.334733681
639.197556255
639.071440086
638.94635194
638.81426822
638.668924067
638.505639092
638.32123459
638.115294186
637.891914771
637.652155604
637.396517077
637.128667996
636.850836347
636.564400486
636.270049141
635.968167658
635.659156653
635.343651239
635.022643371
634.697559824
634.370325658
634.043392347