/*--------------------------------*- C++ -*----------------------------------*\
| =========                 |                                                 |
| \\      /  F ield         | OpenFOAM: The Open Source CFD Toolbox           |
|  \\    /   O peration     | Version:  v1906                                 |
|   \\  /    A nd           | Web:      www.OpenFOAM.com                      |
|    \\/     M anipulation  |                                                 |
\*---------------------------------------------------------------------------*/
FoamFile
{
    version     2.0;
    format      ascii;
    class       volVectorField;
    location    "496";
    object      U;
}
// * * * * * * * * * * * * * * * * * * * * * * * * * * * * * * * * * * * * * //

dimensions      [0 1 -1 0 0 0 0];


internalField   nonuniform List<vector> 
9216
(
(0.00271082025351 -0.00271303307573 0)
(0.00285816951931 -0.00875523839556 1.17123915966e-27)
(0.00285000572858 -0.0148915015405 1.84137969442e-31)
(0.00281273336826 -0.0210281582227 0)
(0.00276096795369 -0.0270620249328 0)
(0.00269620992904 -0.0329688174063 0)
(0.00262009895987 -0.0387227164845 0)
(0.00253403072428 -0.0443007245231 0)
(0.00243924835166 -0.0496826707858 0)
(0.00233708727692 -0.0548511304423 0)
(0.00222874344108 -0.0597914584359 0)
(0.00211549587069 -0.0644916585879 0)
(0.00199842221016 -0.0689423278277 0)
(0.00187866421851 -0.0731364352658 0)
(0.00175711509051 -0.0770691894633 0)
(0.00163473267517 -0.0807377699665 0)
(0.00151220093962 -0.0841411646835 0)
(0.00139028695859 -0.0872798990328 0)
(0.00126947556285 -0.0901558803409 0)
(0.00115036381634 -0.0927721544139 0)
(0.00103326730639 -0.0951327785909 0)
(0.000918646411449 -0.0972426203076 0)
(0.000806684242321 -0.0991072648132 0)
(0.000697739425386 -0.100732856857 0)
(0.000591896582591 -0.102126040306 0)
(0.000489441828644 -0.10329383763 0)
(0.000390388421538 -0.104243612639 0)
(0.000294971515027 -0.104982978686 0)
(0.000203152216848 -0.105519776411 0)
(0.000115130255422 -0.105862004774 0)
(3.08327880448e-05 -0.106017793194 0)
(-4.95813712038e-05 -0.105995413131 0)
(-0.000126245733867 -0.105803112244 0)
(-0.000199019027455 -0.105449152509 0)
(-0.000268039118443 -0.104941828274 0)
(-0.000333188822155 -0.104289392946 0)
(-0.000394638921371 -0.103500045211 0)
(-0.000452297605667 -0.102581895084 0)
(-0.000506359527988 -0.101542941882 0)
(-0.000556754347636 -0.100391049947 0)
(-0.000603696309372 -0.0991339255799 0)
(-0.000647133887938 -0.0977791018729 0)
(-0.000687296308248 -0.0963339143517 0)
(-0.000724147601345 -0.0948054946821 0)
(-0.00075792728327 -0.093200746263 0)
(-0.000788611608098 -0.0915263473877 0)
(-0.000816445346823 -0.0897887265213 0)
(-0.000841413395126 -0.0879940742102 0)
(-0.000863761159041 -0.0861483187515 0)
(-0.000883479050323 -0.0842571467284 0)
(-0.000900808738028 -0.0823259782729 0)
(-0.000915743343107 -0.0803599949011 0)
(-0.000928517354154 -0.0783641145191 0)
(-0.000939124703608 -0.0763430258225 0)
(-0.000947789963461 -0.0743011618724 0)
(-0.000954506679112 -0.0722427393311 0)
(-0.00095948797096 -0.0701717304447 0)
(-0.000962726875451 -0.0680919060642 0)
(-0.000964424365552 -0.0660068048592 0)
(-0.000964573551183 -0.0639197784047 0)
(-0.00096336361835 -0.0618339575945 0)
(-0.000960789130166 -0.0597522989063 0)
(-0.000957028363048 -0.0576775473461 0)
(-0.000952078974251 -0.0556122826667 0)
(-0.000946109703142 -0.0535588794002 0)
(-0.00093912310008 -0.0515195526894 0)
(-0.000931279655534 -0.049496315561 0)
(-0.000922588247845 -0.0474910238425 0)
(-0.00091320226837 -0.0455053318868 0)
(-0.000903137923676 -0.0435407367466 0)
(-0.000892542122852 -0.0415985331366 0)
(-0.000881438669851 -0.0396798567752 0)
(-0.00086996817146 -0.0377856400491 0)
(-0.000858161674824 -0.0359166548139 0)
(-0.000846153099623 -0.0340734696662 0)
(-0.000833979718369 -0.0322564921371 0)
(-0.000821768038193 -0.0304659287865 0)
(-0.000809560096009 -0.0287018268971 0)
(-0.000797473932398 -0.0269640380071 0)
(-0.000785554504366 -0.0252522589406 0)
(-0.000773910171237 -0.0235659995233 0)
(-0.000762586701968 -0.0219046230304 0)
(-0.000751681253643 -0.0202673184482 0)
(-0.000741237774329 -0.0186531406681 0)
(-0.0007313397678 -0.0170609882853 0)
(-0.000722024729475 -0.015489645466 0)
(-0.000713355466419 -0.0139377690024 0)
(-0.000705347674927 -0.0124039411218 0)
(-0.000698009945207 -0.0108866877656 0)
(-0.000691252521377 -0.00938459793146 0)
(-0.000684814019736 -0.0078965058083 0)
(-0.000677928369679 -0.00642209245549 0)
(-0.000668530223165 -0.00496353968744 0)
(-0.000647233775047 -0.00354044498116 0)
(-0.000608380077434 -0.00201487786584 0)
(-0.000955246760627 -0.000954959256292 0)
(0.00877589760098 -0.00288810414365 0)
(0.00970366594743 -0.0097732588939 0)
(0.00968125147895 -0.0166455944041 -1.22993673633e-27)
(0.00955181813177 -0.0235233277284 0)
(0.00937266963624 -0.0302765547572 0)
(0.00915121952323 -0.0368835135591 0)
(0.00889179889143 -0.0433167833848 0)
(0.00859869667817 -0.0495511112604 0)
(0.00827613390776 -0.0555640932846 0)
(0.00792852448834 -0.0613363751639 0)
(0.00756005507588 -0.0668517094746 0)
(0.00717495681087 -0.0720968700402 0)
(0.00677703487457 -0.077061540731 0)
(0.00637002895539 -0.0817381019453 0)
(0.00595712581175 -0.0861214279039 0)
(0.00554141395306 -0.0902086174902 0)
(0.00512537861106 -0.0939987627255 0)
(0.00471143841577 -0.0974926780518 0)
(0.00430141375799 -0.100692683803 0)
(0.00389712849453 -0.103602367768 0)
(0.00349984211245 -0.106226407112 0)
(0.00311090125864 -0.108570376679 0)
(0.00273112994701 -0.110640615587 0)
(0.00236151885996 -0.112444082495 0)
(0.00200257185977 -0.11398826214 0)
(0.00165502515361 -0.115281059644 0)
(0.00131915267964 -0.116330736826 0)
(0.00099550979341 -0.117145834714 0)
(0.000684202593033 -0.117735128519 0)
(0.000385653568239 -0.11810756665 0)
(9.98437581456e-05 -0.118272242426 0)
(-0.000172922830294 -0.118238289899 0)
(-0.000432798730503 -0.11801498591 0)
(-0.000679566788212 -0.117611637969 0)
(-0.000913454089226 -0.11703751849 0)
(-0.00113433041358 -0.11630185957 0)
(-0.00134251613473 -0.115413822074 0)
(-0.00153796365644 -0.114382467087 0)
(-0.00172107227514 -0.113216728533 0)
(-0.00189186713676 -0.11192538839 0)
(-0.00205081436922 -0.110517050716 0)
(-0.0021980014395 -0.109000122809 0)
(-0.00233394754043 -0.107382791687 0)
(-0.00245879021952 -0.105673011843 0)
(-0.00257308688987 -0.103878484954 0)
(-0.00267701214595 -0.102006654553 0)
(-0.00277114611884 -0.100064689117 0)
(-0.00285568716686 -0.0980594835081 0)
(-0.00293122340638 -0.0959976455075 0)
(-0.00299796480901 -0.0938855035943 0)
(-0.00305649406791 -0.0917290963716 0)
(-0.00310702226713 -0.089534185834 0)
(-0.00315011582471 -0.0873062491141 0)
(-0.00318597918798 -0.0850504961961 0)
(-0.0032151544675 -0.0827718629221 0)
(-0.00323783462857 -0.0804750318259 0)
(-0.00325453298002 -0.0781644254748 0)
(-0.00326542956718 -0.0758442291129 0)
(-0.00327100759754 -0.0735183831711 0)
(-0.00327143563586 -0.0711906063788 0)
(-0.0032671685855 -0.0688643866836 0)
(-0.00325836750627 -0.0665430038033 0)
(-0.0032454627988 -0.0642295178647 0)
(-0.00322861330173 -0.0619267906121 0)
(-0.00320822993542 -0.0596374717041 0)
(-0.00318447502398 -0.057364018292 0)
(-0.00315774487787 -0.0551086791285 0)
(-0.00312821012462 -0.0528735125247 0)
(-0.00309625643188 -0.0506603689951 0)
(-0.0030620660134 -0.048470907993 0)
(-0.00302601609053 -0.0463065798808 0)
(-0.00298830155457 -0.0441686419215 0)
(-0.00294929151545 -0.0420581406316 0)
(-0.00290919252085 -0.0399759276141 0)
(-0.00286836397757 -0.0379226431503 0)
(-0.00282702106554 -0.0358987322949 0)
(-0.00278551045347 -0.0339044305518 0)
(-0.00274405148025 -0.0319397805821 0)
(-0.00270297392053 -0.0300046204815 0)
(-0.00266249570203 -0.0280986012461 0)
(-0.00262292486342 -0.0262211780884 0)
(-0.0025844715763 -0.0243716288081 0)
(-0.00254741644606 -0.0225490483645 0)
(-0.00251195419561 -0.020752368316 0)
(-0.00247832996925 -0.018980354967 0)
(-0.00244671067829 -0.0172316302724 0)
(-0.00241728804027 -0.0155046736432 0)
(-0.00239016742687 -0.0137978435211 0)
(-0.00236542159916 -0.0121093774193 0)
(-0.00234295163714 -0.0104373915694 0)
(-0.00232238861306 -0.0087797925862 0)
(-0.0023026778572 -0.00713398718318 0)
(-0.00228112054048 -0.00549562585656 0)
(-0.00225012275698 -0.00385494854827 0)
(-0.00217075070726 -0.00216587803345 0)
(-0.00201364431487 -0.000606294827836 0)
(0.015023534819 -0.00293397935553 0)
(0.0166346562037 -0.00993405929578 0)
(0.0165739547059 -0.0168966537947 -1.22789696736e-27)
(0.0163429750913 -0.0238750411527 0)
(0.0160312584776 -0.030725255265 0)
(0.0156486011987 -0.037424029257 0)
(0.015201479083 -0.0439428991774 0)
(0.0146968590461 -0.0502560652647 0)
(0.0141420305418 -0.0563407946651 0)
(0.0135444874093 -0.0621776013844 0)
(0.012911581944 -0.0677502624459 0)
(0.0122504861757 -0.0730457264334 0)
(0.0115678938116 -0.078053956877 0)
(0.0108700801854 -0.0827677062028 0)
(0.0101626601977 -0.0871822673173 0)
(0.00945074184274 -0.0912951947523 0)
(0.0087387277578 -0.0951060352568 0)
(0.0080305408799 -0.0986160552265 0)
(0.00732944725881 -0.10182799654 0)
(0.00663832795776 -0.104745844217 0)
(0.00595950141397 -0.107374630022 0)
(0.00529501957059 -0.109720252711 0)
(0.0046464743296 -0.111789332993 0)
(0.00401530289145 -0.113589083564 0)
(0.00340257031162 -0.115127208143 0)
(0.00280927610058 -0.116411810898 0)
(0.00223611138597 -0.117451327185 0)
(0.00168376404236 -0.11825445966 0)
(0.00115265318438 -0.11883012877 0)
(0.000643232912815 -0.119187424517 0)
(0.000155707203446 -0.119335569666 0)
(-0.000309656876572 -0.119283876526 0)
(-0.000752825813644 -0.119041716092 0)
(-0.00117370152706 -0.11861848352 0)
(-0.00157241880194 -0.118023563077 0)
(-0.00194903153521 -0.117266297296 0)
(-0.00230381950888 -0.116355955051 0)
(-0.00263697609475 -0.115301702494 0)
(-0.00294891382811 -0.114112574517 0)
(-0.00323995067071 -0.112797449089 0)
(-0.00351061385865 -0.11136502185 0)
(-0.00376132679567 -0.109823785153 0)
(-0.0039927096107 -0.108182006558 0)
(-0.00420526877034 -0.10644771325 0)
(-0.00439969305256 -0.104628675315 0)
(-0.00457654789513 -0.10273239602 0)
(-0.0047365655642 -0.100766099867 0)
(-0.00488034631483 -0.0987367286007 0)
(-0.00500864169417 -0.09665093412 0)
(-0.00512206436116 -0.0945150798943 0)
(-0.00522136344177 -0.0923352379827 0)
(-0.00530714480832 -0.0901171950162 0)
(-0.00538013751623 -0.0878664527127 0)
(-0.00544092604529 -0.0855882374661 0)
(-0.0054902067862 -0.0832875030755 0)
(-0.00552853361319 -0.080968942613 0)
(-0.00555656344227 -0.0786369923472 0)
(-0.00557481612077 -0.076295844635 0)
(-0.00558390796433 -0.0739494516253 0)
(-0.00558432672623 -0.071601537842 0)
(-0.00557665204593 -0.0692556027846 0)
(-0.00556134585363 -0.0669149322447 0)
(-0.00553895859779 -0.0645825988925 0)
(-0.00550993525273 -0.0622614716215 0)
(-0.00547480633957 -0.0599542139647 0)
(-0.00543400942711 -0.0576632913268 0)
(-0.0053880640925 -0.0553909672341 0)
(-0.00533740876954 -0.0531393086402 0)
(-0.00528255914228 -0.0509101806861 0)
(-0.00522396008297 -0.0487052506894 0)
(-0.0051621272778 -0.0465259820985 0)
(-0.00509751404485 -0.0443736378678 0)
(-0.00503063641166 -0.0422492746085 0)
(-0.00496195451718 -0.0401537461343 0)
(-0.00489198165522 -0.0380876985482 0)
(-0.00482117993851 -0.0360515745655 0)
(-0.00475005412758 -0.0340456102819 0)
(-0.00467906105705 -0.0320698407474 0)
(-0.00460868921033 -0.0301240987904 0)
(-0.0045393812641 -0.0282080220777 0)
(-0.00447160046899 -0.0263210542926 0)
(-0.00440576539922 -0.0244624537868 0)
(-0.00434230406885 -0.0226312971015 0)
(-0.00428159962905 -0.0208264890937 0)
(-0.00422403267022 -0.0190467685208 0)
(-0.00416993568334 -0.0172907188231 0)
(-0.00411962236228 -0.0155567736749 0)
(-0.00407334613628 -0.0138432237226 0)
(-0.00403131153668 -0.0121482105625 0)
(-0.003993629208 -0.010469702492 0)
(-0.00396031250426 -0.00880541674616 0)
(-0.00393128436153 -0.00715263203408 0)
(-0.00390654889766 -0.00550768204964 0)
(-0.00388636889711 -0.00386427301837 0)
(-0.00385606831017 -0.00223292534851 0)
(-0.00353194290732 -0.000641538714652 0)
(0.0214190176469 -0.00297932042979 0)
(0.0237342106985 -0.0100844825485 0)
(0.0236445104955 -0.0171426195471 1.22732653543e-27)
(0.0233099364263 -0.0242172649234 0)
(0.0228592879664 -0.0311583862888 0)
(0.0223070253347 -0.0379412253372 0)
(0.0216625834322 -0.0445361387933 0)
(0.0209360618056 -0.050916623588 0)
(0.0201381083339 -0.0570595927752 0)
(0.0192795893113 -0.0629455082484 0)
(0.0183712196803 -0.0685583438376 0)
(0.0174233324658 -0.0738854511124 0)
(0.0164456212855 -0.0789173478108 0)
(0.0154470401312 -0.0836474478135 0)
(0.0144356603989 -0.0880717625826 0)
(0.0134186869236 -0.092188587643 0)
(0.0124024039366 -0.0959981964051 0)
(0.0113922729816 -0.0995025475014 0)
(0.0103929305284 -0.102705019547 0)
(0.00940832955936 -0.105610172743 0)
(0.00844175439207 -0.108223544291 0)
(0.00749597524877 -0.110551472539 0)
(0.00657325609362 -0.11260095236 0)
(0.0056755026621 -0.114379514559 0)
(0.00480425043699 -0.115895129393 0)
(0.00396079734598 -0.117156126769 0)
(0.00314616845071 -0.118171132457 0)
(0.00236123218078 -0.118949013949 0)
(0.00160664440034 -0.119498835387 0)
(0.000882951579344 -0.119829817044 0)
(0.000190519358872 -0.119951297877 0)
(-0.000470368945166 -0.119872711447 0)
(-0.00109958981032 -0.119603524188 0)
(-0.00169709505183 -0.119153228688 0)
(-0.00226299144823 -0.118531304316 0)
(-0.00279744768145 -0.117747184823 0)
(-0.00330077849151 -0.116810226813 0)
(-0.00377335208105 -0.115729679752 0)
(-0.00421567254938 -0.114514656976 0)
(-0.00462828602184 -0.113174109002 0)
(-0.00501186094213 -0.111716798083 0)
(-0.00536709355293 -0.110151275887 0)
(-0.00569478585429 -0.108485862662 0)
(-0.00599575150362 -0.106728630207 0)
(-0.00627089156806 -0.104887386349 0)
(-0.00652110186073 -0.102969663606 0)
(-0.00674734664422 -0.100982709178 0)
(-0.00695056857929 -0.0989334793284 0)
(-0.0071317606145 -0.0968286347178 0)
(-0.00729187948344 -0.0946745400491 0)
(-0.00743191591467 -0.0924772641364 0)
(-0.00755281265982 -0.0902425840797 0)
(-0.0076555331611 -0.0879759891887 0)
(-0.0077409847903 -0.0856826885813 0)
(-0.00781008594576 -0.0833676177581 0)
(-0.00786369512444 -0.0810354483503 0)
(-0.00790267631666 -0.0786905960265 0)
(-0.00792783412144 -0.076337230959 0)
(-0.00793997703672 -0.073979285663 0)
(-0.00793985864841 -0.0716204648642 0)
(-0.00792823823529 -0.0692642520936 0)
(-0.00790582763286 -0.0669139178601 0)
(-0.00787334834529 -0.064572524117 0)
(-0.00783148357586 -0.0622429301015 0)
(-0.00778093101465 -0.0599277943304 0)
(-0.00772235932116 -0.0576295779511 0)
(-0.00765645579871 -0.0553505443847 0)
(-0.00758388676058 -0.0530927605469 0)
(-0.00750533956031 -0.0508580947525 0)
(-0.00742148634259 -0.0486482165144 0)
(-0.00733302017835 -0.0464645935519 0)
(-0.00724062199384 -0.04430849107 0)
(-0.00714499091608 -0.0421809688473 0)
(-0.0070468142886 -0.0400828808787 0)
(-0.0069467925815 -0.0380148733781 0)
(-0.0068456125765 -0.0359773855154 0)
(-0.00674396739238 -0.0339706490047 0)
(-0.00664253287743 -0.0319946904278 0)
(-0.0065419833489 -0.0300493327865 0)
(-0.00644297120036 -0.0281341996583 0)
(-0.00634613893479 -0.0262487188836 0)
(-0.00625210180125 -0.0243921285698 0)
(-0.00616145655113 -0.0225634827897 0)
(-0.00607476671906 -0.0207616591213 0)
(-0.00599256826931 -0.0189853657552 0)
(-0.00591535679583 -0.0172331493393 0)
(-0.00584358995557 -0.0155034010923 0)
(-0.00577767618486 -0.0137943604565 0)
(-0.00571797601452 -0.0121041120102 0)
(-0.00566479983517 -0.0104305708652 0)
(-0.0056184337689 -0.00877145057461 0)
(-0.00557921526264 -0.00712420796386 0)
(-0.00554767465969 -0.00548597641332 0)
(-0.00552373869749 -0.0038523060464 0)
(-0.00548196674736 -0.00224506200766 0)
(-0.00493777271 -0.000657269766353 0)
(0.027921331176 -0.00303886091689 0)
(0.030942480984 -0.0102822644713 0)
(0.0308211722635 -0.0174729418902 0)
(0.0303776699823 -0.024676966055 0)
(0.0297808068083 -0.0317394501884 0)
(0.0290501665739 -0.0386339253676 0)
(0.0281986225312 -0.0453293156287 0)
(0.0272398541158 -0.0517982035003 0)
(0.0261882344881 -0.0580170587171 0)
(0.0250583452061 -0.0639663200497 0)
(0.0238645160017 -0.0696302919848 0)
(0.0226204676059 -0.0749969399575 0)
(0.0213390207796 -0.0800576031054 0)
(0.0200319187456 -0.0848066537627 0)
(0.0187097052974 -0.0892411325357 0)
(0.0173817016063 -0.093360380573 0)
(0.0160560114135 -0.0971656880148 0)
(0.0147396001033 -0.100659969819 0)
(0.0134383716665 -0.10384747768 0)
(0.0121572962051 -0.106733550541 0)
(0.0109005104107 -0.109324404993 0)
(0.00967145237851 -0.111626962578 0)
(0.00847295304937 -0.113648711106 0)
(0.00730735384591 -0.115397594617 0)
(0.00617657266778 -0.116881927604 0)
(0.0050821945045 -0.118110327791 0)
(0.00402550820024 -0.119091663214 0)
(0.00300757060926 -0.119835009017 0)
(0.0020292184823 -0.120349610906 0)
(0.00109111251346 -0.120644852365 0)
(0.000193732189889 -0.120730220756 0)
(-0.000662593871418 -0.120615294959 0)
(-0.00147769377132 -0.120309668542 0)
(-0.00225153647479 -0.119822966701 0)
(-0.00298424357216 -0.119164793118 0)
(-0.00367606410314 -0.118344701483 0)
(-0.00432739100253 -0.117372163406 0)
(-0.00493873384321 -0.116256537559 0)
(-0.00551073320256 -0.115007039888 0)
(-0.00604413136847 -0.113632715763 0)
(-0.00653978417934 -0.112142413952 0)
(-0.00699863004196 -0.11054476328 0)
(-0.00742169965902 -0.108848151584 0)
(-0.00781008421023 -0.10706070787 0)
(-0.00816494366015 -0.105190287069 0)
(-0.00848747508285 -0.103244458215 0)
(-0.00877892033758 -0.101230495159 0)
(-0.00904053552936 -0.0991553707099 0)
(-0.00927359877744 -0.0970257531472 0)
(-0.00947938169234 -0.0948480058964 0)
(-0.00965915789924 -0.0926281891465 0)
(-0.00981417732631 -0.0903720642203 0)
(-0.00994567601788 -0.088085099372 0)
(-0.0100548538508 -0.0857724777383 0)
(-0.0101428860253 -0.0834391059717 0)
(-0.0102109046268 -0.08108962434 0)
(-0.0102600119154 -0.0787284167635 0)
(-0.010291265805 -0.0763596215384 0)
(-0.0103056947483 -0.0739871411822 0)
(-0.0103042868449 -0.0716146522702 0)
(-0.0102880057416 -0.0692456137751 0)
(-0.0102577826801 -0.0668832748329 0)
(-0.0102145325365 -0.0645306805554 0)
(-0.0101591478797 -0.062190676997 0)
(-0.0100925141133 -0.0598659140771 0)
(-0.0100155045108 -0.0575588476488 0)
(-0.00992899348658 -0.0552717396819 0)
(-0.00983385172379 -0.0530066578783 0)
(-0.00973095684658 -0.0507654738607 0)
(-0.0096211880288 -0.0485498612248 0)
(-0.009505433717 -0.0463612927113 0)
(-0.00938458549064 -0.044201037753 0)
(-0.009259542876 -0.0420701597481 0)
(-0.00913120653789 -0.0399695141369 0)
(-0.00900048053614 -0.0378997466886 0)
(-0.00886826515886 -0.0358612929114 0)
(-0.00873545714621 -0.0338543780548 0)
(-0.00860294253065 -0.0318790183736 0)
(-0.00847159538359 -0.0299350231906 0)
(-0.00834227099187 -0.0280219982307 0)
(-0.00821580361221 -0.0261393498489 0)
(-0.00809300017828 -0.0242862903898 0)
(-0.00797463742304 -0.0224618443717 0)
(-0.00786145620038 -0.0206648554902 0)
(-0.00775415827143 -0.0188939941407 0)
(-0.00765340140699 -0.017147764977 0)
(-0.00755979661133 -0.0154245139994 0)
(-0.007473905614 -0.0137224341702 0)
(-0.0073962427923 -0.0120395684838 0)
(-0.00732728459386 -0.0103738105629 0)
(-0.00726749647752 -0.00872290951107 0)
(-0.00721738795418 -0.00708448062035 0)
(-0.00717751907558 -0.00545606633392 0)
(-0.0071468307506 -0.00383376051835 0)
(-0.00708984366056 -0.00224123875277 0)
(-0.00636497414112 -0.000659178195197 0)
(0.0345683786812 -0.00311430505336 0)
(0.0383064477938 -0.0105354486249 0)
(0.0381489202003 -0.017898174934 0)
(0.0375884706803 -0.0252689293457 0)
(0.0368350207796 -0.0324871263285 0)
(0.0359137787008 -0.0395242026946 0)
(0.0348416141533 -0.0463473430914 0)
(0.033636348476 -0.0529280286709 0)
(0.0323165900197 -0.0592422406609 0)
(0.0309010889013 -0.0652704823601 0)
(0.0294081506358 -0.07099758802 0)
(0.0278551688657 -0.0764124179493 0)
(0.0262582764533 -0.0815074672102 0)
(0.0246321236177 -0.0862784265437 0)
(0.0229897593443 -0.0907237293902 0)
(0.0213426120384 -0.0948441113188 0)
(0.0197005361624 -0.0986422015433 0)
(0.01807191914 -0.102122158516 0)
(0.0164638150853 -0.10528935622 0)
(0.0148821046005 -0.108150122277 0)
(0.0133316515251 -0.11071152603 0)
(0.0118164629289 -0.112981211738 0)
(0.0103398282305 -0.114967271108 0)
(0.00890445009361 -0.116678148172 0)
(0.00751254702927 -0.118122569798 0)
(0.00616594515079 -0.119309495146 0)
(0.00486614162707 -0.12024807831 0)
(0.00361436033466 -0.120947639076 0)
(0.00241158351643 -0.121417637925 0)
(0.00125858131874 -0.121667652333 0)
(0.00015592387376 -0.121707349172 0)
(-0.00089601101672 -0.12154648493 0)
(-0.00189701938823 -0.121194808667 0)
(-0.00284707974228 -0.120662111514 0)
(-0.00374634592832 -0.119958152773 0)
(-0.00459513998462 -0.119092637716 0)
(-0.00539395143067 -0.118075183663 0)
(-0.00614342568998 -0.116915287908 0)
(-0.00684436038371 -0.115622296682 0)
(-0.00749769064816 -0.114205375938 0)
(-0.0081044822409 -0.112673484222 0)
(-0.00866591423038 -0.111035348232 0)
(-0.00918326969497 -0.109299441155 0)
(-0.00965791686616 -0.107473964207 0)
(-0.0100912985349 -0.105566831264 0)
(-0.0104849128157 -0.103585656882 0)
(-0.0108403023781 -0.101537747438 0)
(-0.0111590359935 -0.0994300955859 0)
(-0.011442698635 -0.097269377626 0)
(-0.0116928747989 -0.0950619538867 0)
(-0.0119111403775 -0.0928138716215 0)
(-0.0120990486695 -0.0905308704579 0)
(-0.0122581248164 -0.0882183897649 0)
(-0.012389855207 -0.0858815779132 0)
(-0.0124956850531 -0.0835253027115 0)
(-0.0125770116787 -0.0811541629383 0)
(-0.0126351855059 -0.0787725001791 0)
(-0.0126715072769 -0.0763844108766 0)
(-0.0126872322554 -0.0739937578107 0)
(-0.0126835709754 -0.0716041809694 0)
(-0.0126616959704 -0.0692191070959 0)
(-0.0126227451093 -0.0668417579884 0)
(-0.0125678297239 -0.0644751569887 0)
(-0.0124980392813 -0.0621221339132 0)
(-0.0124144495667 -0.0597853280367 0)
(-0.0123181273114 -0.057467189561 0)
(-0.0122101371367 -0.0551699793621 0)
(-0.0120915449818 -0.052895767602 0)
(-0.0119634228505 -0.0506464311229 0)
(-0.0118268502721 -0.0484236502894 0)
(-0.0116829163766 -0.046228905255 0)
(-0.0115327191621 -0.0440634723262 0)
(-0.0113773649428 -0.0419284203873 0)
(-0.0112179656275 -0.0398246079812 0)
(-0.0110556359723 -0.0377526809573 0)
(-0.0108914893907 -0.0357130711726 0)
(-0.0107266336473 -0.0337059960901 0)
(-0.0105621657971 -0.031731459622 0)
(-0.0103991669685 -0.0297892540211 0)
(-0.0102386969871 -0.0278789630424 0)
(-0.0100817887974 -0.0259999661623 0)
(-0.00992944318198 -0.0241514439494 0)
(-0.00978262325306 -0.0223323843793 0)
(-0.00964224961115 -0.0205415900366 0)
(-0.0095091953613 -0.0187776860051 0)
(-0.0093842822697 -0.0170391281485 0)
(-0.00926827736266 -0.0153242116152 0)
(-0.00916189195096 -0.0136310791908 0)
(-0.00906578337389 -0.0119577301628 0)
(-0.00898056295098 -0.0103020310889 0)
(-0.0089068120058 -0.00866173542064 0)
(-0.00884510287067 -0.00703451418119 0)
(-0.0087958998448 -0.00541802233935 0)
(-0.0087572867814 -0.00380836789576 0)
(-0.0086848091921 -0.00222903123539 0)
(-0.0077897557561 -0.000656644836161 0)
(0.041397220647 -0.00320775549136 0)
(0.045868097654 -0.0108497461809 0)
(0.0456679129928 -0.0184266364378 1.21775236497e-27)
(0.0449796594458 -0.0260042743638 0)
(0.0440558243964 -0.0334149303918 0)
(0.0429279122737 -0.0406274101921 0)
(0.0416175044681 -0.0476067900189 0)
(0.0401472866647 -0.0543232759037 0)
(0.0385407714083 -0.0607523726299 0)
(0.0368214593407 -0.0668748197712 0)
(0.0350120981109 -0.0726762781775 0)
(0.0331341024291 -0.0781468859297 0)
(0.0312071427402 -0.0832807255756 0)
(0.029248897182 -0.0880752533133 0)
(0.0272749449114 -0.0925307315432 0)
(0.0252987778978 -0.096649695923 0)
(0.0233319000261 -0.100436477558 0)
(0.0213839891386 -0.103896791746 0)
(0.019463094197 -0.107037396995 0)
(0.0175758502536 -0.109865822518 0)
(0.0157276915962 -0.112390158438 0)
(0.0139230545787 -0.114618900721 0)
(0.0121655584441 -0.116560841584 0)
(0.0104581629477 -0.118224995983 0)
(0.00880329701204 -0.119620554966 0)
(0.00720296230117 -0.120756857605 0)
(0.00565880981059 -0.121643374178 0)
(0.00417219639328 -0.122289694765 0)
(0.00274422120402 -0.122705518786 0)
(0.00137574983594 -0.122900641519 0)
(6.74318389e-05 -0.122884936455 0)
(-0.00118031162841 -0.122668366976 0)
(-0.00236725270428 -0.122260865335 0)
(-0.00349337802489 -0.121672420408 0)
(-0.00455888189169 -0.120912979439 0)
(-0.00556416170193 -0.119992431805 0)
(-0.00650981362075 -0.118920572517 0)
(-0.00739662414252 -0.117707068362 0)
(-0.00822556111943 -0.116361425011 0)
(-0.0089977608266 -0.114892955981 0)
(-0.00971451479095 -0.113310753986 0)
(-0.0103772533116 -0.111623665181 0)
(-0.0109875293539 -0.109840266579 0)
(-0.0115469999715 -0.107968846905 0)
(-0.0120574087634 -0.106017390986 0)
(-0.0125205667065 -0.10399356774 0)
(-0.0129383346265 -0.101904721686 0)
(-0.0133126048135 -0.0997578679404 0)
(-0.0136452847774 -0.0975596905176 0)
(-0.0139382808468 -0.0953165437676 0)
(-0.014193484335 -0.0930344566884 0)
(-0.0144127581851 -0.090719139857 0)
(-0.0145979265263 -0.0883759946236 0)
(-0.0147507652645 -0.0860101241993 0)
(-0.0148729958065 -0.0836263461768 0)
(-0.0149662802091 -0.0812292060375 0)
(-0.0150322194532 -0.0788229911244 0)
(-0.0150723532717 -0.0764117445783 0)
(-0.0150881627883 -0.0739992787117 0)
(-0.0150810745033 -0.071589187372 0)
(-0.0150524664358 -0.0691848568699 0)
(-0.0150036750895 -0.0667894751415 0)
(-0.0149360036608 -0.0644060388994 0)
(-0.0148507303455 -0.0620373586525 0)
(-0.0147491168606 -0.0596860615863 0)
(-0.0146324163227 -0.0573545923909 0)
(-0.0145018804106 -0.0550452122455 0)
(-0.0143587653135 -0.0527599962351 0)
(-0.014204336296 -0.0505008295731 0)
(-0.0140398707773 -0.048269402982 0)
(-0.0138666597215 -0.0460672076715 0)
(-0.0136860076037 -0.0438955302584 0)
(-0.0134992307186 -0.041755448052 0)
(-0.0133076543901 -0.0396478249339 0)
(-0.0131126087959 -0.0375733081776 0)
(-0.012915424153 -0.0355323262992 0)
(-0.0127174248907 -0.0335250881891 0)
(-0.0125199236437 -0.0315515834652 0)
(-0.0123242145954 -0.0296115842199 0)
(-0.0121315670173 -0.0277046479931 0)
(-0.0119432184548 -0.0258301220959 0)
(-0.0117603683784 -0.0239871490392 0)
(-0.0115841717312 -0.022174673158 0)
(-0.0114157331658 -0.0203914481397 0)
(-0.0112561014764 -0.0186360455436 0)
(-0.0111062650563 -0.0169068639436 0)
(-0.0109671481472 -0.0152021388831 0)
(-0.0108396089026 -0.0135199536376 0)
(-0.0107244394614 -0.0118582512372 0)
(-0.0106223691816 -0.0102148497709 0)
(-0.010534070146 -0.00858746774928 0)
(-0.0104601546204 -0.00697374985087 0)
(-0.0104010175273 -0.00537130862484 0)
(-0.010354104273 -0.00377611878055 0)
(-0.0102665698219 -0.00221114467435 0)
(-0.00920576641369 -0.000651740102452 0)
(0.0484489772594 -0.00332132516218 0)
(0.0536726295554 -0.0112317896726 0)
(0.0534214306063 -0.0190688333592 -1.2171037591e-27)
(0.0525912939875 -0.026897040273 0)
(0.0514792627135 -0.0345397759233 0)
(0.0501240813732 -0.0419625659866 0)
(0.0485530005116 -0.0491279625867 0)
(0.0467945161417 -0.0560047521242 0)
(0.0448779104621 -0.0625680576108 0)
(0.0428321712938 -0.0687991448345 0)
(0.040685066584 -0.0746849338656 0)
(0.0384624447101 -0.0802173622146 0)
(0.0361877659602 -0.085392661505 0)
(0.033881848388 -0.0902106137453 0)
(0.0315627959104 -0.0946738385192 0)
(0.0292460708086 -0.0987871466421 0)
(0.0269446700565 -0.10255698143 0)
(0.024669369156 -0.105990956239 0)
(0.0224290008554 -0.109097487823 0)
(0.0202307440253 -0.111885518467 0)
(0.0180804026705 -0.114364316198 0)
(0.0159826625071 -0.116543340314 0)
(0.0139413157169 -0.118432159113 0)
(0.0119594502831 -0.120040406942 0)
(0.0100396017916 -0.121377768756 0)
(0.00818386998745 -0.122453981636 0)
(0.00639400254685 -0.123278844486 0)
(0.0046714517559 -0.123862228925 0)
(0.00301740868135 -0.1242140867 0)
(0.00143282108939 -0.124344445167 0)
(-8.15938192679e-05 -0.12426342125 0)
(-0.00152536757931 -0.123981170727 0)
(-0.00289825495037 -0.123507876109 0)
(-0.00420025198464 -0.122853741365 0)
(-0.00543159753998 -0.122028936719 0)
(-0.00659276889806 -0.121043569316 0)
(-0.00768447721338 -0.119907645581 0)
(-0.00870765910269 -0.118631034496 0)
(-0.00966346543833 -0.117223432078 0)
(-0.0105532468017 -0.115694327954 0)
(-0.0113785368303 -0.114052974699 0)
(-0.0121410331246 -0.112308360452 0)
(-0.012842576994 -0.110469185155 0)
(-0.0134851317865 -0.108543840659 0)
(-0.0140707610002 -0.106540394766 0)
(-0.0146016059231 -0.104466579258 0)
(-0.0150798638767 -0.102329781826 0)
(-0.0155077668061 -0.100137041809 0)
(-0.0158875611577 -0.0978950495461 0)
(-0.016221488806 -0.0956101491684 0)
(-0.0165117698711 -0.0932883445443 0)
(-0.0167605872398 -0.0909353081164 0)
(-0.0169700735197 -0.0885563922162 0)
(-0.0171423002659 -0.0861566424918 0)
(-0.0172792700646 -0.0837408129018 0)
(-0.0173829112833 -0.081313381798 0)
(-0.0174550758375 -0.0788785684414 0)
(-0.0174975396787 -0.0764403494166 0)
(-0.017512006068 -0.07400247427 0)
(-0.0175001111977 -0.0715684798836 0)
(-0.017463431923 -0.0691417030036 0)
(-0.0174034950405 -0.0667252906041 0)
(-0.0173217876464 -0.0643222077178 0)
(-0.0172197679788 -0.0619352426809 0)
(-0.0170988761578 -0.0595670096875 0)
(-0.0169605443177 -0.0572199489003 0)
(-0.0168062055772 -0.0548963242664 0)
(-0.0166373015527 -0.0525982195324 0)
(-0.0164552879928 -0.0503275327696 0)
(-0.0162616385179 -0.0480859700405 0)
(-0.0160578462291 -0.0458750385533 0)
(-0.015845423443 -0.043696039944 0)
(-0.0156258994701 -0.0415500639445 0)
(-0.0154008168961 -0.0394379829794 0)
(-0.0151717263611 -0.0373604477903 0)
(-0.0149401804017 -0.0353178844847 0)
(-0.0147077263319 -0.0333104929421 0)
(-0.0144758987459 -0.0313382468283 0)
(-0.014246211539 -0.0294008950319 0)
(-0.0140201500065 -0.0274979646693 0)
(-0.0137991628127 -0.025628765415 0)
(-0.0135846543688 -0.0237923952353 0)
(-0.0133779773357 -0.0219877472875 0)
(-0.013180425803 -0.0202135180071 0)
(-0.0129932288365 -0.0184682162179 0)
(-0.0128175450084 -0.0167501732315 0)
(-0.0126544576494 -0.0150575539569 0)
(-0.0125049714994 -0.0133883690787 0)
(-0.0123700104615 -0.0117404891223 0)
(-0.0122504166636 -0.0101116611595 0)
(-0.0121469488884 -0.00849953147002 0)
(-0.0120602687965 -0.00690166693345 0)