/*--------------------------------*- C++ -*----------------------------------*\
| =========                 |                                                 |
| \\      /  F ield         | OpenFOAM: The Open Source CFD Toolbox           |
|  \\    /   O peration     | Version:  v1906                                 |
|   \\  /    A nd           | Web:      www.OpenFOAM.com                      |
|    \\/     M anipulation  |                                                 |
\*---------------------------------------------------------------------------*/
FoamFile
{
    version     2.0;
    format      ascii;
    class       surfaceScalarField;
    location    "914";
    object      phia;
}
// * * * * * * * * * * * * * * * * * * * * * * * * * * * * * * * * * * * * * //

dimensions      [0 3 -1 0 0 0 0];
oriented        oriented;


internalField   nonuniform List<scalar> 
18240
(
0.00134674180683
-0.00134673695673
0.00282110365081
-0.00147435837604
0.00429440346341
-0.00147329359642
0.00574894543039
-0.00145453895997
0.00717672748642
-0.00142777485549
0.00857098641118
-0.00139425627214
0.00992567963533
-0.00135468519251
0.0112353336758
-0.00130965163728
0.0124950799679
-0.00125973744973
0.0137006213405
-0.00120553910894
0.0148482916038
-0.00114766060438
0.0159350040391
-0.00108671021945
0.0169582993967
-0.00102328491161
0.0179162683385
-0.000957966698915
0.018807587936
-0.000891308398824
0.019631423494
-0.000823833229123
0.0203874589226
-0.000756023544919
0.0210757853543
-0.000688323970364
0.0216969310704
-0.00062113321354
0.0222517438305
-0.00055481013655
0.0227414249642
-0.000489668109021
0.0231674107833
-0.000425983017867
0.0235314135724
-0.000363989333657
0.0238353054427
-0.000303888893635
0.0240811670316
-0.000245847821186
0.0242711752685
-0.000190005100993
0.0244076590294
-0.000136469788944
0.0244929911038
-8.53288107169e-05
0.024529649525
-3.66443728577e-05
0.0245201140511
9.53882447046e-06
0.0244669337426
5.31943224523e-05
0.0243726199195
9.43172120795e-05
0.024239710135
0.000132923641431
0.0240706798738
0.000169033639613
0.0238680142587
0.000202679215575
0.0236341135274
0.000233904046624
0.0233713635558
0.000262763208213
0.0230820471878
0.0002893195683
0.022768415774
0.000313644202503
0.0224326048361
0.000335813970269
0.0220767056143
0.000355911474272
0.021702684976
0.000374023453141
0.0213124564313
0.000390240197118
0.0209078043153
0.000404654665778
0.0204904539272
0.000417361374972
0.0200620000107
0.00042845615947
0.0196239757184
0.000438034572074
0.0191777853852
0.000446192231797
0.0187247721017
0.00045302281439
0.0182661546989
0.000458618926783
0.0178030936778
0.000463069784372
0.0173366322336
0.000466462569026
0.0168677603002
0.000468879910675
0.0163973593334
0.000470401677162
0.0159262641556
0.000471102371868
0.01545521114
0.000471053302999
0.0149848975506
0.000470320004001
0.0145159327108
0.000468964706058
0.0140488945083
0.000467043860115
0.0135842831385
0.000464610825016
0.0131225745131
0.000461713549676
0.012664176211
0.000458397366738
0.0122094775791
0.000454702862628
0.0117588076178
0.000450668664725
0.0113124816827
0.000446329511966
0.0108707611446
0.000441718919571
0.0104338966755
0.000436867444912
0.0100020896497
0.000431805131889
0.00957553211002
0.000426559965261
0.00915436998192
0.000421160012847
0.00873873985913
0.000415632056957
0.00832873419564
0.000410003384064
0.00792443510288
0.000404300588403
0.00752588173544
0.000398550982413
0.00713310127905
0.000392781567843
0.00674607877365
0.000387020069874
0.00636478546831
0.000381294076688
0.00598915131568
0.000375631716516
0.00561909082271
0.000370060965111
0.00525447842891
0.000364609999828
0.00489517195994
0.000359306673609
0.0045409910709
0.000354178577529
0.00419173837884
0.000349252663775
0.003847181174
0.000344555024968
0.00350707037604
0.000340110582948
0.00317112594979
0.00033594245733
0.00283905432426
0.000332071298711
0.00251053932644
0.000328513333282
0.00218526208539
0.000325276846403
0.00186290817006
0.000322352554232
0.00154321804086
0.000319689661269
0.00122608492334
0.000317132065161
0.000911848105126
0.000314236229372
0.000602403470705
0.000309444248396
0.000306057889379
0.000296345422332
0.000306057733481
0.00148887186658
-0.00283560433577
0.00315084098793
-0.00313632385986
0.00480370738858
-0.00312615479612
0.0064327659285
-0.00308359332342
0.00803059770276
-0.00302560108929
0.00959025231986
-0.00295390652652
0.0111051445619
-0.00286957150618
0.0125692118763
-0.00277371440652
0.0139770159054
-0.00266753508616
0.0153237708137
-0.00255228922157
0.0166053824837
-0.00242926537186
0.0178184335938
-0.00229975622621
0.0189601943027
-0.00216503818333
0.020028579502
-0.00202634644873
0.0210221404471
-0.00188486137427
0.0219400029716
-0.00174168993761
0.0227818480217
-0.00159786010671
0.0235478391916
-0.00145430895275
0.0242385995342
-0.00131188458469
0.0248551357872
-0.00117133984244
0.02539881738
-0.00103334029298
0.0258713028364
-0.000898461594837
0.0262745246893
-0.000767201406381
0.0266106211542
-0.000639978190818
0.0268819282909
-0.000517144880594
0.0270909178142
-0.000398987225382
0.0272401959962
-0.000285737686414
0.0273324470665
-0.000177572320476
0.0273704374062
-7.46243133721e-05
0.02735696305
2.3020826347e-05
0.0272948551511
0.000115312635314
0.0271869387128
0.000202241300264
0.0270360508533
0.000283821835008
0.0268449874155
0.000360104653331
0.0266165154325
0.000431161358295
0.0263533352816
0.000497091621698
0.0260580983236
0.000558010065594
0.025733370248
0.0006140548422
0.025381650004
0.000665374001101
0.0250053362283
0.000712134647699
0.0246067475808
0.000754509258266
0.0241880922103
0.00079268536422
0.0237514892164
0.000826851840923
0.0232989410318
0.000857208971577
0.0228323557882
0.000883954725618
0.0223535225126
0.000907295086814
0.0218641342171
0.000927430381993
0.0213657658059
0.000944565782752
0.0208598977278
0.000958897777603
0.02034789644
0.000970624809277
0.0198310384213
0.00097993402959
0.0193104929627
0.000987012052907
0.0187873462826
0.000992032142714
0.0182625863174
0.000995165083946
0.017737126605
0.000996566953418
0.0172117926712
0.000996390090048
0.0166873453039
0.000994771562604
0.0161644680857
0.000991844194982
0.0156437896675
0.000987725804855
0.0151258720072
0.000982530189165
0.0146112312971
0.000976357146447
0.0141003265296
0.000969303297489
0.0135935788085
0.000961452863468
0.0130913599702
0.000952888160946
0.0125940101294
0.000943681068888
0.0121018262087
0.000933903037531
0.0116150776866
0.000923617168893
0.0111339950237
0.000912887583307
0.0106587836964
0.000901772036606
0.0101896126227
0.000890330524206
0.00972662664526
0.000878618379883
0.00926993514647
0.000866694030164
0.00881962320214
0.000854612539955
0.00837574062326
0.000842432478576
0.00793831201098
0.00083020990598
0.00750732647902
0.000818004345192
0.00708274683104
0.000805873220743
0.00666450019973
0.000793876967017
0.00625248652933
0.000782073945773
0.00584657033337
0.000770524733183
0.00544658862537
0.000759287543882
0.00505234395448
0.000748421743122
0.00466361188333
0.000737983788285
0.00428013543235
0.000728029975828
0.00390163217888
0.000718612836407
0.00352779022797
0.000709782990611
0.00315827491255
0.000701585650844
0.00279272606404
0.000694060928547
0.00243076295703
0.000687239077722
0.00207197766463
0.000681136792364
0.00171591917822
0.000675747285853
0.00136202038415
0.000671029926961
0.00100936533999
0.000666890715686
0.000655721588702
0.000663087611852
0.000295503337646
0.000656563422127
0.000601561038907
0.00151518045102
-0.00435078128269
0.00319843664214
-0.00481957600363
0.00487504642934
-0.00480276085776
0.00652773523617
-0.00473627823253
0.00814834020919
-0.00464620189747
0.00972959013155
-0.00453515237336
0.0112647212564
-0.00440469810045
0.0127475508852
-0.00425653966782
0.0141725474931
-0.00409252676432
0.0155348695256
-0.00391460651288
0.01683038884
-0.00372477930195
0.0180556897294
-0.00352505194671
0.0192080601232
-0.00331740270567
0.0202854631346
-0.00310374383079
0.0212865063486
-0.00288589821046
0.0222103956013
-0.00266557308781
0.0230568915242
-0.00244434915018
0.0238262544644
-0.00222366532044
0.0245191965283
-0.00200481928265
0.0251368252926
-0.001788961586
0.025680597912
-0.00157710509908
0.0261522691406
-0.00137012539196
0.0265538515671
-0.00116877562118
0.0268875707436
-0.000973689580597
0.0271558328802
-0.000785398477879
0.0273611873458
-0.000604333617395
0.0275063010865
-0.000430842637227
0.0275939273101
-0.000265190265173
0.0276268851172
-0.000107573172662
0.0276080330127
4.18813275477e-05
0.0275402528571
0.000183101806358
0.0274264267659
0.000316075814675
0.0272694256673
0.00044083191958
0.0270720896156
0.000557449067043
0.0268372177175
0.000666042126093
0.0265675523833
0.000766765170238
0.0262657721658
0.000859798946803
0.0259344792039
0.000945355789408
0.0255761943606
0.00102366722364
0.0251933472995
0.00109498938747
0.0247882736369
0.00115959093766
0.024363207401
0.00121775890295
0.023920279972
0.0012697868593
0.023461514735
0.00131598107225
0.0229888276582
0.00135664890307
0.0225040239963
0.00139210511984
0.0220088003978
0.00142266054467
0.0215047435324
0.00144862848079
0.0209933336202
0.00147031367471
0.0204759448153
0.00148801887339
0.0199538499887
0.00150203423352
0.0194282226287
0.0015126440722
0.0189001426294
0.00152011688941
0.0183705993668
0.00152471239107
0.0178404981494
0.00152667228048
0.0173106640504
0.00152622761338
0.0167818486148
0.00152359046938
0.0162547339796
0.00151896164046
0.0157299394114
0.00151252321911
0.0152080252609
0.00150444655183
0.0146894989471
0.00149488570167
0.0141748183595
0.00148398552648
0.0136643969903
0.00147187590332
0.0131586065144
0.00145867974351
0.0126577808996
0.00144450782367
0.0121622180282
0.00142946652693
0.0116721827461
0.0014136531113
0.0111879075324
0.001397162979
0.0107095945746
0.0013800852299
0.010237415608
0.00136250929566
0.00977151319643
0.00134452066335
0.00931199994942
0.00132620676551
0.00885895924904
0.00130765280845
0.00841244409418
0.00128894686583
0.00797247752884
0.00127017579456
0.00753905137279
0.00125142953324
0.00711212659385
0.0012327971295
0.00669163215833
0.00121437028347
0.00627746554876
0.00119623953713
0.00586949192577
0.00117849712738
0.00546754494271
0.00116123339856
0.00507142635315
0.00114453903237
0.00468090720944
0.00112850173355
0.00429572798001
0.00111320788001
0.0039156001218
0.00109873948412
0.00354020660618
0.00108517523125
0.0031692035126
0.00107258761158
0.00280222010259
0.00106104320037
0.00243885832576
0.00105059983527
0.0020786875602
0.0010413065627
0.00172123079924
0.00103320318493
0.00136593162063
0.00102632820823
0.0010120888994
0.0010207326663
0.000658844847289
0.00101633139785
0.000306991743158
0.00100841641977
0.000908552646351
0.00153852366148
-0.00588930248556
0.00324481532827
-0.00652586590916
0.00494458418363
-0.00650252698182
0.00661975387306
-0.00641144537873
0.00826169179481
-0.00628813690212
0.00986280346681
-0.00613626111161
0.011416100752
-0.00595799216698
0.0129152448574
-0.00575568046874
0.0143546010407
-0.00553187932299
0.0157292741837
-0.00528927591667
0.0170351244566
-0.00503062547247
0.0182687650557
-0.00475868831533
0.0194275444998
-0.00447617752134
0.0205095162993
-0.0041857108719
0.0215133983387
-0.0038897750724
0.0224385249104
-0.00359069435636
0.023284793324
-0.00329061182971
0.0240526080296
-0.00299147417933
0.0247428235509
-0.00269502852763
0.0253566889916
-0.00240282065684
0.0258957944847
-0.0021162038037
0.0263620219467
-0.00183634599975
0.0267574993255
-0.00156424575094
0.027084560214
-0.00130074318789
0.027345706857
-0.00104653747686
0.0275435781902
-0.000802197315258
0.0276809201464
-0.000568176637495
0.0277605601221
-0.000344822337412
0.0277853824967
-0.000132387370196
0.0277583077428
6.8964159572e-05
0.0276822720057
0.000259145844142
0.0275602086932
0.000438147282943
0.0273950324154
0.000606016525899
0.0271896242709
0.000762865351499
0.0269468180385
0.000908856620443
0.0266693891649
0.00104420207666
0.0263600431967
0.00116915302156
0.0260214078352
0.00128399899015
0.0256560239137
0.00138905901033
0.0252663399322
0.00148468093288
0.0248547051927
0.00157123322373
0.0244233664945
0.00164910481586
0.0239744631973
0.00171869731255
0.0235100258832
0.0017804251852
0.0230319732203
0.0018347082702
0.0225421124729
0.00188197219254
0.0220421380946
0.00192264112068
0.021533633994
0.00195713838417
0.0210180737727
0.00198587954414
0.020496824612
0.00200927327535
0.0199711490083
0.00202771490097
0.0194422100555
0.00204158767573
0.018911074423
0.00205125697863
0.0183787186934
0.00205707216265
0.0178460332187
0.00205936159153
0.0173138290736
0.00205843518453
0.0167828423404
0.00205458041774
0.016253741186
0.00204806560907
0.0157271301013
0.00203913690721
0.0152035566194
0.00202802225099
0.0146835150813
0.00201492925281
0.0141674525871
0.00200004966721
0.0136557719596
0.00198355798458
0.0131488366495
0.00196561616554
0.0126469727093
0.00194637270022
0.0121504725232
0.0019259673361
0.0116595957549
0.00190453034792
0.0111745719258
0.00188218699565
0.0106956004367
0.0018590567762
0.0102228521431
0.00183525740014
0.0097564686554
0.00181090385742
0.00929656314584
0.00178611177061
0.00884321919296
0.00176099617848
0.00839649109554
0.00173567420391
0.00795640254255
0.00171026353366
0.00752294671034
0.00168488440699
0.00709608501955
0.00165965782792
0.0066757472587
0.0016347069356
0.00626183064282
0.00161015502668
0.00585420015405
0.00158612639814
0.00545268805499
0.00156274427548
0.00505709456772
0.00154013122972
0.0046671879166
0.00151840710632
0.00428270537452
0.00149768910669
0.00390335378567
0.00147808979638
0.00352881081894
0.00145971693188
0.00315872560358
0.00144267164238
0.00279271946023
0.00142704820324
0.00243038536073
0.00141293289169
0.00207128601842
0.0014004049339
0.00171494921055
0.001389539014
0.00136086314625
0.00138041337095
0.00100848619356
0.00137310907501
0.00065741678591
0.00136740038936
0.000309307959733
0.00135652498888
0.00121786059563
0.0015684929076
-0.00745779468072
0.00330665914733
-0.00826403074877
0.00503770847671
-0.00823357562435
0.00674293489824
-0.00811667061954
0.00841326146488
-0.00795846228097
0.0100407235672
-0.0077637217824
0.0116180448282
-0.00753531182374
0.0131386769211
-0.00727631073457
0.0145968485029
-0.00699004884087
0.0159875955502
-0.00668002064465
0.0173067702407
-0.00634979756823
0.0185510319564
-0.00600294715053
0.0197178212766
-0.00564296366278
0.0208053218079
-0.0052732079172
0.0218124106567
-0.00489686012337
0.0227386026286
-0.00451688221361
0.0235839884435
-0.00413599321577
0.0243491720695
-0.00375665305911
0.025035206796
-0.00338105820002
0.0256435349304
-0.00301114343132
0.026175929772
-0.0026485929954
0.0266344441345
-0.00229485442731
0.0270213627709
-0.00195115818924
0.0273391621415
-0.0016185361078
0.0275904736202
-0.00129784227865
0.0277780530377
-0.000989769843096
0.0279047519883
-0.00069486851573
0.0279734939315
-0.000413557043599
0.0279872505342
-0.000146136602801
0.0279490218707
0.000107200307918
0.0278618162778
0.000346359004834
0.0277286324202
0.000571338770672
0.0275524443289
0.000782212279474
0.0273361862098
0.000979131146275
0.0270827389279
0.00116231156219
0.0267949195222
0.00133202910702
0.0264754699363
0.00148861016922
0.0261270493965
0.00163242701122
0.0257522257086
0.00176389007358
0.0253534700042
0.00188344388881
0.0249331501915
0.00199156014159
0.024493527728
0.00208873422219
0.0240367529834
0.00217547881778
0.023564863864
0.00225232086719
0.0230797829892
0.00231979549338
0.0225833180974
0.00237844320422
0.0220771610062
0.00242880409061
0.021562889761
0.00247141525274
0.0210419693371
0.00250680532768
0.0205157554414
0.00253549225441
0.0199854968309
0.00255797831424
0.0194523405677
0.00257474844908
0.0189173356959
0.00258626606807
0.0183814396087
0.00259297216482
0.0178455226827
0.00259528213443
0.0173103752886
0.00259358588811
0.0167767128825
0.00258824583491
0.0162451831204
0.00257959807668
0.0157163708707
0.00256795157015
0.0151908049038
0.00255359033298
0.0146689623391
0.00253677365162
0.0141512744682
0.00251773908791
0.0136381302679
0.0024967034708
0.0131298810617
0.0024738663923
0.0126268428928
0.00244941164734
0.0121292999017
0.00242351086434
0.0116375055273
0.00239632504309
0.0111516846479
0.00236800798261
0.0106720337337
0.00233870761036
0.0101987219358
0.00230856893545
0.00973189042907
0.00227773494481
0.00927165272307
0.00224634890588
0.00881809349713
0.00221455470707
0.00837126844627
0.00218249843672
0.00793120292069
0.00215032814299
0.00749789161108
0.00211819470709
0.00707129727823
0.00208625107779
0.00665135053751
0.00205465252395
0.00623794890755
0.00202355545148
0.00583095688984
0.00199311716107
0.00543020549278
0.0019634943826
0.00503549272414
0.00193484267795
0.0046465836602
0.00190731483468
0.00426321137091
0.0018810600556
0.00388507749037
0.00185622235429
0.0035118534448
0.00183293969036
0.00314318128988
0.0018113425732
0.00277867488328
0.0017915534631
0.00241792055015
0.00177368613664
0.00206047805044
0.00175784642135
0.00170588212749
0.00174413405296
0.00135364862228
0.0017326459723
0.00100329826321
0.00172345859493
0.000654507069843
0.00171619132222
0.000308868527554
0.0017021634457
0.00152672896762
0.00160638920702
-0.00906418476
0.00338575737831
-0.0100434008929
0.00515705686582
-0.010004875946
0.00690080751495
-0.0098604222913
0.0086074098295
-0.00966506522597
0.0102684545398
-0.00942476701905
0.0118763108369
-0.00914316837968
0.0134241705025
-0.0088241704502
0.0149060958128
-0.00847197390487
0.0163170439505
-0.00809096827405
0.017652868151
-0.00768562092022
0.0189102986299
-0.00726037648532
0.020086906266
-0.00681956977971
0.0211810528404
-0.0063673526568
0.0221918307071
-0.00590763575796
0.0231189955109
-0.00544404446001
0.023962894468
-0.00497988920707
0.0247243935755
-0.00451814887672
0.0254048058553
-0.00406146678358
0.026005823553
-0.00361215712032
0.0265294555712
-0.00317222061238
0.0269779720609
-0.00274336622681
0.0273538560456
-0.002327037118
0.0276597626097
-0.00192443736031
0.0278984840852
-0.00153655811423
0.0280729208108
-0.00116420071634
0.0281860553033
-0.00080799687476
0.0282409295286
-0.000468424972771
0.0282406235241
-0.000145824073927
0.0281882358225
0.000159594643588
0.0280868648988
0.000447736735775
0.0279395909308
0.000718619601587
0.0277494617987
0.000972348393501
0.0275194776108
0.00120912232037
0.0272525781097
0.00142921811541
0.0269516318053
0.00163298241832
0.0266194260025
0.00182082299399
0.0262586587618
0.00199320118188
0.0258719314506
0.00215062428095
0.0254617429856
0.00229363911481
0.0250304844297
0.00242282537996
0.0245804351453
0.00253879001424
0.0241137591928
0.0026421611576
0.0236325032545
0.00273358298301
0.0231385947797
0.00281370998793
0.022633841679
0.00288320208386
0.0221199322489
0.00294271910842
0.0215984366696
0.00299291615301
0.0210708087269
0.00303443837196
0.0205383890842
0.00306791671072
0.0200024087149
0.00309396325458
0.0194639937775
0.0031131676542
0.0189241705025
0.00312609335105
0.0183838713173
0.00313327504494
0.017843940752
0.00313521612371
0.0173051422972
0.00313238745038
0.0167681647574
0.00312522620692
0.0162336292348
0.00311413611762
0.0157020953174
0.00309948773263
0.015174067587
0.00308162000349
0.0146500010876
0.00306084182655
0.0141303068604
0.00303743470061
0.0136153562786
0.00301165518822
0.0131054852854
0.00298373825145
0.0126009973756
0.0029539001938
0.0121021664146
0.00292234221744
0.01160923825
0.0028892533957
0.0111224321857
0.00285481401935
0.0106419413847
0.00281919820831
0.0101679332283
0.00278257670488
0.00970054879604
0.0027451188448
0.00923990243717
0.00270699458077
0.0087860806798
0.00266837566554
0.00833914137311
0.00262943682377
0.00789911238285
0.00259035612669
0.00746599064467
0.00255131534605
0.00703974096076
0.00251249959998
0.00662029524861
0.00247409700564
0.00620755168416
0.0024362977429
0.00580137435224
0.00239929317128
0.00540159289855
0.00236327448888
0.0050080026998
0.0023284314996
0.00462036509634
0.00229495105455
0.00423840810658
0.00226301565805
0.0038618272151
0.00223280188306
0.00349028655788
0.00220447902274
0.0031234201605
0.00217820771598
0.00276083348419
0.00215413895159
0.00240210518893
0.00213241334225
0.00204678959717
0.00211316101449
0.00169442051138
0.00209650210722
0.00134451916892
0.00208254638451
0.000996613937537
0.00207136329229
0.00065036079082
0.00206244400487
0.000307232568749
0.00204529137093
0.00183396153347
0.00165304036214
-0.0107172284997
0.00348339449048
-0.011873757761
0.00530444476243
-0.0118259298895
0.00709571144345
-0.0116516920247
0.00884693980174
-0.011416296646
0.0105491775308
-0.0111270074834
0.0121943645246
-0.0107883579091
0.0137753831965
-0.010405191347
0.0152861043669
-0.00998269702032
0.0167214045843
-0.00952627007753
0.0180771563421
-0.00904137393547
0.0193501961567
-0.00853341715193
0.0205382741049
-0.00800764821903
0.0216399897068
-0.00746906831039
0.022654717091
-0.00692236281264
0.0235825238214
-0.00637185040117
0.0244240857736
-0.00582144998053
0.0251806022487
-0.00527466370631
0.0258537133808
-0.00473457588422
0.0264454236891
-0.0042038649375
0.0269580329758
-0.00368482703837
0.0273940771867
-0.00317940713831
0.0277562786162
-0.00268923490714
0.0280475060737
-0.00221566077318
0.0282707423994
-0.00175979009499
0.0284290585329
-0.00132251214593
0.0285255908585
-0.000904524245914
0.028563521318
-0.000506350173489
0.0285460579365
-0.000128355238936
0.028476416407
0.000229241873371
0.0283578019627
0.000566357018356
0.0281933936098
0.000883033980367
0.027986326143
0.00117942196742
0.027739678623
0.00145577607906
0.0274564606415
0.00171244236301
0.0271396020989
0.00194984730323
0.0267919438098
0.00216848760085
0.0264162300471
0.00236892128612
0.0260151016107
0.0025517589861
0.0255910905077
0.00271765646038
0.0251466149158
0.00286730709682
0.0246839755846
0.00300143539794
0.0242053524597
0.00312079017667
0.023712802718
0.00322613850356
0.0232082590747
0.00331825921485
0.0226935295414
0.00339793704682
0.0221702975416
0.00346595631055
0.0216401235176
0.00352309519082
0.0211044469586
0.00357011969005
0.0205645899034
0.00360777830748
0.0200217608504
0.00363679657274
0.0194770600226
0.00365787250594
0.0189314849118
0.00367167219379
0.0183859369339
0.00367882649647
0.0178412281236
0.00367992810649
0.0172980885965
0.00367552988141
0.0167571737345
0.00366614366897
0.016219071752
0.00365224042862
0.0156843106558
0.00363425085791
0.0151533652188
0.00361256720192
0.0146266630694
0.00358754544883
0.0141045905038
0.00355950848257
0.0135874972323
0.00352874940475
0.0130757006717
0.00349553551805
0.0125694891084
0.00346011221447
0.0120691243554
0.00342270721205
0.0115748433341
0.00338353443735
0.0110868592099
0.00334279797578
0.0106053616011
0.00330069545855
0.0101305164843
0.00325742130552
0.00966246538126
0.00321316927318
0.00920132442808
0.00316813473289
0.00874718295601
0.00312251620998
0.00830010214497
0.00307651661076
0.00786011340896
0.00303034374169
0.00742721702047
0.00298421054379
0.00700138065302
0.0029383347054
0.00658253828795
0.00289293806132
0.00617058918074
0.00284824549061
0.00576539726936
0.00280448369387
0.00536679073346
0.00276187960375
0.00497456202574
0.00272065877399
0.00458846809766
0.00268104353731
0.00420823108287
0.00264325123886
0.00383353918197
0.00260749237169
0.00346404795679
0.00257396888446
0.00309938183949
0.00254287253568
0.00273913605799
0.00251438352928
0.00238287892062
0.00248866933778
0.00203015493559
0.002465883939
0.00168048909151
0.00244616704871
0.00133339331645
0.00242964122522
0.000988380771333
0.00241637491816
0.000645070590083
0.00240575391607
0.000304842701105
0.00238551917512
0.00213880405108
0.00170926223381
-0.012426496269
0.00360111538057
-0.0137656180697
0.00548211486522
-0.01370693518
0.00733052041962
-0.0135001036201
0.00913526465785
-0.0132210464455
0.0108867344532
-0.0128784826969
0.0125763589733
-0.0124779875075
0.0141966625255
-0.0120254996983
0.0157413063939
-0.0115273453062
0.0172050948911
-0.0109900626403
0.0185839508391
-0.0104202335076
0.0198748661475
-0.00982433568459
0.0210758335339
-0.00920861834025
0.0221857638643
-0.00857900094392
0.0232043937437
-0.00794099447309
0.024132186654
-0.00729964464229
0.0249702317052
-0.00665949582285
0.0257201430984
-0.00602457543556
0.0263839644604
-0.00539839704052
0.0269640809831
-0.00478398080827
0.0274631428519
-0.00418388772685
0.0278840013293
-0.00360026401274
0.028229658585
-0.00303489006055
0.0285032296588
-0.00248922935886
0.0287079147382
-0.00196447222986
0.0288469779775
-0.00146157210347
0.0289237302249
-0.000981272809657
0.0289415125652
-0.000524128550093
0.0289036798148
-9.05181839764e-05
0.0288135830585
0.000319343153718
0.0286745499108
0.000705394969528
0.0284898734395
0.00106771541302
0.0282627911588
0.00140650942783
0.0279964727786
0.00172209973891
0.0276940083926
0.00201491218731
0.0273583982907
0.00228546288735
0.0269925447069
0.00253434676813
0.0265992446683
0.00276222689898
0.0261811841572
0.00296982511766
0.0257409329149
0.00315791326436
0.0252809402293
0.00332730533843
0.0248035312217
0.00347884985679
0.0243109040588
0.00361342273624
0.0238051277251
0.00373192008673
0.023288140796
0.00383525129377
0.0227617509085
0.00392433189843
0.0222276353442
0.00400007669784
0.0216873424486
0.00406339269006
0.0211422942392
0.00411517232558
0.0205937899232
0.00415628680162
0.0200430105798
0.00418757988593
0.0194910246919
0.00420986209322
0.0189387946671
0.00422390568534
0.0183871839886
0.00423044035536
0.0178369650286
0.00423014999725
0.0172888271406
0.00422367040508
0.0167433849926
0.0042115881936
0.0162011867661
0.00419444073552
0.0156627221602
0.00417271728345
0.0151284298749
0.0041468610169
0.0145987045269
0.00411727207225
0.0140739027512
0.00408431125681
0.0135543484883
0.00404830442572
0.0130403372972
0.00400954721018
0.0125321397563
0.0039683100363
0.012030003878
0.00392484313973
0.0115341566562
0.00387938151417
0.011044804745
0.00383214954008
0.0105621344303
0.00378336526173
0.0100863109394
0.00373324411532
0.00961747727298
0.00368200212536
0.00915575262423
0.00362985843074
0.00870123057186
0.00357703720955
0.00825397710521
0.00352376891937
0.00781402865446
0.00347029096106
0.00738139016506
0.00341684772461
0.00695603336192
0.00336369015096
0.00653789521848
0.00331107479344
0.00612687674406
0.00325926252408
0.00572284208068
0.00320851688162
0.00532561798951
0.00315910220554
0.00493499369847
0.00311128155875
0.00455072115991
0.00306531457408
0.00417251567651
0.00302145522838
0.00380005692282
0.00297994966609
0.00343299031874
0.0029410340775
0.00307092879174
0.00290493273085
0.00271345490091
0.00287185616442
0.00236012348561
0.0028419996112
0.00201046487049
0.00281554151479
0.0016639887597
0.00279264206736
0.00132018961157
0.00277343940101
0.000978557416595
0.00275800658397
0.00063867476585
0.00274563604751
0.000301853331278
0.00272234026391
0.00244065738621
0.00177600528686
-0.0142025104117
0.00374083710231
-0.0157304582416
0.00569287369312
-0.0156589812755
0.00760882677986
-0.0154160654656
0.00947663145091
-0.0150888598754
0.0112858819678
-0.0146877415566
0.0130274096645
-0.0142195232826
0.014693336265
-0.0136914339665
0.0162771055458
-0.0131111218852
0.0177734727513
-0.0124864366656
0.019178458734
-0.0118252258746
0.0204892780033
-0.0111351607957
0.0217042471782
-0.0104235928757
0.0228226801568
-0.00969743869421
0.0238447736859
-0.00896309226187
0.0247714878584
-0.0082263624573
0.0256044244281
-0.00749243550735
0.026345707742
-0.00676586123589
0.0269978718551
-0.00605056311183
0.0275637591711
-0.00534986946004
0.0280464337779
-0.00466656315704
0.0284491130363
-0.00400294349551
0.0287751172366
-0.00336089400425
0.0290278364337
-0.00274194773992
0.0292107097167
-0.0021473442616
0.0293272126435
-0.00157807327279
0.0293808469833
-0.00103490501381
0.0293751299037
-0.000518408892021
0.0293135799989
-2.89653864289e-05
0.0291997009762
0.000433225446837
0.0290369609699
0.000868138496347
0.0288287820164
0.00127589819928
0.0285785175517
0.00165677791195
0.0282894403224
0.00201118123689
0.0279647308411
0.00233962606334
0.0276074684148
0.00264272989616
0.0272206235952
0.00292119623806
0.0268070523465
0.00317580292633
0.0263694907576
0.00340739149835
0.0259105508111
0.00361685807407
0.0254327163371
0.00380514463691
0.0249383398753
0.0039732311601
0.0244296397667
0.00412212759931
0.0239086982652
0.00425286630784
0.0233774600769
0.00436649406938
0.0228377321008
0.00446406437861
0.0222911838243
0.00454662930515
0.0217393490966
0.00461523162094
0.0211836287472
0.00467089666863
0.0206252946755
0.00471462470033
0.0200654948487
0.00474738329992
0.0195052596933
0.00477010063643
0.0189455092576
0.00478365924566
0.0183870614771
0.00478889103574
0.017830640873
0.00478657322226
0.0172768878904
0.00477742576663
0.0167263682034
0.00476210997304
0.0161795821221
0.00474122865863
0.0156369734817
0.00471532747963
0.0150989381317
0.00468489767252
0.0145658315006
0.00465037973147
0.0140379753864
0.00461216815777
0.0135156635647
0.00457061677287
0.0129991664211
0.00452604465462
0.0124887343225
0.00447874219716
0.0119845999956
0.00442897732766
0.0114869797348
0.00437700142559
0.0109960737582
0.00432305499453
0.0105120656148
0.00426737270439
0.0100351209881
0.00421018790025
0.00956538584576
0.00415173628068
0.00910298428141
0.00409225889931
0.00864801600863
0.00403200427421
0.00820055383245
0.00397122980926
0.00776064104669
0.00391020237828
0.00732828904369
0.00384919830768
0.00690347506352
0.00378850265455
0.00648614032404
0.00372840802662
0.00607618843607
0.00366921286966
0.00567348429958
0.00361121946281
0.00527785336603
0.0035547315646
0.00488908142066
0.00350005193211
0.0045069147566
0.00344747966606
0.00413106085899
0.00339730757844
0.00376118947068
0.00334981953963
0.00339693412599
0.00330528796768
0.00303789405787
0.00326397141983
0.0026836365548
0.00322611239609
0.00233369968416
0.00319193527882
0.00198759556877
0.00316164451307
0.00164481411291
0.00313542259634
0.00130482717084
0.00311342537039
0.000967097877555
0.00309573487324
0.000631175630587
0.00308155801658
0.000298313447623
0.00305520236491
0.00273897062367
0.00185443040277
-0.0160569524642
0.00390492909579
-0.0177809708361
0.00594020268492
-0.0176942671775
0.00793507414449
-0.0174109495125
0.0098762712768
-0.0170300690023