/*--------------------------------*- C++ -*----------------------------------*\
| =========                 |                                                 |
| \\      /  F ield         | OpenFOAM: The Open Source CFD Toolbox           |
|  \\    /   O peration     | Version:  v1906                                 |
|   \\  /    A nd           | Web:      www.OpenFOAM.com                      |
|    \\/     M anipulation  |                                                 |
\*---------------------------------------------------------------------------*/
FoamFile
{
    version     2.0;
    format      ascii;
    class       volScalarField;
    location    "665";
    object      pa;
}
// * * * * * * * * * * * * * * * * * * * * * * * * * * * * * * * * * * * * * //

dimensions      [0 2 -2 0 0 0 0];


internalField   nonuniform List<scalar> 
9216
(
915.077105289
914.771648707
914.139733787
913.175871697
911.885470374
910.274591619
908.350778389
906.122941598
903.601212059
900.796824778
897.721967219
894.389661945
890.813608911
887.008072879
882.98772876
878.767562163
874.362725228
869.78845613
865.059949952
860.192299926
855.200385019
850.098833099
844.901924704
839.623576451
834.277259075
828.875998496
823.432305771
817.95819305
812.46511318
806.963988059
801.465155744
795.978410971
790.512958591
785.077458738
779.679986941
774.328089248
769.028745116
763.78842734
758.61306842
753.508124788
748.478545658
743.528840305
738.663048749
733.884810967
729.197338826
724.603486227
720.105721799
715.706198996
711.406729098
707.20885039
703.113801085
699.122586764
695.235952899
691.454449876
687.778404911
684.207984106
680.743163662
677.383788599
674.129543354
670.980006948
667.934623181
664.992752221
662.153640763
659.416470129
656.78032682
654.244247358
651.807189713
649.468075133
647.225760925
645.079079537
643.026813131
641.067730129
639.200561917
637.42403702
635.73686019
634.137744273
632.625391819
631.198524633
629.855867955
628.596177605
627.418226679
626.320830151
625.30283396
624.363136862
623.500681712
622.714474272
622.003576333
621.367120848
620.804305827
620.314403543
619.896749847
619.550735779
619.275760249
619.071078817
618.934003455
618.876734636
915.381561871
915.074376901
914.440813968
913.472594585
912.175988552
910.557340802
908.624364675
906.386112344
903.852858391
901.035978914
897.947810355
894.601518244
891.010949913
887.190505776
883.154997435
878.919530924
874.499377956
869.909877131
865.166322747
860.283886731
855.277526458
850.161927451
844.951429337
839.659987518
834.301115025
828.887860476
823.432763186
817.947844672
812.444574604
806.933873551
801.426088081
795.931001524
790.45781669
785.015176614
779.611151719
774.25326532
768.948486607
763.703261441
758.523508861
753.414655592
748.381635336
743.428925996
738.560550961
733.7801181
729.090822334
724.495485544
719.996559781
715.596167272
711.296103681
707.097877478
703.002712699
699.011587015
695.125233535
691.344177008
687.668734335
684.099048465
680.635087415
677.276675611
674.023491363
670.875095562
667.830927742
664.890332196
662.05255289
659.316757216
656.682030114
654.147395759
651.711811319
649.374186917
647.133379435
644.988211088
642.93746366
640.979895961
639.114238798
637.339211524
635.653517946
634.055862072
632.544945072
631.119480236
629.778190991
628.51982502
627.343153252
626.246983017
625.230157876
624.291569621
623.430158767
622.644925158
621.93492889
621.29929926
620.737235895
620.248016167
619.8309979
619.485631391
619.211483624
619.008337314
618.876588726
618.819418815
916.014924635
915.703011011
915.063687135
914.086764902
912.778613901
911.145715039
909.195976843
906.93867071
904.384310035
901.544519136
898.431891385
895.059847811
891.442490501
887.594463863
883.530815423
879.266869665
874.818104196
870.200042239
865.42814848
860.517742794
855.48391687
850.341468898
845.104839625
839.788065792
834.404732925
828.967944511
823.490288522
817.983819445
812.460035953
806.929873465
801.403691027
795.891272156
790.401819712
784.943964275
779.525764553
774.154721642
768.837784616
763.581369445
758.391368425
753.2731726
748.231684068
743.271340962
738.396131792
733.609622109
728.914970121
724.314954252
719.811989332
715.408154309
711.105208341
706.904617978
702.80757255
698.815010194
694.92763201
691.145926404
687.470181607
683.900507949
680.436848475
677.078998929
673.826616389
670.679236918
667.636282302
664.697075499
661.860845725
659.126741965
656.493836755
653.961138122
651.527592461
649.192095305
646.953493715
644.810596243
642.762175217
640.80697621
638.943720508
637.171114316
635.4878516
633.89262316
632.384119927
630.96104193
629.622102052
628.36603482
627.191600531
626.097593749
625.082847645
624.146242035
623.286707764
622.503234098
621.794873013
621.16074588
620.600047808
620.112054288
619.696127566
619.351727986
619.078432352
618.875983042
618.744573553
618.682445324
916.988623117
916.671264431
916.022938486
915.032420694
913.706275945
912.051216552
910.075445707
907.788572083
905.201477752
902.326174963
899.175656225
895.763742591
892.104931093
888.214247434
884.107103278
879.799163606
875.306221996
870.644088704
865.828488034
860.874969396
855.798827345
850.615034736
845.338183389
839.982436424
834.561486143
829.088521934
823.576201879
818.03663304
812.481354036
806.921325362
801.366920984
795.827926999
790.313541192
784.832377766
779.392473058
774.001296886
768.665762819
763.392243901
758.186586783
753.054130818
747.99972505
743.027749742
738.142135371
733.346385773
728.643598369
724.036488177
719.527408548
715.118375319
710.811087378
706.606950282
702.507095999
698.512405359
694.62352641
690.840895175
687.164752167
683.595161055
680.132023059
676.775093313
673.523993028
670.37822354
667.337176338
664.400144948
661.566333087
658.834864702
656.204790613
653.675097122
651.244711582
648.912510012
646.677322032
644.537937895
642.493113184
640.5415756
638.682029713
636.913163759
635.233654638
633.642174835
632.137397755
630.718004801
629.382691005
628.1301722
626.959190858
625.868523207
624.856985119
623.923439007
623.066799587
622.2860404
621.580199328
620.948384716
620.389780803
619.903653952
619.489359133
619.146347871
618.874177954
618.672529694
618.541466352
618.478368517
918.306691044
917.982328826
917.321698067
916.312561338
914.961782872
913.276412229
911.265062438
908.937808938
906.306042637
903.382311504
900.18015759
896.713952562
892.998734869
889.050052625
884.883813966
880.516147893
875.963276065
871.241397546
866.366585824
861.354699193
856.221302854
850.981603183
845.650391857
840.242000043
834.770260105
829.24847522
823.689394503
818.105194442
812.507464492
806.907198009
801.314786513
795.740018761
790.192082985
784.679570951
779.210486642
773.792257524
768.431747135
763.135270612
757.90861104
752.757038206
747.685327703
742.697782019
737.798251557
732.990157276
728.276512886
723.659948298
719.14273229
714.726796058
710.413755641
706.204934885
702.101386949
698.103916032
694.213097352
690.429297065
686.752690238
683.183278544
679.720905905
676.365273753
673.11595424
669.972403054
666.933970295
663.999911059
661.169394269
658.441511383
655.815283603
653.289669172
650.863569453
648.535835296
646.305272474
644.170647585
642.130693259
640.184113964
638.329591309
636.565790004
634.891363457
633.30496002
631.805228943
630.390826929
629.060424401
627.81271228
626.646408448
625.560264591
624.553072684
623.623671712
622.770953988
621.993871581
621.291442325
620.662755869
620.106979397
619.6233634
619.211247324
618.870064886
618.599348144
618.398732135
618.268222504
618.205058553
919.97577596
919.642553381
918.966161901
917.933138636
916.550757758
914.826523482
912.769589802
910.390643755
907.701739906
904.716122935
901.448047147
897.912595897
894.12550487
890.10299296
885.861603171
881.418055947
876.789116004
871.991473859
867.041641926
861.955865275
856.750045893
851.43967973
846.039804685
840.564958479
835.029144495
829.445804752
823.827798503
818.187386179
812.536217643
806.885324937
801.245118719
795.625388839
790.035308688
784.483439805
778.97774308
773.525591012
768.133782008
762.808556912
757.555616869
752.380142923
747.286816486
742.279841132
737.36296489
732.539503502
727.812363823
723.18406784
718.656776492
714.232313734
709.912190062
705.697625911
701.589574167
697.588742208
693.695612739
689.910463867
686.233387725
682.664308125
679.202996624
675.849087522
672.602091258
669.461406768
666.426332341
663.496075577
660.669762048
657.94644328
655.325103708
652.804667214
650.384002935
648.061930916
645.837227311
643.708629664
641.674841974
639.734540005
637.886376558
636.128987083
634.460995354
632.881019513
631.387678206
629.979597057
628.655415203
627.413792094
626.253414273
625.173002316
624.171317666
623.247169489
622.399421343
621.626997749
620.928890494
620.304164754
619.751964877
619.271519894
618.862148532
618.523263016
618.254371529
618.055081091
617.925372048
617.862517379
922.004317582
921.660176517
920.964328818
919.901804784
918.480406022
916.708221108
914.595093582
912.152485512
909.393288497
906.331622274
902.982632035
899.362287736
895.487190012
891.374386394
887.041200597
882.505076983
877.783441498
872.893579809
867.852532635
862.67700771
857.383307203
851.987268998
846.504219888
840.94893869
835.335627339
829.677888397
823.988707738
818.280441691
812.564808169
806.852881641
801.155091951
795.481226709
789.840437612
784.24124656
778.69155931
773.198679205
767.769323309
762.409640371
757.125230291
751.921164922
746.802009953
741.771847748
736.834300929
731.992556587
727.249390908
722.607194093
718.067995345
713.63348781
709.305053188
705.083785933
700.970516746
696.965835273
693.070111748
689.283517512
685.606044209
682.037521621
678.577634015
675.225935048
671.981861152
668.844743529
665.813818747
662.88823812
660.067075926
657.349336679
654.73396154
652.219834106
649.805785665
647.490600145
645.273018833
643.15174506
641.125448912
639.192772105
637.352333047
635.602732193
633.942557669
632.370391223
630.884814455
629.484415337
628.167794959
626.933574481
625.780402205
624.70696074
623.711974167
622.794215157
621.952511962
621.185755247
620.492904652
619.872995082
619.325142601
618.848549834
618.442510746
618.106414254
617.839746296
617.642093647
617.513422695
617.451085948
924.402704452
924.045386332
923.326080772
922.227994242
920.759588091
918.929683827
916.748985361
914.229916922
911.386403913
908.23364148
904.787864214
901.06612091
897.086059415
892.86572542
888.423378004
883.777323938
878.945771945
873.946707483
868.797787762
863.516256146
858.118874172
852.621869053
847.040893921
841.390998157
835.686605194
829.941495867
824.168795836
818.380966494
812.589799053
806.806411971
801.041252523
795.304100574
789.604077287
783.949653873
778.348667084
772.808335218
767.335276214
761.935527471
756.614566975
751.377335677
746.228260801
741.17128006
736.209866532
731.347054152
726.585463565
721.927328293
717.374520921
712.928579231
708.590731975
704.361924186
700.242841705
696.233934841
692.33544084
688.547405113
684.86970096
681.302047789
677.84402765
674.495100151
671.254615683
668.121827088
665.095899779
662.175920532
659.360905
656.64980423
654.041510265
651.534861122
649.12864524
646.821605677
644.612444118
642.499824952
640.482379442
638.558710171
636.727395778
634.98699609
633.336057618
631.773119486
630.296719717
628.905401891
627.597722094
626.372256132
625.227606902
624.162411897
623.175350716
622.265152554
621.430603548
620.670553943
619.983924969
619.369715387
618.827007564
618.35497303
617.952877354
617.620083717
617.356055806
617.160362926
617.032957877
616.971287665
927.18345384
926.810466007
926.063320103
924.923047547
923.398925486
921.500683045
919.240084734
916.630734277
913.68781711
910.427831418
906.868324087
903.02763593
898.924661653
894.57862836
890.008895351
885.234776994
880.275389809
875.149524047
869.875539372
864.471283238
858.954029764
853.340435964
847.646511749
841.887599876
836.078362503
830.232771666
824.364102235
818.484926763
812.607112538
806.741821318
800.899513494
795.089953736
789.322221907
783.604724898
777.945214593
772.350806335
766.827999383
761.382698777
756.02023843
750.745405171
745.562463707
740.475182295
735.486859117
730.60034914
725.818091433
721.142136681
716.574174822
712.115562527
707.767350382
703.530309472
699.40495721
695.391582084
691.49026719
687.700912254
684.023254058
680.456885056
677.001270177
673.655761701
670.419612304
667.291986272
664.27196906
661.358575302
658.550755491
655.847401516
653.247351304
650.749392757
648.352267256
646.054672898
643.855267687
641.752672837
639.745476333
637.832236849
636.011488125
634.281743826
632.641502936
631.089255646
629.623489752
628.242697486
626.945382735
625.730068567
624.595304993
623.539676871
622.561811858
621.660388325
620.83414315
620.081879291
619.402473053
618.794880972
618.258146216
617.791404371
617.393888584
617.064933733
616.803979535
616.610576468
616.484661912
616.423786582
930.361421417
929.969986495
929.190145591
928.000366585
926.41093021
924.432683584
922.078690237
919.363989342
916.305289308
912.920652462
909.229190169
905.250773264
901.005763198
896.514767528
891.798422062
886.877201242
881.771257636
876.500290825
871.083445002
865.539233623
859.885488057
854.139326149
848.317135563
842.434566727
836.506530585
830.547197839
824.569997897
818.587617578
812.612000537
806.654348885
800.725129494
794.834082103
788.990231649
783.201904659
777.476749768
771.821759189
766.243291797
760.74709741
755.338341923
750.021633263
744.801048014
739.680158758
734.662061961
729.74940645
724.94442223
720.248949635
715.664468505
711.192127325
706.832771945
702.586973779
698.455057059
694.437125006
690.533084526
686.742669295
683.065460922
679.500908142
676.048343827
672.70699989
669.476020005
666.354470324
663.341348258
660.435589577
657.636073999
654.941629576
652.351036091
649.863027798
647.47629571
645.189489737
643.001220846
640.910063492
638.91455842
637.013216011
635.204520214
633.486933149
631.858900352
630.318856699
628.865232923
627.496462697
626.210990181
625.007277959
623.883815263
622.839126372
621.871779094
620.980393208
620.163648772
619.420294206
618.749154027
618.149136169
617.619238773
617.158556387
616.7662855
616.441728915
616.18429976
615.993527963
615.869331294
615.809373247
933.954056212
933.541044327
932.72307
931.475602815
929.810158675
927.738960128
925.276658049
922.440031926
919.247621628
915.719355147
911.876195197
907.739809364
903.332268811
898.675778251
893.792438879
888.704045281
883.431917162
877.996766128
872.418596988
866.716641546
860.909321182
855.014232555
849.048149449
843.02703318
836.96604494
830.879555401
824.781149907
818.683630034
812.599014154
806.538539752
800.512671237
794.531110867
788.602812071
782.736001891
776.938204472
771.216266014
765.576380985
760.024118968
754.564452066
749.201782753
743.93997231
738.782369793
733.731841632
728.790801717
723.961241983
719.24476325
714.642606261
710.155682599
705.784605314
701.529718894
697.391128332
693.368726883
689.462222261
685.671160901
681.994950107
678.432877826
674.984129999
671.647805374
668.422927897
665.30845672
662.303294078
659.406291195
656.616252583
653.931938959
651.352069188
648.875321496
646.500334357
644.225707254
642.050001668
639.971742433
637.989419696
636.101491578
634.306387638
632.602513169
630.988254356
629.46198423
628.022069392
626.666877409
625.394784789
624.204185424
623.093499373
622.061181878
621.105732466
620.225704026
619.419711746
618.686441782
618.024659562
617.433217632
616.911062942
616.457243459
616.070914127
615.751341958
615.497910031
615.310124147
615.187879687
615.128962308
937.981715002
937.543558275
936.681287186
935.366885618
933.613394061
931.434731086
928.847487873
925.870551075
922.524656373
918.831947197
914.81556463
910.499272299
905.907119617
901.063144521
895.991115951
890.714316573
885.255366432
879.636088338
873.877414837
867.999334948
862.0208761
855.960113857
849.834199423
843.659394004
837.451100098
831.223883352
824.991483207
818.76681514
812.561969608
806.38821317
800.25599649
794.174968583
788.153991141
782.201168999
776.323877069
770.528789647
764.821910091
759.208600541
753.693611528
748.281111785
742.974718366
737.777527344
732.69214506
727.720720026
722.864975284
718.126241241
713.505488656
709.003361706
704.620210704
700.356124263
696.210960407
692.184376326
688.275856286
684.484737401
680.810232871
677.25145254
673.80742054
670.477090066
667.259355241
664.153060314
661.157006324
658.269955613
655.490634454
652.817734244
650.249911598
647.785787798
645.423947908
643.16293998
641.001274574
638.937424924
636.969827879
635.096885822
633.3169696
631.628422538
630.029565497
628.518702952
627.094129981
625.754140086
624.497033694
623.321127231
622.224762593
621.206316893
620.264212317
619.396925956
618.602999469
617.881048464
617.229771458
616.647958339
616.134498192
615.688386483
615.308731502
614.994759631
614.745820177
614.561392206
614.441344308
614.383593933
942.468052676
942.00063371
941.086999253
939.695096409
937.839859879
935.537309024
932.80641283
929.668610004
926.147264385
922.267141057
918.053931911
913.533831558
908.733163743
903.678056242
898.394162425
892.906428976
887.238910921
881.414635805
875.455518414
869.382324919
863.21468158
856.971118035
850.66913106
844.325252167
837.955104096
831.573436585
825.194140219
818.830244535
812.49391047
806.196426931
799.948217874
793.758858391
787.637094122
781.59088032
775.627413797
769.753167484
763.97392415
758.294808929
752.720321107
747.254365579
741.900284603
736.660890051
731.538496414
726.534954479
721.651685717
716.889717144
712.249716623
707.732028235
703.336707539
699.0635562
694.912155646
690.881899127
686.97202179
683.181628183
679.509716907
675.955202013
672.516931072
669.19369977
665.984263193
662.887343906
659.901637197
657.025813769
654.258520403
651.598378957
649.043984295
646.593901516
644.246663038
642.000765859
639.854669434
637.806794388
635.85552235
633.999196998
632.236126458
630.564587012
628.982828139
627.489078768
626.081554659
624.758466749
623.518030344
622.358474941
621.278054553
620.275058328
619.347821303
618.494735121
617.714258562
617.004927739
616.365365821
615.794292193
615.290530949
614.853018579
614.480810922
614.1730892
613.929164681
613.748485491
613.630890822
613.5744393
947.440509366
946.939016797
945.965816286
944.484196776
942.51146659
940.066265353
937.170487757
933.848667616
930.12731073
926.034274528
921.598223554
916.848155766
911.812993577
906.521232457
901.000641854
895.278016973
889.378983439
883.327859341
877.147578939
870.859679449
864.484346108
858.040502891
851.545928134
845.017369678
838.47063543
831.920644547
825.381438881
818.866167885
812.387065481
805.955438484
799.581667323
793.27522646
787.044716389
780.897909103
774.841789198
768.882594847
763.025855745
757.276428339
751.63852917
746.115767644
740.711178979
735.427257966
730.265993599
725.228904698
720.31707631
715.531196915
710.871596134
706.338282858
701.930983308
697.649178718
693.492141909
689.458972265
685.548628331
681.759957544
678.091722484
674.542623386
671.111316592
667.796428985
664.596568421
661.510330493
658.536301901
655.673060988
652.919175881
650.273200913
647.733671817
645.299100375
642.967968977
640.738725654
638.60977996
636.579500062
634.646211269
632.80819617
631.063696431
629.410916275
627.848027545
626.37317627
624.984490549
623.680089608
622.458093812
621.316635444
620.253870035
619.267988038
618.357226646
617.519881554
616.754318491
616.058984362
615.432417854
614.873259382
614.380260273
613.952291141
613.588349387
613.287565388
613.049208026
612.872691588
612.757821314
612.702806131
952.930924322
952.389658338
951.347246718
949.761618676
947.653092237
945.043603662
941.958666732
938.426575801
934.477588145
930.14319494
925.455505935
920.446731202
915.148743284
909.59270414
903.808746912
897.825709765
891.670926275
885.370081475
878.947143913
872.424380042
865.822448397
859.160557592
852.456658035
845.727626952
838.989406912
832.257072827
825.544829479
818.865965983
812.23280206
805.656658847
799.147853446
792.715726745
786.36869446
780.114303655
773.95928636
767.909608165
761.970510516
756.146547666
750.44162065
744.85901037
739.401411358
734.070966712
728.869304456
723.797575052
718.856490074
714.04636177
709.36714356
704.818471126
700.399703877
696.109966108
691.948187255
687.913140307
684.003477631
680.217763313
676.554501489
673.01216008
669.589189775
666.284038116
663.095158926
660.021017302
657.060090747
654.210866924
651.471838807
648.84149783
646.318325875
643.900786701
641.587317567
639.376321563
637.266161206
635.255153624
633.341567657
631.523622982
629.799491347
628.167299847
626.62513616
625.171055539
623.803089406
622.519255282
621.317567851
620.196050879
619.152749772
618.185744504
617.293162687
616.473192561
615.724095688
615.044219188
614.432007328
613.886012364
613.404904533
612.987481038
612.632674114
612.339558053
612.107354484
611.935439186
611.823580824
611.77014714
958.976317411
958.388426083
957.26530017
955.558726774
953.29289423
950.4939309
947.191854584
943.419536614
939.211703787
934.604095032
929.632784457
924.333633774
918.741839941
912.891549939
906.815525853
900.544856826
894.108726621
887.534254493
880.846430164
874.068159381
867.220423132
860.32253224
853.392433143
846.446999801
839.502242727
832.573390382
825.674849194
818.82009587
812.02156697
805.290597953
798.637416499
792.071183572
785.600076227
779.231363875
772.971477812
766.826068829
760.800052829
754.897647654
749.122405497
743.477245026
737.964485142
732.585881065
727.342662359
722.235572621
717.264910382
712.430571315
707.732091579
703.168692388
698.739325274
694.442717576
690.27741706
686.241834711
682.334284446
678.553018819
674.896259782
671.362224004
667.94914235
664.655273569
661.478912298
658.418391927
655.472082809
652.638386679
649.915727997
647.302543213
644.797268739
642.398328598
640.104122453
637.9130148
635.823325844
633.833324558
631.94122415
630.145180166
628.443291157
626.833601897
625.314108913
623.88276814
622.537504416
621.276222544
620.096819632
618.997198419
617.975281292
617.029024709
616.156433749
615.355576526
614.62459824
613.961734642
613.365324764
612.83382274
612.365808633
611.959998219
611.61525166
611.330580669
611.105154714
610.938307889
610.82976739
610.77806781
965.619899184
964.977008048
963.759233246
961.911360736
959.462643537
956.444606136
952.892908032
948.845995866
944.343899967
939.427286253
934.136745365
928.512247591
922.592702679
916.415578386
910.016552419
903.429194206
896.684693211
889.811665318
882.83607627
875.781316849
868.668446361
861.516586652
854.343403496
847.165568473
839.999078383
832.859345266
825.761072072
818.718023455
811.742814443
804.846800292
798.040075473
791.331551406
784.729091705
778.239619695
771.869208688
765.623148575
759.505992236
753.521587929
747.673106626
741.963070881
736.393388085
730.965387644
725.679861186
720.537104538
715.536961119
710.678866655
705.961895666
701.384809702
696.946107214
692.644074132
688.476834058
684.442396418
680.5387012
676.763658732
673.115183564
669.591221591
666.189770165
662.908891083
659.746716857
656.701450741
653.771361403
650.954773061
648.250052263
645.655592269
643.169796254
640.791060291
638.517757161
636.348221766
634.280738909
632.313533867
630.444766142
628.672526457
626.994837002
625.409654716
623.914877375
622.50835214
621.187886251
619.951259498
618.796238137
617.720589905
616.722099792
615.798586233
614.947917394
614.168027255
613.456931207
612.812740944
612.23367844
611.718088876
611.264452415
610.871394684
610.537696064
610.262299737
610.04431756
609.883036801
609.77814041
609.728337082
972.912397797
972.204081246
970.874476195
968.860463071
966.198059191
962.925831056
959.086547584
954.725439258
949.888783563
944.622893327
938.973431373
932.984925893
926.700386575
920.160951677
913.405530238
906.470438076
899.389056755
892.191569209
884.904839828
877.552506254
870.155326917
862.731777002
855.298806169
847.872582642
840.468997772
833.103751152
825.792046866
818.548132059
811.384911267
804.313762738
797.344565839
790.485873501
783.745127055
777.128814545
770.642584293
764.291317852
758.079171
752.009593902
746.08534684
740.308523182
734.680581834
729.202386578
723.874249228
718.695974591
713.666906181
708.785973383
704.051740846
699.462460845
695.016128365
690.710538129
686.543341666
682.512102473
678.614346983
674.847609625
671.209470443
667.697584492
664.3097025
661.043682967
657.897496033
654.869220008
651.957031451
649.159190123
646.474019994
643.899887764
641.435180148
639.078281322
636.827551592
634.681308422
632.637810537
630.695245767
628.851722889
627.105267608
625.453822498
623.895250642
622.427342562
621.047826023
619.754378244
618.544640142
617.416232163
616.366771327
615.393889087
614.495249615
613.668568131
612.911628915
612.2223027
611.59856316
611.038502309
610.540344618
610.102459762
609.723373983
609.401780009
609.136545192
608.926718338
608.771536432
608.670632885
608.622897167
980.913838676
980.126841471
978.663792158
976.452785787
973.539097785
969.970619645
965.799119531
961.078042806
955.860932285
950.200453529
944.1478461
937.75259549
931.062173639
924.12174943
916.973823016
909.657787837
902.209468998
894.660723518
887.039215046
879.368484152
871.668412983
863.956110853
856.247115045
848.55662224
840.900329186
833.294483802
825.755206158
818.297586414
810.934999113
803.678823422
796.538568934
789.52224393
782.636707703
775.887898643
769.280965636
762.820338576
756.509752946
750.352242733
744.350134102
738.505059211
732.817989918
727.289281682
721.918721906
716.705578566
711.648648055
706.746303868
701.99654855
697.397070145
692.945303596
688.638495715
684.473771321
680.44819733
676.558841922
672.802826131
669.177366236
665.679805715
662.307636532
659.058509799
655.930236604
652.920779917
650.028239033
647.250827917
644.586849216
642.03466547
639.59266931
637.259254085
635.032786483
632.911582268
630.893886211
628.977856805
627.161556169
625.442945082
623.819882945
622.290132125
620.851366179
619.501181312
618.237110568
617.056640218
615.957227917
614.936322171
613.991382677
613.119901076
612.319421676
611.587561714
610.922030801
610.320649238
609.781364957
609.302268959
608.881609128
608.517802337
608.209444966
607.95532192
607.754412979
607.605899281
607.509361768
607.463876484
989.695984286
988.81305427
987.188734382
984.741645587
981.530106891
977.614540459
973.058114518
967.924110951
962.274340064
956.168407503
949.663490921
942.814316918
935.673123092
928.289477816
920.709903195
912.977316138
905.130362759
897.202775295
889.222927375
881.213795176
873.193524867
865.176721605
857.176367207
849.205923568
841.280833108
833.418478485
825.636709049
817.952105639
810.378779956
802.928014463
795.60863738
788.4277835
781.391500631
774.505040202
767.772977542
761.199262943
754.787212571
748.539446747
742.457843394
736.543541588
730.796983531
725.217969074
719.805712852
714.558898023
709.475724696
704.553958351
699.790982869
695.183861004
690.729403146
686.424242772
682.264914462
678.247929989
674.369847985
670.627334005
667.01720861
663.536482439
660.182377827
656.952337515
653.844021289
650.855292097
647.984193227
645.228918564
642.587777826
640.059158945
637.641489494
635.333199187
633.132685115
631.03828132
629.048233804
627.160681852
625.373645908
623.685021989
622.092582059
620.593979676
619.186760054
617.868373753
616.636193319
615.487532302
614.419666169
613.429854648
612.515365001
611.673495688
610.901599902
610.197108444
609.557551533
608.980579162
608.463979774
608.005697088
607.603844977
607.25672046
606.962814795
606.720822445
606.529648314
606.388414066
606.296642558
606.253601596
999.345761996
998.343862232
996.521489075
993.787638198
990.21966744
985.895051998
980.891302505
975.283214409
969.141662025
962.533478922
955.521855116
948.166831278
940.525610473
932.652541375
924.598716195
916.411216604
908.132117161
899.797427094
891.436228379
883.070344988
874.714924136
866.380247511
858.074803787
849.808994472
841.598032362
833.461699158
825.421141922
817.495564639
809.700187938
802.045878018
794.540135135
787.188651468
779.996353487
772.967666234
766.106535868
759.416438742
752.900321493
746.560430225
740.398192616
734.414217317
728.608364985
722.979824117
717.52718339
712.248491813
707.141303964
702.202723633
697.429455471
692.817868466
688.364073887
684.064014752
679.913560304
675.908598137
672.045117824
668.319281534
664.727479169
661.266366755
657.93288815
654.724280721
651.638066547
648.672030932
645.824190552
643.092753503
640.476073857
637.972603078
635.580840887
633.299287782
631.126401501
629.060559161
627.100026657
625.242936169
623.487272194
621.830865732
620.271395839
618.806397347
617.433273566
616.149312872
614.951708377
613.83758007
612.803998974
611.848012857
610.966672967
610.157061142
609.416316646
608.74166211
608.130428032
607.580075451
607.088216499
606.6526327
606.271290976
605.942357309
605.664208305
605.435440897
605.254878831
605.121578519
605.035001792
604.994612494
1009.97019436
1008.81775178
1006.74721794
1003.65909555
999.659789678
994.850135284
989.325281629
983.172920829
976.473228091
969.299964355
961.721910312
953.804155876
945.608912388
937.195715576
928.620966539
919.936874089
911.189945736
902.419258285
893.654852908
884.916758109
876.2153165
867.553557972
858.932081306
850.355748517
841.839759694
833.409003614
825.090927549
816.909305456
808.880873155
801.015234494
793.317233688
785.790134518
778.437396746
771.262549098
764.268901338
757.459519325
750.837123965
744.403691925
738.160207967
732.106691454
726.242349063
720.565687748
715.074610509
709.766484813
704.638174057
699.686067831
694.906127549
690.293951126
685.844862495
681.554021319
677.416540626
673.427601222
669.582553498
665.877001411
662.30686576
658.86842615
655.558341915
652.373653512
649.31176629
646.370419337
643.547642111
640.841701939
638.251045284
635.774235884
633.409892607
631.156629979
629.013003908
626.977465058
625.048321616
623.223712727
621.5015929
619.879726819
618.355693138
616.92689548
615.590578808
614.343849755
613.183699933
612.107031687
611.110685969
610.191471967
609.346197914
608.571702294