/*--------------------------------*- C++ -*----------------------------------*\
| =========                 |                                                 |
| \\      /  F ield         | OpenFOAM: The Open Source CFD Toolbox           |
|  \\    /   O peration     | Version:  v1906                                 |
|   \\  /    A nd           | Web:      www.OpenFOAM.com                      |
|    \\/     M anipulation  |                                                 |
\*---------------------------------------------------------------------------*/
FoamFile
{
    version     2.0;
    format      ascii;
    class       surfaceScalarField;
    location    "512";
    object      phi;
}
// * * * * * * * * * * * * * * * * * * * * * * * * * * * * * * * * * * * * * //

dimensions      [0 3 -1 0 0 0 0];
oriented        oriented;


internalField   nonuniform List<scalar> 
18240
(
-0.000352217265049
0.0003522104264
-0.000737876863572
0.000385652999213
-0.00112318761201
0.000385303150212
-0.00150353553886
0.000380341450035
-0.00187684316914
0.000373299718881
-0.00224137409204
0.000364524570024
-0.00259560555257
0.00035422325917
-0.00293818565562
0.000342573832944
-0.00326794368957
0.000329749534274
-0.00358387369149
0.000315923768706
-0.00388514859716
0.000301266094702
-0.00417109621543
0.000285941378524
-0.0044412098375
0.000270104499424
-0.00469511656129
0.000253900435765
-0.00493258623297
0.000237460239667
-0.00515349529034
0.00022090268181
-0.00535783663806
0.000204331622406
-0.0055456819252
0.000187838787211
-0.00571719411709
0.000171502192739
-0.00587259017954
0.000155389406545
-0.00601215706356
0.000139556645954
-0.00613621583258
0.00012405193141
-0.00624514087722
0.000108914607556
-0.00633932585053
9.41779369252e-05
-0.00641920538391
7.98689529569e-05
-0.00648522282981
6.60102024118e-05
-0.00653785348277
5.26199902511e-05
-0.00657757403831
3.97131072871e-05
-0.00660488635554
2.73016471629e-05
-0.00662028873268
1.53947362021e-05
-0.00662429985015
4.00051927593e-06
-0.00661742984117
-6.87782004055e-06
-0.00660020126971
-1.72390082802e-05
-0.00657312618239
-2.70830372333e-05
-0.00653672703411
-3.64093317395e-05
-0.00649151324781
-4.52218344448e-05
-0.00643799933622
-5.3523743703e-05
-0.00637668461874
-6.13228149935e-05
-0.00630806895549
-6.86250442593e-05
-0.00623263557602
-7.54414693657e-05
-0.00615086401245
-8.17803922614e-05
-0.00606321636041
-8.76556705339e-05
-0.00597014713735
-9.30773976043e-05
-0.00587209327975
-9.80617346137e-05
-0.00576948069737
-0.000102620003971
-0.00566271824772
-0.000106770109626
-0.00555220078824
-0.000110524029346
-0.00543830730186
-0.000113900848774
-0.0053214002797
-0.000116912648694
-0.00520182809393
-0.000119579165228
-0.00507992058748
-0.000121912098225
-0.00495599571601
-0.000123931378382
-0.00483035125956
-0.000125647933063
-0.00470327567445
-0.000127081525173
-0.00457503590869
-0.000128242047346
-0.00444589232675
-0.000129148857166
-0.00431608266591
-0.00012981068243
-0.00418584081737
-0.000130246356683
-0.00405537705768
-0.000130463458259
-0.00392490039351
-0.00013048030078
-0.00379459528132
-0.000130303444067
-0.00366464717009
-0.000129950769857
-0.00353521604748
-0.000129428049003
-0.00340646474464
-0.000128752878884
-0.00327852973908
-0.000127930512298
-0.00315155172105
-0.000126978410638
-0.00302564421328
-0.000125901590449
-0.00290092583472
-0.000124717497104
-0.00277748737166
-0.0001234311476
-0.00265542512314
-0.000122060016721
-0.00253480715231
-0.000120609299181
-0.00241570705169
-0.000119096464823
-0.00229817012546
-0.00011752697524
-0.00218224689117
-0.000115918168329
-0.00206795997123
-0.000114275787404
-0.0019553366417
-0.000112616841692
-0.00184437716509
-0.000110947295016
-0.00173508572707
-0.000109283572777
-0.00162744089997
-0.000107631749008
-0.00152142435871
-0.000106007380847
-0.00141699406768
-0.000104416495935
-0.00131411025422
-0.000102873474286
-0.00121271183637
-0.00010138409781
-0.00111273924606
-9.99612158236e-05
-0.00101411455882
-9.86100410642e-05
-0.000916760987511
-9.73413133046e-05
-0.000820587371813
-9.61588192985e-05
-0.000725504977458
-9.50694098348e-05
-0.000631418597723
-9.40716304018e-05
-0.000538245886656
-9.31592751046e-05
-0.000445929214534
-9.23023265367e-05
-0.000354494980454
-9.14207626899e-05
-0.000264191399872
-9.02902311384e-05
-0.000176049365778
-8.81295574817e-05
-9.40168357848e-05
-8.20180809288e-05
-9.40086128641e-05
-0.000389323363869
0.00074152672821
-0.000823979735082
0.000820302200365
-0.00125616454418
0.000817480332541
-0.00168204585173
0.000806215451982
-0.00209969759541
0.000790943714666
-0.00250733861842
0.000772158239586
-0.00290331159225
0.000750188345838
-0.00328612334642
0.000725378168133
-0.00365446979479
0.000698087923232
-0.00400723706191
0.000668683517357
-0.00434350672937
0.000637527505116
-0.00466254287205
0.000604969871722
-0.00496378876771
0.00057134191979
-0.00524684632803
0.000536950187893
-0.00551146900415
0.000502074209593
-0.00575753791723
0.000466963605042
-0.00598505449478
0.000431839254767
-0.00619411650073
0.0003968926037
-0.00638491269019
0.000362289198988
-0.00655770066767
0.000328168984261
-0.00671280458205
0.00029465114744
-0.00685059560796
0.000261834344646
-0.00697149270416
0.00022980208065
-0.00707594573026
0.00019862214489
-0.00716443868803
0.000168352106524
-0.00723747507545
0.000139037583863
-0.00729558276957
0.000110717739684
-0.00733930110526
8.34222778805e-05
-0.00736918652824
5.71770356704e-05
-0.00738580081243
3.19997350591e-05
-0.00738971605899
7.9057019e-06
-0.00738150619182
-1.5097043707e-05
-0.00736175373445
-3.70014896083e-05
-0.0073310379025
-5.78082393856e-05
-0.00728993890847
-7.75182341788e-05
-0.00723903026905
-9.61397926025e-05
-0.00717888294894
-0.00011368077394
-0.00711005832619
-0.000130156632783
-0.00703311123242
-0.000145581563187
-0.00694858431598
-0.000159977378887
-0.0068570100367
-0.000173363719664
-0.00675890662866
-0.000185767786523
-0.00665477899341
-0.000197213611155
-0.00654511640351
-0.000207732660454
-0.00643039223534
-0.000217352184257
-0.00631106351206
-0.000226106706921
-0.00618756940816
-0.000234025484777
-0.0060603326868
-0.000241144890465
-0.00592975691127
-0.000247495018508
-0.00579622978792
-0.000253112961654
-0.00566011901663
-0.000258028613934
-0.00552177750621
-0.000262278820391
-0.00538153780749
-0.000265892432497
-0.00523971912685
-0.000268905300752
-0.00509662029562
-0.000271344647435
-0.00495252846816
-0.000273244848247
-0.00480771060745
-0.000274631192322
-0.00466242372195
-0.000275536380115
-0.0045169048795
-0.00027598375022
-0.00437138280941
-0.000276004391365
-0.00422606650473
-0.000275619921869
-0.00408115799864
-0.000274860090498
-0.00393683967079
-0.000273745208299
-0.00379328799238
-0.000272304084371
-0.00365065971447
-0.000270556223398
-0.00350910636833
-0.000268529924145
-0.00336875957559
-0.000266244379023
-0.0032297460794
-0.00026372774361
-0.00309217246787
-0.000260999295728
-0.00295614050276
-0.000258087276886
-0.00282173158839
-0.000255011294846
-0.00268902215088
-0.000251799729694
-0.00255806820178
-0.000248472581358
-0.00242892051198
-0.000245058235521
-0.00230160962284
-0.000241576973293
-0.00217616055158
-0.000238056892959
-0.0020525785807
-0.000234518299364
-0.00193086323671
-0.000230988587706
-0.00181099516042
-0.000227487725386
-0.00169294911449
-0.000224041912015
-0.00157668219165
-0.000220670345035
-0.00146214563573
-0.000217397484062
-0.00134927460698
-0.000214241261811
-0.0012379986422
-0.000211223780273
-0.00112823315583
-0.000208361064653
-0.00101988841848
-0.000205671974687
-0.000912862918126
-0.00020316943566
-0.000807050637905
-0.0002008671093
-0.000702335683206
-0.000198771486229
-0.000598595158095
-0.000196885006753
-0.000495685485639
-0.000195197078783
-0.000393409329677
-0.000193682364692
-0.000291394758357
-0.000192290623977
-0.000188576664699
-0.000190934068922
-8.17792996836e-05
-0.000188802333855
-0.000175781546044
-0.000396281347818
0.00113780114228
-0.000836581587606
0.00126059506424
-0.00127502240118
0.0012559137672
-0.00170708885618
0.00123827451377
-0.00213065134917
0.00121449870873
-0.00254384099823
0.00118534043424
-0.002944954474
0.00115129420693
-0.00333247280514
0.00111288894475
-0.00370507661095
0.00107068397452
-0.0040616500851
0.00102524930185
-0.00440127992462
0.0009771494211
-0.00472324607207
0.000926928164932
-0.00502701090826
0.000875098640147
-0.00531220286737
0.000822134103143
-0.00557860125258
0.000768464266115
-0.00582611752385
0.000714471623145
-0.00605477975772
0.000660492934204
-0.0062647149461
0.000606819315274
-0.00645613556348
0.000553701028009
-0.00662932467528
0.000501349389354
-0.00678462563352
0.000449943085894
-0.00692243052757
0.00039963030428
-0.00704317297479
0.000350535286854
-0.00714731963191
0.00030275965301
-0.00723536545581
0.000256388491151
-0.00730782760578
0.000211490393702
-0.00736524233976
0.000168122868348
-0.00740816057891
0.00012633102103
-0.00743714566018
8.61523903957e-05
-0.00745276997483
4.76144430422e-05
-0.00745561309934
1.07390320179e-05
-0.00744625913754
-2.44606668047e-05
-0.00742529480002
-5.79756249337e-05
-0.00739330726333
-8.98054280841e-05
-0.00735088190258
-0.000119953325773
-0.00729860070222
-0.000148430564081
-0.00723703975534
-0.00017525130675
-0.00716676831822
-0.000200437482248
-0.00708834603136
-0.000224013207568
-0.00700232264668
-0.000246009933289
-0.00690923500722
-0.000266460400188
-0.00680960753942
-0.00028540409361
-0.0067039490255
-0.000302880757942
-0.00659275392694
-0.00031893617659
-0.0064764989616
-0.000333615280992
-0.00635564529191
-0.000346968279183
-0.00623063490368
-0.000359043407237
-0.00610189366166
-0.000369893425274
-0.00596982746481
-0.00037956805765
-0.00583482614052
-0.000388120873351
-0.00569725934201
-0.000395601466256
-0.00555748122504
-0.000402062723709
-0.00541582603553
-0.000407552793563
-0.00527261348714
-0.00041212273872
-0.00512814398967
-0.000415818339134
-0.00498270462512
-0.000418688111125
-0.00483656396119
-0.000420774982781
-0.00468997851089
-0.000422124644127
-0.00454318709758
-0.000422777132004
-0.00439641767769
-0.000422775450568
-0.00424988123792
-0.000422157089452
-0.00410377886803
-0.000420962839502
-0.00395829521545
-0.00041922826882
-0.00381360570621
-0.000416992634991
-0.00366986961158
-0.000414290340166
-0.00352723733462
-0.000411159837306
-0.00338584319501
-0.000407635099458
-0.00324581271085
-0.000403754408047
-0.00310725523067
-0.000399551882066
-0.00297027115337
-0.000395066047965
-0.00283494456946
-0.000390331497902
-0.00270135036093
-0.000385387142882
-0.00256954701176
-0.000380268082894
-0.00243958352916
-0.000375013462191
-0.00231149258823
-0.00036965865105
-0.00218529720486
-0.000364242625072
-0.00206100435476
-0.000358800560474
-0.00193861132487
-0.000353370672139
-0.00181809993363
-0.000347987324722
-0.00169944248001
-0.000342687262811
-0.00158259665997
-0.000337503327187
-0.00146751103513
-0.000332470015378
-0.00135412071961
-0.000327617874972
-0.00124235228389
-0.00032297832071
-0.00113212023521
-0.000318578740571
-0.00102333122957
-0.000314446470325
-0.000915881214046
-0.000310604586841
-0.000809658479261
-0.000307074893784
-0.00070454045617
-0.00030387436068
-0.000600393086942
-0.000301017274364
-0.00049706162056
-0.000298513502419
-0.000394354989937
-0.000296374216628
-0.000292010186145
-0.000294621065144
-0.000189662631176
-0.000293267762792
-8.73948647135e-05
-0.000291056696856
-0.000263169924782
-0.000402485355918
0.00154027968084
-0.000848903009125
0.00170700567598
-0.00129344556168
0.00170044905174
-0.00173137078884
0.00167619250268
-0.00216041337387
0.00164353396221
-0.00257861381631
0.00160353353606
-0.00298421138418
0.0015568843492
-0.00337565479686
0.00150432490282
-0.00375161213792
0.00144663375817
-0.00411097281987
0.0013846023848
-0.00445284240042
0.00131901128053
-0.00477653149345
0.00125060948527
-0.00508154053597
0.00118009976985
-0.00536754181445
0.0011081274096
-0.00563436018013
0.0010352745049
-0.00588195358
0.00096205683075
-0.00611039421604
0.000888925211128
-0.00631985112163
0.000816267793058
-0.0065105743004
0.000744415605074
-0.00668288100326
0.000673647421428
-0.00683714368963
0.000604196925354
-0.00697378023569
0.000536257938245
-0.0070932454338
0.000469991401209
-0.00719602453016
0.000405529608594
-0.00728262741357
0.000342982072827
-0.00735358455108
0.000282438185592
-0.00740944288525
0.000223971713849
-0.00745076326256
0.000167641883551
-0.00747811720715
0.00011349670147
-0.00749208517686
6.15727752212e-05
-0.00749325371632
1.18978458529e-05
-0.00748221386003
-3.5510225942e-05
-0.00745955834186
-8.0640897513e-05
-0.00742588049493
-0.000123492977365
-0.00738177131627
-0.000164072217583
-0.00732781851923
-0.000202392989853
-0.00726460344442
-0.000238475975829
-0.00719270046782
-0.000272349934089
-0.00711267392249
-0.000304049144985
-0.00702507789242
-0.00033361519959
-0.00693045320739
-0.000361094186345
-0.00682932769693
-0.000386538511505
-0.00672221331585
-0.000410003857656
-0.00660960691004
-0.000431551068112
-0.00649198750738
-0.000451242924693
-0.00636981761649
-0.000469146138951
-0.00624354068913
-0.000485328002548
-0.00611358294388
-0.000499858526154
-0.00598035098383
-0.000512807014741
-0.00584423411069
-0.000524244391612
-0.00570560205897
-0.00053423974739
-0.00556480774188
-0.000542862877986
-0.00542218504771
-0.000550180851232
-0.00527805193845
-0.000556260779742
-0.00513270823944
-0.000561166439625
-0.00498643899546
-0.00056496128482
-0.00483951218026
-0.000567705140673
-0.00469218220874
-0.000569457447812
-0.00454468749541
-0.000570274036326
-0.00439725402389
-0.000570210564025
-0.00425009270236
-0.000569319359152
-0.00410340290767
-0.000567652997316
-0.00395736961264
-0.000565261185569
-0.00381216684597
-0.000562194404827
-0.003667954603
-0.000558500802309
-0.00352488219217
-0.000554229820867
-0.00338308497644
-0.000549429070882
-0.00324268760161
-0.000544147871121
-0.00310380064632
-0.000538434086484
-0.00296652374623
-0.000532337519549
-0.0028309422486
-0.000525906721706
-0.00269713025136
-0.000519192191229
-0.00256514736372
-0.00051224318782
-0.00243504167544
-0.000505110711259
-0.00230684671859
-0.000497844367468
-0.00218058436946
-0.000490495112795
-0.00205626209117
-0.000483112229799
-0.00193387575716
-0.00047574582913
-0.00181340723639
-0.000468443995351
-0.00169482711286
-0.000461255036968
-0.00157809265376
-0.000454224856247
-0.00146315038735
-0.000447398934708
-0.00134993447129
-0.000440819969665
-0.00123836907024
-0.000434529574039
-0.00112836709083
-0.000428566207552
-0.0010198322377
-0.000422966569427
-0.000912657945324
-0.000417763859787
-0.000806728744092
-0.000412988915123
-0.000701918758861
-0.00040866902848
-0.000598091289332
-0.000404829423788
-0.000495095436541
-0.00040149414108
-0.000392763665521
-0.000398691008107
-0.000290914738072
-0.000396455418654
-0.000189418160201
-0.000394750268613
-8.87978568132e-05
-0.000391663362888
-0.000351961178528
-0.000410484310726
0.00195075739719
-0.000865391504699
0.00216190577637
-0.00131819854424
0.00215324909844
-0.00176397124699
0.00212195810873
-0.00220030937587
0.00207986498001
-0.00262514803314
0.00202836502667
-0.00303665349742
0.00196838259351
-0.00343323248983
0.00190089661707
-0.00381353901347
0.00182693292875
-0.00417647272919
0.00174752867495
-0.00452116931963
0.00166370035326
-0.00484698492891
0.00157641748964
-0.00515347617635
0.001486583306
-0.00544037802051
0.00139502144129
-0.00570758054393
0.00130246909726
-0.00595510650759
0.00120957475048
-0.00618308997013
0.0011169005022
-0.00639175730666
0.00102492683596
-0.00658141017757
0.00093406004943
-0.00675241142984
0.000844640120046
-0.00690517291531
0.000756949724017
-0.00704014608038
0.000671222289043
-0.00715781392988
0.000587650308348
-0.00725868528362
0.000506391898264
-0.007343289681
0.000427577289449
-0.00741217404798
0.000351313261496
-0.00746589931903
0.000277687594487
-0.00750503840609
0.000206771487815
-0.00753017358435
0.000138622321048
-0.00754189500115
7.32845640479e-05
-0.00754079828015
1.07914497629e-05
-0.0075274828863
-4.88353346826e-05
-0.00750254990886
-0.000105583602738
-0.00746660053265
-0.000159452088509
-0.00742023349465
-0.000210448965871
-0.00736404373191
-0.000258592433192
-0.00729861972499
-0.000303909597496
-0.0072245423232
-0.000346436880874
-0.00714238219137
-0.000386218711667
-0.00705269890523
-0.000423307807954
-0.00695603859755
-0.000457763659601
-0.00685293340966
-0.000489652707476
-0.00674389941084
-0.000519046659477
-0.00662943646122
-0.000546022616898
-0.00651002644371
-0.000570661286913
-0.00638613355847
-0.000593047117588
-0.00625820287622
-0.000613266473262
-0.00612666105434
-0.000631407837122
-0.00599191519155
-0.000647560011164
-0.0058543539287
-0.000661812439909
-0.00571434656357
-0.000674253491325
-0.00557224447661
-0.000684970946665
-0.00542838044184
-0.000694050410343
-0.00528307029732
-0.000701576001961
-0.00513661237279
-0.000707628933401
-0.00498928930852
-0.000712288422438
-0.00484136750863
-0.000715630455456
-0.00469309900417
-0.000717728921633
-0.00454472084446
-0.000718654557368
-0.00439645690659
-0.000718476269321
-0.00424851714926
-0.000717260228762
-0.0041010992911
-0.00071507132645
-0.00395438788446
-0.000711972363593
-0.00380855581611
-0.000708025559702
-0.00366376319292
-0.000703291773811
-0.00352015865604
-0.000697831982416
-0.00337787811303
-0.000691706469195
-0.00323704588912
-0.000684976197139
-0.00309777336786
-0.000677701921056
-0.00296016002713
-0.000669945402284
-0.00282429207111
-0.000661768425788
-0.00269024340625
-0.000653233831236
-0.00255807434562
-0.00064440444271
-0.00242783257646
-0.000635343918564
-0.00229955200953
-0.000626115624336
-0.00217325377469
-0.000616783319929
-0.00204894526513
-0.000607410016899
-0.00192662118111
-0.000598058532277
-0.00180626279991
-0.000588790373467
-0.00168783906887
-0.000579666185797
-0.00157130610825
-0.000570744701887
-0.00145660833868
-0.000562083105527
-0.00134367820372
-0.000553736074773
-0.00123243729217
-0.000545756077827
-0.00112279622779
-0.000538192536339
-0.00101465570372
-0.000531092080336
-0.000907906421055
-0.000524497894003
-0.000802429862001
-0.000518450042049
-0.000698098095174
-0.000512985250252
-0.000594774168897
-0.000508137790329
-0.000492312298968
-0.000503940556308
-0.000390560616195
-0.000500427487991
-0.000289371275706
-0.000497629974121
-0.000188655079644
-0.000495452147883
-8.89088086367e-05
-0.0004913957603
-0.000440863273325
-0.000420655234276
0.00237140619752
-0.000886589182287
0.00262783312239
-0.00135007564521
0.00261672871261
-0.00180593944066
0.00257781508167
-0.00225161722632
0.0025255358627
-0.00268491618652
0.00246165705497
-0.00310391386794
0.00238737328181
-0.00350696767539
0.00230394337534
-0.00389271906308
0.00221267719293
-0.00426008708664
0.00211488950032
-0.0046082528682
0.00201185884486
-0.00493663751184
0.00190479475275
-0.0052448757959
0.00179481410042
-0.00553278808129
0.00168292613267
-0.00580035213985
0.00157002543698
-0.00604767654005
0.00145689131556
-0.00627497636019
0.00134419234883
-0.00648255202726
0.0012324944046
-0.00667077127044
0.00112227104613
-0.00684005441388
0.00101391488752
-0.00699086251615
0.000907749297387
-0.00712368830854
0.000804039423889
-0.00723904921532
0.000703002405936
-0.00733748235653
0.000604816108333
-0.00741954075716
0.000509626615011
-0.00748579074799
0.000417554068404
-0.00753680981614
0.000328697349486
-0.00757318505245
0.000243137321431
-0.0075955115272
0.00016093928502
-0.00760439092702
8.21543884642e-05
-0.00760042996766
6.82083406656e-06
-0.00758423847414
-6.50365177057e-05
-0.00755642781653
-0.000133403997699
-0.00751760899968
-0.000198280641422
-0.00746839050801
-0.000259677204743
-0.00740937644234
-0.000317616206272
-0.0073411643029
-0.000372131414648
-0.00726434320962
-0.00042326757034
-0.00717949180984
-0.000471079633868
-0.0070871767311
-0.000515632283113
-0.00698795074345
-0.000556998923127
-0.00688235155342
-0.000595261001087
-0.00677090030604
-0.000630506841342
-0.00665410078324
-0.000662830853989
-0.00653243828803
-0.000692332277131
-0.00640637926956
-0.000719114362227
-0.00627637059392
-0.000743283104783
-0.00614283958491
-0.000764946483658
-0.00600619365756
-0.000784213253667
-0.00586682073708
-0.000801192307474
-0.00572508920581
-0.000815991594891
-0.00558134863899
-0.000828717667388
-0.00543592999437
-0.000839474780709
-0.00528914658118
-0.000848364672197
-0.00514129439996
-0.000855485889951
-0.00499265324241
-0.000860933835901
-0.00484348707449
-0.000864800343176
-0.00469404515662
-0.000867173989601
-0.00454456236073
-0.000868139913139
-0.00439526020503
-0.000867780365262
-0.00424634701274
-0.000866174717193
-0.00409801878038
-0.000863400187378
-0.00395045911751
-0.000859531959366
-0.00380383990629
-0.000854643991445
-0.00365832100676
-0.000848809150489
-0.00351405071082
-0.000842100004591
-0.00337116524272
-0.00083458888021
-0.00322978905072
-0.000826348551656
-0.0030900341696
-0.000817452152509
-0.00295200042009
-0.000807973705769
-0.00281577471904
-0.000797987855823
-0.00268143126424
-0.000787570219495
-0.00254903087927
-0.00077679694292
-0.00241862125185
-0.000765744886895
-0.00229023638586
-0.000754491042825
-0.00216389693996
-0.000743112586904
-0.00203960983687
-0.000731686206204
-0.00191736872498
-0.000720288063429
-0.00179715377107
-0.0007089930882
-0.0016789322445
-0.000697874890077
-0.00156265849788
-0.000687005063855
-0.00144827465463
-0.000676453080469
-0.00133571076207
-0.000666285647117
-0.00122488554536
-0.000656566599451
-0.00111570669157
-0.000647356355949
-0.00100807161801
-0.000638711847063
-0.000901867835591
-0.000630686131148
-0.000796973696987
-0.0006233284598
-0.000693258891831
-0.000616684221039
-0.000590585450997
-0.000610795388792
-0.000488809207856
-0.000605701081393
-0.000387783159332
-0.000601438056979
-0.000287365715446
-0.000598032355137
-0.000187460609448
-0.000595342696837
-8.85086861669e-05
-0.000590333563109
-0.000529365118538
-0.000433261742071
0.00280466181575
-0.000912927690108
0.00310749243942
-0.00138968709365
0.00309348163022
-0.00185804955784
0.00304617093809
-0.00231524431363
0.0029827240094
-0.00275892121115
0.0029053272805
-0.00318705204693
0.00281549740036
-0.00359794005919
0.00271482460577
-0.0039902201565
0.00260495044021
-0.00436284577513
0.00248750818779
-0.00471506504415
0.00236407109573
-0.00504638980438
0.00223611239498
-0.00535656069215
0.00210497776627
-0.00564551128769
0.00197186938782
-0.0059133334705
0.00183784016
-0.00616024574038
0.00170379599001
-0.00638656532684
0.00157050420761
-0.0065926847292
0.00143860592914
-0.00677905252417
0.00130863082191
-0.00694615841851
0.00118101260257
-0.00709452185427
0.00105610440863
-0.00722468389398
0.000934192974698
-0.00733720149935
0.000815511379371
-0.00743264393841
0.000700249753724
-0.0075115904265
0.000588564175384
-0.00757462887795
0.000480583440182
-0.00762235496693
0.000376414240538
-0.00765537158184
0.00027614460367
-0.00767428800646
0.000179846281058
-0.00767971910386
8.75759459805e-05
-0.00767228429443
-6.23582813081e-07
-0.00765260580402
-8.4724695739e-05
-0.00762130694287
-0.000164712579834
-0.00757901066431
-0.000240586686713
-0.0075263371222
-0.000312360509445
-0.00746390171623
-0.000380061381365
-0.00739231281567
-0.000443730038832
-0.00731216981086
-0.000503420262322
-0.0072240609631
-0.000559198078809
-0.00712856168704
-0.000611141073857
-0.00702623269617
-0.000659337291876
-0.00691761864621
-0.000703884298084
-0.00680324667554
-0.000744887873576
-0.00668362547876
-0.00078246093141
-0.00655924428591
-0.000816722115343
-0.00643057238609
-0.000847794675093
-0.00629805854778
-0.000875805070003
-0.00616213097705
-0.000900881896616
-0.00602319715042
-0.000923154585004
-0.00588164416529
-0.000942752459305
-0.00573783893312
-0.000959803604074
-0.00559212885606
-0.000974434129354
-0.00544484230315
-0.000986767276209
-0.0052962895219
-0.000996922948803
-0.00514676329595
-0.00100501711545
-0.00499653997694
-0.00101116165124
-0.00484588020159
-0.00101546406511
-0.00469502991529
-0.00101802766219
-0.00454422102255
-0.0010189515879
-0.00439367227871
-0.00101833127335
-0.00424358976347
-0.00101625873842
-0.00409416754499
-0.00101282323678
-0.00394558790643
-0.00100811171817
-0.00379802173385
-0.00100220955435
-0.00365162847851
-0.000995201037638
-0.00350655627571
-0.000987170059394
-0.00336294168257
-0.000978200526711
-0.00322090958471
-0.000968376882681
-0.00308057279106
-0.000957784353105
-0.00294203181786
-0.000946509239263
-0.00280537444371
-0.000934638953347
-0.00267067546891
-0.000922262063859
-0.00253799632913
-0.000909468125869
-0.00240738491588
-0.000896347505501
-0.00227887532548
-0.000882991046539
-0.00215248780057
-0.000869489729423
-0.00202822865833
-0.000855934232738
-0.00190609038528
-0.000842414493118
-0.0017860517581
-0.000829019219923
-0.00166807809925
-0.000815835417652
-0.00155212157842
-0.000802947901287
-0.00143812161858
-0.000790438832076
-0.00132600534888
-0.000778387269433
-0.00121568813753
-0.000766868760922
-0.00110707415494
-0.000755954963001
-0.00100005701211
-0.000745713327981
-0.00089452041547
-0.000736206841065
-0.000790338941506
-0.000727493867177
-0.000687378913357
-0.000719628085348
-0.000585499567852
-0.000712658566725
-0.000484554744744
-0.000706629856118
-0.000384395616454
-0.000701581405943
-0.000284876024871
-0.000697536597807
-0.000185884300723
-0.000694319566777
-8.78209836588e-05
-0.000688382487695
-0.000617179124646
-0.000448582414714
0.00325323831738
-0.000944943046799
0.00360384706653
-0.00143780526188
0.00358633756114
-0.00192127511694
0.00352963455073
-0.00239232054112
0.00345376310691
-0.00284839901518
0.00336139940288
-0.0032873593214
0.00325445129613
-0.00370744928371
0.00313490810212
-0.00410730973198
0.00300480435043
-0.00448595152781
0.00286614336855
-0.00484272008653
0.00272083294696
-0.00517725222535
0.0025706377298
-0.00548942981788
0.00241714844077
-0.00577933389563
0.00226176643246
-0.00604720194689
0.00210570104294
-0.00629339012262
0.00194997686524
-0.00651834131282
0.00179544794271
-0.00672255925561
0.00164281627056
-0.00690658849978
0.0014926522946
-0.00707099955676
0.00134541573231
-0.00721637859588
0.00120147534043
-0.00734332075392
0.00106112686633
-0.00745242636113
0.000924608537112
-0.00754429917807
0.000792113965771
-0.00761954608142
0.00066380229547
-0.00767877744391
0.000539805875182
-0.00772260786921
0.000420235572705
-0.00775165674841
0.000305184264036
-0.0077665485586
0.000194728727039
-0.00776791259872
8.89305211683e-05
-0.00775638203845
-1.2163726189e-05
-0.00773259321479
-0.000108523170417
-0.00769718368123
-0.000200131848829
-0.00765079020297
-0.000286989932587
-0.00759404672156
-0.000369113805135
-0.00752758201825
-0.000446535890824
-0.00745201744794
-0.000519304419737
-0.00736796463042
-0.000587482838398
-0.00727602333371
-0.000651149092833
-0.00717677942567
-0.000710394600377
-0.00707080309896
-0.000765323147323
-0.00695864723279
-0.000816049545327
-0.00684084606717
-0.000862698279999
-0.00671791404756
-0.000905401993682
-0.00659034498985
-0.000944300023278
-0.00645861142413
-0.000979536841373
-0.0063231642448
-0.00101126060411
-0.00618443253245
-0.00103962166156
-0.00604282365408
-0.00106477121563
-0.00589872351726
-0.00108685999297
-0.00575249706213
-0.00110603710011
-0.00560448887884
-0.00112244894397
-0.00545502400765
-0.00113623836576
-0.00530440882215
-0.00114754388799
-0.00515293202232
-0.00115649919752
-0.00500086565586
-0.00116323277889
-0.00484846616249
-0.00116786778787
-0.00469597538493
-0.00117052209056
-0.00454362151205
-0.00117130851772
-0.00439161993472
-0.00117033527048
-0.00424017395275
-0.00116770648286
-0.00408947536371
-0.00116352289278
-0.00393970484515
-0.00115788258317
-0.003791032223
-0.00115088177117
-0.00364361650755
-0.00114261556695
-0.00349760585779
-0.00113317872073
-0.00335313731865
-0.00112266624364
-0.00321033655976
-0.0011111739767
-0.00306931741473
-0.00109879895908
-0.0029301815107
-0.00108563973695
-0.00279301773472
-0.00107179642712
-0.00265790187634
-0.00105737074875
-0.00252489614093
-0.00104246579427
-0.00239404890586
-0.00102718582338
-0.0022653943708
-0.00101163580154
-0.00213895249033
-0.000995921027651
-0.0020147288143
-0.000980146523783
-0.0018927146202
-0.000964416574435
-0.00177288696144
-0.000948834051236
-0.00165520899211
-0.000933499929283
-0.00153963021576
-0.000918512616861
-0.00142608697646
-0.000903967495744
-0.00131450288545
-0.000889956309701
-0.00120478944528
-0.00087656676058
-0.00109684662493
-0.000863881997552
-0.000990563598394
-0.000851980295789
-0.000885819466983
-0.000840934683277
-0.000782484150973
-0.000830812729947
-0.000680419359212
-0.000821676327794
-0.000579479820762
-0.000813581566443
-0.000479514765049
-0.000806578518809
-0.000380369820907
-0.000800710213405
-0.000281890748428
-0.000795999981482
-0.000183951806511
-0.000792243352715
-8.69266586636e-05
-0.000785392939116
-0.000704098659588
-0.000466955792087
0.00372018860274
-0.000983317891666
0.00412020315721
-0.0014954191739
0.00409843302265
-0.00199685918357
0.00403106860637
-0.00248427985088
0.00394117783003
-0.00295490683204
0.00383202037746
-0.00340644965443
0.00370598807182
-0.0038371055325
0.00356555787122
-0.00424554310394
0.00341323574709
-0.00463086507862
0.00325145908745
-0.00499255630506
0.00308251782944
-0.00533042412084
0.00290849909742
-0.00564453689573
0.00273125465735
-0.00593516543848
0.00255238828807
-0.0062027303878
0.0023732591735
-0.00644775744719
0.0021949969528
-0.00667084105588
0.00201852442858
-0.00687261640401
0.00184458432109
-0.00705373895963
0.0016737673863
-0.00721487059172
0.00150653970894
-0.00735667099402
0.00134326791159
-0.00747979340513
0.00118424124492
-0.00758488335636
0.00102969027804
-0.00767257964308
0.000879801839162
-0.00774351643635
0.000734730503591
-0.00779832601777
0.000594606675486
-0.00783764131323
0.000459541929382
-0.00786209805613
0.000329631888007
-0.00787233606348
0.000204957479653
-0.00786899978603
8.55848320765e-05
-0.00785273756316
-2.84354673959e-05
-0.00782420148505
-0.000137068891688
-0.00778404496272
-0.000240298085663
-0.00773292087451
-0.000338123824303
-0.00767147914644
-0.000430565368933
-0.00760036431449
-0.00051766060641
-0.00752021289245