/*--------------------------------*- C++ -*----------------------------------*\
| =========                 |                                                 |
| \\      /  F ield         | OpenFOAM: The Open Source CFD Toolbox           |
|  \\    /   O peration     | Version:  v1906                                 |
|   \\  /    A nd           | Web:      www.OpenFOAM.com                      |
|    \\/     M anipulation  |                                                 |
\*---------------------------------------------------------------------------*/
FoamFile
{
    version     2.0;
    format      ascii;
    class       volScalarField;
    location    "901";
    object      p;
}
// * * * * * * * * * * * * * * * * * * * * * * * * * * * * * * * * * * * * * //

dimensions      [0 2 -2 0 0 0 0];


internalField   nonuniform List<scalar> 
9216
(
273.747496281
273.827252967
273.992287479
274.24400381
274.580982875
275.001636613
275.503998601
276.085757273
276.744302495
277.476757002
278.280023451
279.150813343
280.085693911
281.081112059
282.133438486
283.238984557
284.394042267
285.594893273
286.83784452
288.119229747
289.435441433
290.782925694
292.158211556
293.557900396
294.978693581
296.417377523
297.870850517
299.336104292
300.810250644
302.290500115
303.774188828
305.258754232
306.741762224
308.2208818
309.693911968
311.158753724
312.613437527
314.056093791
315.484980394
316.898451702
318.294986117
319.673153887
321.03164462
322.369234174
323.684812097
324.977347884
326.245918285
327.489673235
328.707863011
329.899804101
331.064906166
332.202638129
333.312554883
334.394263853
335.447451354
336.471849857
337.4672639
338.433538235
339.370583156
340.278343682
341.156824166
342.00605861
342.826134394
343.617163814
344.379306767
345.112743573
345.817696451
346.494403683
347.14313975
347.764190877
348.357873715
348.924512327
349.46445533
349.978054393
350.465679774
350.927700399
351.364497785
351.776447769
352.16393281
352.527325452
352.866999022
353.183312902
353.476621653
353.747262177
353.995561301
354.221824916
354.426344102
354.609386372
354.771200578
354.912010727
355.032020795
355.131413555
355.210361997
355.269059021
355.308065339
355.325081521
273.667791251
273.747910413
273.913288745
274.166007242
274.504421929
274.926870641
275.431341443
276.015486441
276.676658429
277.411945981
278.218215498
279.092146432
280.030272488
281.02901284
282.084709229
283.1936509
284.352106163
285.556340337
286.802641705
288.087332872
289.406791864
290.757457914
292.135848827
293.53856236
294.962290967
296.403819857
297.860040007
299.327943734
300.804636609
302.287331078
303.773357592
305.260156945
306.745290895
308.226432458
309.701376338
311.168028489
312.624415827
314.06867458
315.499059613
316.913931813
318.311767018
319.691142577
321.050745912
322.38936043
323.705873782
324.999263309
326.268604067
327.513054002
328.731861805
329.924352006
331.089932712
332.228080804
333.338349599
334.420354291
335.47377957
336.498365423
337.4939147
338.460279372
339.397368004
340.305132529
341.183575566
342.03273773
342.852704724
343.64359518
344.405567435
345.138807895
345.843537398
346.520000093
347.168469301
347.789236909
348.382618665
348.94894409
349.48856117
350.001826804
350.489110886
350.950787323
351.387237509
351.798841966
352.18598324
352.549038217
352.888380479
353.204373354
353.497371777
353.76771614
354.015733698
354.241733289
354.446006337
354.628822502
354.790430337
354.931053839
355.050892476
355.150117417
355.228866735
355.287223422
355.325110046
355.342100718
273.502014032
273.58328158
273.750192659
274.005216157
274.34667591
274.772865218
275.281710527
275.870796519
276.53740403
277.278549437
278.091026466
278.971445548
279.916273747
280.921869879
281.984519181
283.100461906
284.265921397
285.477125632
286.730328836
288.021826618
289.3479721
290.705185843
292.08996779
293.498903277
294.928672014
296.376051298
297.837922985
299.311274732
300.793205602
302.28092585
303.771761515
305.263153106
306.752659415
308.237955022
309.716833404
311.187203637
312.647092743
314.094641494
315.528106112
316.945853299
318.34636134
319.728214456
321.090103408
322.430819302
323.749253793
325.044392502
326.315314922
327.561187601
328.781263882
329.974876986
331.141439688
332.280437444
333.391428097
334.474035149
335.527947555
336.552913241
337.548739013
338.515284364
339.452461508
340.360229491
341.238594324
342.087603382
342.907345586
343.697946055
344.459566274
345.192398954
345.89666811
346.572624087
347.220543495
347.840724367
348.433485894
348.999163708
349.538109407
350.05068595
350.537266981
350.998232364
351.433967323
351.844858166
352.231291266
352.593649027
352.932308763
353.247638951
353.539998062
353.809731155
354.057168704
354.282623589
354.486389955
354.668740615
354.829925912
354.970171404
355.089676325
355.18861056
355.267110655
355.325268643
355.363049208
355.381056152
273.24713707
273.329691658
273.499000222
273.757628265
274.103838328
274.535848099
275.051490042
275.648244044
276.323279498
277.073499355
277.895584654
278.786037482
279.741222294
280.757403534
281.830780333
282.957516618
284.133768093
285.355704629
286.619530045
287.921497795
289.257924883
290.625202369
292.019804967
293.438297869
294.877343397
296.333705351
297.804253732
299.285967433
300.775937666
302.271369475
303.769584196
305.268019948
306.764233323
308.25589914
309.740811207
311.216881163
312.682138539
314.134728798
315.572912665
316.995063426
318.399665596
319.785311577
321.150699766
322.494630696
323.816004709
325.113817714
326.387158569
327.635204602
328.857218832
330.0525454
331.220606748
332.360899094
333.472989675
334.556512364
335.611165061
336.636705521
337.632948949
338.599764074
339.537070952
340.444837302
341.323076491
342.1718441
342.991236048
343.781385332
344.542460231
345.274661153
345.978218856
346.65339134
347.300462021
347.91973663
348.511541299
349.076219443
349.614129736
350.125642983
350.611139995
351.071008468
351.505640791
351.91543097
352.300772413
352.662054951
352.999662654
353.313971002
353.605344784
353.874135475
354.120679265
354.345294689
354.548280809
354.729915107
354.890451801
355.030119886
355.149121337
355.247629028
355.325784325
355.3836928
355.421346837
355.439535901
272.902079344
272.986282842
273.158880931
273.422462898
273.77519784
274.215192682
274.740147784
275.347396471
276.033953124
276.796563025
277.631751563
278.535871395
279.505146616
280.535712755
281.623652502
282.765026599
283.955900423
285.192366096
286.470561005
287.786682706
289.137001237
290.517868772
291.925727634
293.357116476
294.808675557
296.277150762
297.759397213
299.252381959
300.75318651
302.259008612
303.767163969
305.275087087
306.780332354
308.280574407
309.773608144
311.257348122
312.729827947
314.189198869
315.633728407
317.061798191
318.471901891
319.862642408
321.232729214
322.580975018
323.906292658
325.207691388
326.484273462
327.735230205
328.959838439
330.157456473
331.327520514
332.46954071
333.583097663
334.667838627
335.72347421
336.749774807
337.746567543
338.713732972
339.651202279
340.558954236
341.437012648
342.285443524
343.104352703
343.893883192
344.654212887
345.385552005
346.088140829
346.762247153
347.408163995
348.026206995
348.616712055
349.180032664
349.716537445
350.226607409
350.710633424
351.169013423
351.602149822
352.010446736
352.394307394
352.754131414
353.090312279
353.403234721
353.693272325
353.960785078
354.206117141
354.42959461
354.631523498
354.812187725
354.9718473
355.11073653
355.229062354
355.327002795
355.404705794
355.462287391
355.49975268
355.517927738
272.465058175
272.551353342
272.728187253
272.998156226
273.359300282
273.80957544
274.346505436
274.96722921
275.668556902
276.447027138
277.298962605
278.220522488
279.207750487
280.256617519
281.363058805
282.523005282
283.732409707
284.987267883
286.283635677
287.617642401
288.985501309
290.383517674
291.808095123
293.255740527
294.723067958
296.206801845
297.703779667
299.210954174
300.725395352
302.244292018
303.764953198
305.284808931
306.801411159
308.312434273
309.815674797
311.309050913
312.790601638
314.258485486
315.710978842
317.146473853
318.563476065
319.960601631
321.33657434
322.69022228
324.020474402
325.326356802
326.606988981
327.861579905
329.089424127
330.289897783
331.462454723
332.606622584
333.721999054
334.808248135
335.86509664
336.892330725
337.889792672
338.85737772
339.795031158
340.702745446
341.580557574
342.428546434
343.246830381
344.03556477
344.794939636
345.525177304
346.226530096
346.899277931
347.543725984
348.16020221
348.749054906
349.310650133
349.845369157
350.353605771
350.835763643
351.292253557
351.723490706
352.12989192
352.511872949
352.869845735
353.204215763
353.515379436
353.803721559
354.069612869
354.313407713
354.53544179
354.736030047
354.915464678
355.074013284
355.211917137
355.329389644
355.426615192
355.503748202
355.560911657
355.598116977
355.616192009
271.933796365
272.022682383
272.204780713
272.482687942
272.854275143
273.317301076
273.86906066
274.506442842
275.225996963
276.023999655
276.896518627
277.839471654
278.848679336
279.919910818
281.048922325
282.231488732
283.463428806
284.74062485
286.059037678
287.414717751
288.803813335
290.222576403
291.667366914
293.134655973
294.621028279
296.123184114
297.637941091
299.162235722
300.693124888
302.227787143
303.76352384
305.29775987
306.828044493
308.352051913
309.86758079
311.372553801
312.865016693
314.34313691
315.805201802
317.249616422
318.67490096
320.079687826
321.462718432
322.822839708
324.159000408
325.470247233
326.755720834
328.014651724
329.246356154
330.450231984
331.625754597
332.772472878
333.890005305
334.978036158
336.036311893
337.064637669
338.062874058
339.030933934
339.968779532
340.876419671
341.753907133
342.60133616
343.418840062
344.206588896
344.964787196
345.693671722
346.393509204
347.064594061
347.707246066
348.32180796
348.908642982
349.468132341
350.000672602
350.506673012
350.986552764
351.44073822
351.869660106
352.273750682
352.653440935
353.009157785
353.341321332
353.650342171
353.936618774
354.200534968
354.44245752
354.662733836
354.861689793
355.039627711
355.196824482
355.333529887
355.44996511
355.546321553
355.622760108
355.679409496
355.716285024
355.734208421
271.305471319
271.397505876
271.586004369
271.873556194
272.257816113
272.736290193
273.305982159
273.963465131
274.704961615
275.526422762
276.423602491
277.39212448
278.427540453
279.525379134
280.681185992
281.890554407
283.14914928
284.452724251
285.797133757
287.17834109
288.592423508
290.035575299
291.504109532
292.99445906
294.503177196
296.026938334
297.562538661
299.106897022
300.65705591
302.210182524
303.76356958
305.314636279
306.860929036
308.400121922
309.930016297
311.448540281
312.953747757
314.443816889
315.917048209
317.371862242
318.806796756
320.220503621
321.611745365
322.979391445
324.3224143
325.639885218
326.930970095
328.194925095
329.431092304
330.638895373
331.817835245
332.967485948
334.087490541
335.177557201
336.237455502
337.267012883
338.266111338
339.234684295
340.172713728
341.080227433
341.957296498
342.804032902
343.620587246
344.407146549
345.163932113
345.891197377
346.589225781
347.25832856
347.898842493
348.511127549
349.09556446
349.652552176
350.182505243
350.685851079
351.16302719
351.614478308
352.040653511
352.442003298
352.818976684
353.172018304
353.501565566
353.808045858
354.091873842
354.353448842
354.593152341
354.811345613
355.008367485
355.184532268
355.34012785
355.475413983
355.590620775
355.685947617
355.761562136
355.817598231
355.854075462
355.871807888
270.576652738
270.672463861
270.868635248
271.167737138
271.567149589
272.064057806
272.655098266
273.336448998
274.10392744
274.953085487
275.879296489
276.877831767
277.943925102
279.072824848
280.259834281
281.500341387
282.7898397
284.123941873
285.498387683
286.909047949
288.351925711
289.823155716
291.319003068
292.835861652
294.37025277
295.918824222
297.47834994
299.045730147
300.617991955
302.19229024
303.765908293
305.336259022
306.900885768
308.457462643
310.003794271
311.537815246
313.057589067
314.561306563
316.047283809
317.513959577
318.959892339
320.38375688
321.784340566
323.16053933
324.511353412
325.83588294
327.133323369
328.402960874
329.644167705
330.856397593
332.039181219
333.192121819
334.314890931
335.407224352
336.468918295
337.499825802
338.499853389
339.468957952
340.407143912
341.314460588
342.190999769
343.036893459
343.852311745
344.637460768
345.392580728
346.117943903
346.813852633
347.480637238
348.118653841
348.728282083
349.309922715
349.863995058
350.390934348
350.891188965
351.365217568
351.813486151
352.236465047
352.634625902
353.008438645
353.358368473
353.68487288
353.988398755
354.269379555
354.528232592
354.765356435
354.981128445
355.175902477
355.350006728
355.503741783
355.63737887
355.751158322
355.845288288
355.919943806
355.975264688
356.011275013
356.028780728
269.743226935
269.84353095
270.04882253
270.36163366
270.778995919
271.297688049
271.913884904
272.623272573
273.421169562
274.302641964
275.262606232
276.295916807
277.397437195
278.562094708
279.78492024
281.061075152
282.385867649
283.754761073
285.163376324
286.607490357
288.083032337
289.586078707
291.112848104
292.659696788
294.223114967
295.799724247
297.386276188
298.979651863
300.576862199
302.175048852
303.771484845
305.363576134
306.948862734
308.525018915
310.089853152
311.641307593
313.17745695
314.696506798
316.196791328
317.676770548
319.135027026
320.570262188
321.981292258
323.367043885
324.726549542
326.05894273
327.363453085
328.63940141
329.886194721
331.103321338
332.290346083
333.44690563
334.572704049
335.667508579
336.731145675
337.763497318
338.764497652
339.734129891
340.672423543
341.579451876
342.455329651
343.300211022
344.114287616
344.897786685
345.650969323
346.374128664
347.067588039
347.731699025
348.366839381
348.973410825
349.55183666
350.102559233
350.626037235
351.122742866
351.593158876
352.037775506
352.457087366
352.851590275
353.221778079
353.568139502
353.891155026
354.191293854
354.46901095
354.724744204
354.958911722
355.171909259
355.364107824
355.535851459
355.687455216
355.819203326
355.93134759
356.024106169
356.0976623
356.152162032
356.187635335
356.204879481
268.800301668
268.905927411
269.122009379
269.451011842
269.889523002
270.433805773
271.079454555
271.821543618
272.654778806
273.573638138
274.572493702
275.645711819
276.787730598
277.993116015
279.256599143
280.573097783
281.93772603
283.345795061
284.792808074
286.274451742
287.786586104
289.32523426
290.886572898
292.466924298
294.062750163
295.670647395
297.287345696
298.909706738
300.534724498
302.1595264
303.781374189
305.397666033
307.005938239
308.603865258
310.189259978
311.760073238
313.314392668
314.850440862
316.366572908
317.861273327
319.333152473
320.780942477
322.203492777
323.59976535
324.968829671
326.309857518
327.62211765
328.904970457
330.157862612
331.380321822
332.571951689
333.732426777
334.861487899
335.958937702
337.024636543
338.058498732
339.060489112
340.030620016
340.968948555
341.875574246
342.750636907
343.594314797
344.406822918
345.188411442
345.939364158
346.659996918
347.350655988
348.011716278
348.643579398
349.246671523
349.821441045
350.368356027
350.887901446
351.380576276
351.846890403
352.287361431
352.702511406
353.092863482
353.458938574
353.801252038
354.120310382
354.416608067
354.690624399
354.94282055
355.173636717
355.383489437
355.572769095
355.741837601
355.89102628
356.020633994
356.130925469
356.222129842
356.294439576
356.348008173
356.38287191
356.399818633
267.742084718
267.854005688
268.082834141
268.430922321
268.894290909
269.468545232
270.148547624
270.928610604
271.802688434
272.764549727
273.807922065
274.926605746
276.114556734
277.365941688
278.675169412
280.036903852
281.446063557
282.897812098
284.387543102
285.910862801
287.463572209
289.041650446
290.641240201
292.258635949
293.890275165
295.532732532
297.182716848
298.837070152
300.49276849
302.146923668
303.796784785
305.439741071
307.073324487
308.695209528
310.303214004
311.895298617
313.46956576
315.024257518
316.557752944
318.068564662
319.555334879
321.016830873
322.451940082
323.859664819
325.239116768
326.589511281
327.910161594
329.200473005
330.459937105
331.688126095
332.884687294
334.049337848
335.181859739
336.282095115
337.349942013
338.385350469
339.38831909
340.358892025
341.297156388
342.203240043
343.077309751
343.919569572
344.730259492
345.509654146
346.258061598
346.975822067
347.663306539
348.3209152
348.949075653
349.548240866
350.118886873
350.66151019
351.176625007
351.664760131
352.126455775
352.562260177
352.972726137
353.358407479
353.719855511
354.057615489
354.372223147
354.664201302
354.934056575
355.182276253
355.409325293
355.615643519
355.80164299
355.967705594
356.114180842
356.241383888
356.34959377
356.439052066
356.509961448
356.562483321
356.596661726
356.613274097
266.56172799
266.68110522
266.925005654
267.295603376
267.788186708
268.397517076
269.117529115
269.941584355
270.862714857
271.873835716
272.967916094
274.138106561
275.3778249
276.680805816
278.041121763
279.453182369
280.911719432
282.411763255
283.948614918
285.517817724
287.115130158
288.736501794
290.378053095
292.03605955
293.706940298
295.387251035
297.073680679
298.763051058
300.452318689
302.138577653
303.819062344
305.491151541
307.152371753
308.800397149
310.43305088
312.048304741
313.644277882
315.219234609
316.771581336
318.299862778
319.802757482
321.279072805
322.727739426
324.147805517
325.538430645
326.898879519
328.228515655
329.526795028
330.793259798
332.027532167
333.22930843
334.398353308
335.534494597
336.637618238
337.707663805
338.744620518
339.74852375
340.719452076
341.657524814
342.562900064
343.435773123
344.276375265
345.084972729
345.86186587
346.607388307
347.32190603
348.005816316
348.659546425
349.28355199
349.878315087
350.44434195
350.982160373
351.492316777
351.975373029
352.431903019
352.862489083
353.267718289
353.648178677
354.004455459
354.337127265
354.646762432
354.933915407
355.199123265
355.442902381
355.665745285
355.868117692
356.050455757
356.213163543
356.35661071
356.481130481
356.587017815
356.674527807
356.743874501
356.795228573
356.828642141
356.844881146
265.251125596
265.379365838
265.641145355
266.038361842
266.565348876
267.215775998
267.982395036
268.857375958
269.832618366
270.900013177
272.051643139
273.279922007
274.577678019
275.938191439
277.355197395
278.822864956
280.335761828
281.888812111
283.477252398
285.09658984
286.742564315
288.411116011
290.09835903
291.800561343
293.514131004
295.235608247
296.961662668
298.68909434
300.414837568
302.135965101
303.84969387
305.553390206
307.244573158
308.920915977
310.580247492
312.220551874
313.839967239
315.43678316
317.009437212
318.556510654
320.076723397
321.568928337
323.032105228
324.46535417
325.867888861
327.239029692
328.578196791
329.884903072
331.158747403
332.399407904
333.606635519
334.780247861
335.920123486
337.026196599
338.09845232
339.136922524
340.141682319
341.112847155
342.050570557
342.95504243
343.826487876
344.665166392
345.47137137
346.245429731
346.987701585
347.698579775
348.378489196
349.027885788
349.647255157
350.237110752
350.797991621
351.330459733
351.835096929
352.312501528
352.763284676
353.188066491
353.587472074
353.962127452
354.3126555
354.639671909
354.94378122
355.225572977
355.485618024
355.724464977
355.942636883
356.1406281
356.318901402
356.477885322
356.617971756
356.739513801
356.842823846
356.928172117
356.995785104
357.04584318
357.078408075
357.094232972
263.800649886
263.93948566
264.222586466
264.651426937
265.219081345
265.917793103
266.738795488
267.672759302
268.71019248
269.841761141
271.058521055
272.352063449
273.714586971
275.138912186
276.618455776
278.147179935
279.719529412
281.330365234
282.974901038
284.648645408
286.347351968
288.066977889
289.803651049
291.553645818
293.313367288
295.079343346
296.848223476
298.616782607
300.381928109
302.140706503
303.890312841
305.628097642
307.351570242
309.058401968
310.746427549
312.413644933
314.058213678
315.678452071
317.272833145
318.839979742
320.378658764
321.887774779
323.366363093
324.813582479
326.228707652
327.611121634
328.960308088
330.27584371
331.557390735
332.804689646
334.01755214
335.195854466
336.339531189
337.448569521
338.523004265
339.562913482
340.568414904
341.539663137
342.476847615
343.380191272
344.249949822
345.086411533
345.88989733
346.660761079
347.399389857
348.106204066
348.781657227
349.426235365
350.040455867
350.624865806
351.180039697
351.706576738
352.20509755
352.676240549
353.12065797
353.539011688
353.931968879
354.300197616
354.644362467
354.965120133
355.263115197
355.538975995
355.793310665
356.026703388
356.239710847
356.43285893
356.606639678
356.761508503
356.897881669
357.016134074
357.116597286
357.199557806
357.265255812
357.313882845
357.345510493
357.360877873
262.19880209
262.350404224
262.659116879
263.125771323
263.741758601
264.497440155
265.382085141
266.384470492
267.493393792
268.698063909
269.988361091
271.354978418
272.789466666
274.284209118
275.832351909
277.427711382
279.064674354
280.738101775
282.443241658
284.175653866
285.931147276
287.705728972
289.495564933
291.29695191
293.106300256
294.920127122
296.735058495
298.547837696
300.355337395
302.154570692
303.942704297
305.717068276
307.475159425
309.214645762
310.93336809
312.629339722
314.300744521
315.945933456
317.563419942
319.15187412
320.710116277
322.237109535
323.731952024
325.193868683
326.62220287
328.016407887
329.376038538
330.700742767
331.990253467
333.244380483
334.463002929
335.64606188
336.793553583
337.905523278
338.982059789
340.023290932
341.029379876
342.000522429
342.936945295
343.838905177
344.70668867
345.540612736
346.341025602
347.108307833
347.842873398
348.54517048
349.215681877
349.854924829
350.463450193
351.041840892
351.590709672
352.110696174
352.602463433
353.066693894
353.504085055
353.915344858
354.301186941
354.662325818
354.999472088
355.313327715
355.604581433
355.873904316
356.121945546
356.349328399
356.556646489
356.744460275
356.913293844
357.063631997
357.19591763
357.310549392
357.407879643
357.488212894
357.551804137
357.598856489
357.62945302
357.644317295
260.431743676
260.598882311
260.938647852
261.450892953
262.124726016
262.947997647
263.907417653
264.989361973
266.180528974
267.468407455
268.841555739
270.289718052
271.803816903
273.375863272
274.998821977
276.666461011
278.373204398
280.113999597
281.884204195
283.679492331
285.495779164
287.329161172
289.175870718
291.032244323
292.894704818
294.759757143
296.623995983
298.484121736
300.336960139
302.17948001
304.008811319
305.822257679
307.617299689
309.391600437
311.143007043
312.869550126
314.569441255
316.241068727
317.882992022
319.493935153
321.072779057
322.618553224
324.130426769
325.607699179
327.049790904
328.456233965
329.826662645
331.160804335
332.458470547
333.719548167
334.943990995
336.13181171
337.283074375
338.39788767
339.476398987
340.518789556
341.525270677
342.496081145
343.431485831
344.33177537
345.197266795
346.028304926
346.825264249
347.588551032
348.318605351
349.015902812
349.680955671
350.314313233
350.91656136
351.488321074
352.030246241
352.543020433
353.027353053
353.483974905
353.913633324
354.317087059
354.695100998
355.048440875
355.377868029
355.684134264
355.967976891
356.230113945
356.471239651
356.692020134
356.893089425
357.075045754
357.238448176
357.383813505
357.511613575
357.622272861
357.716166376
357.793617834
357.854898347
357.900224155
357.929690028
357.944002437
258.48265735
258.668938208
259.046784077
259.614551634
260.358204733
261.262206834
262.309909433
263.48463738
264.770521884
266.153046759
267.619323474
269.15814591
270.759889998
272.416322844
274.120374412
275.865909204
277.647520118
279.460354466
281.299973475
283.162241707
285.043240768
286.939202231
288.846456674
290.761398434
292.680467503
294.600149802
296.516993774
298.427638216
300.328842794
302.217516856
304.090743333
305.945791517
307.780121789
309.591390652
311.377452052
313.136356409
314.866347168
316.565855463
318.233493468
319.868046642
321.468464917
323.033853032
324.56346032
326.056670184
327.512989556
328.93203847
330.313539847
331.657309488
332.963246272
334.231322546
335.461574818
336.654094813
337.809021158
338.926531831
340.006837662
341.050177034
342.056811972
343.027025678
343.96112155
344.85942356
345.722277856
346.550055287
347.343154567
348.102005677
348.827073158
349.518858934
350.17790437
350.80479132
351.400142057
351.964617989
352.498917228
353.0037711
353.479939783
353.92820726
354.349375806
354.744260207
355.113681882
355.458463011
355.779420785
356.077361815
356.353076745
356.607335105
356.840880438
357.05442571
357.248649058
357.424189867
357.581645208
357.721566638
357.844457375
357.950769788
358.040903242
358.115202486
358.173955904
358.217393231
358.245622664
358.259331844
256.330859899
256.541079414
256.966262741
257.602456344
258.431220096
259.432398837
260.584911695
261.868204737
263.263292248
264.753366804
266.324024044
267.963193866
269.660885046
271.408841077
273.200180707
275.029069066
276.89044182
278.779787587
280.69298323
282.626171286
284.575667733
286.537890465
288.509303428
290.486376828
292.465568109
294.443328757
296.416134809
298.380533358
300.333189768
302.270933271
304.190786652
306.089976557
307.965939327
309.816323477
311.638990767
313.432014766
315.193676039
316.922455168
318.617024767
320.276240525
321.899130978
323.484886293
325.032846478
326.542489384
328.013418827
329.445353077
330.8381137
332.191614718
333.505851952
334.780892521
336.01686451
337.213946991
338.372360629
339.492359177
340.574222155
341.618249004
342.624754926
343.594068551
344.526531449
345.422499404
346.282345212
347.106462689
347.895271445
348.649221971
349.36880051
350.054533312
350.706989812
351.326784519
351.914577378
352.471072596
352.997015971
353.493190911
353.96041336
354.399525945
354.811391617
355.196887059
355.556896055
355.892302972
356.203986436
356.492813231
356.759632474
357.005270059
357.230523419
357.436156612
357.622895793
357.791425053
357.942382681
358.076357822
358.193887537
358.295454278
358.381483717
358.452342832
358.508338621
358.549715923
358.576596534
358.58964746
253.950543947
254.191240427
254.676219094
255.39790694
256.331589925
257.450755286
258.728450077
260.139202149
261.660288444
263.272365456
264.959558636
266.709168259
268.511164299
270.35761631
272.242156029
274.159524207
276.105218326
278.075235651
280.065894065
282.073708629
284.095302503
286.127335919
288.166445254
290.209194904
292.252053541
294.291409489
296.323622578
298.345100401
300.352374062
302.342164202
304.311418098
306.257314201
308.177262019
310.068901166
311.930102788
313.758968229
315.553821957
317.313201964
319.035850316
320.720703116
322.366878651
323.973664226
325.540502473
327.066977514
328.552801572
329.997802316
331.401910834
332.765150024
334.087623159
335.369502411
336.611017378
337.8124438
338.974092829
340.096301241
341.179423053
342.22382289
343.229871468
344.197943348
345.128417064
346.021677478
346.878120138
347.698157148
348.48222406
349.230787083
349.944350025
350.623460318
351.268713647
351.880756807
352.460288582
353.008058604
353.524864294
354.011546136
354.468981634
354.898078353
355.299766468
355.674991146
356.024705035
356.349861002
356.651405187
356.930270377
357.1873697
357.42359065
357.63978944
357.836785756
358.015357907
358.176238436
358.320110182
358.447602814
358.559289816
358.655685886
358.737244724
358.804357426
358.857350739
358.89648491
358.921897143
358.934231772
251.308949595
251.589288682
252.151226989
252.981411749
254.046040264
255.309788695
256.737921313
258.298772992
259.965230876
261.715291591
263.531867571
265.402103444
267.316479595
269.267918122
271.25101368
273.26143659
275.295507421
277.349916498
279.421551175
281.507391907
283.604441999
285.709664609
287.819914596
289.931871866
292.042001573
294.146579777
296.24177846
298.323790742
300.388953619
302.433844465
304.455322173
306.45051676
308.416811386
310.351836164
312.25347348
314.119859033
315.94937032
317.740612301
319.492406724
321.203781908
322.873958903
324.50233577
326.088471481
327.632069771
329.132963946
330.591103153
332.006539655
333.379416717
334.709956524
335.998447738
337.245232671
338.450694381
339.615244186
340.739310201
341.823327482
342.867730333
343.872947206
344.839398508
345.767497428
346.657653673
347.510279775
348.325799413
349.104656988
349.847327649
350.554326843
351.22621865
351.863622189
352.467215675
353.037737849
353.57598677
354.082816125
354.559129429
355.005872605
355.424025537
355.81459317
356.17859663
356.51706467
356.831025599
357.121499689
357.389492029
357.635985736
357.861935521
358.068261631
358.255844201
358.425518088
358.578068211
358.714225431
358.834662965
358.939993293
359.030765594
359.107463569
359.170503574
359.220233418
359.25693038
359.280747167
359.292303318
248.363629878
248.696890012
249.360060369
250.330344522
251.560571047
253.003183842
254.613180188
256.351198605
258.185139029
260.090475199
262.049531595
264.050148234
266.084183811
268.14617226
270.232268839
272.339505451
274.465315159
276.607263272
278.762918688
280.929803529
283.105367037
285.286942214
287.471664046
289.656361284
291.837470793
294.011075863
296.173043469
298.319231851
300.445697966
302.548836208
304.625413259
306.672526504
308.687539009
310.668068783
312.612009887
314.517542379
316.38310998
318.207395741
319.989312009
321.727992933
323.422777781
325.073191343
326.678924909
328.239816921
329.755835584
331.227064335
332.653688862
334.035984948
335.37430615
336.669070374
337.92074545
339.129834098
340.296859142
341.422349763
342.506829665
343.550807855
344.554772698
345.51918965
346.444502904
347.331140832
348.179524813
348.990080697
349.763251937
350.499513226
351.199383493
351.863437146
352.492312754
353.086718521
353.647434318
354.175310235
354.671261918
355.136263198
355.571336732
355.977543511
356.355972063
356.707727982
357.033924191
357.33567203
357.614073068
357.870211478
358.105146788
358.319906981