/*--------------------------------*- C++ -*----------------------------------*\
| =========                 |                                                 |
| \\      /  F ield         | OpenFOAM: The Open Source CFD Toolbox           |
|  \\    /   O peration     | Version:  v1906                                 |
|   \\  /    A nd           | Web:      www.OpenFOAM.com                      |
|    \\/     M anipulation  |                                                 |
\*---------------------------------------------------------------------------*/
FoamFile
{
    version     2.0;
    format      ascii;
    class       volScalarField;
    location    "1";
    object      pa;
}
// * * * * * * * * * * * * * * * * * * * * * * * * * * * * * * * * * * * * * //

dimensions      [0 2 -2 0 0 0 0];


internalField   nonuniform List<scalar> 
24444
(
3.97699049406
-0.883168770629
-1.55998477673
-0.594550787432
-0.591681343031
-1.5412986137
-2.37588155111
4.88816850565
-3.68586336469
-6.86838470155
-1.6667971334
1.94374913313
1.93772104935
-1.10640900177
0.0530896446363
3.24507437999
-3.16145436044
-2.02912923342
-0.273191782561
-0.243677010698
-3.55081540927
5.03476791029
5.30482192946
-0.952200560131
-0.958796291238
-3.6115601574
-3.59229593905
0.540076029428
0.507636360346
-1.36267036796
-5.0819797791
-3.24389493614
-1.53274497873
-5.51178484404
-2.88322108344
-1.34084746971
-0.700524272334
-0.815205050042
-4.2285489227
1.63205059218
-4.20332238852
1.67712058139
-1.82561969212
-1.81887920306
-5.0358983995
-0.74386662182
-0.480696333064
-2.01651080586
-2.6125677246
-1.91905545397
1.25623932584
-0.250422453036
-1.89917033905
0.0236688911582
-1.59759380557
-0.986233104778
-0.390123676337
-2.79466040557
-5.62426705521
-1.38237452557
-1.36600689458
-1.37050384754
-1.71802255278
-1.74137694811
-1.27026651519
-1.64796738243
-1.20590562583
-1.92840369869
-0.733863945546
-2.04525927215
-2.0586996086
1.31286391604
-4.7938476698
-0.653633701027
-1.91229490507
-1.11591465832
-2.55666950292
-1.74577437321
0.443442256697
-1.59814731422
-2.0626067812
-6.85112339155
-2.35138304683
-1.49175034434
-0.0109389656412
0.703867421373
4.69129037251
-0.91315802471
-3.76388101095
-0.909050269971
-1.09710412787
0.0619007665411
3.66183142191
-3.18647755803
-0.232960491978
-1.36877070454
-2.569873465
-0.0437418653107
-1.02973177564
-1.34331065005
-0.919784711586
-0.521479085742
-0.520636917932
-2.55029507799
-2.00805590538
-4.45019292896
-4.45954821815
-1.80973110159
-1.80751317849
-0.908964113465
-1.54624040309
-0.810718320921
0.689684376624
-0.983196090605
-1.37214595177
-2.69083943467
-0.0400625843719
-6.69534137798
-6.64020506274
-0.462736300505
-0.46560060387
-2.0450823088
-2.04277340705
-1.71932445736
-1.71863292065
-1.8365086173
-4.53499679961
-0.486133815549
-2.02905736844
-2.96314896836
-0.837069498539
-2.04884120976
-2.10246751053
1.19748648394
1.17373491367
-3.55606285092
-3.5165589131
-2.61400515666
-1.93982190052
-0.620397603405
3.43359886897
-0.924039531022
-3.67836633781
0.817649585405
-2.0508802864
-1.04195601868
-2.09262795054
-1.92877050355
-0.115293242757
-1.21895684935
-1.35451961645
-0.899095327759
-0.718321222318
-2.16217256546
-0.250114879061
-2.47578180454
-2.47042470849
-0.776980599834
-0.794081329664
-0.0775556571926
-0.0377666159587
-1.60992252011
-2.05130553624
-0.166724426706
-1.2378691037
-2.26400669162
-2.70189056935
-2.21070502874
-2.1699721216
-1.75677120876
-2.62677552512
-1.96960317007
-1.9464733223
-4.75033583609
-4.72920355933
1.15019240254
1.18500373833
-1.93039587548
-1.92333521285
-0.64387898118
-0.636694315467
-4.57608855442
-1.86202679093
0.0582481231114
-1.1233820959
-0.722572086721
-1.90720236465
-1.91096548767
-0.1184072888
-2.34992420947
-2.34024826641
-1.93466088472
-0.624813020629
-0.31978935787
-1.66224893422
-1.63759482639
-0.880751494829
-1.04678897354
-1.26755159129
-0.415685644197
-1.69085233173
-0.324795078777
-1.21139468901
5.67648832624
-3.59059557965
0.390607858752
0.427440312182
-3.04855468583
-3.0647175926
-0.548841270452
-0.382743598286
-2.11564724605
-1.86286279874
-2.37670931537
-1.18679433187
-1.55367394333
0.417206806798
-2.39638307708
4.88452669931
-3.70150478324
-6.36855753151
-2.08925186278
1.07045067778
-1.28970815706
-1.91548534557
-1.91708269222
0.551259983845
-1.29698862386
0.830244279795
0.784261224188
-3.32159484107
-3.28056666161
0.26593966362
0.289837270368
-0.641830983569
-5.17745559623
1.65178289435
-1.563244063
-1.10905429136
-1.3464800064
-5.05259685701
-1.75367593875
-0.810386764955
-4.22469185089
-1.92469599291
-2.34070750916
-0.906650225421
-1.96125713782
-0.906255743272
0.799309861434
-0.931510047518
-2.39095863078
-1.69761452982
-1.40892372483
-1.03858492576
-1.93759963898
-1.93977409862
-2.45979368477
-1.90168508519
-1.68515588238
-2.57023516348
0.577025797561
2.54115388081
-0.945096103319
-3.56022254223
-2.11009518022
-0.196862506691
-1.55699787199
-1.90717670107
-1.76540281295
-1.98767083321
-0.53663413575
1.29711894999
-4.83369847026
-0.647208635655
-1.91762827577
-0.600312473915
-4.74858859449
-1.7538420329
-1.7273587397
-5.58916534273
-5.60834809378
-3.55083046268
-1.87958940932
-4.92862261535
-0.678928413283
1.84652237128
0.386896844234
-1.84411890732
-1.79476025065
-1.81361065347
-4.46659363267
-4.37123821963
1.78127967852
-1.77353001821
-0.475524866329
-1.5695603446
-0.324967741808
-0.336719700808
-0.967287743454
-0.945640569331
-3.58273842258
-5.32329111793
-5.1093990135
-2.34532756434
-2.19245888578
-2.1987034352
-2.72162638737
-1.92852211443
-2.28418759413
-4.76916111383
-0.69605431526
-0.4342443341
-2.70940479836
-2.24959614708
-1.61228184977
0.669596152322
0.382199840503
-2.44217066498
-0.607478082418
-0.124167155992
3.53047735058
-0.920132910558
-3.69859187605
-1.06909430576
-1.63740475814
-1.22291963832
-0.835121456761
-0.840533838823
-0.291258661707
-0.316277111771
-0.724017246343
-1.61011124904
-2.27928964599
-4.56016673931
-4.54843239886
1.32189634075
1.35855878749
-1.88804509495
-1.89098147774
-1.5802368608
-2.47135249943
-3.81967158567
-1.20468844638
-1.65876431903
-1.05273746959
-1.04728527693
-1.42598448826
-1.95721877378
-1.95202302196
-0.738346308138
-1.26478996878
-3.98898540435
-1.9890200686
-0.725076598783
-1.96176811365
-0.15842315055
-6.16119881984
-2.01065082079
-1.69414719897
-3.06806940007
-3.02773520321
-0.398042586347
0.194855688229
-1.06423131505
0.175634410529
-1.05573517417
-1.64580004358
-1.76301650084
-0.60464027496
-0.592284427724
-1.5996827208
-1.97096249617
-0.830572297273
-1.12540434863
-1.4858991722
-1.75495996497
-0.326178153273
-0.344748285801
-1.18232528407
-1.18141421492
-0.814803314011
1.22905770262
2.92394748918
-1.9829081762
2.05966878944
-3.40631166826
-1.70633822603
-1.71040936804
-1.1135559695
-2.08928098973
-0.949040672818
-1.43054350745
-0.600257906901
-0.62470961631
-4.73795767349
-0.429142207823
-6.00091128084
-2.05169063152
-0.944311004656
-3.58923933871
-0.824688960756
-0.835472894016
1.14671199311
-1.11481674055
-3.37310252228
-1.38584745108
-1.41209482054
-1.40445953645
-0.683207363858
-0.676529014861
-0.496575705445
-6.33960951719
-2.05948448346
-2.05959791836
-1.84665717324
-1.54407455681
-1.26103454826
0.669172505053
-3.63733143062
-1.30478518999
-0.86659471865
-3.35408686562
-4.69302453278
-2.14398967611
-2.15419995611
-4.48039033441
-2.24207329107
-1.87388137542
-2.6100401553
-1.31965386808
-2.78843171189
-4.72641447655
-0.751720371873
-0.651379324364
-1.10923541389
-3.38299100074
-3.34746773594
1.20802362771
2.97225526471
2.17542462827
-0.751252476275
-2.20407669849
-1.18445104618
-1.1734833976
-0.69078077418
1.38936807186
-4.2136121684
-1.84543146926
0.629704655682
-2.44990960361
-1.00532834472
-0.167910818695
-0.969644451627
-0.976928716921
6.90694346501
6.58108258824
0.42296217366
0.385452738193
-3.55157019712
-3.57550338096
-0.735230764934
-0.116202317136
-1.99597911233
0.685846053488
0.676215404774
-3.19343328838
-2.03451035296
-1.33274933368
-2.13312584665
0.612079005791
-4.12354177418
-4.24307724722
-1.72711672248
-0.165208660325
-1.9031811743
-0.648686972285
-5.13848052476
1.69061910086
-0.8871941494
-1.23202926781
-1.52934449368
-2.16597421038
-2.18103213862
-0.764593223422
-5.96950039735
-1.89643267477
-1.91219468077
-1.94123885689
-1.93203304214
-1.77925415976
-0.0501790576866
-1.79174837571
-0.321183436404
-0.32794530393
-1.41889756688
-1.42895901808
-2.97240034836
-1.25866696431
-2.30674948026
-0.810350940422
0.951557045895
-2.38139424841
-1.78629557877
-2.07999722699
-0.863238088414
-3.31697638073
-1.35839191774
-0.892324096801
-3.08045902833
-1.82300146986
-2.14790697278
-5.58910099805
1.37753529042
-5.55996208743
1.39917476725
-0.58354702011
-0.587701830801
1.1053614475
1.14290464615
-4.40723850551
-4.38749142118
-1.90283342197
-1.89612249215
-0.350157407263
-1.39168973456
-2.05832075732
-1.59202626542
-0.450085229474
-1.3372943714
0.115717656752
-2.88644167376
0.92768941194
-0.999853848056
-2.2358360933
-0.645827802012
-5.15037205512
1.67134723204
-1.38036262533
-1.77921940114
-1.17850285702
-2.15599964651
-0.884065493597
-1.60139969746
-0.961300027
-2.25128757147
-6.90243526812
-2.05817556025
-0.441176355143
-1.70606226268
1.29645537329
-5.77387863348
-1.96964408061
-0.561901453655
-0.372775557858
-0.315238796467
-6.01452082105
-0.474073130484
-1.42110433095
-1.82083364892
-2.46506870898
-1.73520944802
-2.42529530332
-1.44215881963
-2.4313503573
-1.43975827974
1.30708488111
-3.79749985918
-7.02654883432
-2.06383786114
-0.431527482199
-1.70114779583
-1.59070520396
-1.15836451754
0.0762457368339
0.0687853619671
-0.441744355497
-1.89428604376
-2.0330743759
-2.02342664528
-5.28384181579
-2.39688185215
-1.46300321657
-0.00981651294261
-4.02922472872
-1.44421242559
-0.737732871467
-1.95117421785
-1.98946501347
2.63883909558
-3.54724680074
0.0366743372233
-0.444219156406
-1.78477974694
-0.642087639732
-2.13912176484
-0.456562466862
-1.12046302882
2.37570481717
-3.22625606148
-1.30445125192
-1.25421980959
-0.985081446255
-3.16106641659
-3.09305275274
-0.521833969154
-1.53897453163
-3.93174997993
-2.14821343668
-2.13978516435
2.38086234015
-3.91766659004
-0.850356966373
-1.83695490196
-1.80393733197
-2.42152765062
-1.08639949791
-0.953304927899
-0.920473175633
3.30882402201
-3.68579995583
-1.43650268505
-1.90241639147
-1.72275531367
0.775650172427
0.741426917516
-2.46508423428
-2.1654902673
-2.12900101818
-0.0623428433732
-0.698954406113
-1.12983313348
-2.41049283369
4.27325087085
4.0946067448
-2.77495637819
-2.58870459104
-0.826480257766
0.0209775840165
-0.943140193368
-0.542707261765
-0.534369330697
-0.886672155066
2.19090112846
2.08487480602
-3.38051506421
-3.38172666418
-2.08806824011
-0.837517047887
1.34319547813
-3.83044177362
-0.742267547864
-2.05589414681
-6.12322142802
-2.03535479164
-0.790256863948
-1.31113292345
-4.67347200077
-2.50466739848
-0.695982251241
-1.91954013758
0.58939805057
-0.917504469813
-0.0592381725418
-0.0582727599283
-2.65963865845
-2.66733148135
-1.30334483907
-1.30845854328
4.1205735454
-0.914569551787
-2.13112795678
-1.12859991549
-2.19832952095
1.0817574683
-2.14719089515
0.717165363263
1.12646383751
-3.70081072042
-0.123758433365
-0.569955917191
-0.825491280451
-1.30819889359
-0.717383300252
-4.22625258257
-1.23839934693
-2.56434850995
-2.61359217363
-1.93763027348
-2.06841510237
-0.481359438089
3.52181407931
-1.88863938855
-5.0136291166
1.79208897364
-2.9989315248
-1.31281561463
-0.323304850487
-1.93882012329
-0.745002524562
-4.23456914006
-0.607924337583
2.3337215818
-3.72517773724
-0.890957757875
-1.83184373736
-4.51024743942
0.0232230477162
-1.12010452571
0.0260210190632
-1.10801487926
-0.391101171555
-5.8633892867
-2.06402051839
-1.35245374068
-1.36586929338
-1.8855705783
-4.98785403123
1.81398532147
0.671456840109
-2.80487832814
-1.49093166783
-6.16504784997
-2.00869703149
-2.52050000524
-1.5613930605
2.72595640694
2.86645442945
-3.70544163921
-3.69819590165
-2.30827881873
-1.25768067662
-6.51254676324
-6.49583434924
-2.09942149924
-2.10802497063
3.557643441
-1.55871064254
-2.32615104401
-0.303090286639
-0.318745686718
-1.2521855973
-1.25841962016
-1.4027635271
-0.500282582342
-1.61862564492
1.0301785099
-2.38087940436
2.24959879741
-3.71286681043
-0.890887763517
0.353087805678
-0.813367531515
-1.2442476371
-1.45503438123
-1.03040907329
-5.76631012451
-1.56125390944
-3.38071865216
-3.25938088
-4.98586670909
-0.858297565331
-0.563857065573
-5.54601463314
1.38805396367
-0.588065137333
0.361477058616
0.932396568437
-1.02871631218
-1.29852602016
-2.00198377951
-0.016423160615
0.565062226486
-0.0936575671391
0.577302750788
-0.158749516155
0.0699449699341
-0.901544141708
-0.417662910299
-1.6738618763
-2.26035346639
-1.20947544977
0.333658468967
-4.08286084131
2.37452292656
-4.01322780009
-0.83083239388
-1.31365784416
-4.73330745674
-4.29971027722
1.34142478605
-1.86210308561
-2.35031665307
-1.35429166714
-1.34986428627
-1.62357499688
-1.50093363949
-1.63015845642
-1.13467972073
-1.09113573401
-1.57072601532
-1.58043494078
-0.915843679831
-3.82552462199
-0.554438109334
-0.91422893168
-2.68514150275
-0.520184723606
-1.84238091834
-1.85489299656
-5.74263336237
-5.70314266525
-0.0802229419655
-0.68946709304
-1.5768212163
-1.58487349986
2.31948013214
-1.09449169217
2.89027222315
-0.854569327012
-3.95505138334
-2.44507481981
-2.41704189969
-0.0436351052252
-0.0441817459889
-1.89586950939
-1.89911901896
-1.24932051379
-1.10266126549
-6.15741314273
-1.17325763243
-1.49267266166
0.0551772685605
-1.93738358701
-2.35433683538
0.495400366487
-1.68826888673
-0.603685079971
-2.8369862083
-4.79147414298
-0.847453445019
-1.86810565964
-1.28699688203
-0.951854598227
-0.938104267913
-0.366778765432
-1.34330397427
-1.87929922911
-1.88373449112
-0.834254975022
-1.78341674061
-1.77841244837
-1.7939725448
1.27125093805
1.33385070754
-3.59809139067
-3.59618722915
-1.11575195619
1.11727086819
1.12997882105
-1.90228398968
-0.64954348007
-5.12971120425
1.69295523718
-1.70757828771
0.0475273770344
0.0283905995293
-1.14611911874
-1.13539231433
-3.04539497439
-1.25773217869
-0.605611415476
-3.18357400588
-1.57413096249
-2.30636357347
-1.85199653314
-0.690664464146
-1.49978285334
-2.09276599594
-1.44606818783
-1.06135516432
-1.46334086521
-0.436368130212
-4.41038605112
-4.38764860335
-1.81609159049
-1.81166789375
-3.0571001441
-2.90305992188
-3.29756165243
0.28668072529
0.308045864868
4.09616693267
-3.76609464136
1.05993380196
-6.21489538249
-4.43747677653
-4.31038239826
1.62747277558
-3.23479952536
0.348830100072
-6.69779175673
-6.8154025531
2.95682309683
-3.71934887565
-0.906128236833
-1.96562260504
0.659414004665
-2.16006563148
-1.60520532059
-5.3378226888
1.51429159591
-3.93928042841
-0.819976284586
-2.06078556523
-0.987699375338
-1.82902829893
-2.15325141831
-2.57262594582
-0.0719150784784
-1.2661086484
-1.85744953108
0.517497856077
-1.49402724566
-2.21247049524
2.95340656597
-0.861381593127
-3.92716928902
-1.18004760514
-0.556333577574
-0.653433985311
-4.16646947085
-0.203807575762
-3.72502312705
-2.25380322596
-1.92961754162
1.06742405982
-4.55567026634
0.483975068365
2.30341061737
-0.743816305076
-2.69954644302
-0.912396746467
-1.30605922864
-1.79451554992
-2.87037785383
-1.12701001178
0.242537855954
0.201381748638
0.495966680595
-0.00957556569549
-2.31562585069
-2.56458038528
-1.36377844811
-0.65996863764
-1.43341746926
-2.96086284665
-1.43811207169
-2.90552447775
1.74483060927
-1.76976150283
-0.781058829327
5.70314099806
-3.60769923153
-4.59026072368
0.322553724464
0.906924858203
0.912133633233
-3.19598686548
-3.18291192636
-0.166416666766
-1.2436159808
-1.40529411685
-0.959861558259
-0.168281479233
-1.34890700501
-0.0237010694651
-2.94713893884
-2.63871055451
5.82818824309
-0.946842965225
0.536382869722
-3.65035167844
0.555736869608
-1.35404680902
-0.0292866023456
0.613681122524
0.601399183124
-0.467900611966
-2.68494203882
-2.65229038368
-4.36696041837
-1.37344455099
-0.13129892327
-1.22260747507
-1.48324012809
-3.12372206083
-2.28077030102
-1.4432184568
-1.56982094203
-1.58055391106
-1.6214675476
-0.92432416052
-0.953982041862
6.10703901253
0.499379334337
-3.62737771915
-1.83452456504
-1.33194743162
-1.46979478909
-0.62914453908
-1.65723258004
-0.471010171796
-1.85963260532
-0.877257515021
-0.899167194029
-1.72921160956
-0.889508082482
-0.0725575500585
-0.927996190638
-2.42606413729
-0.152887994408
-1.8562019376
-1.84124876363
-3.72602553587
-1.07189171132
-0.872112152243
-6.38292455714
0.780851536821
-4.81346587666
1.55015638128
-0.669995661885
-1.60143717877
-1.1894325472
-1.68330744605
-3.1337603528
-0.754130088154
-1.58060914063
-0.759663543479
-1.15198304038
-2.30558198076
-1.51822624927
-0.595247205267
-2.35241097365
-4.99655045201
1.68131103783
-0.661437415072
-0.324029412627
-0.338109507283
-0.341248553493
-1.41477577428
-1.41078007669
-1.41997241842
2.11381937527
-0.737168252359
-3.663005149
-1.77608499207
-0.79496781616
-4.56548850674
2.29633631169
-0.742379656848
-2.27440436248
1.04770292788
-1.67141505073
-2.04080350872
-0.170094054136
-0.613516556836
-1.8155549963
0.738038180297
-1.02259115299
-1.75079889932
-0.809629192581
-2.39127376377
-0.945019889338
-1.66485150448
-0.0794661331847
-2.26884175255
-1.54719335722
0.010082526209
-0.738118823414
-0.342979255787
-0.390387149541
-1.12717544645
-1.14012638166
-0.0803852006707
-2.36922148764
0.405713096955
-2.94258125331
-2.91372371071
0.273739683913
-1.04197692587
-1.55189554905
1.05741835654
1.09840303597
-3.84794267384
-3.84886289711
-3.55788216991
-1.81812424562
-1.63279195069
-5.51841253458
-2.17709929687
1.46550224058
-3.71694004138
-0.709310501596
0.193718246308
-1.08167428967
-2.10180083424
1.88887042462
-3.83872261403
-1.74914555947
-0.975521873445
2.32112564355
-1.7483105653
-4.2835902356
-2.50488901145
-2.51829508402
-1.38872455796
-1.38146709522
0.0800016413685
-1.82616943276
-1.82087689831
-1.931682064
-2.4899916761
-2.56040286573
-0.0316228899276
-1.36701745657
0.723320514365
-1.45414691246
-2.4288056352
-5.4138883891
-3.0112416453
-1.9687913694
-1.27612967256
-0.0843365978643
-1.77558144377
-2.27987925224
-2.27382454992
-2.28352186822
-5.30507626345
0.0845706035586
-3.45563809345
-0.0728978509585
-1.88435430596
-1.76128038983
-2.92573291203
-2.08644674405
-2.14429774758
1.90994627264
-2.4164971382
-2.39658036579
-0.976723511924
-2.49341062164
0.571049045934
-1.96094705791
-2.49205417066
-0.603391924
-0.0208410027308
1.51886147439
-3.21731889491
-0.702144533674
-0.728597240297
-2.10584970138
-1.67166844208
3.84177649255
-0.948141697351
-3.60305512336
-0.743858649285
2.14888427311
-0.741681177291
-4.21057691608
1.73076115655
-1.81581546109
-1.10996481242
-1.22550751108
-1.59759065319
-1.80890812415
-2.38933743604
-5.7953556746
1.27570330988
-1.97342281263
-0.55729169386
-2.47247823948
3.46956969431
-0.93910690636
-3.61879301391
-2.48483424551
-1.39950640141
-0.689491734488
-0.256876072866
2.47791927731
-0.610550455287
2.95311045358
-3.75302067181
-0.898851867068
-3.90432074384
-3.85919772258
-2.44228262951
-2.09137899241
-4.28122942905
-1.90856583171
-2.11825868596
-1.61123566177
-0.684614171813
-3.9316762221
1.36191795198
-3.33539840313
-1.00521585029
-1.00252488543
2.55327397115
-0.841559646215
-3.98377622956
-0.306178515497
-0.446495642749
3.44633590508
3.67140544636
-5.32834320183
-1.00508536959
-1.4161934746
-1.40566279808
-1.00966825756
0.0253543657126
-2.33661482553
-1.50077657673
0.0375084056552
-2.34818491343
-2.29089469413
-2.27599409126
-0.684207106905
-0.671288113528
-1.10636973297
-2.59332307064
-2.1799383465
-2.4230796779
-1.21808350167
-5.01406555979
-1.24882794975
-0.561229536434
-4.17791794655
-5.42327467005
-2.18692628924
-1.88540834779
-0.190386819174
0.465530456326
0.468744508246
-0.246682475018
-1.95107624317
-0.234202181265
-0.424426475662
-2.79329623932
-0.89308289892
-0.684890894152
-0.678604250374
-1.56678518189
-2.6943618663
1.9030326312
1.72851738373
-3.06996214017
-3.0442960542
-1.06257254945
-1.67476485341
0.556342154144
-0.646860938949
-0.0758634380419
-2.7963936829
-4.30357375156
1.29836972199
-1.86751184757
-0.429814105341
-0.432033600001
1.9998918141
0.974913818782
-0.943321729923
-1.41171005545
-0.954822627527
-1.55113031874
-0.283962720074
-0.265679433176
-1.17001417372
-1.16194840017
-0.628750920067
-0.625843084097
-2.12873022145
-1.76562206405
-0.23861961379
-5.96160303426
-1.95831842371
-2.5406806443
-2.06293281944
2.2754694033
-0.873229736911
1.76073745311
-1.78082731906
-0.327441456698
3.59928986872
-1.67655162271
-1.27428447339
0.806530258414
-0.857303445292
-0.450707193339
-0.864394108089
-0.880213245297
-0.874391101883
-1.6959130637
-0.274790252057
-0.290918670109
-2.00400108135
-2.20582927199
-1.47182677207
-0.821496581622
-1.3947197499
-1.38454149709
-1.84453913362
-0.00093831992704
-0.0152525566309
0.734350199625
-1.33796935054
-3.0033597765
-0.979546441103
-1.43263988695
-1.53599732494
-1.54637116628
-0.974943545347
-0.975706868027
-4.6339787101
-1.15870095394
1.53357860136
-5.31682049083
-2.5959793212
-1.77093540003
1.27916544661
-0.49289620971
-1.18963452875
-0.219564213491
-2.03990960538
-1.99775912572
-2.00312737019
-1.19733784996
-0.704811927656
2.0069162626
-1.68590610754
-1.23354950157
-2.41715783481
-5.69796900189
1.33233355982
-1.96278138956
-0.571214783543
-3.5135536521
-1.49505703345
-1.37962084971
-2.55968085363
-1.58088822999
-3.64369707975
-0.859496457885
-0.937025287471
-1.20099128779
-1.1942077942
-0.232811680701
-2.23687670891
-0.742010896155
-1.90090173554
-2.56308028464
-2.37538836518
-1.02547363356
-1.68923121139
-0.366087328883
-2.11209686548
-0.962324410336
-5.18358025008
1.6266270227
-0.639276315346
4.03358755063
-3.79183710987
-1.60678201386
-1.79307670757
-2.10978133218
-2.10877647302
-0.812463005193
-1.86919417934
-4.86976950609
1.94405335258
-0.758814011575
-0.753929154318
0.931283538211
4.7324402561
-3.74970475377
-7.0019800155
-1.39082140268
-0.79773705014
-0.91777740541
0.318626983762
-1.62912081614
-0.903787170177
-1.84272165577
-2.18830635982
0.179453736308
-2.06919820499
0.57157519856
-6.44954297382
-0.048432480295
-0.924112814307
-3.24712996886
-2.50822927652
-2.30930778814
-1.51586067279
-2.27776471044
-2.27083306241
-1.32547674279
-0.93873443425
-1.88013982192
-1.51554448824
-0.392224751585
-0.400118362777
-3.00740679406
-1.55163667949
-1.17248431581
-1.18838576658
-1.9625290317
-1.61564250762
-0.641050997901
0.375185429909
-0.678230438989
-0.539045779755
-1.57700520654
-1.91800479545
-3.1499808489
-1.98271194382
-0.543612884262
-0.805436022102
-1.76984476903
-4.24960495919
-1.88449142862
-2.13005835238
0.765856278245
1.86841337778
-3.870278212
-6.11492253391
-1.99456713869
-0.527139352483
-1.75919776063
0.459809222506
-1.7559906855
-1.16589642261
-0.630577316443
-0.0472774344516
-6.47469304273
-0.390442920347
4.32497521065
-0.220588992873
-0.370070402953
3.51737931241
-0.93393100858
-3.64188639388
-1.92254532436
-4.38837020061
-1.19280277448
-2.37393323521
-3.11425612826
-1.64474286987
-1.68544676778
2.20065518507
-3.35612432429
-1.31583145778
-0.26370551373
-0.989897495774
2.52020912555
-3.94914026581
-0.847548509331
-2.06026657094
-1.92611312339
-1.77009386864
-1.07232188249
-1.33813253926
-1.33688762967
1.89138815341
-3.26955717047
0.830787495195
-1.19417960778
-1.10531951001
-1.10405442453
0.013110387728
0.0117756787642
-1.15015558342
-1.14535584892
-0.199739804888
-4.24499690344
-1.78810963705
-1.51841706107
0.441907870482
-1.52109454329
-1.98775225062
-1.97755073758
0.600697021485
1.7369134111
-0.667449340933
-0.304630598448
2.38799004666
0.635255002451
-3.16249960746
-1.75888919447
-1.75412177902
-0.922025593079
-0.73393930407
-1.37287021669
-0.976246563214
-0.438810936193
-1.81005094992
-1.81891283713
-2.05802501291
-2.06594488789
-1.10606390869
-1.11327708981
-1.94383107244
-0.897605809761
-5.02041586502
-5.06570897621
1.64769572816
1.61738940789
-0.656545203125
-0.649730786674
-1.20143955218
-0.7010830894
-2.55769738
-1.30115603039
-3.50962810403
-1.81851282704
-0.0513279557753
-0.391335787361
-0.236202387245
1.06226218973
-3.25616596527
-1.68319279571
-0.588097720768
-2.9906326286
-0.21487764099
-0.826300255192
-3.67190016259
-1.73280500819
-1.73763264828
-1.97434619215
-0.638507684944
-0.630080525943
-1.33625602141
2.57295969114
-3.92079826712
-0.854594994066
0.253756897173
0.284018366036
1.14703577734
-2.16856372453
0.584533670667
-2.13944888252
-2.16033420018
-0.015955308888
-4.60036819932
-1.06283731878
-1.24359027527
-1.34200220779
-1.11464550212
-2.08360507215
-4.81585523256
1.87049309835
-0.69253199418
-2.10880469816
-2.05243105724
-1.57230333709
-1.83561486535
1.81518786495
-3.24098536064
-0.0312206595284
-1.44172590455
-4.26227606944
-2.43199527744
-1.97129820827
-2.77785584493
-0.806614286266
-2.27017238475
-1.62328584337
-2.26735922354
-4.51133625806
-0.219220020064
0.118254038558
2.42416958954
-4.02626620716
-0.829978945022
-5.7541513906
-2.0593190357
0.567795611602
0.567956909154
-7.04050951512
-0.31337992237
-0.478015641176
0.303728896216
-1.26648826515
-0.996317153285
-1.0291357493
-1.95727747454
-2.18428551591
-2.19366741148
-2.30416837505
-4.11761343008
-4.09531391241
-4.00725606871
-0.904308184461
1.29474959083
-3.16517826571
-3.35586607442
-1.51556371425
-4.74532824637
-2.40917137813
-0.0171104018998
-1.45540978668
-0.633640053994
3.44054473308
-1.57613606272
-3.36553626972
-0.738254989849
-1.9052996278
-1.66137216261
0.415397884812
-1.61708472073
-1.81805966478
-1.8251507687
0.690709979856
-0.916385473556
-0.00759042393387
-1.17379002701
-2.87128816022
-1.76466502107
-4.21575452051
-1.25071553548
-1.84902493935
-1.12232224619
-1.65270105657
-1.75450252175
1.6154426082
-4.26939612678
-1.83210506097
-4.16451811741
-0.698401460253
-1.54228851228
-1.54392856109
-0.505077420397
-0.127456084866
-0.114977082699
0.604491562591
0.57789434446
-0.132300746274
-4.84066262779
1.56194475016
-0.668840001411
-0.908185462877
-0.944952072273
-1.69673133716
-1.70831409548
2.10270663713
2.11883056155
-1.62433082909
-1.58740089768
1.00025399995
0.934494713149
-0.868379617117
3.73250349702
-0.478458017574
-0.514559075412
-1.74756050647
-2.31089667091
-1.63653759911
2.2949158589
-1.50009322559
-1.50529435067
-2.08972748266
1.07755557772
-0.930315045736
-2.11770853817
-1.88340454299
-0.933258791528
-1.63204124828
-1.33046145081
-1.3450970139
-1.10144715375
-2.67482562855
-2.6785854231
-4.90818740614
-3.30077735976
-2.08035451881
0.223479199236
-1.88535391862
-4.90845000761
-0.042077024229
-1.4573715038
-2.40492060801
-0.868512284174
-1.10136226791
-0.802129002905
-0.803793213309
-2.23024766824
0.179475070998
-1.0934566953
-1.10247213848
-1.62002425986
-2.60617703073
-2.55507132575
-0.0248895885821
-1.36903447404
-0.434126048547
-2.31020204721
-2.29901146245
-2.32766871492
-1.86353734967
-4.82699954339
1.99337794244
0.286481614413
-1.03881223921
-1.78273415383
-0.989154638811
-1.00472994165
3.10385225163
-3.32412249758
0.570414821641
-0.273807864066
-0.458168117628
-2.55368433942
1.87781683916
-0.661739019959
-2.92365412292
-1.46058684909
-2.38452260844
-1.23444200817
-3.8751612183
-2.05209664366
-1.22638620947
-0.12530064048
0.268436415338
-2.97885104596
-1.77347672802
-0.727806330451
-0.986338255081
-0.70920919462
2.02544308797
-1.10783055328
-1.56440008245
-0.200435545901
-0.648822601238
-3.35872143611
4.96666470404
5.09590962976
-3.63937179648
-3.6531423198
-1.67321288327
-0.96333368623
-3.54858708008
-1.6248147116
0.651693956513
-1.86620368856
-1.88093053126
-4.84775919157
-4.96386088518
-0.675815827102
-0.694012648278
1.85878888154
1.97179501386
1.16254656807
-3.73651093127
-2.33249860002
-4.88587036269
-1.88922916481
0.347027503573
0.962438895337
3.61595706504
-0.861848216529
-3.98348327316
-2.05513223328
0.589376508131
-2.04120435819
-2.00528416735
-0.806689813769
-6.15641772097
-0.523791429508
-1.99716418476
-1.75676894904
-1.17483770824
1.58778765585
-3.02935653699
-1.63015841988
-0.966429337015
-0.708389043635
2.02700156537
-0.625810985303
-5.27611330664
1.55989149605
-1.91406044517
4.38521782078
0.306314914745
-0.207634170448
-0.852920849578
-0.847797856275
-0.826885304932
-1.78363534303
1.85555126227
-4.96699311042
-1.88134153347
-0.694378902802
-0.675287573524
-2.3538381302
0.369530676796
-0.520593327134
-0.318638429924
-1.51738615186
-1.68861644643
-0.725205322563
-0.205506737665
-0.232282697266
-0.955768525466
-0.941792103653
-8.24520188088
-2.27922325837
-0.0647895302589
-1.54005733677
-7.23605955931
-2.08952051116
-0.95414638538
-0.891095764514
-2.99808657759
-0.91466975112
-0.752343767915
0.797709722793
-0.630092684369
-5.24582351044
1.57384818352
1.47061595445
-5.48316747487
-0.60055310303
2.45185890106
-1.94085923566
-0.759047158631
-4.48286830612
-1.81054692271
-1.94637279376
-0.712521344394
-1.18818424606
0.425298940367
-0.729977019744
-0.735596883341
-1.88044318885
-0.485106043756
-0.485349693319
-2.77567629296
-0.590247778853
-0.0383791960419
0.908716690945
2.15122599404
-3.44390253878
-1.92004266067
1.58511453401
-5.29585786261
-0.837663232765
-1.20732272305
-0.78031381903
-2.09811699362
-2.09397550536
0.759442201314
-2.17048878769
-6.86315648776
-3.53062740506
-0.785280903619
-3.08990601519
-2.17102913402
-0.0167302994567
-2.21767507786
-2.5667984136
-1.36222079362
-2.57868319356
1.23314367905
-3.14149132891
-0.263865974924
-0.196966897968
-1.65365356039
-1.66349086491
0.223728602845
-0.0563385953918
1.50825427505
-3.70256981926
-7.62833484993
-1.65682455087
-1.58262348053
2.43833490708
-4.11044662596
-0.813762590351
0.032454962646
-0.541619135632
-2.90629866698
0.372328144844
-1.64696552905
-1.93359014306
-2.43434129237
2.66699410729
-3.73352300777
-2.04950080231
-2.08518549796
-1.56815801918
-1.56486899393
-2.17226250173
-0.928213716827
0.436726313998
0.434050606891
-4.01488848386
-0.834089193614
2.49805071621
-1.42923852455
-1.49183938736
-1.74217327587
-2.03956990328
-2.05154225781
-0.816833343696
-0.194257997473
-1.14283414363
-0.366666183165
-1.43852689479
-0.19865267727
-2.97682730099
-2.72088161753
-2.44244735439
3.24464015266
-2.80518912903
-2.1900024514
2.68459837896
-1.74893998384
-4.86131921448
2.85384409199
-3.77008782465
-0.892334985515
-2.0496552237
-0.811630113598