/*--------------------------------*- C++ -*----------------------------------*\
| =========                 |                                                 |
| \\      /  F ield         | OpenFOAM: The Open Source CFD Toolbox           |
|  \\    /   O peration     | Version:  v1906                                 |
|   \\  /    A nd           | Web:      www.OpenFOAM.com                      |
|    \\/     M anipulation  |                                                 |
\*---------------------------------------------------------------------------*/
FoamFile
{
    version     2.0;
    format      ascii;
    class       surfaceScalarField;
    location    "725";
    object      phia;
}
// * * * * * * * * * * * * * * * * * * * * * * * * * * * * * * * * * * * * * //

dimensions      [0 3 -1 0 0 0 0];
oriented        oriented;


internalField   nonuniform List<scalar> 
18240
(
0.000851083601059
-0.00085122388922
0.00174427386357
-0.000893380133467
0.00263545044508
-0.000891307982714
0.0035193662067
-0.000884116618897
0.00439330361672
-0.000874053583013
0.0052545559885
-0.000861462342158
0.00610093303649
-0.000846478020781
0.00693002718771
-0.000829311377212
0.00773998780722
-0.000810046081415
0.00852867121714
-0.00078890590904
0.00929457205752
-0.000765970316847
0.0100358268601
-0.000741480691016
0.0107512796191
-0.000715506321321
0.0114393463215
-0.00068829415599
0.0120992009183
-0.000659892201565
0.0127295136716
-0.000630540027712
0.0133297456724
-0.000600254105751
0.01389877589
-0.000569255593855
0.0144362915541
-0.000537522512786
0.0149413201812
-0.000505250464646
0.0154137040109
-0.000472376154432
0.0158525540962
-0.000439066769208
0.0162577956376
-0.00040521982597
0.0166285616996
-0.000370976061429
0.0169647966017
-0.000336200128962
0.0172656067902
-0.000301011994086
0.0175309074787
-0.000265253602662
0.0177597483705
-0.000229033082076
0.0179519888982
-0.000192182398059
0.0181066169054
-0.000154809193274
0.0182234356535
-0.000116750656811
0.0183013917708
-7.81250315333e-05
0.0183402587025
-3.87905147458e-05
0.0183389969962
1.10623182174e-06
0.0182974137285
4.16664866382e-05
0.0182145697559
8.27028954943e-05
0.0180903974309
0.000124260299477
0.017924173203
0.00016609839428
0.0177160714144
0.000208192602804
0.01746571818
0.000250243432219
0.0171736583913
0.000292151211219
0.0168400063523
0.000333559321322
0.0164658010529
0.000374295320546
0.0160517714998
0.000413955449654
0.0155995550485
0.000452302974641
0.0151106000334
0.000488901749121
0.014587220112
0.000523460950087
0.0140316620575
0.000555527988011
0.0134469660987
0.000584768879198
0.0128362259209
0.000610734515151
0.0122032194684
0.000633067845943
0.0115518781062
0.000651359033116
0.010886652472
0.000665271779729
0.01021219406
0.000674495220907
0.00953344142217
0.000678779914224
0.00885551022853
0.000677978701282
0.00818352912219
0.000671986454471
0.0075227211295
0.000660854384379
0.00687805524228
0.000644647905489
0.00625447843288
0.000623611764647
0.00565646690689
0.000597972634048
0.00508833001913
0.00056815359789
0.00455367015069
0.000534605016797
0.00405560522189
0.000498059958382
0.00359613335336
0.000459407307835
0.00317627722597
0.000419833136975
0.00279576510087
0.00038044676836
0.00245346841336
0.000342263686365
0.00214744470482
0.000305965069687
0.00187538411866
0.000272024439824
0.00163467465182
0.000240660755345
0.0014226483237
0.000211990992821
0.00123661273629
0.000185996910722
0.00107397527869
0.000162605871923
0.000932278396755
0.000141667498494
0.000809232933276
0.000123019437629
0.000702727581478
0.000106483712447
0.00061080639758
9.19004402003e-05
0.000531689949516
7.9100198643e-05
0.000463764188552
6.79087234429e-05
0.00040561402341
5.81372316178e-05
0.000356008330642
4.95907961752e-05
0.000313969019718
4.20283479994e-05
0.000278906652266
3.50489251632e-05
0.000251378422799
2.75183525463e-05
0.000227689296533
2.36759929879e-05
0.00020548737311
2.21911776118e-05
0.000186070300865
1.94022548746e-05
0.00016714177051
1.89148087906e-05
0.000147070038293
2.00533846379e-05
0.000126866963785
2.0184336825e-05
0.000106555118659
2.02887210048e-05
8.40756551507e-05
2.24529328117e-05
5.78340747277e-05
2.62124275852e-05
2.80224294278e-05
2.97809758675e-05
2.80060839126e-05
0.000898570245872
-0.00174995186816
0.00185265849746
-0.00184764817207
0.00280154236158
-0.00184035346079
0.0037418286623
-0.00182458248824
0.00467107812859
-0.00180345934488
0.00558671217533
-0.00177727547116
0.00648634010919
-0.0017462559303
0.00736754983098
-0.00171069860998
0.00822823249009
-0.00167087116333
0.00906626875281
-0.00162711670439
0.00987989147498
-0.00157972697833
0.0106673071928
-0.00152906667742
0.0114271026254
-0.00147542635699
0.0121578086931
-0.00141916506398
0.0128583474923
-0.00136054570676
0.0135275446855
-0.00129989559477
0.0141646132137
-0.00123742687711
0.0147686207221
-0.00117341404719
0.0153390066263
-0.00110800187039
0.0158750122061
-0.00104139870316
0.0163762280201
-0.000973674281151
0.0168419948081
-0.000904967139309
0.0172719781431
-0.000835274204716
0.0176655484404
-0.000764670176932
0.0180223793357
-0.000693090654281
0.0183418147111
-0.000620560802582
0.0186234864266
-0.000546973606305
0.0188666759748
-0.000472325165422
0.0190709465752
-0.00039649003442
0.0192355065642
-0.000319460390657
0.0193598513591
-0.000241121551307
0.0194431380838
-0.000161491352512
0.0194848289591
-8.04969637695e-05
0.0194840818697
1.78546874464e-06
0.0194403919612
8.53506656983e-05
0.0193530076042
0.000170031063183
0.0192215602752
0.000255710909519
0.0190455105707
0.000342103344532
0.0188247566918
0.000428957769003
0.0185591144433
0.000515852075745
0.0182488925289
0.000602391427355
0.0178944094122
0.000688019855259
0.0174965225007
0.000772206749438
0.0170561860411
0.000854280579757
0.0165749223505
0.000933596906012
0.016054428629
0.00100939615627
0.0154969797495
0.0010809455815
0.0149050958412
0.00114742529288
0.0142818657486
0.00120803937788
0.0136306851462
0.00126194069666
0.0129554830806
0.00130831278708
0.0122605292714
0.00134634838262
0.0115505382689
0.00137530452388
0.0108305349559
0.00139453960803
0.0101058213839
0.00140352903177
0.00938189869887
0.00140194077451
0.00866431907021
0.00138958858122
0.00795867268031
0.0013665294135
0.00727036352772
0.00133296093354
0.00660466271048
0.00128932373203
0.00596647403555
0.00123614494355
0.0053604372756
0.00117418158795
0.00479061874936
0.00110438876587
0.00426050507454
0.0010281444628
0.00377245509568
0.00094740849277
0.00332751428604
0.000864731325132
0.00292528025569
0.000782627182235
0.00256426685243
0.000703230689582
0.00224218583645
0.000627995551022
0.0019563580714
0.000557808099456
0.00170388321232
0.000493091416437
0.00148181403069
0.000434020697596
0.0012872205179
0.00038055339723
0.00111729338382
0.000332499714253
0.000969397659337
0.000289533781575
0.00084110309964
0.000251287798565
0.000730172718664
0.000217391616439
0.000634536103441
0.000187516695341
0.000552291404202
0.000161327351696
0.000481721922441
0.000138461824016
0.000421302347591
0.000118542400237
0.000369668202195
0.000101210804492
0.0003255656729
8.611826295e-05
0.000287654141433
7.29477713618e-05
0.000253567632842
6.15934254261e-05
0.000224033999299
5.3197723572e-05
0.000200159928391
4.60531997089e-05
0.000180242786816
3.93058388231e-05
0.00016209720935
3.70459838211e-05
0.000144019254414
3.81143099189e-05
0.000124553453345
3.96304690602e-05
0.000104286294858
4.05337095639e-05
8.2925133097e-05
4.37895449704e-05
5.83399920617e-05
5.07686405506e-05
2.85877782835e-05
5.95032242701e-05
5.65807377273e-05
0.000906794890051
-0.00265690877285
0.00186656621861
-0.00280759164306
0.00282216484756
-0.00279612278248
0.00376925233566
-0.0027718429071
0.00470511246969
-0.00273948634245
0.00562712382651
-0.00269945746035
0.00653280806925
-0.00265210250976
0.00741977761587
-0.00259783508283
0.00828584482922
-0.00253709514676
0.00912893771412
-0.00247037148621
0.00994721378333
-0.00239815308606
0.0107389498691
-0.00232095849802
0.0115026625163
-0.0022392814178
0.0122369750698
-0.00215362619541
0.0129407443208
-0.00206444886826
0.013612907439
-0.00197219928763
0.0142526149084
-0.00187725912697
0.0148590604114
-0.00177999135394
0.0154316204262
-0.00168067687467
0.0159696710203
-0.00157957168868
0.0164727353226
-0.00147684336358
0.0169402916122
-0.0013726358292
0.0173719296938
-0.00126700639034
0.0177671546932
-0.00115999713095
0.0181255531937
-0.001051572357
0.0184465964821
-0.000941695200067
0.0187298161784
-0.000830265327624
0.0189746101595
-0.000717199138592
0.0191804271306
-0.000602367825081
0.0193465782244
-0.000485680153095
0.0194724295113
-0.000367022400531
0.0195572221406
-0.000246341286001
0.0196002721638
-0.000123585536752
0.0196008029563
1.20863998129e-06
0.0195581505147
0.000127975256766
0.0194716103784
0.000256536095044
0.0193406459764
0.000386657532858
0.0191647507039
0.000517973976851
0.0189436540503
0.00065004607153
0.018677197297
0.000782294077001
0.0183655302212
0.000914058860936
0.0180089970632
0.00104454773018
0.0176083154341
0.00117289701386
0.0171644700957
0.00129813001609
0.0166788677615
0.00141921614014
0.0161532401686
0.00153503768367
0.0155897725985
0.00164443864913
0.0149910229673
0.00174619904158
0.0143600239584
0.00183907194641
0.0137002232704
0.00192177483123
0.0130155501955
0.00199302545804
0.0123103672677
0.00205157147455
0.0115894746245
0.00209623952272
0.0108580479279
0.00212600857424
0.0101215583005
0.00214005851442
0.00938569231067
0.00213784304598
0.00865621713163
0.00211909339623
0.0079389076257
0.00208386002708
0.00723938180153
0.00203249839421
0.00656305295281
0.00196565378441
0.00591503842632
0.00188414976035
0.00530022220154
0.00178897942673
0.00472308235671
0.00168149859356
0.00418767504064
0.00156351406283
0.00369685081205
0.00143818662126
0.00325165771
0.00130987667758
0.00285131924372
0.00118291472
0.00249373715942
0.00106076493246
0.00217605185498
0.000945633140285
0.00189514220403
0.000838674334134
0.00164782455027
0.000740366940881
0.00143094120536
0.000650865849009
0.00124139369607
0.000570064941769
0.0010762491995
0.00049761232237
0.000932810357411
0.000432943917779
0.000808645720064
0.000375427441763
0.000701536218789
0.000324479255987
0.000609411989652
0.000279621378385
0.000530340788744
0.000240381350261
0.000462596148703
0.000206190885649
0.0004046589329
0.000176465408138
0.000355185260972
0.000150670921353
0.000312966237717
0.000128324624187
0.000276866245534
0.000109035433033
0.000245534950343
9.29130791439e-05
0.000218075129476
8.06456126986e-05
0.000192731882582
7.13839810436e-05
0.000169298212895
6.27263892964e-05
0.000150211626173
5.61181341345e-05
0.000134555231698
5.37539076222e-05
0.000115523741039
5.86432936532e-05
9.34427507808e-05
6.25932268716e-05
7.09569010637e-05
6.62498679984e-05
4.69260804895e-05
7.47748653485e-05
2.38228753502e-05
8.25827519096e-05
8.03904960925e-05
0.000915233764265
-0.00357230600104
0.0018830058703
-0.00377554014792
0.00284669422112
-0.00375998349519
0.00380174241551
-0.00372706434566
0.00474529915967
-0.00368321297589
0.00567466989293
-0.00362899794301
0.00658730274188
-0.00356490141413
0.00748078274451
-0.00349148049374
0.00835287339886
-0.0034093466565
0.00920150200157
-0.00331915995286
0.0100247966943
-0.00322160228435
0.0108210585092
-0.00311737353663
0.0115887935842
-0.00300716361023
0.0123266726934
-0.00289165093456
0.0130335591296
-0.00277147421731
0.0137084571175
-0.00264723449764
0.0143505362681
-0.00251946821636
0.0149590709713
-0.00238865415813
0.0155334631941
-0.00225518947438
0.0160731758917
-0.0021194027687
0.0165777566443
-0.00198153437202
0.0170467686775
-0.00184175601629
0.0174798181132
-0.00170015556999
0.0178764860782
-0.00155676261937
0.0182363617005
-0.00141153684389
0.0185589778492
-0.00126439791628
0.018843850986
-0.00111521623485
0.0190904221926
-0.000963845731579
0.019298104271
-0.000810116394693
0.0194662294606
-0.000653869402193
0.0195941043216
-0.000494952444056
0.0196809657049
-0.000333255387448
0.01972604447
-0.00016870824869
0.0197285324359
-1.32084576737e-06
0.0196876553646
0.000168819309469
0.0196026520484
0.000341508739206
0.0194728559966
0.000516431025889
0.0192976860715
0.000693123572404
0.0190767332623
0.000870986146383
0.0188097592475
0.00104925751311
0.018496781523
0.00122703305219
0.0181380736078
0.00140325430934
0.0177342402036
0.00157673569299
0.0172862129627
0.00174616502313
0.0167953101102
0.00191013319891
0.0162632271515
0.00206713801201
0.0156920827949
0.00221560660692
0.0150844129536
0.00235389600563
0.0144432115611
0.00248030609887
0.0137719355747
0.00259308637224
0.0130745395813
0.0026904615054
0.0123554762209
0.00277067691806
0.0116196878897
0.00283207113783
0.0108725602083
0.00287318150348
0.0101198208715
0.0028928374582
0.00936744447613
0.00289026037436
0.00862149934347
0.00286506463953
0.00788807365461
0.00281731162136
0.00717305809332
0.00274752069107
0.00648207196548
0.00265664347088
0.00582042710783
0.00254578024728
0.00519336869621
0.00241601966386
0.00460591385257
0.00226892013484
0.00406334398963
0.00210604423097
0.00356952659131
0.0019319568597
0.00312552205389
0.00175383254261
0.00272975998294
0.0015786281885
0.00237898488068
0.00141149335704
0.00206931943101
0.00125525504398
0.00179696891305
0.00111098314903
0.00155838638581
0.000978911274345
0.00135014599492
0.000859069317071
0.0011689019226
0.000751276160385
0.00101152385375
0.000654959702305
0.000875238079858
0.000569203058901
0.000757651071364
0.000492991147834
0.000656623909129
0.000425485805027
0.000570097832117
0.000366129344153
0.000496069033266
0.00031439377681
0.000432794693526
0.0002694509885
0.000378795422449
0.000230451343248
0.000332786317543
0.00019666731429
0.000293657410288
0.000167441317121
0.000260450720574
0.000142230272853
0.000232418449528
0.000120933815754
0.000204963359298
0.000108088792797
0.000179906222525
9.64286968023e-05
0.0001579054028
8.47140955051e-05
0.000136423072768
7.7586520821e-05
0.000114954659133
7.52070296878e-05
9.88441994998e-05
7.47357629006e-05
7.81229126988e-05
8.32934596716e-05
5.4882077703e-05
8.94696941441e-05
3.56797748223e-05
9.39547188648e-05
1.83269115496e-05
9.99130315605e-05
9.87072979893e-05
0.000926146056009
-0.00449861776954
0.00190506569099
-0.00475463271916
0.00287974552858
-0.00473483916471
0.00384551333362
-0.00469300569121
0.00479940687113
-0.00463727883435
0.00573864227333
-0.00456840385587
0.00666058680436
-0.00448701413678
0.00756277077635
-0.00439383051608
0.00844290913951
-0.00428964801309
0.00929890708727
-0.00417531820833
0.0101288748126
-0.00405172663087
0.0109311229356
-0.00391977511544
0.011704169031
-0.00378035896497
0.012446723015
-0.00363435058192
0.0131576857424
-0.00348257795077
0.0138361252691
-0.00332581109194
0.0144812687044
-0.00316474368758
0.0150924711445
-0.0029999843843
0.0156692029567
-0.00283204369827
0.0162110143579
-0.00266133210031
0.0167175214913
-0.00248815379869
0.0171883704565
-0.00231271258341
0.0176232258192
-0.00213511266227
0.0180217377013
-0.00195537140167
0.0183835355991
-0.00177342560723
0.0187082007895
-0.00158914901272
0.0189952666738
-0.00140236184922
0.0192441973805
-0.0012128511391
0.0194543950033
-0.00102038246965
0.0196251850354
-0.000824722789229
0.0197558312738
-0.000625655746407
0.0198455294835
-0.000423005572886
0.0198934318994
-0.000216656415946
0.019898652082
-6.58174307222e-06
0.019860300789
0.000207135953382
0.019777503768
0.000424275994266
0.01964944965
0.000644461160041
0.0194754200788
0.000867133849479
0.0192548465283
0.00109154584096
0.0189873480352
0.00131674658078
0.0186727894807
0.00154158726262
0.0183113178731
0.00176472579965
0.0179034116207
0.0019846467064
0.0174499056139
0.00219968007035
0.0169520240583
0.00240802886785
0.0164113920384
0.00260778866741
0.0158300570014
0.00279696562888
0.0152105001042
0.00297348140796
0.0145556654991
0.00313517367613
0.013868991911
0.00327979740614
0.0131544568128
0.0034050366052
0.0124166135705
0.00350856342874
0.0116606002628
0.00358813029775
0.0108920938224
0.00364173180855
0.010117200714
0.00366777821166
0.00934228721537
0.00366520748334
0.00857386382241
0.00363352642015
0.00781845925819
0.00357273127219
0.00708238091252
0.00348361536333
0.00637141219923
0.00336760501652
0.00569095933878
0.0032262238764
0.00504662592304
0.0030603289105
0.0044438501984
0.0028716641605
0.00389051441587
0.0026593371971
0.00339267105988
0.00242975374568
0.00295130066092
0.00219515619425
0.00256321166084
0.00196667141741
0.00222301061713
0.0017516530167
0.00192513008232
0.00155309572661
0.00166490399193
0.00137117342168
0.00143849370099
0.00120528622876
0.00124223542771
0.00105529564113
0.00107241577954
0.000921065137478
0.000925587997085
0.0008017602877
0.000798879267372
0.000695887984018
0.000690040593403
0.000601808390193
0.000597159848836
0.000518348802698
0.000518208216317
0.000445063869375
0.000450969217359
0.000381618690098
0.000393656979961
0.000326750445714
0.000344887041601
0.00027920959593
0.000303456287742
0.000238086353188
0.000268351842463
0.000202534438669
0.000238671701205
0.000171899113433
0.000214047706874
0.000145546588354
0.000190129605259
0.000131995036619
0.000166533312439
0.000120012642132
0.000140712725286
0.000110522199629
0.00011702431079
0.000101261564185
9.52752022753e-05
9.69409632241e-05
7.77284446487e-05
9.22663957613e-05
6.28816037871e-05
9.81212295371e-05
4.35065096918e-05
0.000108822589225
2.63706767253e-05
0.000111071812824
1.32243297286e-05
0.000113041919941
0.000111921611634
0.000939843733724
-0.0054386281666
0.0019330316496
-0.00574800059486
0.00292173135738
-0.00572371495089
0.00390112515002
-0.00567257564964
0.0048681328062
-0.00560446022775
0.00581986050628
-0.00552030384026
0.00675358124253
-0.00542090475322
0.00766675114612
-0.00530716803517
0.00855702868583
-0.00518009017852
0.00942228496427
-0.00504073623252
0.0102606137747
-0.0048902136053
0.0110703319354
-0.00472964804507
0.0118499796825
-0.0045601573719
0.0125983108352
-0.0043828285784
0.0133142838276
-0.00419869324637
0.0139970423494
-0.0040087077301
0.0146458980207
-0.0038137325579
0.0152603032029
-0.00361451827659
0.0158398277159
-0.0034116917091
0.0163841271271
-0.00320575025783
0.0168929174848
-0.00299705744044
0.0173659436708
-0.00278584710218
0.0178029567974
-0.00257222847996
0.0182036869484
-0.0023561991256
0.0185678266228
-0.00213765706239
0.018895010133
-0.00191641906844
0.0191848041062
-0.00169223647297
0.0194366936204
-0.00146481597248
0.0196500793599
-0.00123383754559
0.0198242703398
-0.00099897771661
0.0199584884011
-0.000759931724194
0.0200518689656
-0.000516438648831
0.0201034755602
-0.000268309498828
0.0201123125772
-1.54599059433e-05
0.0200773531498
0.000242060153122
0.0199975669268
0.000504032197731
0.0198719633168
0.000770040472765
0.0196996344421
0.00103944344
0.0194798110886
0.00131135531991
0.0192119154954
0.00158463308466
0.0188956208166
0.0018578778812
0.0185309017013
0.00212944541887
0.0181180826167
0.00239747114168
0.0176578710776
0.00265990153764
0.0171513827449
0.00291453217633
0.0166001520751
0.00315903922476
0.0160061407286
0.00339100210555
0.015371746854
0.00360790445663
0.0146998344751
0.00380712117767
0.0139937788267
0.00398588864785
0.0132575535631
0.00414130486767
0.0124958024427
0.00427035748121
0.0117139071872
0.00437007124395
0.0109179530411
0.0044377375123
0.0101145548249
0.00447121638265
0.00931063945342
0.00446917227564
0.0085132276916
0.00443096133898
0.00772958517226
0.00435640266882
0.00696661222774
0.00424658998647
0.00623017581697
0.00410404304094
0.00552534358744
0.00393103832821
0.0048580128747
0.00372763991213
0.00423259785063
0.00349704573524
0.00366300827827
0.00322888456641
0.00316008790472
0.00293263032159
0.00272422717829
0.00263097211608
0.00234886317333
0.00234199594306
0.00202460292504
0.00207587603952
0.00174315835086
0.00183450757324
0.0014989660643
0.00161533374902
0.00128842334129
0.00141579970724
0.00110782023303
0.00123587003802
0.000952834624039
0.00107602458045
0.000819431219462
0.00093514063143
0.000704601091807
0.000810696599047
0.000606492495362
0.000699900370161
0.00052378313192
0.000601041584148
0.000454531768457
0.000514301675046
0.000395873911075
0.000440263692919
0.000345938913247
0.000376675227154
0.00030359906272
0.000321539029214
0.000267755163372
0.000273920020199
0.000237441748463
0.000232837365782
0.000211914495273
0.000197415728917
0.000187704782109
0.000169745500122
0.00016436966747
0.000155318711241
0.00014306043103
0.000141310351976
0.000123370726265
0.00013019948591
0.000101216888508
0.000123401888178
7.95315186917e-05
0.000118611818758
5.81391046174e-05
0.000113642834396
4.43407491737e-05
0.000111902143713
3.33986676583e-05
0.000119747560758
1.99745055275e-05
0.000124478120305
9.86432662851e-06
0.000123134755979
0.000121778383297
0.000956533640854
-0.00639533142557
0.00196719566875
-0.00675883891562
0.00297304836156
-0.00672974772561
0.00396909375269
-0.00666879826687
0.00495210083813
-0.00658764364453
0.00591904373429
-0.00648742081083
0.00686708037125
-0.00636911341311
0.00779357556746
-0.00623383261914
0.00869611933141
-0.00608280056064
0.00957254030114
-0.00591732057567
0.0104209137529
-0.00573874708026
0.0112395640931
-0.0055484546091
0.0120270620186
-0.00534780769855
0.0127822162195
-0.00513813090588
0.0135040597925
-0.00492068071781
0.0141918314858
-0.00469661865786
0.0148449521168
-0.00446698786166
0.0154629967934
-0.0042326926382
0.0160456638358
-0.0039944835903
0.0165927416641
-0.00375294768901
0.0171040751616
-0.00350850547405
0.0175795329786
-0.00326141402527
0.0180189773786
-0.00301177673957
0.0184222374679
-0.00275955750989
0.018789086776
-0.00250459928663
0.0191192247715
-0.00224664431021
0.0194122625856
-0.00198535603929
0.0196677116646
-0.0017203410595
0.0198849758571
-0.00145117216375
0.020063345831
-0.00117741230148
0.0202019976386
-0.000898642479174
0.0202999945052
-0.000614488616441
0.0203562956042
-0.000324658017154
0.0203697709037
-2.89767906907e-05
0.0203392254356
0.000272569663633
0.0202634322791
0.000579795154379
0.0201411763413
0.00089227169189
0.0199713071495
0.00120929353415
0.0197528003551
0.00152984825925
0.0194848246046
0.00185260035083
0.019166809829
0.00217588907203
0.018798512065
0.00249774471775
0.0183800675896
0.00281592182411
0.0179120323988
0.00312794818398
0.017395400775
0.00343118007682
0.0168316073127
0.00372285444961
0.016222515087
0.00400012059835
0.0155704123848
0.00426003902706
0.0148780282716
0.0044995385125
0.0141486094457
0.00471534843151
0.0133860351811
0.0049039177909
0.0125950050001
0.0050614337826
0.0117811770057
0.00518394763449
0.0109511899826
0.00526777141437
0.0101124202223
0.00531004066686
0.00927246242377
0.00530916298698
0.00843891693395
0.00526454621666
0.00762017319455
0.00517515918253
0.00682441142379
0.0050423658347
0.00605715105673
0.00487129399153
0.00532231844865
0.00466586093635
0.00462626926287
0.00442366875081
0.00396585240044
0.0041574304706
0.00337048643402
0.00382421176521
0.00286171919508
0.0034413524482
0.00243723886584
0.00305541387668
0.00208331344857
0.00269588391884
0.00178297966584
0.00237617837442
0.00152361769405
0.00209384032903
0.0012993350707
0.00183958845472
0.00110845136776
0.0016066576927
0.000947719225055
0.00139657624339
0.000811500379956
0.00121222220425
0.000694520660648
0.00105209886799
0.000593538927861
0.000911663196277
0.000507652552902
0.000785770624896
0.000437065446173
0.000671616698874
0.00038009537666
0.000571258587617
0.000331940316062
0.00048840849548
0.00029060683141
0.00041799957187
0.000255780567347
0.000356356605819
0.000226471203542
0.000303219546114
0.000201616991513
0.000257681734766
0.000180898423472
0.000218124269275
0.000159115548917
0.000191517714841
0.000139226210822
0.000175197321225
0.000118296233253
0.000162228834438
9.82398942712e-05
0.000150244089843
7.84002942733e-05
0.000143228538664
6.17351101578e-05
0.000135263098754
4.4263935828e-05
0.000131099483433
2.91194025785e-05
0.000127031292138
2.24415502392e-05
0.000126408025021
1.39011256748e-05
0.00013300350046
6.79269992642e-06
0.00013022939285
0.000128562892002
0.000976412586956
-0.00737191476234
0.00200790246552
-0.00779051381624
0.00303419948976
-0.00775622525742
0.00405006614921
-0.00768484566771
0.00505209119648
-0.00758984685841
0.00603708539523
-0.00747259161646
0.00700206930409
-0.007334271458
0.00794429689187
-0.0071762318949
0.00886127702823
-0.00699994933079
0.00975078714286
-0.00680699621826
0.0106108821396
-0.00659900394424
0.0114398960401
-0.00637762673747
0.0122364390617
-0.00614450476428
0.0129993873718
-0.00590122918359
0.0137278683312
-0.00564930703356
0.0144212381922
-0.00539012943063
0.0150790555854
-0.00512494120383
0.0157010481346
-0.0048548163935
0.016287076551
-0.00458063797928
0.0168370944018
-0.00430308652916
0.0173511088836
-0.00402263550495
0.0178291413332
-0.0037395568621
0.0182711928265
-0.00345393303657
0.0186772129396
-0.00316567713018
0.0190470757071
-0.00287455586963
0.0193805592316
-0.00258021625556
0.0196773314061
-0.00228221085723
0.0199369371804
-0.00198002399651
0.02015878981
-0.00167309608911
0.0203421622843
-0.00136085050964
0.0204861832037
-0.00104272316639
0.0205898341296
-0.000718193682707
0.0206519553545
-0.000386827342957
0.020671257347
-4.83212365359e-05
0.0206463446147
0.000297446007736
0.0205757492687
0.000650359735093
0.0204579799701
0.0010100162483
0.0202915817604
0.00137567256024
0.0200752100325
0.0017462066272
0.0198077114631
0.00212009093319
0.0194882103002
0.00249538773106
0.0191161895246
0.00286976809508
0.0186915600101
0.00324055927485
0.0182147054626
0.00360481583277
0.0176864974133
0.00395940647238
0.0171082770449
0.00430109894087
0.0164818118229
0.00462661415886
0.0158092538528
0.00493262945507
0.0150931343224
0.00521569568016
0.0143364333408
0.00547208439996
0.0135427956172
0.00569760063061
0.0127168242369
0.00588744756332
0.0118644664476
0.00603635391956
0.0109931632351
0.0061391302364
0.0101114496428
0.00619179617337
0.00922782369371
0.00619283783508
0.00834991374392
0.00614248325207
0.00748815348614
0.00603694477193
0.00665394920091
0.00587657433861
0.00585124948102
0.00567399213234
0.00508141198077
0.00543568564036
0.00435458464376
0.00515047295805
0.00363457562533
0.00487740775481
0.00299512930492
0.00446361448945
0.00248134849155
0.00395509073319
0.00208049655793
0.00345622676698
0.00176369022371
0.00301265583265
0.0014994708365
0.00264037033199
0.00126842793909
0.00232485409329
0.00106644443415
0.00204154855788
0.000898579940401
0.00177449576526
0.000763018700202
0.00153211693372
0.000650590996332
0.00132462847031
0.000553257856499
0.00114941601612
0.000467275829215
0.00099762994947
0.000393886013969
0.000859146176163
0.000337174550576
0.000728315811143
0.000296409066888
0.00061201119388
0.000260954479405
0.0005238517287
0.000228843412023
0.000450101640091
0.000202421948135
0.000382767990928
0.000180604049737
0.000325027917209
0.00016148155539
0.000276794320639
0.000145323026831
0.000234272366385
0.000127192378908
0.000209638153052
0.000110253940126
0.0001921249556
9.28019301285e-05
0.000179670057969
7.39561579407e-05
0.000169078351684
5.73141437123e-05
0.000159858726958
4.08797472159e-05
0.000151684493205
2.99177432553e-05
0.000142047333406
1.90386307776e-05
0.000137895507506
1.18786931828e-05
0.000133554719776
8.36185534733e-06
0.000136505549405
3.85424477938e-06
0.000134722555214
0.000132411059265
0.000999691977921
-0.00837178140215
0.00205557929438
-0.00884658217689
0.00310580169856
-0.00880663315277
0.00414484194891
-0.00872406822619
0.00516906332515
-0.00861424969735
0.00617508265068
-0.0084787899673
0.00715975500405
-0.00831912070493
0.00812020351226
-0.00813685447612
0.00905384098489
-0.00793375798454
0.00995838570214
-0.00771170865816
0.010831869378
-0.00747265185752
0.0116726396484
-0.00721855720633
0.0124793552138
-0.00695137656427
0.0132509757168
-0.006673001399
0.0139867436435
-0.0063852223129
0.0146861605152
-0.00608968874425
0.0153489545049
-0.00578787295515
0.0159750428153
-0.00548103725145
0.0165644869478
-0.00517020972295
0.0171174459118
-0.00485616766903
0.0176341268924
-0.00453943353542
0.0181147395005
-0.00422028093234
0.0185594533187
-0.0038987530528
0.0189683638777
-0.00357468820359
0.0193414648776
-0.00324775202037
0.0196786289356
-0.00291746971321
0.0199795922393
-0.0025832581052
0.0202439434309
-0.00224445331733
0.0204711122519
-0.00190033748495
0.02066035946
-0.00155016438637
0.0208107666765
-0.0011931913629
0.0209212293768
-0.000828711358671
0.0209904555118
-0.00045610264722
0.0210169734924
-7.48822930684e-05
0.0209991518525
0.000315230466019
0.0209352344984
0.000714246082425
0.0208233925311
0.00112183314972
0.0206617947326
0.00153725149
0.0204486948143
0.00195929353102
0.0201825338722
0.00238624488013
0.0198620499437
0.00281587024628
0.0194863866422
0.00324543559566
0.0190551848433
0.00367177087963
0.0185686417998
0.00409137377996
0.0180275230597
0.00450054677047
0.0174331126988
0.00489553391386
0.0167871215388
0.00527263754734
0.0160915621076
0.00562822097278
0.0153486823431
0.00595861209793
0.0145610108912
0.0062597947875
0.0137316341523
0.00652701755535
0.0128647602311
0.00675436570265
0.0119665033167
0.00693466191363
0.0110455066818
0.00706017674745
0.0101124739663
0.00712488558998
0.00917716613803
0.00712818771694
0.00824488233312
0.00707480236839
0.0073295135206
0.0069523304945
0.00645250556128
0.00675359411725
0.00561092020821
0.00651556561421
0.00480321013339
0.00624336296139
0.00406346267695
0.00589019044684
0.00322567280916
0.00571516444928
0.00250385200683
0.00518538606133
0.00199215588937
0.00446675390184
0.00164084988803
0.00380749375791
0.00139018971551
0.00326328951209
0.00118113514621
0.00284939860331
0.00098397040285
0.00252199365475
0.000801485431901
0.00222401476221
0.000658667941105
0.00191728544315
0.000556266005208
0.00163450792728
0.000474865238992
0.00140600052367
0.000400543071292
0.00122373509028
0.000328564713056
0.00106958039027
0.000264576051313
0.000923131858445
0.000222642260996
0.000770230020945
0.000205907347271
0.000628734992998
0.000186062336282
0.000543685203038
0.00016186113325
0.000474290084599
0.000144533738879
0.000400085523932
0.000131778841771
0.000337771326798
0.000118389291979
0.000290172164563
0.000106678839008
0.000245972418433