/*--------------------------------*- C++ -*----------------------------------*\
| =========                 |                                                 |
| \\      /  F ield         | OpenFOAM: The Open Source CFD Toolbox           |
|  \\    /   O peration     | Version:  v1906                                 |
|   \\  /    A nd           | Web:      www.OpenFOAM.com                      |
|    \\/     M anipulation  |                                                 |
\*---------------------------------------------------------------------------*/
FoamFile
{
    version     2.0;
    format      ascii;
    class       surfaceScalarField;
    location    "332";
    object      phi;
}
// * * * * * * * * * * * * * * * * * * * * * * * * * * * * * * * * * * * * * //

dimensions      [0 3 -1 0 0 0 0];
oriented        oriented;


internalField   nonuniform List<scalar> 
18240
(
-0.000352774438157
0.00035280120931
-0.000739045056682
0.000386303349407
-0.0011249806955
0.000385962953365
-0.00150595775771
0.000381011044025
-0.00187991133307
0.000373979640765
-0.00224509582126
0.000365219608181
-0.00260000483658
0.000354933756302
-0.00294327389863
0.000343305284677
-0.00327375217702
0.000330501640145
-0.00359041749202
0.000316702574951
-0.00389246615067
0.000302070547762
-0.00417920594643
0.000286778009148
-0.00445015700194
0.000270971412715
-0.00470492249777
0.000254804554155
-0.00494330251087
0.000238398741396
-0.00516514554262
0.000221882805419
-0.00537047803623
0.000205349540927
-0.00555933965437
0.000188901950626
-0.00573193008069
0.000172605702321
-0.00588843020731
0.000156540845714
-0.00602916672322
0.000140749990124
-0.00615442059592
0.000125294787682
-0.00626460877228
0.0001101997833
-0.00636008083709
9.55129812042e-05
-0.00644131656219
8.12454715968e-05
-0.006508711413
6.74355668507e-05
-0.00656278813226
5.40845781205e-05
-0.00660397182866
4.12240187239e-05
-0.00663281380493
2.88479990156e-05
-0.00664975725344
1.69831866002e-05
-0.00665537180964
5.61875798794e-06
-0.00665010956911
-5.2232605365e-06
-0.00663454584656
-1.55612473928e-05
-0.0066091311348
-2.53766583712e-05
-0.00657444130067
-3.46890321243e-05
-0.00653092163409
-4.34826853074e-05
-0.00647914077189
-5.17816026813e-05
-0.00641953150685
-5.95734881874e-05
-0.00635264817478
-6.68855285922e-05
-0.00627890538601
-7.37083233811e-05
-0.00619883723426
-8.00716473161e-05
-0.00611283554504
-8.59686284797e-05
-0.0060214092729
-9.14309587621e-05
-0.00592492385392
-9.64538319965e-05
-0.00582385938313
-0.000101070178174
-0.0057185525489
-0.000105276778195
-0.00560945208527
-0.000109107073526
-0.00549686468445
-0.000112558911941
-0.00538120643988
-0.000115665584779
-0.00526275399611
-0.000118425549338
-0.00514189062223
-0.000120871324977
-0.00501886376689
-0.000123001565431
-0.00489402462458
-0.000124847538654
-0.00476759312601
-0.000126407817154
-0.0046398898044
-0.000127712048731
-0.00451110916659
-0.000128758554769
-0.00438154288896
-0.000129575181877
-0.00425136239013
-0.000130159999614
-0.00412083235879
-0.000130539006988
-0.00399010327972
-0.000130710137134
-0.00385941452412
-0.00013069766486
-0.0037288974737
-0.000130499635498
-0.00359876741363
-0.0001301388095
-0.00346913784162
-0.000129613643462
-0.00334020063835
-0.000128945675276
-0.00321205204732
-0.000128134104977
-0.00308486063905
-0.000127199526326
-0.00295870538189
-0.000126142161017
-0.00283373114311
-0.000124981910276
-0.0027099991558
-0.000123720225436
-0.00258762985534
-0.000122376469149
-0.00246666595871
-0.000120953405037
-0.00234720263336
-0.000119469923305
-0.00222926327287
-0.00011793006989
-0.00211291704544
-0.000116352213358
-0.00199816734839
-0.000114741527733
-0.00188505693823
-0.000113115730474
-0.0017735689224
-0.000111480880947
-0.00166371970428
-0.00010985383514
-0.00155547229541
-0.00010824121416
-0.00144881741424
-0.000106658748629
-0.00134369883975
-0.000105113230848
-0.00124008302714
-0.000103618909022
-0.0011378962668
-0.000102182210047
-0.00103708333912
-0.000100815278347
-0.000937556510767
-9.95230944567e-05
-0.000839244346519
-9.83138779489e-05
-0.000742054140017
-9.71873801396e-05
-0.000645915762478
-9.61396126048e-05
-0.000550768526221
-9.51452950959e-05
-0.00045663023224
-9.41390445066e-05
-0.000363685753288
-9.29432709092e-05
-0.00027264239727
-9.10432980087e-05
-0.000185903560582
-8.67386574396e-05
-0.000103508121921
-8.23961489429e-05
-0.000103508259408
-0.000389930771411
0.000742761616194
-0.000825267195535
0.000821672551825
-0.0012581416379
0.000818868804104
-0.00168471961256
0.00080762220164
-0.00210308242982
0.000792373481666
-0.00251144736904
0.000773617956534
-0.00290816577927
0.000751682767867
-0.00329174140729
0.000726914504128
-0.0036608801784
0.000699670524111
-0.00401446361715
0.000670319716597
-0.00435158461882
0.000639221104065
-0.00467150104858
0.000606728167009
-0.00497366873146
0.000573167993501
-0.00525768165208
0.000538851124219
-0.00552330695149
0.000504052192128
-0.00577041600963
0.000469025316842
-0.00599902498707
0.000433985806142
-0.00620922001143
0.000399130098511
-0.00640120550038
0.000364617514126
-0.00657522547002
0.000330593469053
-0.00673162054295
0.000297170300566
-0.0068707463181
0.000264452600298
-0.00699303890421
0.000232516427696
-0.00709893058274
0.000201435939351
-0.00718892303994
0.000171260704179
-0.00726350019675
0.00014204310777
-0.00732320798997
0.000113813794892
-0.00736856419846
8.66095924261e-05
-0.00740014355095
6.0447351168e-05
-0.00741848436894
3.53522383411e-05
-0.00742417728596
1.13302166346e-05
-0.00741777048951
-1.16030476762e-05
-0.00739986432402
-3.34503655564e-05
-0.00737101097089
-5.42043080584e-05
-0.0073318085277
-7.38759202429e-05
-0.00728280149055
-9.24653826929e-05
-0.00722457819085
-0.000109990836904
-0.00715766932965
-0.000126459415296
-0.00708264651563
-0.000141895728525
-0.00700002023359
-0.000156313097548
-0.00691033907209
-0.000169741609611
-0.00681408783631
-0.000182199789156
-0.00671178690439
-0.000193722040015
-0.00660389113405
-0.000204330948543
-0.00649088880677
-0.000214063941695
-0.00637320190791
-0.000222946422754
-0.00625128410418
-0.00023101751549
-0.00612552293088
-0.00023830419493
-0.00599633628256
-0.000244845996034
-0.0058640769653
-0.000250670298431
-0.0057291271722
-0.000255815911323
-0.00559180581069
-0.000260309629569
-0.005452460476
-0.000264188611916
-0.00531137789291
-0.000267478319137
-0.00516887289975
-0.000270213628778
-0.00502520230447
-0.000272418224276
-0.00488065044483
-0.000274124389533
-0.00473544670388
-0.000275353907858
-0.00458984722833
-0.000276136496368
-0.00444405632736
-0.000276492231852
-0.00429830400465
-0.000276448581327
-0.00415277143281
-0.000276024360735
-0.00400766399439
-0.000275245331248
-0.00386314102062
-0.000274129660848
-0.0037193841296
-0.000272702058167
-0.00357653139855
-0.000270980701502
-0.00343474084136
-0.00026898990229
-0.00329412917883
-0.000266748441862
-0.00315483039056
-0.000264280771926
-0.0030169392186
-0.000261606701447
-0.00288056477504
-0.000258751170354
-0.00274577888869
-0.000255735213559
-0.00261266482276
-0.000252584367332
-0.0024812705243
-0.000249320840448
-0.00235165253211
-0.000245970640041
-0.00222383414401
-0.000242556865636
-0.00209784464184
-0.000239105659763
-0.00197368233574
-0.000235640538342
-0.00185134923994
-0.000232187284741
-0.00173081891417
-0.000228769212868
-0.00161206675323
-0.000225411124575
-0.00149504251633
-0.000222135388141
-0.00137969639689
-0.000218965057216
-0.00126595613709
-0.000215920598755
-0.00115374908018
-0.000213022188205
-0.00104298379052
-0.000210286767493
-0.000933568249266
-0.000207729200929
-0.00082539564336
-0.000205358727851
-0.000718357662593
-0.000203177444884
-0.000612329267244
-0.000201172915824
-0.000507159174439
-0.000199308779438
-0.000402595050589
-0.000197506697596
-0.000298015230393
-0.000195623218996
-0.000191328318622
-0.000193425677037
-8.21223190001e-05
-0.000191602516628
-0.000185631093863
-0.000396887880246
0.00113967955
-0.000837864896072
0.00126268205458
-0.0012769922532
0.00125802835525
-0.00170975378026
0.00124041636459
-0.00213402439642
0.00121667616282
-0.00254793684919
0.00118756301801
-0.00294979282104
0.00115357062284
-0.00333807449792
0.00111522873141
-0.00371146788319
0.00107309556185
-0.00406885780074
0.00102774205932
-0.00440933665711
0.00097973129769
-0.0047321844051
0.000929608129169
-0.00503686937506
0.000877883900189
-0.00532301929745
0.000825032946407
-0.00559041956321
0.000771482879989
-0.00583898010951
0.000717617333687
-0.00606873513738
0.000663770632905
-0.00627980921587
0.000610235089315
-0.00647242087849
0.000557258218603
-0.00664684978433
0.000505052597366
-0.0068034451836
0.000453793868386
-0.00694259472109
0.000403631534508
-0.00706473765198
0.000354686521056
-0.00717033508614
0.000307061817759
-0.00725988726178
0.000260838933284
-0.00733390465102
0.000216087867115
-0.00739292833238
0.000172862308729
-0.00743750134695
0.000131208799763
-0.00746819129297
9.11608348093e-05
-0.00748556146238
5.27473302955e-05
-0.00749019499925
1.59859165701e-05
-0.00748266563777
-1.91088267304e-05
-0.00746356287452
-5.2532379845e-05
-0.00743346221448
-8.42827853327e-05
-0.00739295097821
-0.000114367864652
-0.00734259819623
-0.000142797413224
-0.00728298096618
-0.000169590231651
-0.00721465432349
-0.000194766756496
-0.00713817793644
-0.00021835574146
-0.00705408612637
-0.000240387050987
-0.00696291480959
-0.000260897978404
-0.00686517190922
-0.000279926262364
-0.00676136440453
-0.000297515995951
-0.00665196936229
-0.00031371095773
-0.00653746098615
-0.000328560106931
-0.00641828243894
-0.000342111289606
-0.00629487272346
-0.000354416308247
-0.00616763944643
-0.000365525087656
-0.00603698539428
-0.000375490335451
-0.00590328233241
-0.000384362213677
-0.00576689708335
-0.000392192594069
-0.00562816643779
-0.000399030296942
-0.00548742257606
-0.000404924967179
-0.00534496911615
-0.000409922901519
-0.00520110567414
-0.000414070553612
-0.00505610506544
-0.000417410980603
-0.00491023684087
-0.000419986996973
-0.00476374562241
-0.000421838226754
-0.00461687342673
-0.000423003901568
-0.00446983912776
-0.000423520506032
-0.00432285943903
-0.000423424217777
-0.00417612948577
-0.000422749089943
-0.0040298423212
-0.000421529108328
-0.00388417062309
-0.000419796857825
-0.00373928469482
-0.000417585179082
-0.00359533530848
-0.000414926236817
-0.00345247016121
-0.000411852752165
-0.00331081792079
-0.000408397406969
-0.00317050317766
-0.000404593650028
-0.00303163174836
-0.00040047536238
-0.00289430417442
-0.000396077246984
-0.00275860235129
-0.000391434705422
-0.00262460166869
-0.000386583849258
-0.00249235901008
-0.000381561537869
-0.00236192361893
-0.000376405063389
-0.00223332650269
-0.000371152319344
-0.00210659012564
-0.00036584122961
-0.00198171921623
-0.000360510011397
-0.00185870936451
-0.000355196420104
-0.00173753921486
-0.000349938075437
-0.00161817804812
-0.000344771591854
-0.00150057931203
-0.000339732917112
-0.00138468723911
-0.000334856394461
-0.0012704316408
-0.000330175036069
-0.00115773355722
-0.000325719507698
-0.00104650109067
-0.000321518173517
-0.000936633725613
-0.00031759586942
-0.000828018186365
-0.000313973436024
-0.000720529023736
-0.00031066608021
-0.000614018598555
-0.000307682733372
-0.000508300430525
-0.000305026655331
-0.00040310244476
-0.000302704095576
-0.000297968440545
-0.000300756569533
-0.000192095987063
-0.000299298733616
-8.59889146606e-05
-0.000297710536862
-0.000271620217493
-0.00040308418088
0.00154279395267
-0.000850169525198
0.00170979974699
-0.00129538919897
0.00170328045825
-0.00173400071663
0.00167906037278
-0.00216374215603
0.00164644993819
-0.00258265679601
0.00160651008062
-0.0029889876568
0.00155993370056
-0.00338118608282
0.00150745947739
-0.00375792401723
0.00144986554409
-0.00411809329484
0.00138794348831
-0.00446080335598
0.00132247316561
-0.00478536695049
0.00125420362003
-0.00509128832108
0.00118383673637
-0.0053782414966
0.00111201765932
-0.00564605494794
0.00103932735035
-0.00589468786898
0.000966281315934
-0.00612421579226
0.000893329000272
-0.00633480840549
0.00082085815823
-0.00652671865763
0.000749198214694
-0.00670026378172
0.000678627438322
-0.00685581871187
0.000609377703957
-0.00699380055862
0.000541642224904
-0.00711466603424
0.000475579940396
-0.0072188988062
0.000411322433349
-0.00730701004831
0.000348977031372
-0.00737952776811
0.000288632312621
-0.00743699947433
0.000230359681756
-0.00747998261115
0.00017421744276
-0.00750904846734
0.000120251071623
-0.00752477308395
6.84961456102e-05
-0.00752774185298
1.89777112654e-05
-0.00751854035762
-2.82874980956e-05
-0.00749775923918
-7.32918909005e-05
-0.00746598519972
-0.000116035428662
-0.00742380609373
-0.000156526812121
-0.00737180185241
-0.000194781713724
-0.00731054958218
-0.000230823813097
-0.00724061469248
-0.000264683171176
-0.00716255616755
-0.000296397038918
-0.00707691797031
-0.000326008229492
-0.00698423450388
-0.000353565663779
-0.00688502240818
-0.000379122772009
-0.00677978623283
-0.000402737796781
-0.00666901072735
-0.000424472270212
-0.00655316672014
-0.000444391103359
-0.00643270396023
-0.00046256120037
-0.00630805717518
-0.000479051384149
-0.00617963949807
-0.000493931199184
-0.00604784865046
-0.000507270714414
-0.00591306094854
-0.000519139568346
-0.0057756375389
-0.000529606700739
-0.00563591895697
-0.000538739678086
-0.00549423132296
-0.000546604392976
-0.00535088139165
-0.000553264705209
-0.00520616260203
-0.000558782149433
-0.00506035054521
-0.000563215906024
-0.00491370875166
-0.000566622535957
-0.00476648448626
-0.000569056280449
-0.00461891415953
-0.000570568831232
-0.00447121936796
-0.000571209927059
-0.0043236118327
-0.000571027136952
-0.00417628961366
-0.00057006670248
-0.00402944150787
-0.000568373298215
-0.00388324340152
-0.000565991043953
-0.0037378621014
-0.00056296318805
-0.00359345181884
-0.000559333210209
-0.0034501574485
-0.000555144378953
-0.00330811121772
-0.0005504408654
-0.00316743546655
-0.000545267133747
-0.0030282395162
-0.000539669006365
-0.00289062202782
-0.000533692872435
-0.0027546681598
-0.000527386663214
-0.00262045159671
-0.000520798885873
-0.00248803205789
-0.000513979493692
-0.00235745708289
-0.000506978778055
-0.00222875994238
-0.000499848132684
-0.00210196125658
-0.000492638849769
-0.00197706733411
-0.000485402788596
-0.00185407167853
-0.000478191129508
-0.00173295375901
-0.000471054954638
-0.00161368044149
-0.000464044008151
-0.00149620516423
-0.000457207188976
-0.00138046929375
-0.000450591353176
-0.00126640162773
-0.000444241700052
-0.00115391958692
-0.000438200634201
-0.00104292879616
-0.000432508021519
-0.000933323697417
-0.000427200155594
-0.00082498635206
-0.00042231000666
-0.000717785005427
-0.000417866831294
-0.000611569537504
-0.000413897718249
-0.000506164180602
-0.000410431291459
-0.000401358739404
-0.000407508873593
-0.000296912533608
-0.000405202912932
-0.00019265057162
-0.000403560791163
-8.95067705395e-05
-0.000400854863894
-0.000361127660979
-0.000411072258189
0.00195389640123
-0.000866634629281
0.00216539451899
-0.00132010631347
0.00215678459287
-0.00176655289388
0.00212553944049
-0.00220357739
0.00208350683645
-0.00262911796766
0.00203208306257
-0.00304134434496
0.0019721923895
-0.00343866633339
0.0019048137672
-0.00381974139993
0.00183097278661
-0.00418347222428
0.00175170644966
-0.00452899789983
0.00166803080186
-0.00485567740995
0.00158091501441
-0.00516307062024
0.00149126159758
-0.00545091503344
0.00139989359749
-0.00571910369596
0.00130754723693
-0.00596766150351
0.00121487016706
-0.00619672508785
0.00112242325774
-0.00640652245346
0.00103068595335
-0.00659735734978
0.000940063094419
-0.00676959366238
0.000850893428705
-0.00692364476695
0.000763457968691
-0.00705996248634
0.000677988733939
-0.00717903070762
0.000594676361732
-0.00728135789174
0.000513677389456
-0.00736747374404
0.000435120003698
-0.00743792402906
0.000359109233626
-0.00749326905456
0.000285730632794
-0.00753407969476
0.000215053480314
-0.00756093672881
0.000147132746694
-0.00757442731856
8.20108069032e-05
-0.00757514460844
1.97182761944e-05
-0.0075636840652
-3.97253633924e-05
-0.00754064330332
-9.63107995159e-05
-0.00750661839397
-0.000150039105121
-0.00746220348052
-0.000200921335823
-0.00740798722992
-0.000248978202373
-0.00734455236654
-0.000294239761871
-0.00727247227669
-0.000336744977132
-0.00719231068039
-0.00037654119697
-0.00710461849907
-0.000413683593217
-0.00700993376166
-0.000448234414913
-0.00690877883407
-0.000480262321072
-0.00680166061953
-0.00050984144564
-0.00668906822092
-0.000537050687275
-0.00657147347586
-0.000561972651203
-0.00644932908195
-0.000584692957064
-0.00632306946144
-0.000605299121382
-0.0061931093519
-0.000623879953442
-0.00605984497995
-0.000640524447426
-0.00592365308543
-0.000655321321598
-0.00578489234581
-0.000668357978033
-0.00564390278007
-0.000679720243477
-0.00550100735391
-0.000689491455388
-0.00535651168045
-0.000697752444391
-0.00521070570251
-0.000704580788746
-0.00506386359161
-0.000710051071455
-0.00491624540218
-0.000714234331195
-0.00476809705405
-0.00071719859483
-0.00461965183974
-0.000719008520475
-0.00447113038527
-0.000719726181184
-0.00432274191664
-0.000719410868899
-0.00417468410977
-0.000718120065078
-0.00402714404397
-0.00071590934036
-0.00388029789284
-0.000712833429201
-0.0037343115449
-0.000708946146367
-0.00358934012663
-0.000704301465212
-0.00344552830916
-0.00069895336749
-0.00330300970137
-0.000692956837648
-0.00316190690951
-0.000686367582284
-0.00302233086571
-0.000679242870168
-0.00288438072652
-0.000671641084055
-0.00274814322099
-0.000663622372764
-0.00261369248873
-0.000655248034279
-0.00248108952552
-0.000646580974029
-0.00235038204731
-0.000637684945648
-0.00222160409855
-0.000628624838212
-0.00209477601377
-0.000619465821796
-0.00196990422635
-0.000610273496525
-0.00184698136895
-0.000601112995323
-0.00172598629664
-0.000592049032643
-0.00160688434292
-0.000583145014143
-0.00148962753784
-0.000574463014545
-0.00137415499536
-0.000566062935521
-0.00126039325891
-0.000558002440783
-0.00114825672278
-0.000550336207559
-0.00103764791588
-0.000543115875385
-0.000928457677672
-0.00053638952483
-0.000820565000666
-0.000530201913093
-0.000713836423701
-0.00052459471396
-0.000608125221362
-0.0005196082483
-0.000503271485361
-0.000515284633875
-0.000399106295049
-0.000511673373486
-0.000295473992165
-0.000508834278744
-0.000192320992475
-0.000506714433954
-9.03571119431e-05
-0.000502819895102
-0.000451484969048
-0.000421229199588
0.0023751558678
-0.000887802920007
0.00263200054173
-0.00135193826112
0.00262095243863
-0.00180846031171
0.00258209395421
-0.00225480874493
0.00252988771501
-0.00268879402191
0.00246610074802
-0.0031084970221
0.00239192776025
-0.00351227846534
0.00230862753543
-0.00389878320238
0.00221750977934
-0.00426693358314
0.00211988900899
-0.00461591407538
0.00201704336009
-0.00494514894359
0.00191018182518
-0.0052542761288
0.00180042055654
-0.0055431188843
0.00168876794934
-0.00581165782978
0.00157611754678
-0.00606000403551
0.00146324749674
-0.00628837499953
0.00135082504176
-0.00649707315712
0.00123941462491
-0.00668646813785
0.0011294882123
-0.00685698170039
0.00102143675347
-0.0070090762088
0.000915581787398
-0.0071432451825
0.000812186577772
-0.00726000668537
0.000711466213382
-0.00735989791088
0.000613596460537
-0.00744347178667
0.000518721137463
-0.0075112939299
0.000426958077028
-0.00756394092006
0.000338403679689
-0.00760199827689
0.000253136287606
-0.00762605928196
0.000171218509353
-0.00763672312976
9.26987664055e-05
-0.00763459371425
1.76122423548e-05
-0.0076202773015
-5.40190720182e-05
-0.0075943815078
-0.00012218465102
-0.00755751268714
-0.000186886681155
-0.00751027435428
-0.000248139200929
-0.00745326478576
-0.000305968010931
-0.00738707530154
-0.000360410269806
-0.00731228795559
-0.000411514053556
-0.00722947396002
-0.000459337701164
-0.00713919161989
-0.000503949140909
-0.00704198502798
-0.000545424980421
-0.00693838235856
-0.000583849645795
-0.00682889492133
-0.000619314282043
-0.00671401588533
-0.000651915782155
-0.00659421973392
-0.000681755579054
-0.00646996144571
-0.000708938652691
-0.00634167635817
-0.000733572300608
-0.00620977979956
-0.000755765203667
-0.00607466733562
-0.000775626252527
-0.00593671481481
-0.000793263748398
-0.00579627894836
-0.000808784361168
-0.00565369770595
-0.000822292532036
-0.00550929115093
-0.000833889628942
-0.00536336209421
-0.00084367361164
-0.00521619708344
-0.000851738441866
-0.00506806720114
-0.000858174051415
-0.0049192290845
-0.000863066038065
-0.00476992573853
-0.000866495948507
-0.00462038745951
-0.000868541259045
-0.00447083253818
-0.000869275942745
-0.0043214679729
-0.000868770686768
-0.00417248996135
-0.000867093672478
-0.00402408432504
-0.000864310944256
-0.00387642673338
-0.00086048729546
-0.00372968281065
-0.000855686675961
-0.00358400808873
-0.000849973064784
-0.00343954782265
-0.00084341080335
-0.00329643672181
-0.000836065344326
-0.00315479854613
-0.000828003416946
-0.00301474570234
-0.000819293574704
-0.00287637872154
-0.000810006139292
-0.00273978582527
-0.000800213511809
-0.00260504239182
-0.00078998988493
-0.00247221059086
-0.000779411326465
-0.00234133893251
-0.000768555289122
-0.00221246204854
-0.000757500506452
-0.0020856003927
-0.000746326353546
-0.00196076021549
-0.000735112611899
-0.00183793345279
-0.000723938744499
-0.00171709790971
-0.000712883587019
-0.00159821734509
-0.000702024597399
-0.00148124184674
-0.000691437524958
-0.00136610808586
-0.000681195690363
-0.0012527398267
-0.000671369682275
-0.00114104827848
-0.000662026734537
-0.00103093262889
-0.000653230536107
-0.000922280378635
-0.000645040847334
-0.000814967792981
-0.000637513646447
-0.000708860365767
-0.000630701421161
-0.000603813875869
-0.000624654151362
-0.000499676656406
-0.000619420904583
-0.000396296973536
-0.000615052214355
-0.000293539596963
-0.000611591751434
-0.000191340231002
-0.000608913728158
-9.02349952134e-05
-0.000603925564541
-0.000541720663163
-0.000433818976937
0.00280900502565
-0.000914105862892
0.0031123198268
-0.00139149538582
0.00309837441604
-0.001860497157
0.00305112821661
-0.00231834361912
0.00298776662218
-0.00276268787223
0.00291047743864
-0.00319150512817
0.00282077741706
-0.00360310203742
0.00272025681961
-0.00399611700342
0.00261055705981
-0.00436950691633
0.0024933111752
-0.00472252337332
0.00237009196594
-0.00505468156304
0.002242372054
-0.00536572541008
0.00211149628368
-0.00565559157979
0.00197866582867
-0.00592437490954
0.00184493236278
-0.00617229658408
0.00171120041858
-0.006399676339
0.0015782357516
-0.00660690885567
0.0014466777832
-0.00679444467679
0.00131705430986
-0.00696277511163
0.00118979707677
-0.00711242095893
0.00106525708726
-0.00724392423974
0.000943718849431
-0.00735784259773
0.000825413057834
-0.00745474554843
0.000710527368105
-0.00753521224514
0.000599215225453
-0.00759983006907
0.000491602700613
-0.00764919381598
0.000387793606009
-0.00768390498758
0.000287872995347
-0.00770457110555
0.000191909498203
-0.00771180476255
9.99566057402e-05
-0.00770622258252
1.20535422939e-05
-0.00768844327979
-7.17756170316e-05
-0.00765908655662
-0.000151519346774
-0.0076187708483
-0.000227181107857
-0.00756811130407
-0.000298778208821
-0.00750771763185
-0.000366341902113
-0.00743819193649
-0.000429916932719
-0.00736012661417
-0.000489561099178
-0.00727410232994
-0.000545344452509
-0.00718068616054
-0.000597348522799
-0.00708042988239
-0.000645665200232
-0.0069738684966
-0.000690395701085
-0.00686151892948
-0.000731649227129
-0.00674387901382
-0.000769541777807
-0.00662142665243
-0.000804194701001
-0.00649461927974
-0.000835733457888
-0.00636389349273
-0.000864286169507
-0.00622966498093
-0.000889982434154
-0.00609232860049
-0.000912951965574
-0.00595225873151
-0.00093332355036
-0.00580980974
-0.000951223863285
-0.00566531669506
-0.000966776649178
-0.00551909613796
-0.000980101797525
-0.0053714470608
-0.000991314823781
-0.00522265186775
-0.00100052627137
-0.00507297748829
-0.00100784155183
-0.00492267639257
-0.00101336071739
-0.00477198769187
-0.00101717867955
-0.00462113805674
-0.00101938534918
-0.00447034265923
-0.00102006620356
-0.00431980585973
-0.00101930273553
-0.00416972187215
-0.00101717328019
-0.00402027512398
-0.00101375366058
-0.00387164057882
-0.00100911814148
-0.0037239837377
-0.00100334012764
-0.00357746061762
-0.000996493090699
-0.00343221742711
-0.000988651172032
-0.00328839026306
-0.000979889943669
-0.00314610455214
-0.000970286798212
-0.00300547457217
-0.00095992144441
-0.00286660278222
-0.000948876017543
-0.00272957929411
-0.000937235268656
-0.00259448122078
-0.000925086388596
-0.00246137221334
-0.000912518904904
-0.00233030193625
-0.00089962426124
-0.00220130575784
-0.000886495478568
-0.00207440442747
-0.000873226562567
-0.00194960396927
-0.000859912004182
-0.00182689559694
-0.000846646095877
-0.00170625582596
-0.000833522348952
-0.00158764662794
-0.000820632793435
-0.00147101574573
-0.000808067381296
-0.00135629705955
-0.000795913335313
-0.00124341106365
-0.000784254604813
-0.00113226539588
-0.00077317133306
-0.00102275542256
-0.000762739449681
-0.000914764901604
-0.000753030368909
-0.0008081667743
-0.000744110877009
-0.000702824145908
-0.000736043195633
-0.000598591998043
-0.000728885435068
-0.000495320313948
-0.000722692070253
-0.000392858656924
-0.0007175130007
-0.000291066567133
-0.000713382562351
-0.000189851543903
-0.000710129294861
-8.96551343396e-05
-0.000704123082459
-0.00063137587552
-0.00044911991428
0.00325815519011
-0.000946079817781
0.00360931197115
-0.00143954999607
0.00359187708784
-0.00192363703747
0.00353524770833
-0.00239531186876
0.0034594739219
-0.00285203537354
0.00336723338672
-0.00329165976393
0.00326043424981
-0.00371243642948
0.0031410658984
-0.0041130098084
0.00301116282281
-0.00449239441656
0.00287272810486
-0.00484993929523
0.00272766909239
-0.00518528483711
0.00257774973018
-0.00549831636795
0.00242455981608
-0.005789118228
0.00226949951502
-0.00605793100771
0.00211377676727
-0.0063051137458
0.00195841453597
-0.00653111195549
0.00180426506286
-0.00673643173734
0.00165202834748
-0.00692161970258
0.00150227270166
-0.00708724813326
0.00135545554012
-0.00723390464235
0.00121194319518
-0.00736218548871
0.00107202882935
-0.00747269176924
0.0009359479649
-0.00756602765584
0.000803891349029
-0.00764280004788
0.000676015137155
-0.00770361894757
0.000552448528804
-0.00774909816362
0.000433299117645
-0.00777985585614
0.000318656341614
-0.00779651479429
0.000208593407442
-0.0077997020229
0.000103168120576
-0.00779004848086
2.42356425196e-06
-0.00776818714395
-9.36141082634e-05
-0.00773475157144
-0.000184932827363
-0.00769037430389
-0.000271537022442
-0.00763568436219
-0.00035344756642
-0.00757130494143
-0.00043070148664
-0.00749785112584
-0.000503351685579
-0.00741592756181
-0.000571466346573
-0.00732612632374
-0.000635128140948
-0.00722902485864
-0.000694433173901
-0.00712518420844
-0.000749489788367
-0.00701514738445
-0.000800417179393
-0.00689943806064
-0.000847343933417
-0.00677855945688
-0.00089040645496
-0.00665299354912
-0.000929747380949
-0.00652320048302
-0.000965513955877
-0.00638961830147
-0.00099785644713
-0.00625266287218
-0.00102692658488
-0.00611272810106
-0.00105287608549
-0.00597018632963
-0.00107585525889
-0.00582538897864
-0.00109601173985
-0.00567866734413
-0.00111348935992
-0.00553033358428
-0.00112842718341
-0.00538068180794
-0.00114095873846
-0.00522998928097
-0.00115121144751
-0.00507851766361
-0.00115930629287
-0.00492651427698
-0.00116535770057
-0.00477421331649
-0.00116947367322
-0.00462183700268
-0.001171756131
-0.00446959659634
-0.0011723014773
-0.00431769327028
-0.00117120132639
-0.00416631878339
-0.00116854339389
-0.0040156559592
-0.001164412471
-0.00386587894051
-0.00115889147146
-0.00371715323464
-0.00115206246625
-0.00356963555195
-0.00114400769412
-0.00342347346049
-0.00113481046684
-0.00327880489064
-0.00112455596812
-0.00313575750993
-0.00111333187684
-0.00299444803115
-0.00110122883545
-0.00285498145666
-0.00108834070705
-0.00271745034736
-0.00107476467008
-0.00258193408836
-0.00106060110061
-0.0024484982612
-0.00104595332382
-0.00231719405397
-0.00103092717731
-0.0021880578401
-0.00101563050018
-0.00206111081217
-0.00100017246996
-0.00193635882178
-0.000984662931647
-0.00181379227048
-0.000969211609773
-0.00169338622273
-0.000953927375734
-0.00157510055166
-0.000938917426342
-0.00145888030525
-0.000924286572324
-0.00134465608192
-0.00091013646092
-0.0012323446114
-0.000896564954709
-0.00112184932763
-0.0008836654695
-0.00101306113737
-0.000871526513879
-0.00090585920498
-0.000860231217319
-0.000800111967328
-0.000849857090185
-0.000695678417285
-0.00084047584824
-0.000592409850118
-0.000832153241113
-0.000490151926786
-0.000824948770048
-0.000388748892633
-0.00081891496
-0.00028804898847
-0.000814082474281
-0.000187932766028
-0.00081024516281
-8.87924583868e-05
-0.000803263565507
-0.000720168990472
-0.000467470943637
0.00372565625167
-0.000984407187748
0.00412628057476
-0.00149709132949
0.00410459362587
-0.00199912304479
0.00403731189019
-0.00248714750989
0.00394753082652
-0.00295839371139
0.00383851205073
-0.00341057475545
0.00371264775072
-0.00384189152829
0.00357241513411
-0.00425101647915
0.00342032020952
-0.00463705616733
0.0032588001985
-0.0049994993197
0.00309014457727
-0.0053381570744
0.00291643973274
-0.00565310151125
0.00273953636758
-0.00594460695812
0.00256103692379
-0.00621309738532
0.00238229895259
-0.00645910155791
0.00220445023704
-0.00668321673071
0.00202841148444
-0.00688608059775
0.00185492315228
-0.00706835085661
0.0016845735405
-0.00723069127177
0.001517826143
-0.00737376313854
0.00135504481607
-0.00749822094058
0.00119651591488
-0.00760471113341
0.00104246693587
-0.00769387304885
0.000893081499484
-0.00776634103861
0.000748510791908
-0.00782274714255
0.000608881689444
-0.00786372365242
0.000474302057607
-0.00788990521054
0.000344863666738
-0.00790193011456
0.000220643404564
-0.00790044081163
0.000101703200275
-0.00788608316085
-1.1910416928e-05
-0.00785950618416
-0.000120168162741
-0.00782135970434
-0.000223057126775
-0.00777229239919
-0.000320582917485
-0.00771294937888
-0.000412769932519
-0.00764396966532
-0.000499661325647
-0.00756598355723
-0.000581318677584