/*--------------------------------*- C++ -*----------------------------------*\
| =========                 |                                                 |
| \\      /  F ield         | OpenFOAM: The Open Source CFD Toolbox           |
|  \\    /   O peration     | Version:  v1906                                 |
|   \\  /    A nd           | Web:      www.OpenFOAM.com                      |
|    \\/     M anipulation  |                                                 |
\*---------------------------------------------------------------------------*/
FoamFile
{
    version     2.0;
    format      ascii;
    class       volVectorField;
    location    "332";
    object      Ua;
}
// * * * * * * * * * * * * * * * * * * * * * * * * * * * * * * * * * * * * * //

dimensions      [0 1 -1 0 0 0 0];


internalField   nonuniform List<vector> 
9216
(
(-0.0103690632428 0.0103767412728 0)
(-0.010942936524 0.0334897433998 3.93218006349e-27)
(-0.0109400495193 0.0569608598848 -7.08176879132e-31)
(-0.0108389863041 0.0804418487558 0)
(-0.0106948661004 0.103536544832 0)
(-0.0105117238741 0.126151612126 0)
(-0.0102941898748 0.148186464679 0)
(-0.0100453747214 0.169549802929 0)
(-0.00976826447475 0.190159467438 0)
(-0.00946567427255 0.209942677503 0)
(-0.00914062789118 0.228836076228 0)
(-0.00879596500019 0.246785963367 0)
(-0.00843471594685 0.263748103882 0)
(-0.0080596046798 0.279687665677 0)
(-0.0076735119741 0.294578719282 0)
(-0.00727889712496 0.308403932215 0)
(-0.00687837133217 0.321153845632 0)
(-0.00647403348842 0.332826427315 0)
(-0.00606816374034 0.343426229205 0)
(-0.00566246309309 0.35296389961 0)
(-0.005258874344 0.361455312652 0)
(-0.00485871183569 0.368921116982 0)
(-0.00446361326991 0.375385903228 0)
(-0.00407454624061 0.380877836209 0)
(-0.00369289383636 0.385427894545 0)
(-0.0033193258353 0.389069599921 0)
(-0.00295501952253 0.391838338402 0)
(-0.00260038924265 0.393771179589 0)
(-0.00225644595492 0.394906274273 0)
(-0.00192338630465 0.395282750855 0)
(-0.0016020991118 0.394940147867 0)
(-0.00129253667231 0.393918540856 0)
(-0.000995367932669 0.392257731548 0)
(-0.000710401044206 0.389997226488 0)
(-0.000438287444332 0.387176177785 0)
(-0.00017866409483 0.383833191921 0)
(6.79494746589e-05 0.380006009578 0)
(0.000302078760974 0.375731521957 0)
(0.000523301430237 0.371045481274 0)
(0.000732278979345 0.365982535992 0)
(0.000928672414196 0.360576004028 0)
(0.00111325777306 0.354857912203 0)
(0.00128576752474 0.348858831021 0)
(0.00144707051612 0.342607914565 0)
(0.00159695664806 0.336132793622 0)
(0.00173636328583 0.329459611917 0)
(0.00186512297762 0.322612977035 0)
(0.00198421682033 0.315615992993 0)
(0.00209350316669 0.30849026403 0)
(0.00219398106799 0.301255921406 0)
(0.00228551863974 0.293931676869 0)
(0.00236910928917 0.286534843987 0)
(0.0024446154968 0.279081433143 0)
(0.00251300388771 0.271586164413 0)
(0.00257411990102 0.264062597575 0)
(0.00262888782 0.256523135088 0)
(0.00267712838918 0.248979176477 0)
(0.00271971325242 0.241441106805 0)
(0.00275643693856 0.233918467675 0)
(0.00278811510906 0.226419928618 0)
(0.00281451916646 0.218953464777 0)
(0.00283641055561 0.211526306765 0)
(0.00285354593695 0.20414511962 0)
(0.00286663935517 0.196815929719 0)
(0.00287544359354 0.18954429912 0)
(0.00288063418573 0.182335227442 0)
(0.0028819729588 0.175193320943 0)
(0.00288010700304 0.168122670604 0)
(0.00287481911722 0.161127015246 0)
(0.0028667363367 0.154209596635 0)
(0.00285567301661 0.147373320388 0)
(0.00284224234679 0.140620591595 0)
(0.00282629730788 0.133953476335 0)
(0.00280843956484 0.127373520453 0)
(0.00278856474621 0.120881917282 0)
(0.00276726188346 0.114479313751 0)
(0.00274446926935 0.108165987851 0)
(0.00272075830806 0.101941645 0)
(0.00269610705663 0.095805610052 0)
(0.00267106135679 0.0897566176387 0)
(0.00264563279322 0.0837930213029 0)
(0.00262033042122 0.0779125807719 0)
(0.00259518976123 0.0721126925571 0)
(0.00257066696089 0.0663901798454 0)
(0.00254680308953 0.0607415517848 0)
(0.00252396866587 0.0551628125815 0)
(0.00250215601986 0.0496497801778 0)
(0.00248153573151 0.0441979887192 0)
(0.00246179797188 0.0388032290405 0)
(0.00244229740146 0.0334619524449 0)
(0.00242086289825 0.0281730557964 0)
(0.0023920127284 0.0229419248661 0)
(0.00233675502453 0.0178039243442 0)
(0.0022047977724 0.0126960848784 0)
(0.00222241256784 0.00759803954322 0)
(0.00378754619842 0.00378738704224 0)
(-0.0335662379416 0.0110359317398 0)
(-0.0371063540053 0.0373929747162 0)
(-0.0370222973818 0.0636791889569 -4.12784614815e-27)
(-0.0365245407375 0.09000064224 0)
(-0.0358326857962 0.115854579992 0)
(-0.0349732294184 0.141157216752 0)
(-0.0339609954425 0.165801738944 0)
(-0.0328100098122 0.189687648368 0)
(-0.0315350463325 0.212723503067 0)
(-0.0301511871599 0.234828061117 0)
(-0.0286741068649 0.255930688762 0)
(-0.0271192468355 0.275971623299 0)
(-0.0255021518503 0.294901861259 0)
(-0.0238375446935 0.312682982649 0)
(-0.0221398539343 0.329286665612 0)
(-0.0204222334312 0.34469421434 0)
(-0.018697318876 0.358895831385 0)
(-0.0169761854198 0.371889978607 0)
(-0.0152693424693 0.383682531198 0)
(-0.0135856033886 0.394286088233 0)
(-0.0119333146665 0.403719113886 0)
(-0.0103191014173 0.412005287718 0)
(-0.00874931841975 0.419172706204 0)
(-0.00722863275049 0.425253325347 0)
(-0.00576168295588 0.430282258236 0)
(-0.00435146615222 0.434297325781 0)
(-0.00300119584782 0.43733845388 0)
(-0.00171247494809 0.439447321451 0)
(-0.000487351181385 0.44066684307 0)
(0.000673727027137 0.441040889073 0)
(0.00176964830488 0.440613859883 0)
(0.00280093965901 0.43943031325 0)
(0.00376735145087 0.437534876654 0)
(0.00467022281638 0.434972122923 0)
(0.00550984318473 0.431785911877 0)
(0.00628816605396 0.428019429933 0)
(0.00700598800094 0.423714909673 0)
(0.00766577289099 0.418913554581 0)
(0.00826868460125 0.413655325482 0)
(0.00881756466665 0.407978887283 0)
(0.0093138340228 0.401921444105 0)
(0.00976059671883 0.39551870876 0)
(0.0101594355277 0.38880478572 0)
(0.0105136133327 0.381812159698 0)
(0.0108247888655 0.374571624205 0)
(0.011096287921 0.367112286752 0)
(0.011329767437 0.359461541062 0)
(0.0115285282643 0.351645087027 0)
(0.0116941546925 0.343686943666 0)
(0.0118298430776 0.335609482037 0)
(0.011937043856 0.327433475262 0)
(0.0120187815247 0.319178141762 0)
(0.0120763232607 0.310861226627 0)
(0.0121124692581 0.30249905137 0)
(0.0121282703697 0.294106619747 0)
(0.0121262693281 0.285697668949 0)
(0.012107285775 0.27728479137 0)
(0.0120735921588 0.268879481281 0)
(0.0120257821592 0.260492264132 0)
(0.0119658661123 0.252132732665 0)
(0.0118942349201 0.243809675485 0)
(0.0118126624191 0.235531097224 0)
(0.0117213751481 0.227304340158 0)
(0.011621949527 0.219136084549 0)
(0.0115144952233 0.211032458845 0)
(0.0114004368748 0.202999018197 0)
(0.0112798185042 0.195040841819 0)
(0.0111539594463 0.187162489847 0)
(0.0110228862747 0.179368088449 0)
(0.0108878538391 0.171661266933 0)
(0.010748912185 0.164045233726 0)
(0.0106072831107 0.15652269721 0)
(0.0104630697292 0.149095936549 0)
(0.0103174796747 0.141766710393 0)
(0.0101706864688 0.134536327633 0)
(0.0100238897564 0.12740554851 0)
(0.00987733801802 0.120374659812 0)
(0.00973221661125 0.113443372478 0)
(0.0095888423805 0.10661090564 0)
(0.00944836947994 0.0998758845342 0)
(0.0093111660871 0.0932364365723 0)
(0.00917832782401 0.0866900926648 0)
(0.00905024599605 0.080233898604 0)
(0.0089279157682 0.0738643234756 0)
(0.00881170022186 0.0675773897969 0)
(0.00870241123764 0.0613685942741 0)
(0.0086002511605 0.0552330605517 0)
(0.00850559738529 0.0491654723864 0)
(0.0084179874653 0.0431602157025 0)
(0.00833627457482 0.0372111809534 0)
(0.00825687147689 0.0313113571367 0)
(0.00817134392476 0.0254506562055 0)
(0.00805851635096 0.0196102270125 0)
(0.00785511134107 0.0137040063383 0)
(0.0075888383541 0.0075713307638 0)
(0.00759086584825 0.00221549009623 0)
(-0.057463513684 0.0111821499027 0)
(-0.0636193520537 0.0380065377248 0)
(-0.0634066185732 0.0646225908416 -4.13158240198e-27)
(-0.0625435947264 0.0913252684315 0)
(-0.0613726959014 0.117549392905 0)
(-0.0599277199218 0.143205838079 0)
(-0.0582291737916 0.16818398763 0)
(-0.0562991292845 0.192381061995 0)
(-0.0541616024953 0.215703951212 0)
(-0.0518417403348 0.238070224392 0)
(-0.0493654818796 0.259408547031 0)
(-0.0467587452367 0.279658886572 0)
(-0.04404723333 0.298772403454 0)
(-0.0412556781274 0.316711185854 0)
(-0.0384078403544 0.333447750167 0)
(-0.035525838374 0.348964464068 0)
(-0.0326303633797 0.363252804823 0)
(-0.0297400891282 0.376312613265 0)
(-0.0268720970665 0.388151245674 0)
(-0.0240413393185 0.398782784735 0)
(-0.0212612479627 0.408227197405 0)
(-0.0185432069008 0.416509598171 0)
(-0.0158973065263 0.423659489186 0)
(-0.0133317734598 0.429710129892 0)
(-0.0108538306696 0.434697891588 0)
(-0.00846904214409 0.438661744538 0)
(-0.00618225119735 0.441642723258 0)
(-0.00399681693204 0.443683514775 0)
(-0.00191562154033 0.444828012741 0)
(5.98057803103e-05 0.445120981902 0)
(0.00192821635284 0.444607690885 0)
(0.00368961414459 0.443333626566 0)
(0.00534405311579 0.441344170156 0)
(0.00689275960695 0.438684415943 0)
(0.0083369157746 0.435398878477 0)
(0.00967878071804 0.431531321145 0)
(0.0109203912969 0.427124541589 0)
(0.0120648006366 0.42222023938 0)
(0.0131147095718 0.416858851391 0)
(0.0140737721174 0.411079454699 0)
(0.0149451732489 0.40491964353 0)
(0.0157329914 0.39841546293 0)
(0.0164407331699 0.391601325006 0)
(0.0170727399809 0.384509970602 0)
(0.0176326906287 0.377172421814 0)
(0.0181250393524 0.369617969078 0)
(0.0185534981184 0.361874158893 0)
(0.0189224940115 0.353966805114 0)
(0.0192356436685 0.34592000907 0)
(0.0194972194272 0.337756192604 0)
(0.0197106285952 0.329496148242 0)
(0.0198798789838 0.321159091249 0)
(0.0200080750634 0.312762734413 0)
(0.0200988749151 0.304323353969 0)
(0.0201550142384 0.295855883313 0)
(0.0201797473122 0.287373986938 0)
(0.020175407877 0.278890164616 0)
(0.0201448272539 0.270415825717 0)
(0.0200899391041 0.261961396297 0)
(0.0200131676653 0.253536386843 0)
(0.0199160811124 0.245149493837 0)
(0.019800742985 0.236808654173 0)
(0.0196684171895 0.228521135609 0)
(0.0195208754468 0.220293573536 0)
(0.019359155597 0.212132045696 0)
(0.019184818249 0.204042088633 0)
(0.0189987596158 0.196028755887 0)
(0.0188024107206 0.188096614477 0)
(0.0185966059505 0.180249787066 0)
(0.0183827189401 0.172491930452 0)
(0.0181615887813 0.164826265369 0)
(0.0179345871801 0.157255541051 0)
(0.0177026050628 0.149782056588 0)
(0.0174670464445 0.14240761606 0)
(0.0172288793078 0.135133546921 0)
(0.016989551974 0.127960650779 0)
(0.016750112847 0.120889223168 0)
(0.0165120455934 0.11391900429 0)
(0.0162764629703 0.107049204734 0)
(0.0160448569926 0.100278459977 0)
(0.015818371878 0.0936048648004 0)
(0.0155984650043 0.0870259340786 0)
(0.0153862630048 0.0805386480475 0)
(0.0151831270708 0.0741394205401 0)
(0.0149900920959 0.0678241538857 0)
(0.0148083231475 0.0615882102723 0)
(0.0146386245526 0.0554264628825 0)
(0.0144817538878 0.0493332350603 0)
(0.0143379541496 0.0433022594726 0)
(0.0142070601177 0.0373263733854 0)
(0.0140880341412 0.0313968817887 0)
(0.0139791571148 0.0255017977521 0)
(0.013878983403 0.0196223038106 0)
(0.0137886161798 0.0137151140615 0)
(0.0137076207632 0.00779606184513 0)
(0.0126658487579 0.00218991773327 0)
(-0.081916625348 0.0113103239978 0)
(-0.0907628476696 0.0385816700083 0)
(-0.0904504910207 0.0655407170094 4.12966084606e-27)
(-0.0892040862544 0.09260738639 0)
(-0.0875158030948 0.1191796087 0)
(-0.0854353831164 0.145163289936 0)
(-0.0829922387791 0.170443530522 0)
(-0.0802181969357 0.194914589437 0)
(-0.0771479136122 0.218481322532 0)
(-0.07381784994 0.241060060777 0)
(-0.0702654809961 0.262578961439 0)
(-0.0665283459331 0.282978125448 0)
(-0.0626434543894 0.302209427272 0)
(-0.058646509806 0.320236145252 0)
(-0.0545715555592 0.337032388581 0)
(-0.0504503970509 0.352582407766 0)
(-0.046312500191 0.366879781386 0)
(-0.0421846057592 0.379926563817 0)
(-0.0380908616357 0.391732380475 0)
(-0.0340525936633 0.40231355042 0)
(-0.0300886258765 0.411692212999 0)
(-0.0262151475409 0.419895529097 0)
(-0.022446155891 0.426954919517 0)
(-0.0187933477536 0.432905398981 0)
(-0.0152666182743 0.437784954134 0)
(-0.0118739167195 0.441634013543 0)
(-0.0086217563556 0.444494949142 0)
(-0.0055150046986 0.446411653281 0)
(-0.0025573917399 0.447429130546 0)
(0.000248765860114 0.447593150517 0)
(0.00290205255902 0.446949903825 0)
(0.00540228513394 0.445545739936 0)
(0.00774993139775 0.443426790578 0)
(0.00994653548515 0.440638813871 0)
(0.0119941577742 0.437226944335 0)
(0.0138957638115 0.433235483937 0)
(0.0156546502969 0.428707717603 0)
(0.0172748859898 0.423685764303 0)
(0.0187607194345 0.418210431437 0)
(0.020117049724 0.412321105114 0)
(0.0213488201124 0.406055643609 0)
(0.0224615140217 0.399450301204 0)
(0.0234605372515 0.392539656797 0)
(0.0243517328792 0.385356568012 0)
(0.0251407547699 0.377932132815 0)
(0.0258335960131 0.370295672358 0)
(0.0264359578616 0.362474724302 0)
(0.0269537870926 0.35449505308 0)
(0.0273926455026 0.34638067351 0)
(0.0277582535756 0.338153886931 0)
(0.0280558669144 0.329835332586 0)
(0.0282908242984 0.321444046372 0)
(0.028467937473 0.312997535638 0)
(0.0285920428154 0.304511855605 0)
(0.028667410622 0.296001701226 0)
(0.0286982989426 0.28748049423 0)
(0.0286883868749 0.278960484022 0)
(0.0286413287786 0.270452837339 0)
(0.0285602144182 0.261967739555 0)
(0.028448120062 0.253514478574 0)
(0.0283075960385 0.245101538351 0)
(0.0281412104637 0.236736669901 0)
(0.0279510632657 0.228426970538 0)
(0.027739316934 0.220178936723 0)
(0.027507734727 0.211998524896 0)
(0.027258192912 0.203891183684 0)
(0.0269922407018 0.195861895089 0)
(0.0267115882807 0.187915186182 0)
(0.0264176861864 0.180055151998 0)
(0.0261121845783 0.172285449383 0)
(0.025796530883 0.164609305226 0)
(0.0254723964778 0.157029496732 0)
(0.0251412924925 0.149548349863 0)
(0.0248049616245 0.142167711324 0)
(0.0244650133884 0.134888942677 0)
(0.0241232794932 0.127712889324 0)
(0.0237814707277 0.120639875358 0)
(0.0234414953745 0.113669674262 0)
(0.0231051406423 0.106801508825 0)
(0.0227743536156 0.100034027187 0)
(0.0224509501223 0.0933653106652 0)
(0.0221368576871 0.0867928572618 0)
(0.0218338541074 0.080313598463 0)
(0.0215437704673 0.0739238897823 0)
(0.0212682597695 0.0676195332991 0)
(0.021008956001 0.0613957675717 0)
(0.0207672710255 0.0552472794752 0)
(0.0205445079225 0.0491681601868 0)
(0.0203417005765 0.0431518423589 0)
(0.02015974315 0.0371909087892 0)
(0.0199994758116 0.0312767896256 0)
(0.0198623977519 0.0253992041985 0)
(0.0197522706008 0.019545800762 0)
(0.0196748255664 0.013697099345 0)
(0.0195630955207 0.00793421748377 0)
(0.0177137536471 0.00230694626464 0)
(-0.106766512336 0.0114750123401 0)
(-0.118310361233 0.0393355614983 0)
(-0.1178921613 0.0667691484775 0)
(-0.116247284932 0.0943238086065 0)
(-0.114020205731 0.121360062478 0)
(-0.11127778547 0.147778376031 0)
(-0.108059650142 0.173458654305 0)
(-0.104408482028 0.198291241849 0)
(-0.100370577658 0.222178264415 0)
(-0.0959945876526 0.245034432122 0)
(-0.0913303454072 0.26678730044 0)
(-0.0864277000954 0.287377274121 0)
(-0.0813355975198 0.306757325377 0)
(-0.0761011841394 0.324892489386 0)
(-0.0707691993116 0.341759166128 0)
(-0.0653813791321 0.357344291135 0)
(-0.0599761676087 0.371644401203 0)
(-0.0545884079778 0.38466465429 0)
(-0.0492493432341 0.396417824315 0)
(-0.0439865468429 0.406923323631 0)
(-0.038824147575 0.416206264105 0)
(-0.0337829176065 0.424296597413 0)
(-0.0288806276846 0.431228330093 0)
(-0.0241321920397 0.437038836842 0)
(-0.0195500569136 0.44176825056 0)
(-0.015144317913 0.44545893809 0)
(-0.0109230789322 0.448155030817 0)
(-0.00689250422636 0.449902014469 0)
(-0.00305713478858 0.450746349052 0)
(0.000580117900649 0.450735128359 0)
(0.00401768117955 0.449915751862 0)
(0.00725538271715 0.448335680811 0)
(0.0102940817356 0.446042020648 0)
(0.0131358214035 0.443081440025 0)
(0.0157835119735 0.439499880554 0)
(0.018241008367 0.435342355772 0)
(0.0205128207223 0.430652780699 0)
(0.0226042152722 0.425473820652 0)
(0.0245209279259 0.419846756406 0)
(0.0262692833917 0.413811372939 0)
(0.0278559113996 0.407405861576 0)
(0.0292878803621 0.40066674224 0)
(0.0305724148128 0.393628798533 0)
(0.0317170393107 0.386325030721 0)
(0.0327292962521 0.378786621722 0)
(0.0336168968056 0.371042919671 0)
(0.034387439804 0.363121434484 0)
(0.0350485683252 0.35504784979 0)
(0.0356076923826 0.346846049266 0)
(0.036072151715 0.338538156719 0)
(0.0364489465412 0.330144590555 0)
(0.0367449085368 0.321684129307 0)
(0.0369664448183 0.313173989944 0)
(0.0371197196133 0.30462991342 0)
(0.0372104162539 0.296066260466 0)
(0.0372439313514 0.287496109672 0)
(0.037225158181 0.278931361952 0)
(0.0371586935702 0.270382841863 0)
(0.0370486437632 0.26186040147 0)
(0.036898842042 0.253373015665 0)
(0.0367126757847 0.24492887624 0)
(0.0364933108016 0.236535472935 0)
(0.0362435361869 0.228199670793 0)
(0.0359659897866 0.21992777126 0)
(0.0356630161983 0.211725568285 0)
(0.0353368871572 0.203598386633 0)
(0.0349896676691 0.195551115752 0)
(0.0346234252985 0.187588225833 0)
(0.0342401000552 0.179713781104 0)
(0.0338416976493 0.171931436702 0)
(0.0334301600266 0.164244435781 0)
(0.0330075391543 0.156655592342 0)
(0.0325758667888 0.149167277616 0)
(0.032137307104 0.141781394738 0)
(0.031694025919 0.134499360613 0)
(0.0312483219372 0.127322078396 0)
(0.030802496998 0.120249920241 0)
(0.0303589668404 0.113282702645 0)
(0.0299201347716 0.106419674647 0)
(0.0294884833663 0.0996594998156 0)
(0.0290664542196 0.0930002526267 0)
(0.0286565220925 0.0864394089991 0)
(0.0282610832574 0.079973851602 0)
(0.0278825133022 0.0735998681731 0)
(0.0275230665161 0.0673131624683 0)
(0.027184919704 0.0611088539077 0)
(0.0268700889428 0.0549814830166 0)
(0.0265804731114 0.0489249933323 0)
(0.0263178223648 0.0429327068711 0)
(0.0260838585765 0.0369972666529 0)
(0.0258804597644 0.0311106002102 0)
(0.0257101600243 0.0252639671788 0)
(0.0255767149238 0.0194485077311 0)
(0.0254798801227 0.0136511921393 0)
(0.0253000921457 0.0079593934143 0)
(0.0227451124807 0.00234223638016 0)
(-0.132152058049 0.0116805223595 0)
(-0.14643556244 0.0402957670147 0)
(-0.14589920435 0.0683424899094 0)
(-0.143832625541 0.0965236180764 0)
(-0.141035996781 0.12415364827 0)
(-0.137594428496 0.151126562958 0)
(-0.133559091592 0.177315966551 0)
(-0.128984871127 0.202607361213 0)
(-0.123931018425 0.226899503796 0)
(-0.118459585211 0.250105170805 0)
(-0.112633879798 0.27215130925 0)
(-0.106517026052 0.292978896467 0)
(-0.100170747222 0.312542499529 0)
(-0.0936542974051 0.330809594862 0)
(-0.0870236483615 0.34775969584 0)
(-0.0803308229577 0.363383344469 0)
(-0.0736234863425 0.377681010575 0)
(-0.0669446610344 0.390661949898 0)
(-0.0603326822354 0.402343059552 0)
(-0.0538212330965 0.412747775886 0)
(-0.0474395793526 0.421905043319 0)
(-0.0412128161569 0.42984838488 0)
(-0.0351622536546 0.436615083488 0)
(-0.0293057364123 0.442245482369 0)
(-0.0236580442131 0.446782390472 0)
(-0.0182311670538 0.450270582002 0)
(-0.0130346363351 0.452756363099 0)
(-0.00807570993149 0.454287191438 0)
(-0.00335962614633 0.454911326289 0)
(0.0011102801435 0.454677505547 0)
(0.00533236582963 0.453634631358 0)
(0.00930663015839 0.451831553972 0)
(0.0130343841948 0.449316585525 0)
(0.0165183273008 0.446137538942 0)
(0.0197622810911 0.442341355925 0)
(0.0227711362957 0.43797393836 0)
(0.0255506616192 0.433079982737 0)
(0.0281074584676 0.427702834073 0)
(0.0304487822029 0.421884358472 0)
(0.0325825137144 0.415664836129 0)
(0.034516990835 0.409082869251 0)
(0.0362609925203 0.402175307204 0)
(0.0378235765694 0.394977185278 0)
(0.0392140715597 0.38752167927 0)
(0.0404419178401 0.379840074028 0)
(0.041516664326 0.37196174748 0)
(0.042447812224 0.363914169501 0)
(0.043244816238 0.355722916084 0)
(0.0439169330573 0.34741169905 0)
(0.044473229281 0.339002410363 0)
(0.0449224391006 0.330515181588 0)
(0.0452729830015 0.321968455982 0)
(0.0455328402305 0.313379073871 0)
(0.0457095831096 0.304762367192 0)
(0.0458102696891 0.296132263736 0)
(0.0458414973444 0.287501395698 0)
(0.0458093190673 0.278881213172 0)
(0.0457193178259 0.270282096385 0)
(0.045576547139 0.261713467634 0)
(0.0453856245004 0.253183896459 0)
(0.045150693649 0.24470119978 0)
(0.0448755326274 0.236272530791 0)
(0.0445635326049 0.227904459227 0)
(0.044217813894 0.219603037455 0)
(0.0438412145037 0.211373856122 0)
(0.0434364066526 0.203222084592 0)
(0.0430058879636 0.195152500939 0)
(0.0425520911927 0.187169507482 0)
(0.0420773717775 0.179277137566 0)
(0.0415841050193 0.171479050135 0)
(0.0410746655339 0.163778518418 0)
(0.0405515080641 0.156178409518 0)
(0.0400171365495 0.148681161618 0)
(0.0394741671266 0.141288755501 0)
(0.0389252867604 0.134002687215 0)
(0.0383732988633 0.126823938143 0)
(0.0378210731171 0.119752949322 0)
(0.0372715756693 0.112789595623 0)
(0.03672781291 0.105933166544 0)
(0.0361928488723 0.0991823483993 0)
(0.0356697461954 0.0925352145462 0)
(0.0351615737241 0.0859892175274 0)
(0.0346713481095 0.0795411894957 0)
(0.0342020348346 0.0731873438313 0)
(0.0337564947219 0.0669232836621 0)
(0.033337483892 0.0607440091765 0)
(0.0329476144484 0.0546439291557 0)
(0.0325893693149 0.0486168687047 0)
(0.0322651064047 0.0426560833975 0)
(0.0319771387629 0.0367542851391 0)
(0.0317278587974 0.0309037402234 0)
(0.031519949503 0.0250964677082 0)
(0.0313561953781 0.0193247619279 0)
(0.0312313914059 0.0135763596026 0)
(0.0309886650767 0.00793475612721 0)
(0.0278076669314 0.00234612668657 0)
(-0.158206062472 0.0119319880922 0)
(-0.175289914936 0.0414800136061 0)
(-0.17461814413 0.0702850681894 4.1531589448e-27)
(-0.17209868978 0.099239684196 0)
(-0.168692119767 0.127601099537 0)
(-0.164503255055 0.155255264152 0)
(-0.159596396533 0.182068130859 0)
(-0.154040303216 0.20791938068 0)
(-0.147908840994 0.232703812024 0)
(-0.141279016673 0.256332057047 0)
(-0.134229030457 0.278730585074 0)
(-0.126836510969 0.299841372361 0)
(-0.119177006602 0.319621248561 0)
(-0.111322713768 0.338040990154 0)
(-0.103341483105 0.35508422089 0)
(-0.0952960600611 0.370746178345 0)
(-0.0872435953627 0.385032397881 0)
(-0.0792353674249 0.397957368011 0)
(-0.071316747559 0.409543204509 0)
(-0.0635273305926 0.419818392979 0)
(-0.0559012501965 0.428816637817 0)
(-0.0484675781578 0.436575851094 0)
(-0.0412508183222 0.443137294641 0)
(-0.0342713836092 0.448544877881 0)
(-0.0275460792748 0.452844592134 0)
(-0.0210884954365 0.456084055898 0)
(-0.014909366518 0.458312135345 0)
(-0.00901682714208 0.45957861137 0)
(-0.00341665359491 0.459933868365 0)
(0.00188756938718 0.459428593947 0)
(0.00689425698811 0.458113480063 0)
(0.0116037398071 0.456039041481 0)
(0.0160178978635 0.453255024453 0)
(0.0201402384131 0.44981061369 0)
(0.02397560471 0.445753940674 0)
(0.0275300648692 0.441131965441 0)
(0.0308107414314 0.435990313076 0)
(0.0338256988022 0.430373134942 0)
(0.0365837922277 0.424322990663 0)
(0.0390945748024 0.417880747095 0)
(0.0413681618877 0.411085493044 0)
(0.0434151514018 0.403974467875 0)
(0.0452464970184 0.396583004305 0)
(0.0468734353526 0.388944484721 0)
(0.0483073631071 0.381090311974 0)
(0.0495597676396 0.373049894728 0)
(0.0506421065962 0.364850648401 0)
(0.0515657419445 0.356518011896 0)
(0.0523418242651 0.34807548062 0)
(0.0529812337555 0.339544655805 0)
(0.053494474419 0.330945309704 0)
(0.0538916281271 0.322295465961 0)
(0.0541822657883 0.313611493467 0)
(0.0543754213749 0.304908212151 0)
(0.0544795268313 0.29619900799 0)
(0.0545024116007 0.287495954781 0)
(0.0544512656692 0.278809939305 0)
(0.0543326669112 0.270150786973 0)
(0.0541525728371 0.261527384693 0)
(0.0539163740243 0.252947797928 0)
(0.0536289110788 0.244419379348 0)
(0.0532945485989 0.235948866462 0)
(0.0529172104521 0.227542466885 0)
(0.0525004659868 0.219205929205 0)
(0.0520475747503 0.210944599525 0)
(0.0515615754906 0.202763462463 0)
(0.051045331055 0.194667168185 0)
(0.050501611186 0.186660044861 0)
(0.0499331295574 0.178746099368 0)
(0.0493426132168 0.170929006107 0)
(0.0487328260464 0.163212087704 0)
(0.0481066204159 0.155598287495 0)
(0.0474669442742 0.148090138073 0)
(0.0468168735208 0.140689725552 0)
(0.0461596027131 0.133398654026 0)
(0.0454984591985 0.126218009281 0)
(0.0448368796085 0.11914832609 0)
(0.0441784085823 0.112189557541 0)
(0.0435266645575 0.10534105043 0)
(0.0428853268611 0.0986015244486 0)
(0.0422580949261 0.0919690587531 0)
(0.0416486679468 0.0854410831528 0)
(0.041060701949 0.0790143768314 0)
(0.0404977866111 0.0726850715883 0)
(0.0399634054556 0.0664486617091 0)
(0.0394609162802 0.0603000178015 0)
(0.0389935232089 0.0542334071046 0)
(0.0385642730567 0.0482425188957 0)
(0.0381760569428 0.0423205053375 0)
(0.0378316440996 0.0364600455582 0)
(0.0375337287038 0.0306534663741 0)
(0.0372849568012 0.0248929362453 0)
(0.0370873578887 0.0191707923261 0)
(0.0369324553577 0.0134740381825 0)
(0.0366319793164 0.00788138684989 0)
(0.0328522016864 0.00233748341843 0)
(-0.185073425245 0.0122336003879 0)
(-0.205033720165 0.0429079579221 0)
(-0.204204676957 0.0726268052404 -4.15094509361e-27)
(-0.201192702209 0.102512509124 0)
(-0.19712500801 0.131752199357 0)
(-0.192128191934 0.160221931025 0)
(-0.186281744394 0.187778450189 0)
(-0.179670429668 0.214294596958 0)
(-0.172384817739 0.23966068643 0)
(-0.164518817575 0.263785134026 0)
(-0.156167271977 0.286594246366 0)
(-0.147423825856 0.308031634605 0)
(-0.138379117386 0.328057281736 0)
(-0.129119288681 0.346646348557 0)
(-0.119724824179 0.363787789665 0)
(-0.11026969461 0.379482841093 0)
(-0.100820810686 0.393743437468 0)
(-0.0914377584293 0.406590614823 0)
(-0.0821728134824 0.418052957135 0)
(-0.0730711880358 0.428165143291 0)
(-0.0641714845005 0.436966646534 0)
(-0.0555062798777 0.444500625775 0)
(-0.0471027917323 0.450813028666 0)
(-0.0389835369231 0.455951902388 0)
(-0.0311669433646 0.459966883386 0)
(-0.0236678547529 0.462908820642 0)
(-0.0164979357407 0.464829478979 0)
(-0.00966596639516 0.465781276668 0)
(-0.00317807503699 0.465817024491 0)
(0.00296208358374 0.464989649844 0)
(0.00875313001838 0.46335191315 0)
(0.0141959054327 0.460956266338 0)
(0.0192930188513 0.4578541207 0)
(0.0240489400315 0.454096247705 0)
(0.0284696833993 0.449732155032 0)
(0.0325626482601 0.444810023551 0)
(0.0363364402658 0.439376545322 0)
(0.0398007212526 0.433476797301 0)
(0.0429660567429 0.4271541335 0)
(0.0458437909136 0.420450093485 0)
(0.0484459139898 0.413404323558 0)
(0.0507849525559 0.406054510729 0)
(0.0528738466693 0.398436328353 0)
(0.0547258463925 0.390583394692 0)
(0.0563543918219 0.382527244821 0)
(0.0577730112944 0.374297317175 0)
(0.0589952023953 0.365920955859 0)
(0.0600343320144 0.357423429507 0)
(0.0609035210023 0.348827967941 0)
(0.0616155507603 0.340155816412 0)
(0.0621827583633 0.33142630809 0)
(0.0626169578144 0.322656953162 0)
(0.0629293549065 0.31386354414 0)
(0.0631304925259 0.305060274168 0)
(0.0632301942378 0.29625986673 0)
(0.0632375411877 0.28747371235 0)
(0.0631608501644 0.278712009872 0)
(0.0630076854418 0.269983907417 0)
(0.0627848720874 0.261297640358 0)
(0.0624985407234 0.252660661734 0)
(0.062154171495 0.244079762872 0)
(0.0617566648438 0.235561180616 0)
(0.0613104072638 0.227110689813 0)
(0.0608193576774 0.218733678852 0)
(0.0602871235916 0.210435208076 0)
(0.0597170512743 0.202220050419 0)
(0.0591123005919 0.194092715165 0)
(0.0584759278107 0.186057455638 0)
(0.0578109489966 0.178118262613 0)
(0.0571204067372 0.170278845327 0)
(0.0564074150857 0.162542602367 0)
(0.0556752049861 0.154912584901 0)
(0.0549271474763 0.147391454598 0)
(0.0541667763934 0.13998143878 0)
(0.0533977901155 0.132684284839 0)
(0.0526240532715 0.125501216111 0)
(0.0518495799745 0.118432890786 0)
(0.051078518425 0.111479365391 0)
(0.0503151201811 0.104640063953 0)
(0.0495637125798 0.0979137536258 0)
(0.0488286592444 0.0912985274767 0)
(0.048114325625 0.084791794491 0)
(0.0474250361559 0.0783902771609 0)
(0.0467650383717 0.0720900162313 0)
(0.0461384625009 0.0658863828248 0)
(0.0455492903899 0.0597740976217 0)
(0.0450013246555 0.0537472583207 0)
(0.0444981702212 0.047799376942 0)
(0.0440432209089 0.0419234315109 0)
(0.0436396577977 0.0361119388977 0)
(0.0432904423671 0.0303570768801 0)
(0.042998253182 0.0246508104279 0)
(0.0427647556861 0.0189850459064 0)
(0.0425792828494 0.0133459072178 0)
(0.0422243780034 0.0078077694404 0)
(0.0378591619695 0.00232183319803 0)
(-0.212912834455 0.0125899112291 0)
(-0.235840577452 0.0446034008445 0)
(-0.234826890019 0.0754050811073 0)
(-0.23127292661 0.106392777365 0)
(-0.226480408076 0.136669037926 0)
(-0.220600496719 0.166097864839 0)
(-0.213730569602 0.194525088716 0)
(-0.205974117803 0.221815680953 0)
(-0.197441032123 0.247855065686 0)
(-0.188244524024 0.272549568166 0)
(-0.178498201341 0.295825897076 0)
(-0.168313533893 0.317630209402 0)
(-0.157797738781 0.337926816065 0)
(-0.147052071448 0.356696629719 0)
(-0.136170508569 0.373935432819 0)
(-0.125238800483 0.389652029119 0)
(-0.11433388665 0.403866335929 0)
(-0.103523657696 0.416607478112 0)
(-0.0928670550743 0.427911949611 0)
(-0.0824144711007 0.437821915603 0)
(-0.0722084050637 0.446383723052 0)
(-0.0622842912219 0.45364667649 0)
(-0.052671412164 0.459662105168 0)
(-0.0433937882336 0.464482714722 0)
(-0.0344709652691 0.468162175306 0)
(-0.0259186360467 0.470754873403 0)
(-0.0177490921806 0.472315742606 0)
(-0.00997152257855 0.472900103059 0)
(-0.00259221862316 0.472563466425 0)
(0.00438527330291 0.471361268703 0)
(0.0109599844559 0.469348692883 0)
(0.0171333718077 0.466580201176 0)
(0.0229090243667 0.463109293695 0)
(0.0282925466296 0.45898847071 0)
(0.0332913023728 0.45426880505 0)
(0.0379141958235 0.44899984798 0)
(0.0421714709062 0.443229486324 0)
(0.0460745346858 0.437003830454 0)
(0.0496357939065 0.430367121457 0)
(0.0528685114885 0.423361650042 0)
(0.0557866684527 0.416027686596 0)
(0.0584048374955 0.408403419546 0)
(0.0607380547388 0.400524904364 0)
(0.0628016977071 0.392426022818 0)
(0.0646113577865 0.384138455436 0)
(0.0661827169899 0.375691667857 0)
(0.067531418625 0.367112913605 0)
(0.0686729433079 0.358427254498 0)
(0.0696224811379 0.349657600187 0)
(0.0703948130632 0.340824767956 0)
(0.0710041932584 0.331947562584 0)