/*--------------------------------*- C++ -*----------------------------------*\
| =========                 |                                                 |
| \\      /  F ield         | OpenFOAM: The Open Source CFD Toolbox           |
|  \\    /   O peration     | Version:  v1906                                 |
|   \\  /    A nd           | Web:      www.OpenFOAM.com                      |
|    \\/     M anipulation  |                                                 |
\*---------------------------------------------------------------------------*/
FoamFile
{
    version     2.0;
    format      ascii;
    class       volVectorField;
    location    "258";
    object      U;
}
// * * * * * * * * * * * * * * * * * * * * * * * * * * * * * * * * * * * * * //

dimensions      [0 1 -1 0 0 0 0];


internalField   nonuniform List<vector> 
9216
(
(0.0027188314988 -0.00272077222764 0)
(0.00286674668975 -0.00878042146982 1.17352504495e-27)
(0.00285872092691 -0.0149346904757 1.84642067068e-31)
(0.00282159504632 -0.021089793364 0)
(0.00276999801699 -0.0271424396378 0)
(0.0027054713866 -0.0330684270015 0)
(0.00262961109098 -0.0388420510869 0)
(0.00254386526681 -0.0444403880066 0)
(0.00244941807856 -0.0498433835954 0)
(0.00234766969533 -0.0550336851178 0)
(0.00223974271382 -0.0599967623659 0)
(0.00212699403995 -0.0647206860592 0)
(0.00201041297454 -0.0691961626683 0)
(0.00189123262862 -0.0734162196951 0)
(0.00177024246223 -0.0773761663586 0)
(0.00164850574143 -0.0810732283781 0)
(0.0015265868092 -0.0845064814595 0)
(0.0014053724962 -0.0876764818028 0)
(0.00128521205034 -0.0905852083701 0)
(0.00116683716032 -0.0932357192229 0)
(0.00105041162487 -0.0956321238601 0)
(0.000936545377279 -0.0977792812526 0)
(0.00082525375087 -0.0996828069681 0)
(0.000717060150197 -0.10134881438 0)
(0.000611865405101 -0.10278395335 0)
(0.000510135345704 -0.103995190827 0)
(0.000411683916809 -0.104989870681 0)
(0.000316940823531 -0.10577552504 0)
(0.000225652417812 -0.106359946435 0)
(0.000138226418842 -0.106751025201 0)
(5.43591454668e-05 -0.106956818391 0)
(-2.55593828077e-05 -0.106985431609 0)
(-0.000101905550626 -0.106845065241 0)
(-0.000174311315675 -0.106543786928 0)
(-0.000243167343701 -0.106089757058 0)
(-0.000308108599026 -0.105491038078 0)
(-0.000369571606514 -0.104755657647 0)
(-0.000427207198058 -0.103891509406 0)
(-0.000481484923905 -0.102906390376 0)
(-0.000532068035617 -0.101807923169 0)
(-0.000579452745327 -0.100603581523 0)
(-0.000623313781444 -0.0993006349078 0)
(-0.000664166659098 -0.0979061598546 0)
(-0.000701695670306 -0.0964270070562 0)
(-0.000736428543777 -0.0948697997999 0)
(-0.000768057717786 -0.0932409256069 0)
(-0.000797115074949 -0.0915465201831 0)
(-0.000823299097721 -0.0897924823993 0)
(-0.000847138722391 -0.0879844452677 0)
(-0.000868337342555 -0.0861278146065 0)
(-0.000887413742353 -0.084227725681 0)
(-0.000904074995174 -0.0822891027854 0)
(-0.000918824231148 -0.080316603154 0)
(-0.000931372367841 -0.0783146962071 0)
(-0.000942202013478 -0.0762875936311 0)
(-0.000951028436191 -0.0742393443732 0)
(-0.000958311003384 -0.0721737525928 0)
(-0.000963771380451 -0.0700944861468 0)
(-0.000967843932128 -0.0680049817127 0)
(-0.000970259161339 -0.0659085625337 0)
(-0.000971426688535 -0.0638083326886 0)
(-0.00097108947033 -0.0617073017966 0)
(-0.000969633281296 -0.0596082684311 0)
(-0.000966817055378 -0.0575139482626 0)
(-0.000963004873406 -0.0554268491274 0)
(-0.000957975507334 -0.053349401172 0)
(-0.000952073328804 -0.0512838244486 0)
(-0.000945099940974 -0.0492322589113 0)
(-0.000937382227774 -0.0471966275381 0)
(-0.000928747086108 -0.0451787659118 0)
(-0.000919505205314 -0.0431802823288 0)
(-0.000909509838165 -0.0412026861201 0)
(-0.000899056309282 -0.0392472477179 0)
(-0.000888024352719 -0.0373151262733 0)
(-0.00087669355776 -0.0354072310576 0)
(-0.000864968893594 -0.0335243483356 0)
(-0.000853113220716 -0.0316670063643 0)
(-0.000841054688851 -0.0298356024016 0)
(-0.000829037402507 -0.0280302720614 0)
(-0.000817009619791 -0.0262510168043 0)
(-0.00080519404577 -0.024497579119 0)
(-0.00079355512267 -0.0227695716 0)
(-0.000782290049964 -0.0210663590111 0)
(-0.00077137323617 -0.0193871907967 0)
(-0.000760968288321 -0.017731094516 0)
(-0.000751044929731 -0.0160970195272 0)
(-0.000741706594136 -0.0144837585223 0)
(-0.000732861027147 -0.0128901373744 0)
(-0.000724423119744 -0.0113150527175 0)
(-0.000715924957566 -0.00975790636397 0)
(-0.000706314437559 -0.00821930824061 0)
(-0.000692736418653 -0.00670342674687 0)
(-0.000664416107364 -0.00523260213791 0)
(-0.000601850686868 -0.00370957863906 0)
(-0.000700368032565 -0.00244380415394 0)
(-0.00117942591703 -0.00117828964198 0)
(0.00880168219643 -0.00289622938061 0)
(0.00973263361774 -0.00980119384987 0)
(0.00971071434548 -0.0166935635889 -1.23233390706e-27)
(0.0095817547192 -0.0235918423178 0)
(0.00940318651307 -0.0303659561288 0)
(0.00918249507561 -0.0369942626839 0)
(0.00892394686262 -0.0434494618151 0)
(0.00863190755514 -0.0497063973888 0)
(0.00831051087262 -0.0557427836192 0)
(0.0079642644223 -0.0615393604425 0)
(0.0075972452742 -0.0670799957151 0)
(0.00721379594969 -0.0723515523271 0)
(0.00681758864437 -0.0773438231134 0)
(0.00641249253351 -0.0820492685311 0)
(0.00600153719585 -0.0864628612613 0)
(0.00558795946619 -0.0905817671293 0)
(0.00517406268318 -0.0944051619324 0)
(0.00476243333982 -0.097933910044 0)
(0.00435468515394 -0.101170397029 0)
(0.00395283021097 -0.104118240195 0)
(0.00355789656369 -0.106782160101 0)
(0.00317143994059 -0.109167737878 0)
(0.00279402851257 -0.111281331432 0)
(0.00242688334296 -0.11312988018 0)
(0.00207022836933 -0.114720860783 0)
(0.00172505141867 -0.116062131811 0)
(0.00139132309153 -0.117161918277 0)
(0.00106987139551 -0.118028685938 0)
(0.000760476184734 -0.118671143139 0)
(0.000463852459224 -0.11909813416 0)
(0.000179631954231 -0.119318651171 0)
(-9.15605623964e-05 -0.119341719734 0)
(-0.000350246188533 -0.119176431585 0)
(-0.000595884191534 -0.118831953414 0)
(-0.00082908588897 -0.118317389313 0)
(-0.00104937237303 -0.117641772733 0)
(-0.00125746593448 -0.116814064346 0)
(-0.00145295540276 -0.11584309363 0)
(-0.00163665486824 -0.114737560055 0)
(-0.00180821187806 -0.113505983518 0)
(-0.00196851633192 -0.112156701544 0)
(-0.00211726558975 -0.110697832213 0)
(-0.00225540694557 -0.109137267951 0)
(-0.00238267657614 -0.107482652141 0)
(-0.0025000595626 -0.105741370178 0)
(-0.00260731943236 -0.103920540513 0)
(-0.00270545831216 -0.102027002754 0)
(-0.00279425515155 -0.100067323023 0)
(-0.0028747095337 -0.0980477793233 0)
(-0.00294660550613 -0.0959743806933 0)
(-0.00301092197219 -0.0938528491684 0)
(-0.00306743942878 -0.0916886513379 0)
(-0.00311710152478 -0.0894869767134 0)
(-0.00315968003115 -0.0872527800528 0)
(-0.00319607235525 -0.0849907551152 0)
(-0.0032260395946 -0.082705385413 0)
(-0.00325042699018 -0.0804009129374 0)
(-0.00326898735106 -0.0780813950741 0)
(-0.00328251219346 -0.0757506672639 0)
(-0.00329075176219 -0.0734124035063 0)
(-0.0032944470254 -0.0710700727693 0)
(-0.00329335474323 -0.0687270010428 0)
(-0.00328817155205 -0.0663863210362 0)
(-0.00327867128938 -0.064051033899 0)
(-0.00326551481165 -0.0617239528164 0)
(-0.00324850423912 -0.0594077634059 0)
(-0.00322827331072 -0.0571049617586 0)
(-0.00320466217254 -0.0548179128858 0)
(-0.00317828526806 -0.052548784758 0)
(-0.00314902827262 -0.0502996050362 0)
(-0.00311749156373 -0.048072192478 0)
(-0.00308361023214 -0.0458682123818 0)
(-0.00304797294056 -0.043689107345 0)
(-0.00301056450539 -0.0415361523753 0)
(-0.00297196065965 -0.0394103864874 0)
(-0.00293219239696 -0.0373126683071 0)
(-0.00289181827802 -0.0352436101801 0)
(-0.00285090883601 -0.0332036352876 0)
(-0.00280999824005 -0.0311929152513 0)
(-0.00276918701975 -0.029211429472 0)
(-0.00272897522325 -0.0272589072915 0)
(-0.00268948096714 -0.0253348904271 0)
(-0.00265115652622 -0.0234386804976 0)
(-0.00261411912342 -0.0215694055685 0)
(-0.00257874913523 -0.0197259749828 0)
(-0.00254512395123 -0.0179071522366 0)
(-0.00251348626972 -0.0161115194406 0)
(-0.00248374600991 -0.0143375552128 0)
(-0.00245574894436 -0.0125835957482 0)
(-0.00242866916092 -0.010847848603 0)
(-0.00240067984772 -0.00912810638921 0)
(-0.00236720175646 -0.00742081549795 0)
(-0.00231711760147 -0.00571897042973 0)
(-0.0022160149746 -0.00397218562909 0)
(-0.0021709689701 -0.00216469917 0)
(-0.00244163743836 -0.000696791772218 0)
(0.0150674175912 -0.00294207136413 0)
(0.0166840176449 -0.00996192253365 0)
(0.0166241094301 -0.0169444374054 -1.23028734857e-27)
(0.0163938995962 -0.0239432942736 0)
(0.0160831805444 -0.0308143207956 0)
(0.0157017935038 -0.0375343741388 0)
(0.0152561809061 -0.0440751051651 0)
(0.0147533480961 -0.0504108189994 0)
(0.0142005384992 -0.0565188961783 0)
(0.0136052908268 -0.0623799538774 0)
(0.0129748976791 -0.0679778797973 0)
(0.012316581575 -0.073299721048 0)
(0.0116369616705 -0.0783355453948 0)
(0.0109423691126 -0.0830781951101 0)
(0.0102383288537 -0.0875230565861 0)
(0.00953001029378 -0.091667761072 0)
(0.0088217107589 -0.0955119336425 0)
(0.00811742081793 -0.0990569002691 0)
(0.00742028628604 -0.102305462182 0)
(0.0067332628605 -0.105261643222 0)
(0.00605853441365 -0.107930512177 0)
(0.00539823521852 -0.110317983079 0)
(0.00475380895108 -0.11243068874 0)
(0.0041267833865 -0.114275831144 0)
(0.00351806232908 -0.115861098941 0)
(0.00292874442129 -0.117194557876 0)
(0.00235934717814 -0.118284599429 0)
(0.00181066627549 -0.119139858527 0)
(0.00128293552209 -0.119769181443 0)
(0.000776725583655 -0.120181560192 0)
(0.000292045292136 -0.120386110509 0)
(-0.000170716128846 -0.120392017895 0)
(-0.000611732965078 -0.120208512016 0)
(-0.00103077129559 -0.119844826348 0)
(-0.0014281827483 -0.119310171745 0)
(-0.00180388163083 -0.118613695219 0)
(-0.00215837063802 -0.117764458824 0)
(-0.00249169561581 -0.116771399625 0)
(-0.00280449661973 -0.115643311607 0)
(-0.00309693579321 -0.114388811263 0)
(-0.0033697692757 -0.113016321036 0)
(-0.00362325534287 -0.111534042536 0)
(-0.00385824036084 -0.109949941864 0)
(-0.00407505488813 -0.108271731149 0)
(-0.00427460683032 -0.106506857022 0)
(-0.00445727333304 -0.104662491368 0)
(-0.00462399396968 -0.102745522508 0)
(-0.00477516669055 -0.100762554818 0)
(-0.00491173408265 -0.0987199030901 0)
(-0.00503409127145 -0.0966236008166 0)
(-0.0051431582139 -0.0944793965469 0)
(-0.00523930742335 -0.0922927694872 0)
(-0.00532341574941 -0.0900689275812 0)
(-0.00539581900818 -0.087812829285 0)
(-0.00545733688509 -0.0855291815964 0)
(-0.00550826111586 -0.0832224659213 0)
(-0.00554934782143 -0.0808969352832 0)
(-0.0055808447449 -0.0785566425971 0)
(-0.00560344563734 -0.0762054351258 0)
(-0.00561736131408 -0.0738469829644 0)
(-0.00562323144978 -0.0714847700637 0)
(-0.00562124293743 -0.0691221215009 0)
(-0.0056119948576 -0.0667621897374 0)
(-0.00559566686425 -0.064407979249 0)
(-0.00557283392765 -0.0620623281834 0)
(-0.00554368638741 -0.0597279299799 0)
(-0.00550879163096 -0.0574073102874 0)
(-0.00546836696693 -0.0551028454469 0)
(-0.00542298634191 -0.0528167359316 0)
(-0.00537290648535 -0.0505510225004 0)
(-0.00531871741489 -0.0483075570689 0)
(-0.00526072212686 -0.0460880174112 0)
(-0.00519953051979 -0.0438938773023 0)
(-0.00513549250168 -0.0417264211378 0)
(-0.00506923546652 -0.0395867145587 0)
(-0.00500115067348 -0.0374756200944 0)
(-0.00493187498485 -0.0353937698885 0)
(-0.00486183010512 -0.0333415835433 0)
(-0.00479164942539 -0.0313192437442 0)
(-0.00472176966246 -0.0293267170207 0)
(-0.00465280369676 -0.0273637331627 0)
(-0.00458518364098 -0.0254298094286 0)
(-0.00451947988706 -0.0235242338304 0)
(-0.00445609352447 -0.0216460925746 0)
(-0.00439551983553 -0.0197942565838 0)
(-0.00433808400695 -0.0179674094468 0)
(-0.00428414061183 -0.0161640295884 0)
(-0.00423383482678 -0.0143823990127 0)
(-0.00418721180296 -0.0126205338262 0)
(-0.00414396330373 -0.010876058682 0)
(-0.0041034282271 -0.00914581591954 0)
(-0.00406442801494 -0.00742491180916 0)
(-0.00402585076656 -0.00570485435691 0)
(-0.00398768828785 -0.0039624361565 0)
(-0.00397524977942 -0.0021970421695 0)
(-0.00370187577054 -0.000595702154027 0)
(0.0214809788383 -0.00298729134565 0)
(0.0238039618109 -0.0101119367974 0)
(0.0237153887798 -0.017189681988 1.22971429547e-27)
(0.0233818967308 -0.0242844912662 0)
(0.0229326682182 -0.0312461192811 0)
(0.0223821986218 -0.0380499338345 0)
(0.0217399097924 -0.0446664037102 0)
(0.0210159169876 -0.0510691349693 0)
(0.0202208469128 -0.0572351530085 0)
(0.0193655810634 -0.0631450281739 0)
(0.0184608037499 -0.0687828446375 0)
(0.0175168609322 -0.0741360584462 0)
(0.0165434046116 -0.079195291591 0)
(0.0155493986199 -0.0839540539341 0)
(0.0145428613114 -0.0884084503303 0)
(0.0135310044165 -0.092556859074 0)
(0.0125200480585 -0.096399631536 0)
(0.0115154584693 -0.0999387915837 0)
(0.0105217978501 -0.103177776339 0)
(0.00954302269339 -0.106121190119 0)
(0.00858233386644 -0.108774605951 0)
(0.0076425048645 -0.111144382271 0)
(0.00672570802604 -0.113237524458 0)
(0.00583385296208 -0.115061557099 0)
(0.00496837616513 -0.116624433602 0)
(0.00413058062359 -0.117934449525 0)
(0.00332138582101 -0.119000184771 0)
(0.00254166686364 -0.119830442926 0)
(0.00179196799911 -0.120434211921 0)
(0.00107284420088 -0.120820617205 0)
(0.000384544312736 -0.120998889726 0)
(-0.000272638171829 -0.120978334444 0)
(-0.000898704329688 -0.12076828453 0)
(-0.0014935916329 -0.120378067251 0)
(-0.00205753385507 -0.119816987898 0)
(-0.00259068554843 -0.11909428628 0)
(-0.00309349082377 -0.118219109734 0)
(-0.00356630012254 -0.117200479214 0)
(-0.00400974708728 -0.116047263989 0)
(-0.00442435447173 -0.114768152167 0)
(-0.00481091711488 -0.113371628659 0)
(-0.00517009942777 -0.111865951367 0)
(-0.00550282227152 -0.11025913351 0)
(-0.00580985537992 -0.108558926647 0)
(-0.00609220628927 -0.106772808154 0)
(-0.00635071086531 -0.104907971542 0)
(-0.00658642221163 -0.102971319279 0)
(-0.00680020301334 -0.10096946049 0)
(-0.00699311257976 -0.0989087089721 0)
(-0.00716600421062 -0.0967950877114 0)
(-0.00731990830857 -0.0946343313539 0)
(-0.00745563825969 -0.0924318966392 0)
(-0.00757416780801 -0.090192968346 0)
(-0.00767624823798 -0.0879224742036 0)
(-0.0077627780173 -0.0856250928194 0)
(-0.00783443409322 -0.0833052714006 0)
(-0.0078920320049 -0.0809672340993 0)
(-0.00793617317754 -0.0786150005934 0)
(-0.00796759345246 -0.0762523930457 0)
(-0.00798682803287 -0.0738830537008 0)
(-0.00799454648247 -0.0715104489864 0)
(-0.00799123597659 -0.0691378844969 0)
(-0.00797752061066 -0.0667685049998 0)
(-0.00795386339274 -0.0644053057475 0)
(-0.0079208679318 -0.0620511279207 0)
(-0.00787899888483 -0.0597086658431 0)
(-0.00782886417463 -0.0573804579147 0)
(-0.00777095369956 -0.0550688900403 0)
(-0.00770590074573 -0.0527761829145 0)
(-0.00763423848237 -0.0505043925537 0)
(-0.00755663959974 -0.0482553951269 0)
(-0.00747369048552 -0.0460308858975 0)
(-0.00738610874741 -0.0438323631996 0)
(-0.00729453491766 -0.0416611272566 0)
(-0.00719972788623 -0.0395182647799 0)
(-0.00710237435481 -0.0374046490622 0)
(-0.00700326263734 -0.0353209266231 0)
(-0.00690311000219 -0.0332675197388 0)
(-0.00680271539807 -0.031244616075 0)
(-0.00670280496183 -0.0292521744056 0)
(-0.00660416423568 -0.0272899177986 0)
(-0.0065075017223 -0.0253573427304 0)
(-0.00641356070324 -0.0234537155283 0)
(-0.00632300014408 -0.0215780839296 0)
(-0.00623648529941 -0.0197292747758 0)
(-0.00615458387237 -0.0179059035738 0)
(-0.00607783348562 -0.0161063641319 0)
(-0.0060066519242 -0.014328817344 0)
(-0.0059413887839 -0.0125711378946 0)
(-0.00588228100274 -0.010830821515 0)
(-0.00582959784286 -0.00910479287508 0)
(-0.00578395135836 -0.00738910804726 0)
(-0.00574732963299 -0.0056787917212 0)
(-0.00572409290734 -0.00396595611458 0)
(-0.00570616159585 -0.00227763219077 0)
(-0.00520617889614 -0.000652164757866 0)
(0.0280010407615 -0.0030466619221 0)
(0.031032231717 -0.0103091416634 0)
(0.0309123818029 -0.0175190120917 0)
(0.0304702760925 -0.0247427794039 0)
(0.029875252571 -0.0318253486691 0)
(0.0291469305427 -0.0387403774699 0)
(0.028298180667 -0.0454569018608 0)
(0.0273426885704 -0.0519476162068 0)
(0.026294817668 -0.0581891040597 0)
(0.025169151222 -0.0641619168976 0)
(0.0239800003743 -0.0698504721273 0)
(0.0227410805176 -0.0752428447895 0)
(0.0214651830256 -0.0803304813215 0)
(0.0201640375743 -0.0851078554311 0)
(0.0188481473004 -0.0895721041156 0)
(0.017526811814 -0.0937226564118 0)
(0.0162080836389 -0.097560882945 0)
(0.0148988996765 -0.101089768512 0)
(0.0136051034446 -0.104313625282 0)
(0.0123316310233 -0.107237840296 0)
(0.0110825507821 -0.109868667342 0)
(0.00986126257806 -0.112213051502 0)
(0.00867052243782 -0.114278492014 0)
(0.00751263042825 -0.116072929647 0)
(0.00638942400625 -0.117604662563 0)
(0.00530244458353 -0.118882276711 0)
(0.00425289588855 -0.119914594554 0)
(0.00324178959101 -0.120710629591 0)
(0.00226987323251 -0.121279551446 0)
(0.00133776100748 -0.121630650883 0)
(0.000445839263859 -0.121773307681 0)
(-0.000405608965326 -0.121716972894 0)
(-0.00121651160677 -0.121471109123 0)
(-0.00198688451294 -0.121045175557 0)
(-0.00271694862621 -0.120448602296 0)
(-0.00340700185263 -0.119690749767 0)
(-0.00405753761322 -0.118780879074 0)
(-0.0046691125755 -0.117728119868 0)
(-0.00524246623525 -0.116541441529 0)
(-0.00577838316077 -0.11522962467 0)
(-0.00627781252071 -0.113801236355 0)
(-0.00674172587575 -0.112264606984 0)
(-0.00717123645959 -0.110627810794 0)
(-0.00756745419437 -0.108898649178 0)
(-0.0079316047769 -0.107084637541 0)
(-0.00826488375209 -0.105192995733 0)
(-0.00856857556913 -0.103230641349 0)
(-0.00884390864832 -0.101204187168 0)
(-0.00909217451486 -0.0991199408616 0)
(-0.00931458566514 -0.096983909013 0)
(-0.00951239486946 -0.0948018023339 0)
(-0.00968675760093 -0.0925790451757 0)
(-0.00983885150279 -0.0903207852741 0)
(-0.00996974487636 -0.0880319074339 0)
(-0.0100805162029 -0.0857170460371 0)
(-0.0101721299526 -0.0833806010227 0)
(-0.0102455557969 -0.0810267514549 0)
(-0.010301652477 -0.0786594718671 0)
(-0.010341286011 -0.0762825447186 0)
(-0.0103652218745 -0.0738995750127 0)
(-0.0103742410913 -0.0715139999596 0)
(-0.0103690403293 -0.0691291002367 0)
(-0.0103503444067 -0.0667480053037 0)
(-0.0103188134998 -0.0643737001101 0)
(-0.010275150386 -0.0620090255012 0)
(-0.0102200136269 -0.0596566800857 0)
(-0.010154117898 -0.0573192156856 0)
(-0.0100781520705 -0.0549990347557 0)
(-0.00999287125353 -0.0526983818515 0)
(-0.00989901887125 -0.0504193377754 0)
(-0.00979740949097 -0.0481638083455 0)
(-0.00968885443494 -0.0459335167737 0)
(-0.00957423500005 -0.0437299915265 0)
(-0.00945443151097 -0.041554558674 0)
(-0.00933038701866 -0.0394083304272 0)
(-0.0092030401184 -0.0372921989945 0)
(-0.00907337959457 -0.0352068273337 0)
(-0.00894238152401 -0.0331526457927 0)
(-0.00881105552928 -0.0311298460148 0)
(-0.0086803868202 -0.0291383810872 0)
(-0.00855137474924 -0.0271779630965 0)
(-0.00842498030834 -0.02524806686 0)
(-0.0083021575222 -0.0233479306324 0)
(-0.00818380678 -0.0214765622767 0)
(-0.00807079960634 -0.0196327410967 0)
(-0.00796393870403 -0.0178150226203 0)
(-0.00786397871305 -0.016021734899 0)
(-0.00777159988984 -0.0142509714289 0)
(-0.00768744271895 -0.0125005670442 0)
(-0.00761213609265 -0.0107680660569 0)
(-0.00754643454626 -0.00905069131169 0)
(-0.00749146885637 -0.00734536301994 0)
(-0.00744918142674 -0.00564900301058 0)
(-0.00742109570776 -0.00395777419236 0)
(-0.00737554501243 -0.00230023622937 0)
(-0.00664370197304 -0.000672320850629 0)
(0.0346654187649 -0.00312189020853 0)
(0.0384157260688 -0.0105615958001 0)
(0.0382599839644 -0.0179429966928 0)
(0.0377012449473 -0.0253329661307 0)
(0.0369500517722 -0.0325707170921 0)
(0.0360316536186 -0.0396278136724 0)
(0.0349629236396 -0.0464715532128 0)
(0.0337616868322 -0.053073531566 0)
(0.0324465472233 -0.059409846675 0)
(0.0310362513487 -0.0654611191544 0)
(0.0295490903175 -0.0712123006148 0)
(0.0280024435978 -0.0766523666697 0)
(0.0264124170439 -0.0817739248174 0)
(0.0247936346483 -0.0865727730862 0)
(0.0231591053448 -0.0910474462973 0)
(0.0215202197109 -0.0951987733899 0)
(0.0198867802349 -0.0990294684338 0)
(0.0182671264908 -0.102543764413 0)
(0.016668250543 -0.10574709933 0)
(0.015095977024 -0.108645852813 0)
(0.0135550994817 -0.11124713422 0)
(0.0120495625836 -0.11355861453 0)
(0.0105825787892 -0.11558839905 0)
(0.00915678333633 -0.117344931156 0)
(0.00777431238967 -0.118836923069 0)
(0.00643692074067 -0.120073304302 0)
(0.00514601887915 -0.121063184673 0)
(0.00390275630058 -0.121815824178 0)
(0.00270802487938 -0.122340608395 0)
(0.0015625176577 -0.122647024036 0)
(0.000466709802916 -0.122744631267 0)
(-0.000579096862214 -0.122643059457 0)
(-0.00157479928078 -0.122351929451 0)
(-0.00252045718478 -0.121880866237 0)
(-0.00341632455654 -0.121239456504 0)
(-0.00426280733659 -0.120437212661 0)
(-0.00506049637036 -0.11948354099 0)
(-0.00581012024696 -0.118387708685 0)
(-0.00651257592981 -0.117158813104 0)
(-0.00716887703348 -0.115805752182 0)
(-0.00778018180287 -0.114337198007 0)
(-0.0083477375272 -0.112761572687 0)
(-0.00887290649853 -0.111087027982 0)
(-0.00935710803181 -0.109321428042 0)
(-0.00980184343552 -0.107472336037 0)
(-0.0102086371583 -0.105547004345 0)
(-0.0105790617689 -0.103552368472 0)
(-0.0109146798869 -0.101495044719 0)
(-0.0112170701808 -0.0993813311139 0)
(-0.0114877715148 -0.0972172119751 0)
(-0.0117283108174 -0.095008365068 0)
(-0.0119401509133 -0.0927601720812 0)
(-0.0121247210784 -0.0904777307545 0)
(-0.0122833697117 -0.0881658697201 0)
(-0.0124173981351 -0.0858291638778 0)
(-0.0125280190828 -0.0834719516805 0)
(-0.0126163940165 -0.0810983516649 0)
(-0.0126835977823 -0.0787122799028 0)
(-0.0127306591229 -0.0763174653972 0)
(-0.0127585313291 -0.0739174654386 0)
(-0.012768135063 -0.071515677744 0)
(-0.0127603340252 -0.0691153517368 0)
(-0.0127359785673 -0.0667195957819 0)
(-0.0126958849591 -0.0643313831225 0)
(-0.0126408779441 -0.0619535534033 0)
(-0.012571771808 -0.0595888128722 0)
(-0.0124894099469 -0.0572397303121 0)
(-0.0123946461145 -0.0549087320835 0)
(-0.0122883794091 -0.0525980934979 0)
(-0.0121715343784 -0.0503099300473 0)
(-0.0120450903403 -0.0480461858547 0)
(-0.0119100596887 -0.0458086229256 0)
(-0.0117675111467 -0.0435988086425 0)
(-0.0116185461496 -0.04141810499 0)
(-0.0114643162006 -0.0392676569869 0)
(-0.0113059977965 -0.0371483836606 0)
(-0.0111448045431 -0.0350609690381 0)
(-0.0109819613805 -0.0330058562289 0)
(-0.0108187123702 -0.0309832420471 0)
(-0.0106562952065 -0.0289930749853 0)
(-0.0104959457125 -0.0270350538979 0)
(-0.0103388736093 -0.0251086299159 0)
(-0.0101862647838 -0.0232130087588 0)
(-0.0100392594701 -0.0213471556387 0)
(-0.00989895380429 -0.0195097996974 0)
(-0.00976638273391 -0.0176994395271 0)
(-0.0096425250318 -0.0159143464691 0)
(-0.00952829890586 -0.0141525672352 0)
(-0.00942458580219 -0.0124119251444 0)
(-0.00933226513456 -0.0106900303853 0)
(-0.00925229793103 -0.00898431665287 0)
(-0.0091858446821 -0.00729215254741 0)
(-0.00913428843932 -0.00561113496751 0)
(-0.00909685201207 -0.00393795059844 0)
(-0.0090284607565 -0.0022991840493 0)
(-0.00810648763365 -0.000675689401267 0)
(0.0415110767906 -0.00321507963653 0)
(0.0459963278957 -0.0108750146413 0)
(0.045798248483 -0.0184699580992 1.22011163823e-27)
(0.045112015801 -0.0260661750365 0)
(0.0441908503391 -0.033495744195 0)
(0.0430663057425 -0.0407275980603 0)
(0.0417599716572 -0.0477269273348 0)
(0.0402945387182 -0.0544640557098 0)
(0.0386935186221 -0.060914608904 0)
(0.0369804073287 -0.0670594492823 0)
(0.0351779392387 -0.0728843611973 0)
(0.0333075103573 -0.0783796049496 0)
(0.0313887623315 -0.08353938243 0)
(0.0294393388762 -0.08836126427 0)
(0.027474774494 -0.0928456208548 0)
(0.0255085118867 -0.0969950876709 0)
(0.0235519961935 -0.100814086324 0)
(0.0216148434537 -0.104308412046 0)
(0.0197050323293 -0.107484891932 0)
(0.0178291260508 -0.110351111557 0)
(0.0159924794073 -0.112915204666 0)
(0.0141994490222 -0.11518569745 0)
(0.0124535673079 -0.117171398577 0)
(0.0107577080459 -0.118881325132 0)
(0.0091142075249 -0.120324655725 0)
(0.00752497659554 -0.121510702002 0)
(0.00599156908085 -0.122448891726 0)
(0.00451524725196 -0.123148757032 0)
(0.00309700943803 -0.123619923982 0)
(0.00173762368992 -0.123872099801 0)
(0.000437630502709 -0.123915051707 0)
(-0.000802643874864 -0.123758617935 0)
(-0.00198308189224 -0.123412603857 0)
(-0.00310377777619 -0.122886834602 0)
(-0.00416503772252 -0.12219108546 0)
(-0.00516736733801 -0.121335053663 0)
(-0.00611147712527 -0.120328322973 0)
(-0.00699826220784 -0.119180329168 0)
(-0.00782880316888 -0.117900326665 0)
(-0.00860434049466 -0.116497357368 0)
(-0.00932627091766 -0.114980222029 0)
(-0.00999611765347 -0.113357455101 0)
(-0.0106155235654 -0.111637302861 0)
(-0.0111862188424 -0.109827705723 0)
(-0.0117100125668 -0.107936284242 0)
(-0.0121887595839 -0.105970329526 0)
(-0.0126243520607 -0.103936797361 0)
(-0.0130186872097 -0.101842306621 0)
(-0.0133736602795 -0.0996931412414 0)
(-0.0136911346686 -0.0974952560612 0)
(-0.0139729377049 -0.0952542857684 0)
(-0.0142208345886 -0.0929755570581 0)
(-0.0144365281887 -0.090664103255 0)
(-0.014621638089 -0.0883246812046 0)
(-0.0147777054333 -0.0859617896389 0)
(-0.014906178033 -0.0835796886307 0)
(-0.0150084208346 -0.0811824193698 0)
(-0.0150857074526 -0.0787738236638 0)
(-0.015139236157 -0.0763575624301 0)
(-0.0151701274047 -0.0739371325843 0)
(-0.0151794443815 -0.0715158817586 0)
(-0.0151681952234 -0.0690970203151 0)
(-0.0151373563542 -0.0666836302906 0)
(-0.0150878773961 -0.0642786710217 0)
(-0.0150207050075 -0.0618849813794 0)
(-0.0149367881325 -0.0595052786185 0)
(-0.0148370999651 -0.0571421540399 0)
(-0.0147226413426 -0.0547980657947 0)
(-0.0145944588231 -0.0524753292405 0)
(-0.0144536445701 -0.0501761053948 0)
(-0.0143013492447 -0.0479023879297 0)
(-0.0141387775273 -0.0456559894575 0)
(-0.0139671953548 -0.0434385274931 0)
(-0.0137879210217 -0.0412514108821 0)
(-0.0136023270535 -0.039095826903 0)
(-0.0134118275168 -0.0369727298639 0)
(-0.0132178753891 -0.0348828311703 0)
(-0.0130219471529 -0.0328265916219 0)
(-0.0128255368796 -0.0308042156204 0)
(-0.0126301394417 -0.0288156480114 0)
(-0.01243724269 -0.0268605729113 0)
(-0.0122483107109 -0.0249384151977 0)
(-0.0120647755864 -0.0230483436405 0)
(-0.0118880223422 -0.0211892763486 0)
(-0.0117193822446 -0.0193598873404 0)
(-0.0115601220702 -0.0175586147783 0)
(-0.0114114427745 -0.0157836699753 0)
(-0.0112744789738 -0.0140330491007 0)
(-0.0111503117903 -0.0123045482206 0)
(-0.0110399896901 -0.0105957917364 0)
(-0.0109445639671 -0.00890429232999 0)
(-0.0108651131665 -0.00722754466277 0)
(-0.0108025779549 -0.00556319721984 0)
(-0.0107547865305 -0.00390760415025 0)
(-0.0106668256151 -0.00228560572505 0)
(-0.00956769139886 -0.000673036843241 0)
(0.04857904038 -0.00332834622942 0)
(0.0538191317599 -0.0112560348727 0)
(0.0535703487825 -0.0191104069765 -1.21946053692e-27)
(0.0527425368489 -0.0269564503537 0)
(0.0516335810599 -0.0346173477654 0)
(0.0502822853449 -0.0420587516707 0)
(0.048715914035 -0.049243330174 0)
(0.0469629718082 -0.0561399911927 0)
(0.0450527438732 -0.0627239839529 0)
(0.0430142144801 -0.0689767039542 0)
(0.0408751390452 -0.0748852026451 0)
(0.0386613444658 -0.0804415483966 0)
(0.0363962590388 -0.0856421009849 0)
(0.0341006595578 -0.090486765571 0)
(0.0317925985182 -0.0949782779641 0)
(0.0294874787684 -0.0991215564511 0)
(0.0271982291432 -0.102923141741 0)
(0.0249355508573 -0.106390733286 0)
(0.0227081952901 -0.10953282188 0)
(0.0205232554779 -0.112358411023 0)
(0.0183864437621 -0.114876816671 0)
(0.0163023509875 -0.117097532182 0)
(0.0142746695266 -0.1190301457 0)
(0.0123063853519 -0.120684296728 0)
(0.0103999278383 -0.122069660416 0)
(0.00855728923198 -0.123195948751 0)
(0.00678010615003 -0.124072920123 0)
(0.00506971923268 -0.124710390029 0)
(0.00342720474686 -0.125118238233 0)
(0.00185339579979 -0.125306408853 0)
(0.000348887389589 -0.125284897615 0)
(-0.00108597024995 -0.125063780107 0)
(-0.00245105112584 -0.124653070489 0)
(-0.00374648159933 -0.124062828963 0)
(-0.00497262867432 -0.123303052774 0)
(-0.0061300988884 -0.122383658581 0)
(-0.00721973575138 -0.121314442184 0)
(-0.00824260706653 -0.120105040856 0)
(-0.00919999550198 -0.118764897322 0)
(-0.010093379005 -0.117303225666 0)
(-0.0109244154364 -0.115728980707 0)
(-0.0116949177072 -0.114050830685 0)
(-0.0124068344412 -0.112277134337 0)
(-0.0130622220018 -0.11041592203 0)
(-0.0136632233166 -0.108474881596 0)
(-0.0142120389072 -0.106461348493 0)
(-0.014710905819 -0.1043823006 0)
(-0.015162069601 -0.102244357297 0)
(-0.0155677650986 -0.1000537828 0)
(-0.0159301911194 -0.0978164935061 0)
(-0.0162514946963 -0.0955380689841 0)
(-0.0165337501242 -0.0932237664611 0)
(-0.016778948248 -0.0908785380629 0)
(-0.0169889814013 -0.0885070506934 0)
(-0.017165639057 -0.0861137074819 0)
(-0.0173105998944 -0.0837026706809 0)
(-0.0174254346718 -0.0812778846321 0)
(-0.0175116059155 -0.0788430987271 0)
(-0.0175704779933 -0.0764018888134 0)
(-0.0176033239365 -0.0739576770942 0)
(-0.0176113416089 -0.0715137489661 0)
(-0.0175956660086 -0.0690732670866 0)
(-0.017557389344 -0.0666392813087 0)
(-0.017497576267 -0.0642147351053 0)
(-0.0174172849756 -0.0618024674466 0)
(-0.0173175823592 -0.0594052111121 0)
(-0.0171995631188 -0.0570255867788 0)
(-0.0170643620259 -0.0546660941694 0)
(-0.0169131685648 -0.0523290999222 0)
(-0.0167472342211 -0.0500168236299 0)
(-0.0165678810781 -0.0477313219344 0)
(-0.0163765031096 -0.0454744721137 0)
(-0.0161745682465 -0.0432479551669 0)
(-0.0159636136676 -0.0410532396651 0)
(-0.015745241792 -0.0388915664 0)
(-0.0155211104222 -0.0367639348498 0)
(-0.0152929238269 -0.0346710914591 0)
(-0.0150624191254 -0.0326135204297 0)
(-0.014831354052 -0.0305914369672 0)
(-0.0146014912803 -0.0286047833422 0)
(-0.0143745846601 -0.0266532276246 0)
(-0.0141523632733 -0.0247361651754 0)
(-0.0139365180077 -0.0228527226548 0)
(-0.0137286872581 -0.0210017644591 0)
(-0.0135304459235 -0.0191819014812 0)
(-0.0133432951143 -0.0173915020028 0)
(-0.0131686564004 -0.0156287052067 0)
(-0.01300786882 -0.0138914379729 0)
(-0.0128621919089 -0.0121774375044 0)
(-0.0127328114078 -0.0104842847473 0)
(-0.0126208446991 -0.00880945381483 0)
(-0.0125273225779 -0.0071503826464 0)