/*--------------------------------*- C++ -*----------------------------------*\
| =========                 |                                                 |
| \\      /  F ield         | OpenFOAM: The Open Source CFD Toolbox           |
|  \\    /   O peration     | Version:  v1906                                 |
|   \\  /    A nd           | Web:      www.OpenFOAM.com                      |
|    \\/     M anipulation  |                                                 |
\*---------------------------------------------------------------------------*/
FoamFile
{
    version     2.0;
    format      ascii;
    class       volVectorField;
    location    "664";
    object      U;
}
// * * * * * * * * * * * * * * * * * * * * * * * * * * * * * * * * * * * * * //

dimensions      [0 1 -1 0 0 0 0];


internalField   nonuniform List<vector> 
9216
(
(0.00270945244343 -0.00271193297455 0)
(0.00285671185611 -0.00875184121235 1.17217872961e-27)
(0.00284855358548 -0.0148858012137 1.84079334348e-31)
(0.00281127007425 -0.0210201444178 0)
(0.00275951658091 -0.027051681891 0)
(0.00269474322228 -0.032956153087 0)
(0.00261864792463 -0.0387077133173 0)
(0.00253256027915 -0.0442833887551 0)
(0.00243779729743 -0.0496629833356 0)
(0.00233561297985 -0.0548290957449 0)
(0.00222729240009 -0.0597670557971 0)
(0.00211401784266 -0.0644648907642 0)
(0.00199697125203 -0.0689131730153 0)
(0.00187718273554 -0.073104894527 0)
(0.00175566450253 -0.0770352396798 0)
(0.0016332480188 -0.0807014103666 0)
(0.00151075074312 -0.084102371108 0)
(0.00138879926826 -0.0872386685162 0)
(0.00126802570439 -0.090112187133 0)
(0.00114887292802 -0.092725992947 0)
(0.00103181715144 -0.095084121626 0)
(0.000917151754961 -0.0971914591261 0)
(0.000805232875968 -0.0990535699487 0)
(0.000696239949577 -0.100676615963 0)
(0.000590442371616 -0.102067221794 0)
(0.000487936009789 -0.103232425012 0)
(0.000388929463037 -0.104179571488 0)
(0.000293457399277 -0.104916288053 0)
(0.000201685994911 -0.105450399335 0)
(0.000113605598532 -0.105789915601 0)
(2.93568558055e-05 -0.105942951687 0)
(-5.1118988794e-05 -0.105917790796 0)
(-0.000127734468237 -0.105722664669 0)
(-0.000200571821425 -0.105365845493 0)
(-0.000269542332175 -0.104855617522 0)
(-0.000334758077392 -0.104200240794 0)
(-0.000396158346999 -0.103407906655 0)
(-0.000453884384255 -0.102486729635 0)
(-0.00050789610842 -0.101444704164 0)
(-0.00055835891222 -0.100289697785 0)
(-0.000605250201739 -0.0990294150316 0)
(-0.000648755286401 -0.0976713905393 0)
(-0.000688866028754 -0.0962229609349 0)
(-0.000725783248614 -0.0946912585875 0)
(-0.000759509686185 -0.0930831915136 0)
(-0.000790256795921 -0.0914054376296 0)
(-0.000818034681139 -0.0896644333266 0)
(-0.0008430607451 -0.0878663686096 0)
(-0.000865348884192 -0.0860171836799 0)
(-0.000885117877071 -0.0841225643155 0)
(-0.000902382459152 -0.0821879463925 0)
(-0.000917358963847 -0.0802185113551 0)
(-0.000930060481373 -0.07821919737 0)
(-0.000940697703583 -0.0761946938045 0)
(-0.00094928062147 -0.0741494583804 0)
(-0.000956012212347 -0.0720877101549 0)
(-0.000960898681365 -0.0700134509985 0)
(-0.000964134074026 -0.067930455859 0)
(-0.000965721236257 -0.0658422977303 0)
(-0.0009658451766 -0.0637523347229 0)
(-0.000964506461263 -0.0616637369593 0)
(-0.000961881596513 -0.0595794695734 0)
(-0.000957970682126 -0.0575023210065 0)
(-0.000952942897598 -0.0554348819677 0)
(-0.000946799808132 -0.0533795741655 0)
(-0.000939704494693 -0.0513386250843 0)
(-0.000931661981355 -0.0493140972684 0)
(-0.000922830446831 -0.047307859646 0)
(-0.000913219869431 -0.0453216171202 0)
(-0.000902984213582 -0.0433568789831 0)
(-0.00089213943893 -0.0414149894333 0)
(-0.000880835517397 -0.0394970942185 0)
(-0.000869094635596 -0.0376041722218 0)
(-0.000857062312992 -0.0357370011079 0)
(-0.000844766640964 -0.0338961906575 0)
(-0.000832347756978 -0.0320821484535 0)
(-0.000819838694034 -0.0302951150641 0)
(-0.000807372796493 -0.0285351303389 0)
(-0.000794986729395 -0.0268020708585 0)
(-0.000782805394793 -0.0250956174799 0)
(-0.000770867433196 -0.0234152949773 0)
(-0.000759287407298 -0.0217604411194 0)
(-0.000748104048181 -0.0201302487661 0)
(-0.000737419347624 -0.0185237370311 0)
(-0.00072726946831 -0.0169397962542 0)
(-0.000717740066163 -0.0153771627509 0)
(-0.000708858579115 -0.0138344697522 0)
(-0.000700682300127 -0.0123102331699 0)
(-0.000693203274853 -0.0108029253562 0)
(-0.00068638542602 -0.00931101595319 0)
(-0.000680016384654 -0.00783317053526 0)
(-0.000673523327737 -0.00636866761939 0)
(-0.000665289305444 -0.00491873244626 0)
(-0.000648109895505 -0.0034976827059 0)
(-0.00061694027754 -0.00200336492814 0)
(-0.00087370269533 -0.00087351449314 0)
(0.00877159754571 -0.00288694124509 0)
(0.00969902495353 -0.00976958265458 0)
(0.00967661333282 -0.0166394260629 -1.23092382091e-27)
(0.00954716208369 -0.0235146495368 0)
(0.00936803014179 -0.0302653594229 0)
(0.00914655531822 -0.036869801561 0)
(0.00888715573773 -0.0433005443732 0)
(0.00859402201227 -0.0495323437939 0)
(0.00827148507312 -0.055542785033 0)
(0.00792383778948 -0.0613125226964 0)
(0.00755539928757 -0.0668252986276 0)
(0.00717025706902 -0.0720678955189 0)
(0.00677237114466 -0.0770299866758 0)
(0.00636531541751 -0.0817039611721 0)
(0.00595245327562 -0.0860846828418 0)
(0.00553668566784 -0.0901692589167 0)
(0.00512069579838 -0.0939567711727 0)
(0.00470669376892 -0.0974480418791 0)
(0.00429671839892 -0.100645381303 0)
(0.00389236476276 -0.103552384457 0)
(0.00349513046671 -0.10617371864 0)
(0.00310611431748 -0.108514965156 0)
(0.00272639689183 -0.110582453543 0)
(0.00235670303418 -0.112383148152 0)
(0.00199781052361 -0.113924524508 0)
(0.00165017328482 -0.115214492556 0)
(0.00131435493554 -0.116261305393 0)
(0.000990613460323 -0.117073508084 0)
(0.000679359018814 -0.117659867725 0)
(0.000380703477854 -0.118029335865 0)
(9.49444954564e-05 -0.118190998281 0)
(-0.00017793618841 -0.118153990318 0)
(-0.000437763217801 -0.117927586047 0)
(-0.000684651104052 -0.11752109298 0)
(-0.000918490731141 -0.116943779149 0)
(-0.00113949168905 -0.116204877777 0)
(-0.00134763093892 -0.115313546396 0)
(-0.00154320629359 -0.114278846811 0)
(-0.00172626870169 -0.113109711068 0)
(-0.00189719251662 -0.111814921749 0)
(-0.00205609240321 -0.110403082716 0)
(-0.00220340661768 -0.108882601864 0)
(-0.00233930196229 -0.10726166789 0)
(-0.00246426651771 -0.105548236267 0)
(-0.00257850614737 -0.103750012506 0)
(-0.00268254354117 -0.101874441694 0)
(-0.00277661022153 -0.0999286985431 0)
(-0.0028612484341 -0.0979196805364 0)
(-0.00293670229445 -0.0958540044584 0)
(-0.00300351939879 -0.0937380027742 0)
(-0.00306194500717 -0.0915777261845 0)
(-0.00311251994842 -0.0893789426293 0)
(-0.00315548130923 -0.087147144871 0)
(-0.00319135357279 -0.0848875511711 0)
(-0.00322035941624 -0.0826051168776 0)
(-0.00324300076631 -0.0803045357324 0)
(-0.003259482793 -0.0779902540692 0)
(-0.00327028193283 -0.0756664715544 0)
(-0.00327558617716 -0.0733371568102 0)
(-0.00327584689799 -0.0710060465646 0)
(-0.00327123796256 -0.0686766614347 0)
(-0.00326218858389 -0.0663523026029 0)
(-0.00324886374487 -0.0640360669964 0)
(-0.00323167518379 -0.0617308410586 0)
(-0.0032107850931 -0.0594393147441 0)
(-0.00318659282245 -0.0571639722835 0)
(-0.00315926380161 -0.0549071050387 0)
(-0.00312918958952 -0.052670799669 0)
(-0.00309654356828 -0.0504569500695 0)
(-0.00306171252224 -0.048267243579 0)
(-0.00302488067482 -0.0461031726741 0)
(-0.00298643113307 -0.0439660201388 0)
(-0.00294655951467 -0.0418568711266 0)
(-0.00290564412847 -0.039776598155 0)
(-0.00286389043486 -0.0377258742933 0)
(-0.00282166897169 -0.0357051588406 0)
(-0.00277919158255 -0.0337147121142 0)
(-0.00273681650155 -0.0317545824048 0)
(-0.00269475721173 -0.0298246228148 0)
(-0.00265335414995 -0.0279244799664 0)
(-0.00261281674899 -0.0260536130293 0)
(-0.00257346142055 -0.024211284398 0)
(-0.00253548714055 -0.0223965810726 0)
(-0.00249917913638 -0.0206084075426 0)
(-0.00246471770232 -0.0188455096102 0)
(-0.00243234618892 -0.0171064697633 0)
(-0.00240221045054 -0.0153897336591 0)
(-0.00237448491772 -0.0136936076099 0)
(-0.00234922841372 -0.0120162833335 0)
(-0.00232643510627 -0.0103558199709 0)
(-0.00230582422061 -0.00871010108196 0)
(-0.00228662434722 -0.007076587529 0)
(-0.00226673714302 -0.00545135232593 0)
(-0.00224014844065 -0.00382588180977 0)
(-0.00217417348114 -0.00216941783755 0)
(-0.00200189117452 -0.000614881780282 0)
(0.0150162997795 -0.00293281769279 0)
(0.0166268628715 -0.00993037468222 0)
(0.0165661513235 -0.0168904739055 -1.22888493124e-27)
(0.0163351622715 -0.0238663449811 0)
(0.0160234493042 -0.0307140385845 0)
(0.0156407778962 -0.0374102889644 0)
(0.0151936592506 -0.0439266281524 0)
(0.0146890207399 -0.0502372584038 0)
(0.014134196191 -0.0563194429679 0)
(0.0135366309054 -0.0621536977676 0)
(0.0129037303898 -0.0677237960398 0)
(0.0122426092373 -0.0730166883419 0)
(0.011560023045 -0.0780223345645 0)
(0.0108621809628 -0.0827334889832 0)
(0.0101547682171 -0.0871454408764 0)
(0.00944281808095 -0.091255746487 0)
(0.00873081171412 -0.0950639489395 0)
(0.0080225891095 -0.0985713159769 0)
(0.00732150269676 -0.10178058574 0)
(0.00663034274546 -0.104695744283 0)
(0.00595152159613 -0.107321819573 0)
(0.00528699303159 -0.109664710897 0)
(0.00463844992256 -0.111731035041 0)
(0.00400722446087 -0.113528004868 0)
(0.00339448928757 -0.115063320171 0)
(0.00280113267408 -0.116345084782 0)
(0.00222795936288 -0.117381730115 0)
(0.00167554037892 -0.118181958215 0)
(0.0011444139106 -0.118754685749 0)
(0.000634912292844 -0.119109001704 0)
(0.000147363307748 -0.119254124842 0)
(-0.000318091318753 -0.119199367176 0)
(-0.000761289637505 -0.11895409648 0)
(-0.00118226311512 -0.118527706829 0)
(-0.00158101523072 -0.117929580242 0)
(-0.00195773192043 -0.117169058359 0)
(-0.00231255898349 -0.116255408264 0)
(-0.00264582361099 -0.115197795363 0)
(-0.00295780247409 -0.114005253556 0)
(-0.00324894837065 -0.112686660616 0)
(-0.00351965150647 -0.111250712291 0)
(-0.00377047029619 -0.109705901297 0)
(-0.00400188746805 -0.108060496525 0)
(-0.00421454389557 -0.106322526541 0)
(-0.0044089912535 -0.104499764345 0)
(-0.00458592793734 -0.102599715692 0)
(-0.00474595014809 -0.100629609781 0)
(-0.00488978889158 -0.0985963925083 0)
(-0.00501806129919 -0.0965067227018 0)
(-0.00513150777538 -0.0943669698435 0)
(-0.00523074536909 -0.0921832154705 0)
(-0.00531650401852 -0.0899612547381 0)
(-0.00538938362147 -0.0877066019194 0)
(-0.00545008837404 -0.0854244947379 0)
(-0.00549918911116 -0.0831199029923 0)
(-0.00553735457917 -0.0807975345438 0)
(-0.00556512035384 -0.0784618455964 0)
(-0.00558311587814 -0.0761170469792 0)
(-0.00559184108808 -0.073767114932 0)
(-0.00559188784915 -0.071415796548 0)
(-0.0055837250931 -0.0690666197393 0)
(-0.00556791327584 -0.0667228968004 0)
(-0.00554489865351 -0.064387732858 0)
(-0.00551521926903 -0.0620640270363 0)
(-0.00547930875987 -0.0597544788233 0)
(-0.00543769251536 -0.0574615866497 0)
(-0.0053908013847 -0.0551876523571 0)
(-0.00533915673044 -0.0529347775723 0)
(-0.00528319435224 -0.0507048665974 0)
(-0.00522343747032 -0.0484996212 0)
(-0.00516033130011 -0.046320542781 0)
(-0.00509440321037 -0.0441689264998 0)
(-0.00502610841335 -0.0420458634496 0)
(-0.00495597687244 -0.0399522349712 0)
(-0.00488447067907 -0.0378887157428 0)
(-0.00481211744492 -0.0358557691081 0)
(-0.00473937989882 -0.0338536516284 0)
(-0.00466677569767 -0.03188240998 0)
(-0.00459475976746 -0.029941887489 0)
(-0.00452383048408 -0.0280317229879 0)
(-0.00445442512964 -0.0261513594645 0)
(-0.00438701240582 -0.0243000449927 0)
(-0.00432200120429 -0.0224768435602 0)
(-0.00425981916722 -0.0206806380016 0)
(-0.00420083446498 -0.0189101426461 0)
(-0.00414541947001 -0.0171639076056 0)
(-0.00409388396876 -0.0154403317982 0)
(-0.00404652102233 -0.0137376649831 0)
(-0.00400354708762 -0.0120540123939 0)
(-0.00396512503511 -0.010387313687 0)
(-0.00393131247759 -0.00873529144047 0)
(-0.00390210561614 -0.00709530185436 0)
(-0.00387753014241 -0.00546394290099 0)
(-0.00385758429632 -0.00383537464241 0)
(-0.00382657014221 -0.00222273955762 0)
(-0.00348854161396 -0.00064233417145 0)
(0.0214088125086 -0.00297816062813 0)
(0.0237232226884 -0.0100808008737 0)
(0.0236335025591 -0.0171364456088 1.22831439512e-27)
(0.0232989221108 -0.0242085759251 0)
(0.0228482700515 -0.031147179336 0)
(0.0222959967458 -0.0379274958528 0)
(0.0216515482243 -0.0445198805938 0)
(0.0209250120726 -0.0508978302066 0)
(0.0201270499738 -0.0570382560415 0)
(0.0192685135574 -0.0629216197996 0)
(0.0183601341208 -0.068531893717 0)
(0.0174122272952 -0.073856429252 0)
(0.0164345055383 -0.0788857426114 0)
(0.0154359027586 -0.0836132475691 0)
(0.0144245115384 -0.0880349540659 0)
(0.0134075139843 -0.092149157391 0)
(0.0123912178132 -0.0959561292975 0)
(0.0113810593313 -0.0994578279643 0)
(0.0103817006627 -0.102657630185 0)
(0.00939706717631 -0.105560095406 0)
(0.00843047098254 -0.108170758754 0)
(0.00748465253314 -0.11049595749 0)
(0.00656190557685 -0.112542684197 0)
(0.00566410411285 -0.114318468262 0)
(0.00479281535426 -0.115831277415 0)
(0.00394930378892 -0.11708943985 0)
(0.0031346279639 -0.118101578689 0)
(0.00234962137381 -0.118876559492 0)
(0.00159497503341 -0.119423443673 0)
(0.000871199254638 -0.119751449406 0)
(0.000178696279938 -0.119869912315 0)
(-0.000482286951514 -0.119788265478 0)
(-0.00111158861032 -0.119515971752 0)
(-0.00170919862303 -0.119062522384 0)
(-0.00227518485852 -0.118437394973 0)
(-0.00280975438741 -0.117650021702 0)
(-0.00331318206903 -0.116709757594 0)
(-0.00378587463965 -0.11562585096 0)
(-0.00422829562606 -0.114407414236 0)
(-0.00464102961052 -0.113063397408 0)
(-0.0050247038981 -0.111602562656 0)
(-0.00538005280706 -0.110033461939 0)
(-0.00570783688619 -0.108364416519 0)
(-0.00600890723547 -0.10660349956 0)
(-0.00628412323891 -0.104758521208 0)
(-0.00653441718845 -0.102837016687 0)
(-0.00676071163837 -0.100846237162 0)
(-0.00696398449756 -0.0987931433024 0)
(-0.00714518702865 -0.0966844017085 0)
(-0.00730530966219 -0.0945263835679 0)
(-0.00744530165484 -0.0923251660632 0)
(-0.00756613768171 -0.0900865353425 0)
(-0.00766874000441 -0.0878159919611 0)
(-0.00775404592394 -0.0855187571221 0)
(-0.00782293321513 -0.0831997809728 0)
(-0.0078762882475 -0.0808637507977 0)
(-0.0079149351684 -0.0785151007635 0)
(-0.00793970440717 -0.0761580206787 0)
(-0.00795136586605 -0.0737964658014 0)
(-0.00795069715383 -0.0714341648033 0)
(-0.0079384206913 -0.0690746283626 0)
(-0.00791527089497 -0.0667211552638 0)
(-0.00788193489646 -0.0643768388964 0)
(-0.00783911762862 -0.0620445708174 0)
(-0.00778748565838 -0.0597270447097 0)
(-0.00772772920304 -0.0574267572788 0)
(-0.00766050861147 -0.0551460098006 0)
(-0.00758651235999 -0.0528869067074 0)
(-0.00750640580288 -0.0506513552622 0)
(-0.0074208845288 -0.0484410625924 0)
(-0.00733062525915 -0.046257534381 0)
(-0.00723633415781 -0.0441020713032 0)
(-0.00713869996241 -0.0419757676801 0)
(-0.0070384372029 -0.0398795082914 0)
(-0.00693624188144 -0.0378139679162 0)
(-0.00683282969614 -0.035779609347 0)
(-0.00672889467092 -0.0337766844942 0)
(-0.0066251426617 -0.0318052341894 0)
(-0.0065222533816 -0.0298650913232 0)
(-0.00642090942435 -0.0279558827631 0)
(-0.00632176204045 -0.0260770346768 0)
(-0.0062254558911 -0.0242277766112 0)
(-0.00613259879782 -0.0224071489168 0)
(-0.00604378222372 -0.020614008723 0)
(-0.00595955495084 -0.0188470389081 0)
(-0.00588043905766 -0.0171047549945 0)
(-0.00580690725971 -0.0153855139063 0)
(-0.00573939434394 -0.0136875184942 0)
(-0.00567827953963 -0.012008819674 0)
(-0.00562389973273 -0.0103473072042 0)
(-0.00557655646131 -0.0087006915671 0)
(-0.00553658280016 -0.00706645867265 0)
(-0.00550442881848 -0.00544181338251 0)
(-0.0054797376601 -0.00382234029791 0)
(-0.00543666757079 -0.00222998195029 0)
(-0.00489169584881 -0.000653805184822 0)
(0.0279081563794 -0.00303770317977 0)
(0.0309282972588 -0.0102785871333 0)
(0.0308069608294 -0.017466775375 0)
(0.0303634520683 -0.0246682879838 0)
(0.0297665813227 -0.0317282571824 0)
(0.0290359294684 -0.0386202123828 0)
(0.028184373034 -0.0453130763074 0)
(0.0272255885397 -0.0517794307743 0)
(0.0261739531343 -0.057995744371 0)
(0.0250440446973 -0.0639424551644 0)
(0.0238501975331 -0.0696038666403 0)
(0.0226061278817 -0.0749679436514 0)
(0.0213246615667 -0.0800260244507 0)
(0.0200175364587 -0.0847724808054 0)
(0.0186953018443 -0.0892043524097 0)
(0.017367272702 -0.0933209797547 0)
(0.0160415586706 -0.0971236519397 0)
(0.0147251181387 -0.100615283035 0)
(0.0134238614042 -0.103800123447 0)
(0.0121427508742 -0.106683510953 0)
(0.0108859299861 -0.109271660575 0)
(0.00965682854033 -0.111571492338 0)
(0.008458284697 -0.113590492159 0)
(0.00729263112535 -0.115336602252 0)
(0.00616179345723 -0.116818134947 0)
(0.00506734758366 -0.118043705833 0)
(0.00401059061329 -0.119022180552 0)
(0.00299257009013 -0.119762631937 0)
(0.00201413157413 -0.120274303182 0)
(0.00107592633711 -0.120566575279 0)
(0.000178443291055 -0.120648932074 0)
(-0.000677997335292 -0.120530952403 0)
(-0.00149321359868 -0.120222225597 0)
(-0.00226718412212 -0.11973237556 0)
(-0.00300002020062 -0.119071004135 0)
(-0.00369198005626 -0.118247663155 0)
(-0.0043434457999 -0.117271822564 0)
(-0.00495493586233 -0.116152839611 0)
(-0.00552707950817 -0.114899929151 0)
(-0.00606062745121 -0.113522135807 0)
(-0.00655642373359 -0.11202830805 0)
(-0.00701541465447 -0.110427074778 0)
(-0.00743861863968 -0.108726824498 0)
(-0.00782713408099 -0.106935687394 0)
(-0.00818210813931 -0.105061520315 0)
(-0.00850474427253 -0.103111894792 0)
(-0.00879627096321 -0.101094088112 0)
(-0.0090579496906 -0.099015077293 0)
(-0.00929104454193 -0.0968815359585 0)
(-0.00949683133191 -0.0946998338046 0)
(-0.00967656895006 -0.0924760386876 0)
(-0.00983151021218 -0.0902159207928 0)
(-0.00996287569101 -0.0879249588992 0)
(-0.0100718667703 -0.0856083480786 0)
(-0.0101596425176 -0.0832710088918 0)
(-0.0102273351802 -0.0809175972262 0)
(-0.0102760304029 -0.0785525148624 0)
(-0.0103067851237 -0.0761799198668 0)
(-0.0103206110759 -0.0738037370102 0)
(-0.0103184946466 -0.0714276672257 0)
(-0.0103013832206 -0.06905519643 0)
(-0.0102702062287 -0.0666896027979 0)
(-0.0102258635497 -0.0643339630229 0)
(-0.0101692466961 -0.0619911566889 0)
(-0.0101012283139 -0.0596638694787 0)
(-0.0100226824038 -0.0573545944883 0)
(-0.00993447397246 -0.0550656325915 0)
(-0.00983747730317 -0.0527990911644 0)
(-0.00973256502924 -0.0505568822581 0)
(-0.00962062379302 -0.0483407196108 0)
(-0.00950254235437 -0.046152115698 0)
(-0.00937922433936 -0.0439923781567 0)
(-0.00925157536734 -0.0418626068061 0)
(-0.00912051297216 -0.039763690569 0)
(-0.00898695303574 -0.0376963055106 0)
(-0.00885181720464 -0.0356609131692 0)
(-0.00871601909749 -0.0336577603413 0)
(-0.00858046968365 -0.0316868794216 0)
(-0.00844606378262 -0.0297480904119 0)
(-0.00831368385508 -0.0278410035706 0)
(-0.00818418725343 -0.0259650237564 0)
(-0.0080584088084 -0.0241193553679 0)
(-0.00793714917807 -0.0223030088711 0)
(-0.00782117648338 -0.02051480769 0)
(-0.00771121600957 -0.0187533963293 0)
(-0.00760795119548 -0.0170172483517 0)
(-0.00751201528232 -0.0153046748452 0)
(-0.0074239930157 -0.0136138315125 0)
(-0.00734441754374 -0.0119427250985 0)
(-0.00727378032534 -0.0102892172671 0)
(-0.00721254881062 -0.00865103148914 0)
(-0.00716120974108 -0.00702576398914 0)
(-0.00712024898471 -0.00541092882084 0)
(-0.0070884540818 -0.00380251732017 0)
(-0.00703041319861 -0.00222382946098 0)
(-0.00630927846634 -0.000654354929816 0)
(0.0345522355505 -0.00311314865106 0)
(0.0382890687093 -0.010531777043 0)
(0.0381315064477 -0.0178920187326 0)
(0.037571048905 -0.0252602651836 0)
(0.0368175883134 -0.0324759510581 0)
(0.0358963317495 -0.0395105106037 0)
(0.0348241501441 -0.046331127543 0)
(0.0336188645216 -0.0529092820234 0)
(0.0322990846269 -0.059220954336 0)
(0.030883560031 -0.0652466469787 0)
(0.0293905976618 -0.0709711934321 0)
(0.0278375902599 -0.0763834533823 0)
(0.0262406720247 -0.0814759212372 0)
(0.0246144918527 -0.0862442871839 0)
(0.0229720999266 -0.0906869840011 0)
(0.0213249228878 -0.0948047466048 0)
(0.0196828162656 -0.0986002033761 0)
(0.0180541653257 -0.102077511894 0)
(0.0164460251524 -0.10524204504 0)
(0.0148642738697 -0.108100129238 0)
(0.0133137762818 -0.110658832374 0)
(0.0117985367767 -0.112925797144 0)
(0.0103218458105 -0.114909113445 0)
(0.0088864032718 -0.116617223372 0)
(0.00749442889162 -0.118058851633 0)
(0.00614774603873 -0.119242955141 0)
(0.00484785334997 -0.120178685571 0)
(0.00359597207804 -0.120875360234 0)
(0.00239308626109 -0.121342437008 0)
(0.00123996362429 -0.121589490667 0)
(0.000137176741289 -0.121626184194 0)
(-0.000914897436192 -0.121462274682 0)
(-0.00191605268655 -0.121107505964 0)
(-0.00286626957533 -0.120571668113 0)
(-0.00376569906649 -0.119864518376 0)
(-0.00461466466347 -0.118995759923 0)
(-0.00541365246473 -0.117975008166 0)
(-0.00616330886061 -0.116811758753 0)
(-0.00686442753844 -0.115515356576 0)
(-0.00751794405751 -0.114094966574 0)
(-0.00812491966759 -0.112559546681 0)
(-0.00868653322512 -0.110917823407 0)
(-0.00920406268075 -0.109178270264 0)
(-0.00967887531688 -0.107349089313 0)
(-0.0101124080533 -0.105438195913 0)
(-0.0105061571651 -0.103453206761 0)
(-0.0108616585977 -0.101401431178 0)
(-0.0111804782348 -0.0992898655807 0)
(-0.0114641933022 -0.0971251910275 0)
(-0.0117143841802 -0.0949137736396 0)
(-0.0119326178727 -0.0926616677129 0)
(-0.0121204422018 -0.0903746211988 0)
(-0.0122793721688 -0.0880580833216 0)
(-0.0124108872508 -0.0857172138888 0)
(-0.0125164213004 -0.0833568940016 0)
(-0.0125973633718 -0.080981737621 0)
(-0.0126550514633 -0.0785961036854 0)
(-0.0126907769461 -0.076204108181 0)
(-0.0127057820139 -0.0738096358864 0)
(-0.0127012672542 -0.0714163512055 0)
(-0.0126783921385 -0.069027707923 0)
(-0.0126382848166 -0.066646957389 0)
(-0.0125820445509 -0.0642771551297 0)
(-0.0125107524228 -0.0619211655325 0)
(-0.0124254743567 -0.0595816648161 0)
(-0.0123272713558 -0.0572611421017 0)
(-0.0122172018072 -0.0549618989876 0)
(-0.0120963300118 -0.0526860475796 0)
(-0.0119657267536 -0.0504355075324 0)
(-0.0118264753253 -0.0482120021386 0)
(-0.0116796698308 -0.04601705409 0)
(-0.0115264183924 -0.0438519809515 0)
(-0.0113678391511 -0.0417178909694 0)
(-0.0112050608416 -0.0396156792077 0)
(-0.0110392168728 -0.0375460245678 0)
(-0.0108714437616 -0.0355093875922 0)
(-0.0107028739013 -0.0335060095158 0)
(-0.0105346325149 -0.0315359123755 0)
(-0.0103678297852 -0.0295989005477 0)
(-0.0102035569562 -0.0276945634287 0)
(-0.0100428784261 -0.0258222795433 0)
(-0.00988682754626 -0.0239812217319 0)
(-0.00973639916953 -0.0221703636152 0)
(-0.00959254558774 -0.0203884869301 0)
(-0.00945616999878 -0.0186341898464 0)
(-0.0093281231597 -0.0169058958164 0)
(-0.0092091986558 -0.0152018630393 0)
(-0.00910013179694 -0.0135201942425 0)
(-0.00900159942437 -0.0118588470431 0)
(-0.00891422588669 -0.0102156458603 0)
(-0.00883859438294 -0.00858830323276 0)
(-0.00877526095728 -0.00697444214427 0)
(-0.00872464952564 -0.00537164202425 0)
(-0.00868479514435 -0.00377589608964 0)
(-0.00861154984278 -0.00221029207914 0)
(-0.00772266464698 -0.000651191069666 0)
(0.0413781112034 -0.00320660181629 0)
(0.0458475250956 -0.0108460816336 0)
(0.0456472985628 -0.0184204920244 1.21874478148e-27)
(0.0449590347212 -0.0259956275223 0)
(0.0440351856149 -0.0334037769113 0)
(0.0429072550768 -0.0406137439561 0)
(0.0415968253092 -0.047590603662 0)
(0.0401265824987 -0.0543045611805 0)
(0.0385200400763 -0.0607311203725 0)
(0.0368006990479 -0.066851020077 0)
(0.034991307805 -0.0726499204969 0)
(0.0331132811311 -0.0781179591989 0)
(0.0311862899304 -0.0832492182699 0)
(0.0292280120216 -0.088041153477 0)
(0.027254026679 -0.0924940267571 0)
(0.0252778251466 -0.0966103732402 0)
(0.0233109110925 -0.100394523394 0)
(0.0213629612696 -0.103852191728 0)
(0.0194420241638 -0.106990135792 0)
(0.01755473348 -0.109815883644 0)
(0.0157065228793 -0.112337524051 0)
(0.0139018272331 -0.114563551396 0)
(0.0121442651399 -0.116502756107 0)
(0.0104367948823 -0.118164151137 0)
(0.00878184484799 -0.11955692535 0)
(0.00718141536198 -0.120690415444 0)
(0.00563715711271 -0.121574089194 0)
(0.00415042586577 -0.122217534046 0)
(0.00272232078987 -0.122630446721 0)
(0.00135370672657 -0.122822619441 0)
(4.5233778196e-05 -0.122803922931 0)
(-0.00120267497029 -0.122584317534 0)
(-0.00238979218884 -0.122173733439 0)
(-0.00351610463656 -0.121582157265 0)
(-0.00458180539979 -0.120819533972 0)
(-0.00558729135483 -0.119895750543 0)
(-0.00653315688724 -0.11882059982 0)
(-0.0074201873933 -0.117603746649 0)
(-0.00824934834953 -0.116254695064 0)
(-0.00902177429671 -0.114782757261 0)
(-0.00973875373071 -0.113197025014 0)
(-0.0104017145047 -0.111506343934 0)
(-0.0110122058036 -0.10971929096 0)
(-0.0115718813971 -0.107844155256 0)
(-0.0120824802172 -0.105888922671 0)
(-0.0125458089613 -0.10386126377 0)
(-0.0129637227249 -0.101768525455 0)
(-0.0133381083198 -0.0996177260335 0)
(-0.013670866258 -0.0974155536316 0)
(-0.0139638959854 -0.0951683677319 0)
(-0.0142190803521 -0.0928822036374 0)
(-0.014438273826 -0.090562779539 0)
(-0.0146232904602 -0.088215505875 0)
(-0.0147758959974 -0.0858454965761 0)
(-0.0148978001292 -0.0834575817839 0)
(-0.0149906531122 -0.0810563215386 0)
(-0.0150560427377 -0.0786460199413 0)
(-0.0150954955964 -0.0762307392602 0)
(-0.0151104785898 -0.0738143134855 0)
(-0.0151024043342 -0.071400360834 0)
(-0.0150726363748 -0.0689922947875 0)
(-0.0150224975619 -0.0665933333169 0)
(-0.0149532775297 -0.0642065060503 0)
(-0.0148662423935 -0.0618346592382 0)
(-0.0147626427318 -0.0594804584875 0)
(-0.0146437228119 -0.0571463893615 0)
(-0.0145107273572 -0.0548347560336 0)
(-0.0143649087451 -0.0525476782808 0)
(-0.0142075312552 -0.0502870871477 0)
(-0.0140398752335 -0.0480547196961 0)
(-0.0138632381528 -0.0458521132319 0)
(-0.0136789354127 -0.0436805994324 0)
(-0.0134882982174 -0.0415412987301 0)
(-0.0132926713033 -0.0394351153181 0)
(-0.0130934081629 -0.0373627330438 0)
(-0.0128918663995 -0.0353246124319 0)
(-0.0126894011154 -0.0333209889849 0)
(-0.0124873587599 -0.031351872888 0)
(-0.0122870695514 -0.0294170501633 0)
(-0.0120898406451 -0.0275160852851 0)
(-0.0118969483569 -0.0256483252182 0)
(-0.0117096313465 -0.0238129048159 0)
(-0.0115290832699 -0.0220087534831 0)
(-0.0113564465489 -0.0202346029878 0)
(-0.0111928060224 -0.0184889962983 0)
(-0.0110391839408 -0.0167702973635 0)
(-0.0108965354315 -0.0150767018221 0)
(-0.0107657458454 -0.0134062486328 0)
(-0.0106476296453 -0.0117568336049 0)
(-0.0105429320254 -0.0101262252367 0)
(-0.0104523322492 -0.00851208702269 0)
(-0.0103764394905 -0.00691200117527 0)
(-0.0103156361848 -0.00532349946783 0)
(-0.010267374623 -0.00374244869085 0)
(-0.0101792437272 -0.00219145345825 0)
(-0.00912636713759 -0.000645919057808 0)
(0.0484269045103 -0.0033201737209 0)
(0.0536488660885 -0.0112281340799 0)
(0.0533976178665 -0.0190627046519 -1.21809599942e-27)
(0.0525674679533 -0.0268884147343 0)
(0.051455418606 -0.0345286493181 0)
(0.0501002139382 -0.041948931248 0)
(0.0485291054175 -0.0491118116575 0)
(0.0467705899491 -0.0559860758796 0)
(0.0448539506881 -0.062546846117 0)
(0.0428081762211 -0.0687753874919 0)
(0.040661035214 -0.0746586195896 0)
(0.0384383764594 -0.0801884795777 0)
(0.0361636605567 -0.0853611988175 0)
(0.033857705503 -0.0901765591056 0)
(0.0315386150458 -0.094637179774 0)
(0.0292218509145 -0.0987478713224 0)
(0.0269204094597 -0.102515076604 0)
(0.024645065206 -0.105946408366 0)
(0.0224046499224 -0.109050282526 0)
(0.0202063412022 -0.111835640327 0)
(0.0180559418639 -0.114311748486 0)
(0.0159581362106 -0.11648806476 0)
(0.013916715194 -0.118374155637 0)
(0.0119347654139 -0.119979653425 0)
(0.0100148213494 -0.121314240794 0)
(0.00815898155064 -0.122387652359 0)
(0.00636899285008 -0.123209684362 0)
(0.00464630665633 -0.123790205634 0)
(0.00299211357814 -0.124139164987 0)
(0.00140736095307 -0.124266586426 0)
(-0.000107233700361 -0.124182583216 0)
(-0.00155119930154 -0.123897310654 0)
(-0.00292429201702 -0.123420945868 0)
(-0.00422650768673 -0.122763691622 0)
(-0.0054580841981 -0.121935715435 0)
(-0.00661949779095 -0.120947121783 0)
(-0.00771145802681 -0.119807914598 0)
(-0.00873489983065 -0.118527960617 0)
(-0.00969097181153 -0.117116953877 0)
(-0.0105810221565 -0.115584382339 0)
(-0.011406581497 -0.113939497246 0)
(-0.0121693442451 -0.112191285799 0)
(-0.0128711478571 -0.110348447426 0)
(-0.0135139515641 -0.108419373936 0)
(-0.014099813995 -0.106412133616 0)
(-0.0146308711957 -0.104334459325 0)
(-0.0151093143895 -0.102193740499 0)
(-0.0155373689143 -0.099997018973 0)
(-0.0159172736257 -0.0977509884387 0)
(-0.0162512621554 -0.095461997356 0)
(-0.0165415452825 -0.0931360550426 0)
(-0.0167902957713 -0.0907788406537 0)
(-0.0169996349213 -0.0883957146883 0)
(-0.0171716221248 -0.0859917325929 0)
(-0.0173082466163 -0.0835716599828 0)
(-0.0174114225797 -0.0811399889191 0)
(-0.0174829866735 -0.0787009546742 0)
(-0.0175246989358 -0.0762585523454 0)
(-0.0175382459399 -0.0738165527372 0)
(-0.017525246907 -0.0713785168975 0)
(-0.0174872614583 -0.0689478088454 0)
(-0.0174257994821 -0.0665276060207 0)
(-0.0173423316638 -0.0641209072151 0)
(-0.0172383010014 -0.0617305377609 0)
(-0.017115133849 -0.0593591520294 0)
(-0.0169742507867 -0.0570092332874 0)
(-0.0168170759835 -0.0546830912441 0)
(-0.0166450454403 -0.0523828575622 0)
(-0.0164596130232 -0.0501104798656 0)
(-0.0162622548375 -0.047867714641 0)
(-0.016054471135 -0.0456561196346 0)
(-0.0158377864674 -0.0434770461432 0)
(-0.0156137475474 -0.0413316317504 0)
(-0.0153839196358 -0.0392207938092 0)
(-0.0151498811057 -0.0371452240886 0)
(-0.0149132170188 -0.035105384741 0)
(-0.0146755114753 -0.033101505848 0)
(-0.0144383395103 -0.0311335845628 0)
(-0.0142032583385 -0.0292013859677 0)
(-0.0139717986085 -0.0273044455568 0)
(-0.0137454554885 -0.0254420733595 0)
(-0.0135256801217 -0.0236133595563 0)
(-0.0133138712916 -0.0218171815298 0)
(-0.0131113677332 -0.0200522122 0)
(-0.0129194409807 -0.018316929565 0)
(-0.0127392891271 -0.0166096273655 0)
(-0.0125720314729 -0.0149284269008 0)
(-0.0124187043938 -0.0132712902359 0)
(-0.0122802583826 -0.0116360348634 0)
(-0.0121575562848 -0.0100203505685 0)
(-0.0120513711714 -0.0084218237089 0)
(-0.0119623723149 -0.00683795210695 0)