/*--------------------------------*- C++ -*----------------------------------*\
| =========                 |                                                 |
| \\      /  F ield         | OpenFOAM: The Open Source CFD Toolbox           |
|  \\    /   O peration     | Version:  v1906                                 |
|   \\  /    A nd           | Web:      www.OpenFOAM.com                      |
|    \\/     M anipulation  |                                                 |
\*---------------------------------------------------------------------------*/
FoamFile
{
    version     2.0;
    format      ascii;
    class       volVectorField;
    location    "252";
    object      U;
}
// * * * * * * * * * * * * * * * * * * * * * * * * * * * * * * * * * * * * * //

dimensions      [0 1 -1 0 0 0 0];


internalField   nonuniform List<vector> 
9216
(
(0.0027165415622 -0.0027192940398 0)
(0.00286425539564 -0.00877551839905 1.17419483484e-27)
(0.00285621028158 -0.0149263028693 1.84582973391e-31)
(0.00281907196817 -0.0210778690933 0)
(0.00276747026331 -0.0271269597828 0)
(0.0027029282566 -0.0330493801807 0)
(0.00262706367362 -0.0388194131406 0)
(0.00254129972634 -0.0444141462585 0)
(0.00244685034252 -0.0498135126443 0)
(0.00234508283573 -0.055000174404 0)
(0.00223715814855 -0.0599595888129 0)
(0.00212439116884 -0.0646798448403 0)
(0.00200781908258 -0.0691516367016 0)
(0.00188862292143 -0.073368013003 0)
(0.00176765030032 -0.077324270697 0)
(0.00164590141765 -0.0810176588646 0)
(0.00152400982842 -0.0844472409156 0)
(0.00140278782878 -0.087613597658 0)
(0.00128266530134 -0.0905186955153 0)
(0.0011642874839 -0.0931656177257 0)
(0.00104791059607 -0.0955584612734 0)
(0.000934046313682 -0.0977021099323 0)
(0.000822813996146 -0.0996021668679 0)
(0.000714627109933 -0.101264769558 0)
(0.000609501945797 -0.102696556226 0)
(0.000507783412983 -0.103904516673 0)
(0.000409411604011 -0.104895984259 0)
(0.000314684938435 -0.105678512888 0)
(0.000223485958453 -0.106259886565 0)
(0.000136081880548 -0.106648016197 0)
(5.23141507468e-05 -0.106850952182 0)
(-2.7576766607e-05 -0.106876822805 0)
(-0.000103814219785 -0.106733818522 0)
(-0.000176185693349 -0.106430029406 0)
(-0.000244922529113 -0.105973614206 0)
(-0.000309822206426 -0.105372653526 0)
(-0.000371156195635 -0.104635175906 0)
(-0.000428742877714 -0.103769091377 0)
(-0.000482882403018 -0.102782199148 0)
(-0.000533409863575 -0.101682136337 0)
(-0.000580648519647 -0.100476379631 0)
(-0.000624448143064 -0.099172210242 0)
(-0.000665148790069 -0.0977767073521 0)
(-0.000702612314987 -0.0962967304316 0)
(-0.000737189053316 -0.094738904728 0)
(-0.000768750533376 -0.0931096228754 0)
(-0.000797650206801 -0.0914150211937 0)
(-0.000823766557239 -0.0896610000979 0)
(-0.000847449556579 -0.0878531919992 0)
(-0.000868582552036 -0.0859970003348 0)
(-0.000887505732296 -0.0840975584373 0)
(-0.000904105432032 -0.0821597847124 0)
(-0.000918707142959 -0.0801883337187 0)
(-0.000931199332796 -0.0781876653995 0)
(-0.000941888952625 -0.0761619882684 0)
(-0.00095066635074 -0.0741153388197 0)
(-0.00095781797218 -0.0720515183345 0)
(-0.000963236964741 -0.0699741793171 0)
(-0.000967188675524 -0.0678867562093 0)
(-0.000969570602628 -0.065792554693 0)
(-0.000970628154461 -0.0636946779981 0)
(-0.000970265596126 -0.061596116132 0)
(-0.000968710536806 -0.0594996684535 0)
(-0.000965876587391 -0.0574080296744 0)
(-0.00096197665205 -0.0553237105753 0)
(-0.000956936397566 -0.0532491192009 0)
(-0.000950957175056 -0.0511864807372 0)
(-0.000943978841208 -0.049137912556 0)
(-0.000936194243437 -0.0471053451811 0)
(-0.000927558945692 -0.0450905913361 0)
(-0.000918259514192 -0.0430952690537 0)
(-0.000908267656763 -0.0411208650823 0)
(-0.000897765053659 -0.0391686616972 0)
(-0.000886739071536 -0.0372397958834 0)
(-0.000875366699686 -0.0353351904341 0)
(-0.00086364941898 -0.0334556102464 0)
(-0.000851758750368 -0.0316015984831 0)
(-0.000839708006249 -0.029773531887 0)
(-0.000827661369037 -0.0279715618938 0)
(-0.000815640927655 -0.0261956705473 0)
(-0.000803800745608 -0.0244456168143 0)
(-0.0007921678203 -0.0227209950428 0)
(-0.000780881751697 -0.021021186944 0)
(-0.000769968331392 -0.0193454253351 0)
(-0.000759544014957 -0.0176927556676 0)
(-0.000749618565709 -0.016062113864 0)
(-0.000740257261538 -0.0144523141966 0)
(-0.00073139472774 -0.0128621788867 0)
(-0.000722910755943 -0.0112906420261 0)
(-0.000714339155485 -0.00973713997578 0)
(-0.000704562236563 -0.00820240383695 0)
(-0.000690621691709 -0.0066908527781 0)
(-0.00066121170839 -0.00522606541196 0)
(-0.000596409601555 -0.0037025987644 0)
(-0.000704346251869 -0.00246249556511 0)
(-0.00118433852697 -0.00118301450995 0)
(0.00879449149964 -0.00289470604618 0)
(0.0097245478547 -0.00979571573934 0)
(0.00970255880465 -0.0166841834417 -1.23303803991e-27)
(0.00957356655115 -0.0235784980001 0)
(0.00939497635879 -0.0303486329674 0)
(0.00917424548601 -0.0369729462022 0)
(0.00891567253648 -0.043424128578 0)
(0.00862358825074 -0.0496770297491 0)
(0.00830217020342 -0.0557093569583 0)
(0.00795587959955 -0.0615018588996 0)
(0.00758884981116 -0.0670383979944 0)
(0.00720536363619 -0.0723058486254 0)
(0.00680916322445 -0.0772939994788 0)
(0.00640404317445 -0.0819953247931 0)
(0.00599311777516 -0.0864047940356 0)
(0.00557953309963 -0.0905195884549 0)
(0.00516569301317 -0.094338881137 0)
(0.0047540762342 -0.0978635527733 0)
(0.00434641351453 -0.101095986371 0)
(0.00394459163504 -0.1040398158 0)
(0.00354977268732 -0.106699759 0)
(0.00316336966196 -0.109081413361 0)
(0.00278610173502 -0.111191134104 0)
(0.00241903018917 -0.11303587635 0)
(0.00206254665326 -0.114623114224 0)
(0.00171746309644 -0.115960721356 0)
(0.00138393362414 -0.117056920773 0)
(0.00106259540407 -0.117920192871 0)
(0.000753426546896 -0.118559245066 0)
(0.000456937739502 -0.118982936012 0)
(0.000172972179184 -0.11920025859 0)
(-9.80623973962e-05 -0.11922025002 0)
(-0.000356463978348 -0.11905201018 0)
(-0.000601918259325 -0.118704717784 0)
(-0.000834804344704 -0.118187482042 0)
(-0.00105487969464 -0.117509350753 0)
(-0.00126262642077 -0.116679290836 0)
(-0.00145787736452 -0.11570614562 0)
(-0.00164120037959 -0.1145986215 0)
(-0.00181249344409 -0.113365251007 0)
(-0.00197239551105 -0.112014378404 0)
(-0.00212085933763 -0.110554132322 0)
(-0.00225857788138 -0.108992410857 0)
(-0.00238554647954 -0.107336865249 0)
(-0.00250249339893 -0.105594884847 0)
(-0.00260944371193 -0.103773592675 0)
(-0.00270714128146 -0.10187983013 0)
(-0.00279562785761 -0.0999201644377 0)
(-0.00287564409262 -0.0979008731274 0)
(-0.00294723675977 -0.0958279627561 0)
(-0.00301112621609 -0.0937071527171 0)
(-0.00306735447418 -0.0915439037969 0)
(-0.00311660795721 -0.0893434010748 0)
(-0.00315891735367 -0.0871105904278 0)
(-0.00319492545128 -0.0848501598387 0)
(-0.00322464841438 -0.0825665813908 0)
(-0.00324868068902 -0.0802640905593 0)
(-0.00326702477478 -0.077946731158 0)
(-0.00328022677214 -0.0756183319135 0)
(-0.00328827983569 -0.0732825517253 0)
(-0.00329168635598 -0.0709428532515 0)
(-0.00329043759443 -0.0686025462796 0)
(-0.00328500015197 -0.0662647580657 0)
(-0.00327537250176 -0.0639324730398 0)
(-0.00326199553461 -0.0616085002459 0)
(-0.0032448845759 -0.0592955084298 0)
(-0.00322446510168 -0.0569959911103 0)
(-0.0032007777243 -0.0547122967582 0)
(-0.00317424168168 -0.0524465925719 0)
(-0.00314492909753 -0.0502008902482 0)
(-0.00311325951076 -0.0479770095902 0)
(-0.0030793394953 -0.0457766008303 0)
(-0.00304359219145 -0.0436011094147 0)
(-0.00300615812432 -0.0414517962645 0)
(-0.00296746361107 -0.0393297048414 0)
(-0.00292767912434 -0.0372356807933 0)
(-0.00288723031868 -0.0351703423083 0)
(-0.00284631069684 -0.0331341006335 0)
(-0.00280533821699 -0.0311271343201 0)
(-0.00276451986528 -0.0291494118924 0)
(-0.00272425598891 -0.0272006704946 0)
(-0.00268475470436 -0.0252804419349 0)
(-0.00264638460645 -0.0233880363002 0)
(-0.00260933643917 -0.0215225728258 0)
(-0.00257392172461 -0.0196829701541 0)
(-0.00254027407966 -0.0178679846927 0)
(-0.00250857892909 -0.0160762097705 0)
(-0.00247878061592 -0.0143061208355 0)
(-0.00245066698692 -0.0125560688737 0)
(-0.00242340137156 -0.0108242619172 0)
(-0.00239504049492 -0.00910850192062 0)
(-0.00236081659355 -0.00740518722161 0)
(-0.00230910132494 -0.00570723527318 0)
(-0.00220393011141 -0.00396148279782 0)
(-0.00216321803193 -0.00215655302274 0)
(-0.00246068387059 -0.000700599763624 0)
(0.0150552076078 -0.00294054623105 0)
(0.0166702756181 -0.00995641768778 0)
(0.0166102549028 -0.01693502253 -1.23099274669e-27)
(0.016379999081 -0.0239298976122 0)
(0.0160692361811 -0.0307969274366 0)
(0.0156877903703 -0.0375129657269 0)
(0.0152421246558 -0.0440496581859 0)
(0.0147392262979 -0.0503813114668 0)
(0.0141863657351 -0.056485303359 0)
(0.0135910576696 -0.0623422552901 0)
(0.0129606280663 -0.06793605439 0)
(0.0123022684658 -0.0732537544682 0)
(0.0116226379069 -0.078285424622 0)
(0.0109280287402 -0.0830239157573 0)
(0.0102240125655 -0.0874646169708 0)
(0.00951571157127 -0.0916051694832 0)
(0.00880747682135 -0.0954452019023 0)
(0.00810324296039 -0.0989860507708 0)
(0.00740621693134 -0.102230521105 0)
(0.00671928976835 -0.105182647397 0)
(0.00604471413605 -0.10784750214 0)
(0.00538455116523 -0.110231009612 0)
(0.00474032111769 -0.112339806034 0)
(0.00411347060858 -0.114181103157 0)
(0.00350498784226 -0.11576259289 0)
(0.00291588293167 -0.117092350273 0)
(0.0023467653732 -0.118178770152 0)
(0.00179833562012 -0.119030496719 0)
(0.00127092660961 -0.119656380263 0)
(0.000765007738844 -0.120065422364 0)
(0.00028069326229 -0.120266743827 0)
(-0.00018173404574 -0.120269539909 0)
(-0.000622337216066 -0.120083047105 0)
(-0.00104099425683 -0.119716510592 0)
(-0.00143794141065 -0.119179149547 0)
(-0.0018132095267 -0.118480122982 0)
(-0.00216718267128 -0.117628502016 0)
(-0.00250002754569 -0.116633235771 0)
(-0.00281226324652 -0.115503127487 0)
(-0.00310417658394 -0.114246805042 0)
(-0.00337640108135 -0.11287269949 0)
(-0.00362932281257 -0.111389022111 0)
(-0.0038636643883 -0.109803746016 0)
(-0.00407988655476 -0.108124590642 0)
(-0.00427877260863 -0.106359007428 0)
(-0.00446083141982 -0.104514172502 0)
(-0.00462687737852 -0.102596976296 0)
(-0.00477744088311 -0.100614024229 0)
(-0.00491333897298 -0.0985716304624 0)
(-0.00503509909884 -0.0964758261808 0)
(-0.00514351564806 -0.0943323566248 0)
(-0.00523909257382 -0.0921466957045 0)
(-0.00532258150079 -0.0899240457952 0)
(-0.00539444801302 -0.0876693573196 0)
(-0.00545538746517 -0.0853873298552 0)
(-0.00550581897698 -0.0830824346757 0)
(-0.00554637581613 -0.0807589161591 0)
(-0.00557742997099 -0.0784208154039 0)
(-0.00559955456151 -0.0760719703114 0)
(-0.00561308081598 -0.0737160381729 0)
(-0.00561853073988 -0.0713564934846 0)
(-0.00561620707248 -0.0689966479475 0)
(-0.00560659503531 -0.0666396449206 0)
(-0.00558998490664 -0.0642884755557 0)
(-0.00556684239858 -0.0619459697446 0)
(-0.00553746259177 -0.0596148079751 0)
(-0.00550230904953 -0.0572975087764 0)
(-0.00546169739203 -0.0549964363813 0)
(-0.00541610389371 -0.0527137855731 0)
(-0.00536587665543 -0.0504515860111 0)
(-0.00531151486466 -0.0482116854369 0)
(-0.00525340557982 -0.0459957517946 0)
(-0.00519207523786 -0.0438052562653 0)
(-0.00512795019374 -0.0416414746621 0)
(-0.00506158219428 -0.0395054714917 0)
(-0.00499343116791 -0.0373981019891 0)
(-0.004924066402 -0.0353199984875 0)
(-0.0048539703824 -0.0332715744041 0)
(-0.00478371713187 -0.0312530136915 0)
(-0.00471379622583 -0.0292642777012 0)
(-0.00464476928941 -0.0273050983433 0)
(-0.00457711325946 -0.0253749884512 0)
(-0.00451135502975 -0.0234732386991 0)
(-0.00444793213096 -0.0215989313826 0)
(-0.00438730312081 -0.0197509403228 0)
(-0.00432982006083 -0.0179279453427 0)
(-0.00427580496529 -0.0161284272967 0)
(-0.0042254164924 -0.0143506628537 0)
(-0.0041786636267 -0.0125926645796 0)
(-0.00413522627608 -0.0108520356891 0)
(-0.00409438305173 -0.00912557329138 0)
(-0.00405489228821 -0.00740825373314 0)
(-0.00401555160259 -0.00569130347899 0)
(-0.00397627698001 -0.00395035095346 0)
(-0.00396526927516 -0.00218460363091 0)
(-0.0036956117656 -0.000590185780585 0)
(0.0214637065374 -0.00298577429563 0)
(0.0237845139754 -0.0101064507726 0)
(0.0236957778542 -0.0171803012936 1.23041990328e-27)
(0.0233622223335 -0.0242711401495 0)
(0.0229129255841 -0.0312287804046 0)
(0.0223623740327 -0.0380285848872 0)
(0.0217200011376 -0.0446410185877 0)
(0.0209959174533 -0.0510396871256 0)
(0.0202007644748 -0.0572016149164 0)
(0.0193454167396 -0.0631073746658 0)
(0.0184405757321 -0.0687410521861 0)
(0.017496577374 -0.0740901084104 0)
(0.0165230928432 -0.0791451691571 0)
(0.015529072254 -0.0838997511726 0)
(0.0145225549341 -0.0883499647179 0)
(0.0135107348737 -0.0924941962453 0)
(0.0124998550074 -0.096332803376 0)
(0.0114953597606 -0.0998678186867 0)
(0.0105018361398 -0.103102685766 0)
(0.00952321492996 -0.106042017571 0)
(0.00856272411197 -0.108691393307 0)
(0.00762310795539 -0.111057179585 0)
(0.0067065685207 -0.113146387459 0)
(0.0058149831506 -0.114966549084 0)
(0.00494982101735 -0.116525623075 0)
(0.00411235035473 -0.117831912125 0)
(0.0033035264469 -0.118894001236 0)
(0.00252418759809 -0.11972070113 0)
(0.00177491699908 -0.12032100527 0)
(0.00105623105125 -0.120704046838 0)
(0.000368420291249 -0.12087906317 0)
(-0.000288261952899 -0.120855367739 0)
(-0.000913772418488 -0.120642300968 0)
(-0.00150809095556 -0.120249201546 0)
(-0.00207140603962 -0.119685384524 0)
(-0.0026039168757 -0.118960100981 0)
(-0.00310602166232 -0.118082508783 0)
(-0.00357811801677 -0.117061640586 0)
(-0.00402079372799 -0.115906376347 0)
(-0.00443462125636 -0.11462541535 0)
(-0.00482034991605 -0.113227252307 0)
(-0.00517869603623 -0.111720154737 0)
(-0.00551053537025 -0.110112143828 0)
(-0.00581669129865 -0.108410978343 0)
(-0.00609812646452 -0.106624141038 0)
(-0.00635573145043 -0.104758829609 0)
(-0.00659051450153 -0.102821948899 0)
(-0.00680339345769 -0.100820108948 0)
(-0.00699538253912 -0.0987596227971 0)
(-0.00716738998937 -0.0966465110814 0)
(-0.00732040080526 -0.0944865047393 0)
(-0.0074552825851 -0.0922850551862 0)
(-0.00757296327401 -0.0900473409054 0)
(-0.00767424715005 -0.0877782817482 0)
(-0.0077599866284 -0.0854825479628 0)
(-0.007830910076 -0.0831645768932 0)
(-0.00788778687066 -0.0808285828404 0)
(-0.00793126794294 -0.078478574197 0)
(-0.00796204318638 -0.0761183623899 0)
(-0.00798069515386 -0.0737515775713 0)
(-0.00798784796392 -0.0713816751188 0)
(-0.00798403373956 -0.0690119482592 0)
(-0.00796983205307 -0.0666455309298 0)
(-0.00794574829668 -0.0642854062737 0)
(-0.00791234283612 -0.0619344053179 0)
(-0.00787011998594 -0.05959521094 0)
(-0.00781964615176 -0.0572703524357 0)
(-0.00776144808083 -0.0549622052999 0)
(-0.00769611962658 -0.0526729824434 0)
(-0.00762422791845 -0.050404730725 0)
(-0.0075464086956 -0.0481593200078 0)
(-0.00746327940599 -0.0459384378114 0)
(-0.0073755234753 -0.0437435776942 0)
(-0.00728380958598 -0.0415760335488 0)
(-0.00718886550114 -0.0394368887751 0)
(-0.00709140320301 -0.0373270116926 0)
(-0.00699218309911 -0.0352470468238 0)
(-0.00689194488766 -0.0331974126385 0)
(-0.00679146294534 -0.0311782958831 0)
(-0.00669148298782 -0.0291896524798 0)
(-0.00659276925864 -0.0272312053618 0)
(-0.00649604685463 -0.0253024487542 0)
(-0.00640204077336 -0.0234026491856 0)
(-0.00631142320958 -0.0215308522264 0)
(-0.00622484345244 -0.0196858845846 0)
(-0.00614287817006 -0.0178663587285 0)
(-0.00606604989718 -0.016070666454 0)
(-0.00599477938438 -0.0142969617964 0)
(-0.00592939975679 -0.0125431091577 0)
(-0.0058701441973 -0.0108065807416 0)
(-0.00581726925133 -0.00908425990918 0)
(-0.00577140245003 -0.00737212350108 0)
(-0.00573461536098 -0.00566507557113 0)
(-0.00571154196637 -0.0039549958984 0)
(-0.0056954443903 -0.00226927479716 0)
(-0.00520066072461 -0.000648891851935 0)
(0.0279787200878 -0.00304515587399 0)
(0.0310070946031 -0.0103036878769 0)
(0.0308870292905 -0.0175096847242 0)
(0.0304448381676 -0.0247294992474 0)
(0.0298497191432 -0.0318080952377 0)
(0.0291212861038 -0.038719123602 0)
(0.0282724178739 -0.0454316168879 0)
(0.0273168026034 -0.0519182680557 0)
(0.0262688137655 -0.0581556602372 0)
(0.0251430364969 -0.0641243467154 0)
(0.0239537926218 -0.0698087474745 0)
(0.0227147978173 -0.0751969421763 0)
(0.0214388540461 -0.0802803823453 0)
(0.0201376890344 -0.0850535484415 0)
(0.018821816018 -0.0895135842722 0)
(0.0175005301449 -0.0936599269168 0)
(0.0161818934737 -0.0974939546881 0)
(0.0148728359661 -0.101018660865 0)
(0.0135792103018 -0.104238365395 0)
(0.0123059434489 -0.107158463567 0)
(0.0110571129491 -0.109785216485 0)
(0.00983610785315 -0.112125576773 0)
(0.00864569387334 -0.114187050212 0)
(0.00748815918421 -0.115977584292 0)
(0.00636535199058 -0.117505483004 0)
(0.00527880133094 -0.118779338391 0)
(0.00422972319946 -0.119807978408 0)
(0.00321911688558 -0.120600422604 0)
(0.00224774393164 -0.12116584646 0)
(0.0013162062897 -0.121513547496 0)
(0.000424905847853 -0.121652912121 0)
(-0.000425886657601 -0.121593399142 0)
(-0.00123608209393 -0.121344478873 0)
(-0.00200570946611 -0.120915622043 0)
(-0.00273497312883 -0.120316269299 0)
(-0.00342418557337 -0.119555792482 0)
(-0.00407382435206 -0.118643464263 0)
(-0.00468446280449 -0.117588426444 0)
(-0.00525682589472 -0.116399660157 0)
(-0.00579171718442 -0.115085957776 0)
(-0.00629007281353 -0.113655897146 0)
(-0.00675288548344 -0.112117818808 0)
(-0.00718125670803 -0.110479805687 0)
(-0.00757631919965 -0.10874966676 0)
(-0.00793928779308 -0.106934923254 0)
(-0.00827138181809 -0.10504279936 0)
(-0.00857387519913 -0.103080215161 0)
(-0.00884802044574 -0.101053784316 0)
(-0.00909509838669 -0.0989698135878 0)
(-0.00931634529321 -0.0968343070048 0)
(-0.00951300268305 -0.0946529711659 0)
(-0.00968624898351 -0.0924312248061 0)
(-0.00983724976462 -0.0901742087977 0)
(-0.00996709509433 -0.0878867997312 0)
(-0.0100768504574 -0.0855736229167 0)
(-0.0101675006566 -0.0832390681238 0)
(-0.0102400014406 -0.0808873037788 0)
(-0.0102952303058 -0.0785222928827 0)
(-0.0103340385316 -0.0761478063 0)
(-0.0103572087026 -0.0737674368015 0)
(-0.0103655064427 -0.0713846096652 0)
(-0.010359643872 -0.0690025931801 0)
(-0.0103403299742 -0.0666245050676 0)
(-0.0103082387617 -0.0642533182957 0)
(-0.0102640569837 -0.0618918626587 0)
(-0.0102084555046 -0.059542825599 0)
(-0.0101421330659 -0.057208748946 0)
(-0.0100657894277 -0.0548920251854 0)
(-0.00998016413316 -0.0525948902364 0)
(-0.00988601021959 -0.0503194163328 0)
(-0.00978412734261 -0.0480675021675 0)
(-0.00967533531269 -0.0458408639353 0)
(-0.00956050141153 -0.043641024554 0)
(-0.00944051347435 -0.0414693046054 0)
(-0.00931630166365 -0.039326812258 0)
(-0.00918881125231 -0.0372144356798 0)
(-0.00905901943255 -0.0351328351357 0)
(-0.00892790823749 -0.0330824381515 0)
(-0.00879647710982 -0.0310634347608 0)
(-0.008665716544 -0.0290757761698 0)
(-0.00853661711257 -0.0271191735802 0)
(-0.00841014433541 -0.0251931004176 0)
(-0.00828724468311 -0.0232967942196 0)
(-0.00816882204553 -0.0214292612698 0)
(-0.00805574122274 -0.0195892794969 0)
(-0.00794880695538 -0.0177754015491 0)
(-0.00784876756817 -0.0159859519042 0)
(-0.00775630386436 -0.0142190173466 0)
(-0.00767205139647 -0.0124724224532 0)
(-0.00759664216119 -0.0107436938631 0)
(-0.00753083833887 -0.00903002841416 0)
(-0.00747580294484 -0.00732831223739 0)
(-0.00743355674837 -0.0056354376997 0)
(-0.00740578520074 -0.0039475735642 0)
(-0.00736127070611 -0.0022935086077 0)
(-0.00663248322122 -0.000670136666371 0)
(0.0346380694403 -0.0031203998044 0)
(0.0383849196791 -0.0105561866802 0)
(0.0382289070179 -0.0179337414884 0)
(0.0376700559126 -0.0253197826525 0)
(0.0369187351618 -0.0325535797009 0)
(0.036000190102 -0.0396066893603 0)
(0.0349313016104 -0.0464464048279 0)
(0.0337299014129 -0.0530443199884 0)
(0.0324146028966 -0.0593765324912 0)
(0.0310041592726 -0.0654236646624 0)
(0.0295168708532 -0.0711706713642 0)
(0.0279701225161 -0.0766065331598 0)
(0.0263800281839 -0.0817238636331 0)
(0.0247612152161 -0.0865184681527 0)
(0.0231266989546 -0.0909888894844 0)
(0.0214878709889 -0.0951359652548 0)
(0.0198545384791 -0.098962418289 0)
(0.0182350397602 -0.102472490618 0)
(0.0166363700934 -0.105671628911 0)
(0.0150643510194 -0.108566221394 0)
(0.0135237783294 -0.111163385324 0)
(0.0120185923701 -0.113470799311 0)
(0.0105520075711 -0.11549657545 0)
(0.00912665437192 -0.117249163596 0)
(0.00774467141642 -0.118737281682 0)
(0.00640780899917 -0.119969864814 0)
(0.00511748128233 -0.12095602794 0)
(0.00387483415232 -0.121705036437 0)
(0.00268076474766 -0.122226281296 0)
(0.00153596356766 -0.122529255408 0)
(0.000440912477553 -0.122623525189 0)
(-0.000604088650135 -0.12251872731 0)
(-0.00159892863627 -0.122224490514 0)
(-0.00254366954226 -0.121750451819 0)
(-0.00343855839765 -0.121106209066 0)
(-0.00428400472057 -0.120301286664 0)
(-0.00508059390741 -0.119345103504 0)
(-0.0058290603931 -0.118246939829 0)
(-0.00653029795172 -0.117015905997 0)
(-0.00718532869047 -0.115660912631 0)
(-0.00779531004549 -0.114190643757 0)
(-0.00836150024016 -0.112613532425 0)
(-0.00888526277541 -0.110937739995 0)
(-0.00936802974563 -0.1091711387 0)
(-0.00981130498674 -0.107321298066 0)
(-0.0102166267677 -0.105395475015 0)
(-0.0105855707387 -0.103400607712 0)
(-0.0109197135779 -0.101343313225 0)
(-0.0112206368469 -0.0992298884881 0)
(-0.01148989299 -0.0970663149371 0)
(-0.0117290110743 -0.094858265786 0)
(-0.0119394664897 -0.0926111166033 0)
(-0.0121226894818 -0.0903299576216 0)
(-0.0122800396299 -0.0880196086966 0)
(-0.0124128178536 -0.0856846349103 0)
(-0.0125222464905 -0.0833293639508 0)
(-0.012609485143 -0.0809579029012 0)
(-0.0126756166027 -0.0785741557573 0)
(-0.0127216663516 -0.076181839114 0)
(-0.012748593993 -0.0737844975327 0)
(-0.0127573156299 -0.071385515999 0)
(-0.012748699722 -0.0689881311577 0)
(-0.0127235909563 -0.066595438903 0)
(-0.0126828089587 -0.0642104001986 0)
(-0.0126271719185 -0.061835842978 0)
(-0.0125574962602 -0.059474462159 0)
(-0.0124746182184 -0.0571288159843 0)
(-0.0123793926988 -0.0548013207934 0)
(-0.0122727113079 -0.0524942428176 0)
(-0.0121554989962 -0.0502096890641 0)
(-0.0120287275572 -0.0479495962072 0)
(-0.0118934092804 -0.045715719422 0)
(-0.0117506055881 -0.0435096203205 0)
(-0.0116014175272 -0.0413326556986 0)
(-0.0114469897768 -0.0391859664169 0)
(-0.0112884983766 -0.037070467839 0)
(-0.011127150789 -0.0349868412607 0)
(-0.0109641716024 -0.0329355274089 0)
(-0.0108007995807 -0.0309167214971 0)
(-0.0106382722784 -0.0289303705759 0)
(-0.0104778211135 -0.026976172599 0)
(-0.0103206558579 -0.0250535776808 0)
(-0.0101679588052 -0.0231617907076 0)
(-0.010020870285 -0.0212997755609 0)
(-0.00988048348573 -0.0194662597806 0)
(-0.00974783341562 -0.0176597393339 0)
(-0.00962389671578 -0.0158784820548 0)
(-0.00950959241294 -0.0141205291835 0)
(-0.00940580266773 -0.0123836963064 0)
(-0.00931341302555 -0.0106655826719 0)
(-0.00923339713251 -0.0089636097681 0)
(-0.00916694295685 -0.00727513741094 0)
(-0.00911548275462 -0.00559776644639 0)
(-0.00907831510245 -0.00392822861505 0)
(-0.00901056216703 -0.0022932002838 0)
(-0.00809128826915 -0.000673870986613 0)
(0.04147872674 -0.00321360904353 0)
(0.0459598792021 -0.0108696647503 0)
(0.0457614709181 -0.0184607985528 1.22082311986e-27)
(0.0450750936253 -0.0260531187192 0)
(0.0441537619372 -0.033478759703 0)
(0.0430290261494 -0.0407066445958 0)
(0.0417224850689 -0.0477019593205 0)
(0.0402568389915 -0.0544350249924 0)
(0.0386556104556 -0.0608814669924 0)
(0.0369423051824 -0.067022149638 0)
(0.0351396678178 -0.0728428611291 0)
(0.0332691026542 -0.0783338675095 0)
(0.0313502597243 -0.0834893778045 0)
(0.0294007885989 -0.0883069710434 0)
(0.0274362296781 -0.0927870267824 0)
(0.0254700287667 -0.0969321902723 0)
(0.0235136343557 -0.100746893064 0)
(0.0215766630135 -0.104236940332 0)
(0.0196670945799 -0.10740916881 0)
(0.01779149078 -0.110271173262 0)
(0.0159552060629 -0.112831095985 0)
(0.0141625942937 -0.115097470977 0)
(0.0124171869039 -0.117079113929 0)
(0.0107218546349 -0.118785048136 0)
(0.00907893315738 -0.120224457738 0)
(0.00749033101569 -0.121406659278 0)
(0.0059576027256 -0.12234108513 0)
(0.00448200980194 -0.12303727188 0)
(0.00306455315266 -0.12350485039 0)
(0.00170600188603 -0.123753533203 0)
(0.000406900880679 -0.123793093248 0)
(-0.000832421493812 -0.123633375462 0)
(-0.00201184166508 -0.123284193416 0)
(-0.00313145185579 -0.122755384783 0)
(-0.00419155382681 -0.12205673665 0)
(-0.00519265251599 -0.12119795918 0)
(-0.00613545614656 -0.120188649971 0)
(-0.00702086200963 -0.11903825921 0)
(-0.00784995147684 -0.117756055715 0)
(-0.00862397052714 -0.116351095531 0)
(-0.00934431984854 -0.11483219263 0)
(-0.0100125311932 -0.113207893628 0)
(-0.0106302539798 -0.111486455335 0)
(-0.0111992291677 -0.10967582707 0)
(-0.0117212740642 -0.107783636247 0)
(-0.0121982555012 -0.105817178877 0)
(-0.0126320745236 -0.103783413466 0)
(-0.0130246405344 -0.101688959587 0)
(-0.0133778573871 -0.0995400997833 0)
(-0.0136936000181 -0.0973427855916 0)
(-0.0139737033587 -0.0951026465662 0)
(-0.0142199428556 -0.0928250026247 0)
(-0.0144340274845 -0.0905148788364 0)
(-0.0146175853871 -0.0881770224688 0)
(-0.0147721620514 -0.0858159215972 0)
(-0.0148992119606 -0.083435824676 0)
(-0.0150001025528 -0.0810407605921 0)
(-0.0150761121875 -0.0786345582262 0)
(-0.0151284398123 -0.0762208652607 0)
(-0.0151582087619 -0.0738031650873 0)
(-0.015166481205 -0.071384791845 0)
(-0.0151542664299 -0.0689689424107 0)
(-0.0151225383409 -0.06655868567 0)
(-0.0150722461908 -0.0641569680962 0)
(-0.015004332866 -0.0617666162842 0)
(-0.0149197456844 -0.0593903357209 0)
(-0.0148194531202 -0.0570307067233 0)
(-0.0147044534343 -0.0546901771479 0)
(-0.0145757878422 -0.0523710529602 0)
(-0.0144345453018 -0.0500754865822 0)
(-0.014281870837 -0.0478054640485 0)
(-0.0141189655986 -0.0455627911832 0)
(-0.0139470898906 -0.043349079662 0)
(-0.0137675584404 -0.0411657333245 0)
(-0.0135817384296 -0.0390139353329 0)
(-0.0133910405931 -0.036894636641 0)
(-0.0131969131125 -0.0348085460624 0)
(-0.0130008296188 -0.0327561224239 0)
(-0.0128042801545 -0.030737568726 0)
(-0.0126087573983 -0.0287528288305 0)
(-0.0124157460549 -0.0268015861557 0)
(-0.0122267087263 -0.0248832650028 0)
(-0.0120430752185 -0.0229970334673 0)
(-0.0118662297262 -0.0211418087259 0)
(-0.0116975020666 -0.019316263386 0)
(-0.011538158913 -0.0175188335473 0)
(-0.0113894009595 -0.0157477277063 0)
(-0.0112523643447 -0.014000938167 0)
(-0.0111281329306 -0.0122762560453 0)
(-0.0110177615739 -0.0105712999755 0)
(-0.0109223125004 -0.00888357797776 0)
(-0.0108428822684 -0.0072105868597 0)
(-0.0107804365319 -0.00554998743242 0)
(-0.010732834779 -0.00389816805887 0)
(-0.0106453088285 -0.00227997918017 0)
(-0.00954899699624 -0.000671380019154 0)
(0.0485417279568 -0.00332690181828 0)
(0.0537770788354 -0.0112507615157 0)
(0.0535279034383 -0.0191013706136 -1.2201721518e-27)
(0.0526999073745 -0.0269435590115 0)
(0.0515907378211 -0.0346005613508 0)
(0.0502391963109 -0.0420380197976 0)
(0.0486725584559 -0.0492185963187 0)
(0.0469193416941 -0.0561111957393 0)
(0.0450088444312 -0.0626910669185 0)
(0.0429700637138 -0.0689396076588 0)
(0.0408307671233 -0.0748438741329 0)
(0.038616792384 -0.0803959415131 0)
(0.0363515773463 -0.0855921780907 0)
(0.0340559065084 -0.0904324988478 0)
(0.0317478385952 -0.0949196502893 0)
(0.0294427807149 -0.0990585619281 0)
(0.0271536646302 -0.102855785802 0)
(0.0248911926736 -0.106319032577 0)
(0.0226641163642 -0.109456803748 0)
(0.0204795274031 -0.112278112927 0)
(0.0183431363147 -0.114792285223 0)
(0.0162595311192 -0.117008822259 0)
(0.0142324015008 -0.118937319253 0)
(0.0122647303162 -0.120587421822 0)
(0.010358944676 -0.121968810097 0)
(0.00851703473848 -0.123091200342 0)
(0.00674063656119 -0.123964354534 0)
(0.00503109082932 -0.124598091662 0)
(0.00338947579084 -0.125002295095 0)
(0.00181662714539 -0.125186913327 0)
(0.000313144567577 -0.125161946786 0)
(-0.00112061763616 -0.124937477217 0)
(-0.00248452696751 -0.124523527211 0)
(-0.00377870543692 -0.123930170063 0)
(-0.00500351525713 -0.123167415584 0)
(-0.00615956036624 -0.122245194607 0)
(-0.00724768235144 -0.121173318377 0)
(-0.00826895002338 -0.119961440285 0)
(-0.00922464818006 -0.118619019377 0)
(-0.0101162599706 -0.117155285598 0)
(-0.0109454494933 -0.115579208748 0)
(-0.0117140386013 -0.113899470607 0)
(-0.0124239854438 -0.112124441748 0)
(-0.0130773579873 -0.110262162293 0)
(-0.0136763107279 -0.108320327644 0)
(-0.0142230571557 -0.106306278461 0)
(-0.0147198466319 -0.104226995484 0)
(-0.0151689378077 -0.10208909859 0)
(-0.0155725774367 -0.0998988502482 0)
(-0.0159329765373 -0.0976621629737 0)
(-0.0162522927588 -0.0953846104919 0)
(-0.0165326109843 -0.0930714424159 0)
(-0.0167759307981 -0.0907276016737 0)
(-0.0169841530626 -0.0883577446332 0)
(-0.0171590738178 -0.0859662627176 0)
(-0.0173023780292 -0.0835573055647 0)
(-0.0174156407604 -0.0811348041334 0)
(-0.0175003285683 -0.0787024939273 0)
(-0.0175578079214 -0.0762639365171 0)
(-0.0175893537273 -0.0738225396847 0)
(-0.0175961638869 -0.071381574366 0)
(-0.0175793732978 -0.0689441889394 0)
(-0.0175400723639 -0.0665134192638 0)
(-0.0174793239153 -0.0640921952805 0)
(-0.0173981827944 -0.0616833429912 0)
(-0.0172977126698 -0.0592895828982 0)
(-0.0171790037006 -0.0569135241857 0)
(-0.0170431864141 -0.0545576559353 0)
(-0.0168914449586 -0.0522243350729 0)
(-0.0167250259347 -0.0499157724133 0)
(-0.0165452456835 -0.0476340168249 0)
(-0.0163534930134 -0.0453809387595 0)
(-0.0161512300533 -0.0431582134078 0)
(-0.0159399888669 -0.0409673044424 0)
(-0.0157213663425 -0.0388094487302 0)
(-0.0154970155453 -0.036685642635 0)
(-0.0152686358051 -0.0345966303501 0)
(-0.0150379601971 -0.0325428944625 0)
(-0.0148067424091 -0.0305246492343 0)
(-0.0145767420191 -0.028541836378 0)
(-0.0143497099205 -0.0265941237717 0)
(-0.0141273731596 -0.0246809066311 0)
(-0.013911420801 -0.0228013114365 0)
(-0.0137034902347 -0.0209542020812 0)
(-0.0135051556431 -0.0191381885836 0)
(-0.0133179182188 -0.0173516377881 0)
(-0.0131432001895 -0.0155926869959 0)
(-0.0129823423869 -0.0138592606152 0)
(-0.0128366075134 -0.0121490929833 0)
(-0.0127071865179 -0.0104597622924 0)
(-0.0125952044794 -0.00878874206849 0)
(-0.01250170231 -0.0071334751135 0)