/*--------------------------------*- C++ -*----------------------------------*\
| =========                 |                                                 |
| \\      /  F ield         | OpenFOAM: The Open Source CFD Toolbox           |
|  \\    /   O peration     | Version:  v1906                                 |
|   \\  /    A nd           | Web:      www.OpenFOAM.com                      |
|    \\/     M anipulation  |                                                 |
\*---------------------------------------------------------------------------*/
FoamFile
{
    version     2.0;
    format      ascii;
    class       volVectorField;
    location    "181";
    object      Ua;
}
// * * * * * * * * * * * * * * * * * * * * * * * * * * * * * * * * * * * * * //

dimensions      [0 1 -1 0 0 0 0];


internalField   nonuniform List<vector> 
9216
(
(-0.00827040136947 0.00829066678604 0)
(-0.00708021703997 0.0221912943209 2.53831348106e-27)
(-0.0072303180741 0.0377510412816 -5.1273988902e-31)
(-0.00725159832942 0.0528558352235 0)
(-0.00721662101889 0.0679455344323 0)
(-0.00715378368505 0.0829024007023 0)
(-0.00707344125653 0.0976792046892 0)
(-0.00697662654558 0.112238812395 0)
(-0.0068674416968 0.12654691015 0)
(-0.0067438730197 0.140573714097 0)
(-0.00660974197135 0.154289456827 0)
(-0.00646208221935 0.167668062904 0)
(-0.006305193307 0.180683023751 0)
(-0.00613538434516 0.193311338382 0)
(-0.00595749777159 0.20552933953 0)
(-0.00576709367251 0.217316655311 0)
(-0.00556952843699 0.228651969323 0)
(-0.00535958327107 0.239516881451 0)
(-0.0051430729836 0.249891721296 0)
(-0.00491398757177 0.259759252781 0)
(-0.00467856568193 0.269100650758 0)
(-0.00443005416926 0.277898956335 0)
(-0.00417508466529 0.286135387012 0)
(-0.00390624882315 0.293792496323 0)
(-0.00363057133259 0.300850938518 0)
(-0.00334013861892 0.307292232305 0)
(-0.00304237097863 0.313096142391 0)
(-0.00272903185763 0.318243011798 0)
(-0.00240797292881 0.32271182945 0)
(-0.00207085944142 0.326482144175 0)
(-0.001725975039 0.329532743837 0)
(-0.00136514328139 0.331843181422 0)
(-0.000997193187314 0.333393385346 0)
(-0.000614366440982 0.334164525703 0)
(-0.000226065725067 0.334139518824 0)
(0.000174793993772 0.333303407119 0)
(0.000578179742288 0.331644616862 0)
(0.000990283658362 0.329154870661 0)
(0.00140044379391 0.32583108338 0)
(0.00181383802482 0.321674848883 0)
(0.00221923778063 0.3166947559 0)
(0.00262079734045 0.310905428336 0)
(0.00300689792639 0.304330048251 0)
(0.00338082482309 0.296998960849 0)
(0.00373085889227 0.288952104063 0)
(0.00405973988823 0.280237132848 0)
(0.0043560962893 0.270911480157 0)
(0.00462264275667 0.261039970683 0)
(0.00484893695916 0.250696219413 0)
(0.00503833445355 0.239959662902 0)
(0.00518199107524 0.228916150368 0)
(0.0052845928823 0.217654448588 0)
(0.00533944519586 0.206266085483 0)
(0.00535300835517 0.194841548951 0)
(0.00532093887093 0.183469816092 0)
(0.00525145747022 0.172234684889 0)
(0.00514228382999 0.161214555631 0)
(0.00500290661291 0.150479275561 0)
(0.0048324786051 0.140090633149 0)
(0.00464102382702 0.130099902984 0)
(0.00442837043856 0.120549182043 0)
(0.00420430189418 0.111469632522 0)
(0.00396861722427 0.102883623666 0)
(0.00373022543175 0.0948035595686 0)
(0.00348840353641 0.0872345641348 0)
(0.00325082901677 0.0801736114286 0)
(0.00301606463012 0.0736124440908 0)
(0.00279047948295 0.0675367511532 0)
(0.00257194438586 0.0619290678772 0)
(0.00236560480494 0.0567678372099 0)
(0.0021687784599 0.0520301772929 0)
(0.00198555580148 0.047690774679 0)
(0.00181288519215 0.0437244404269 0)
(0.00165400012798 0.0401048090524 0)
(0.00150567805016 0.0368066683049 0)
(0.00137049109989 0.0338044929631 0)
(0.00124519404079 0.0310745563504 0)
(0.00113177079713 0.0285934202439 0)
(0.00102675939285 0.0263400548426 0)
(0.000930696674062 0.0242951476874 0)
(0.000837124156189 0.0224447200013 0)
(0.000733671954292 0.0208047369345 0)
(0.000577892585727 0.0191715313988 0)
(0.000533015537605 0.0181223729517 0)
(0.000600268757636 0.0171012288357 0)
(0.000592195936677 0.015801953675 0)
(0.00052166391582 0.0145640500293 0)
(0.000446442736173 0.0136099886343 0)
(0.000495801428276 0.0128100017307 0)
(0.000603611354639 0.0116940150984 0)
(0.000638998249362 0.0104992314781 0)
(0.000681777091708 0.00912684280862 0)
(0.00081964704946 0.00754588658982 0)
(0.000950200014874 0.00574422946553 0)
(0.00106237152598 0.0035106541977 0)
(0.00112445265423 0.00110094167814 0)
(-0.0221703368803 0.00713067074389 0)
(-0.0231879427175 0.0233250760609 0)
(-0.0233466286136 0.039821889293 -2.60910202327e-27)
(-0.0232554476738 0.0560835324125 0)
(-0.0230698401136 0.0721733416013 0)
(-0.0228123049356 0.0880864460308 0)
(-0.0224974628893 0.103795280562 0)
(-0.0221279910345 0.11926769277 0)
(-0.0217115452596 0.134470525051 0)
(-0.021247003636 0.149372508484 0)
(-0.0207417189126 0.163943067868 0)
(-0.0201931802317 0.178154069467 0)
(-0.0196093597802 0.191978170145 0)
(-0.0189865749132 0.205390444523 0)
(-0.0183333996931 0.218366602655 0)
(-0.0176448247642 0.230884551676 0)
(-0.0169298570584 0.242922535397 0)
(-0.0161820033137 0.254460615489 0)
(-0.015410541057 0.265478796221 0)
(-0.014607420816 0.275958411479 0)
(-0.0137821091917 0.285880310374 0)
(-0.0129250733574 0.29522614977 0)
(-0.0120459717276 0.303976730335 0)
(-0.0111339965504 0.312113185892 0)
(-0.0101991008848 0.319615558502 0)
(-0.00922954948151 0.326463876952 0)
(-0.00823575877387 0.332637046618 0)
(-0.00720551616061 0.338113810295 0)
(-0.00614995107249 0.342872006671 0)
(-0.00505693520243 0.346889398521 0)
(-0.00393856617085 0.350143471314 0)
(-0.00278340420943 0.352612025485 0)
(-0.00160493567191 0.354273375547 0)
(-0.000393081308622 0.355106988432 0)
(0.000836953910605 0.355094075837 0)
(0.00209325296622 0.354218158396 0)
(0.00335857312428 0.352466068636 0)
(0.00463848485193 0.349828413717 0)
(0.0059135548103 0.346300905809 0)
(0.00718657977993 0.341884686594 0)
(0.00843602973904 0.336587840519 0)
(0.0096620120117 0.330425507229 0)
(0.0108413481158 0.323421406309 0)
(0.011971989132 0.31560764691 0)
(0.0130299665308 0.307026043994 0)
(0.0140121135619 0.297727514356 0)
(0.0148950228974 0.28777295596 0)
(0.0156760130703 0.277232083345 0)
(0.0163340724019 0.266183629531 0)
(0.0168690732424 0.254713481065 0)
(0.0172645277351 0.242914041787 0)
(0.017524995809 0.230881646 0)
(0.0176403147688 0.21871516034 0)
(0.0176211094827 0.206512934549 0)
(0.017464187505 0.194371096187 0)
(0.0171861226984 0.182380585707 0)
(0.0167897423986 0.170625793816 0)
(0.0162959581261 0.159182207153 0)
(0.0157115474453 0.148115841091 0)
(0.015059423947 0.137481705738 0)
(0.0143479034917 0.127324140391 0)
(0.0135994711077 0.117676110465 0)
(0.0128217339212 0.10856039177 0)
(0.0120347559216 0.0999895604829 0)
(0.0112438953028 0.0919677487843 0)
(0.0104657232861 0.084490984011 0)
(0.00970277504539 0.0775491391052 0)
(0.00896794343249 0.0711263069434 0)
(0.0082610545871 0.0652026933135 0)
(0.00759163928275 0.0597548601121 0)
(0.00695727083293 0.0547574514543 0)
(0.00636466575971 0.0501832415673 0)
(0.00580974562397 0.0460046374091 0)
(0.00529704902062 0.0421935076225 0)
(0.00482148903666 0.0387224405573 0)
(0.00438606371062 0.035564351695 0)
(0.00398524082383 0.032693477702 0)
(0.00362091913986 0.0300847297197 0)
(0.00328716389617 0.0277142671767 0)
(0.00298393049461 0.0255581912638 0)
(0.00270147722214 0.0235909915857 0)
(0.00242850370605 0.0217832656748 0)
(0.00211377203005 0.0200425055161 0)
(0.0018882448994 0.0181007294373 0)
(0.0018781802875 0.016864126645 0)
(0.00182164935564 0.0155776465731 0)
(0.00154487367512 0.0142308881418 0)
(0.00133342224837 0.0133938283376 0)
(0.00143608252013 0.0123599455042 0)
(0.00171714066579 0.0115546902122 0)
(0.00190285330051 0.0106092753228 0)
(0.00212797600314 0.0091459376281 0)
(0.00245901148311 0.00752304590292 0)
(0.00313986249436 0.00604521510797 0)
(0.00386076628612 0.00386493223432 0)
(0.0034095009598 0.00103100738443 0)
(-0.0378348102922 0.00733640706296 0)
(-0.0397210278682 0.0237002866395 0)
(-0.039599543836 0.0400598028617 -2.61269463086e-27)
(-0.0393381330009 0.0564123140676 0)
(-0.0389870734374 0.072604287962 0)
(-0.0385438711405 0.0886187620085 0)
(-0.0380128837758 0.104424574893 0)
(-0.0373968027023 0.119989337567 0)
(-0.0367014215076 0.13528046609 0)
(-0.0359291825063 0.150266631794 0)
(-0.0350861622929 0.16491763313 0)
(-0.0341743267971 0.179205141849 0)
(-0.0331999361782 0.193102195437 0)
(-0.0321642624089 0.206583744942 0)
(-0.0310734616241 0.219626000491 0)
(-0.0299277701251 0.232206871542 0)
(-0.028732900945 0.244305221623 0)
(-0.027487750448 0.255901218585 0)
(-0.026197327865 0.266975542882 0)
(-0.0248590287018 0.277509681692 0)
(-0.0234770616361 0.28748513894 0)
(-0.0220473663677 0.296883693219 0)
(-0.0205734469935 0.305686684535 0)
(-0.0190500472531 0.313875273163 0)
(-0.0174802524369 0.32142984708 0)
(-0.015858062501 0.32833030151 0)
(-0.0141865818064 0.334555626407 0)
(-0.012459674409 0.34008422303 0)
(-0.0106810419626 0.344893698218 0)
(-0.00884518985226 0.348961269486 0)
(-0.00695708588649 0.352263765301 0)
(-0.00501269905131 0.354778094418 0)
(-0.00301910186956 0.356481578994 0)
(-0.000974706822887 0.357352491131 0)
(0.00111049611197 0.357370677582 0)
(0.00323473398995 0.356518211426 0)
(0.00538436387682 0.354780272192 0)
(0.00755352549487 0.352145875351 0)
(0.00972446965629 0.348608954959 0)
(0.0118869143153 0.344169106196 0)
(0.0140190129492 0.338832745879 0)
(0.0161062970554 0.332613759333 0)
(0.0181234604672 0.325534599462 0)
(0.0200528004851 0.317626711676 0)
(0.0218669372227 0.308931389065 0)
(0.0235467196813 0.29949981512 0)
(0.025064955418 0.289393474971 0)
(0.0264037770288 0.278683631232 0)
(0.0275393644435 0.267451031351 0)
(0.0284587262227 0.255784593954 0)
(0.029145216873 0.24378019796 0)
(0.0295945056981 0.231538479235 0)
(0.0298004593281 0.219162730203 0)
(0.0297699161825 0.206756057829 0)
(0.0295084988505 0.194418925932 0)
(0.0290339934467 0.182246378352 0)
(0.0283620658459 0.170326024827 0)
(0.0275185142934 0.158736013248 0)
(0.026525321838 0.147543964951 0)
(0.0254121917323 0.136805881201 0)
(0.0242031940389 0.126566029905 0)
(0.0229277120948 0.116856797782 0)
(0.0216079152475 0.107699503718 0)
(0.0202693770773 0.0991050678083 0)
(0.0189296761984 0.0910754180714 0)
(0.0176087912885 0.0836045111331 0)
(0.0163188037791 0.0766798767718 0)
(0.0150738876416 0.0702835998482 0)
(0.0138809148116 0.0643937479296 0)
(0.0127488654771 0.0589851691469 0)
(0.0116802192801 0.0540307287436 0)
(0.0106797204936 0.0495018873575 0)
(0.00974650401176 0.045369703331 0)
(0.00888217862703 0.0416051638162 0)
(0.00808365438676 0.0381799448387 0)
(0.00735052988264 0.0350664940299 0)
(0.00667859153197 0.0322385020344 0)
(0.00606651302853 0.0296706748207 0)
(0.00550999771929 0.0273387089251 0)
(0.00500786736229 0.0252182330814 0)
(0.00455706779668 0.0232830015509 0)
(0.00416042363839 0.0215062789829 0)
(0.00383083366577 0.01978298616 0)
(0.00346866900975 0.0179748491621 0)
(0.00323136802632 0.0167211003301 0)
(0.00302906664408 0.0153881918886 0)
(0.00274530643246 0.0144599598854 0)
(0.00241797416621 0.0129472196386 0)
(0.00229658283538 0.0116149099705 0)
(0.00257459512732 0.010931517939 0)
(0.00327296834282 0.0104663938281 0)
(0.0035450763208 0.00840110182037 0)
(0.00423282772769 0.00706983553759 0)
(0.00511533157358 0.00523844312556 0)
(0.00584558933815 0.00318394303417 0)
(0.00562324196412 0.000967817804363 0)
(-0.0532187250892 0.00744375156072 0)
(-0.0562005095963 0.0239398512014 0)
(-0.0560223185669 0.0403454397646 2.61233991054e-27)
(-0.0556345864777 0.0567963081145 0)
(-0.0551220853775 0.0730939021668 0)
(-0.0544852341937 0.089214702429 0)
(-0.0537269847631 0.105123926548 0)
(-0.0528510764618 0.120787860431 0)
(-0.051863142893 0.136173532587 0)
(-0.0507680921709 0.151249333209 0)
(-0.0495723189405 0.165985107905 0)
(-0.0482808588945 0.180352487016 0)
(-0.0469001791769 0.194324770658 0)
(-0.0454348359364 0.207877091166 0)
(-0.0438907803616 0.220986147932 0)
(-0.0422715104695 0.233630249411 0)
(-0.0405819214682 0.245788939115 0)
(-0.0388239756087 0.257442944094 0)
(-0.037001120914 0.268573732374 0)
(-0.0351135222962 0.279163403244 0)
(-0.0331630510312 0.289194227403 0)
(-0.0311481093085 0.298648530967 0)
(-0.0290691602296 0.307508275324 0)
(-0.0269231824117 0.315754980256 0)
(-0.0247096850048 0.323369395275 0)
(-0.0224248258438 0.330331494089 0)
(-0.0200678372117 0.336620280072 0)
(-0.01763486728 0.342213864892 0)
(-0.0151257532141 0.34708943106 0)
(-0.0125376566943 0.351223479017 0)
(-0.00987203030586 0.354591902774 0)
(-0.00712818941248 0.357170377907 0)
(-0.0043104717241 0.358934737545 0)
(-0.00142167997583 0.35986149548 0)
(0.00152970207067 0.359928470638 0)
(0.00453609395557 0.359115502693 0)
(0.00758370539018 0.357405315969 0)
(0.0106591444376 0.354784392776 0)
(0.0137425553816 0.351244019963 0)
(0.0168142494799 0.346781243632 0)
(0.0198482225166 0.34139998144 0)
(0.0228188094615 0.335111935631 0)
(0.0256946792315 0.327937636044 0)
(0.02844551508 0.319907171831 0)
(0.0310365567375 0.311060987513 0)
(0.0334353338888 0.301450275325 0)
(0.0356068260158 0.291137323572 0)
(0.03752029044 0.280195340527 0)
(0.0391450532202 0.268708072234 0)
(0.0404573859329 0.256768729384 0)
(0.0414367072804 0.244478538456 0)
(0.0420721215657 0.231944510041 0)
(0.0423584121703 0.219276853641 0)
(0.0423015332477 0.206585845755 0)
(0.0419136970219 0.193978730347 0)
(0.0412173796724 0.181556650527 0)
(0.0402394892619 0.169412156354 0)
(0.0390143627635 0.157627184289 0)
(0.0375778259319 0.146271770226 0)
(0.0359699378465 0.135403111062 0)
(0.0342292242357 0.125065304057 0)
(0.0323952112153 0.115289471911 0)
(0.0305031147089 0.106094621933 0)
(0.0285866763141 0.0974887629574 0)
(0.0266738412371 0.0894704407658 0)
(0.024790104422 0.0820301798529 0)
(0.0229550610977 0.0751520323867 0)
(0.021185925806 0.0688148549322 0)
(0.0194945763532 0.0629936253642 0)
(0.01789097262 0.0576604730811 0)
(0.0163805314353 0.0527857618026 0)
(0.0149673763037 0.0483388729156 0)
(0.0136519953812 0.0442890311496 0)
(0.0124342723035 0.0406058289974 0)
(0.0113113888119 0.037259799894 0)
(0.0102806209897 0.0342226868941 0)
(0.00933748789948 0.0314677564441 0)
(0.0084783747924 0.0289697939218 0)
(0.00769903036579 0.0267050665695 0)
(0.00699729534555 0.0246508779687 0)
(0.0063722773364 0.0227856951422 0)
(0.00583112377517 0.0210958957209 0)
(0.0053868038174 0.0193800115545 0)
(0.00500934497148 0.0180600397374 0)
(0.00458891896467 0.0165825284316 0)
(0.00427182584721 0.0153270818642 0)
(0.00395174251098 0.0140611162122 0)
(0.00361319078134 0.0124876309869 0)
(0.00357582089422 0.0115313512821 0)
(0.00361084846335 0.0100120096322 0)
(0.0041832427133 0.00877234558599 0)
(0.00534216965626 0.00803485831162 0)
(0.00579313205592 0.00589046766426 0)
(0.00677507180789 0.0041960952055 0)
(0.00777180722306 0.00260679280607 0)
(0.00772401409604 0.000850222460825 0)
(-0.0688354079689 0.00752319540345 0)
(-0.0727706475118 0.0241965384736 0)
(-0.0725476711068 0.0407271237303 0)
(-0.0720411742634 0.0573177980663 0)
(-0.0713694152614 0.0737566094136 0)
(-0.0705370626687 0.0900174199218 0)
(-0.0695480984585 0.106062985116 0)
(-0.0684077203383 0.121858148556 0)
(-0.0671225215218 0.137369152642 0)
(-0.0656993919928 0.152563904019 0)
(-0.0641460138465 0.167412069475 0)
(-0.062469756656 0.181885243395 0)
(-0.0606783956814 0.195956938387 0)
(-0.0587788691689 0.209602614651 0)
(-0.0567781758786 0.222799535244 0)
(-0.0546819905191 0.23552666336 0)
(-0.0524957614695 0.247764392438 0)
(-0.0502232205029 0.259494333917 0)
(-0.0478677186349 0.270698962511 0)
(-0.0454306689643 0.281361339649 0)
(-0.0429131404609 0.291464728723 0)
(-0.040314257975 0.3009923146 0)
(-0.0376330456001 0.309926859917 0)
(-0.0348667846295 0.318250475802 0)
(-0.0320130714054 0.325944371261 0)
(-0.0290681269696 0.33298871362 0)
(-0.0260290294869 0.339362504626 0)
(-0.0228919813093 0.345043543061 0)
(-0.0196547022677 0.35000843834 0)
(-0.0163146683835 0.354232777604 0)
(-0.012871581174 0.357691205677 0)
(-0.00932568932462 0.360357767527 0)
(-0.00568036440579 0.362206297256 0)
(-0.00194037626714 0.363210920482 0)
(0.00188549368735 0.363346705985 0)
(0.00578620560527 0.362590420698 0)
(0.00974594039847 0.360921432847 0)
(0.0137459553553 0.358322694642 0)
(0.0177622786537 0.354781844471 0)
(0.0217677417829 0.35029232679 0)
(0.0257300032371 0.344854582968 0)
(0.0296138142491 0.338477175283 0)
(0.0333794387328 0.331177905426 0)
(0.0369851915104 0.322984794002 0)
(0.040386314508 0.313936981623 0)
(0.0435378392767 0.304085393331 0)
(0.0463940174126 0.293493243259 0)
(0.0489116167408 0.282236146005 0)
(0.0510500013903 0.270401863445 0)
(0.0527748736881 0.258089410747 0)
(0.0540587897368 0.245407505087 0)
(0.0548848303814 0.232472149821 0)
(0.0552466435413 0.219403492536 0)
(0.0551508726128 0.206322071401 0)
(0.054615534307 0.193344879024 0)
(0.0536704080598 0.18058166075 0)
(0.0523536910785 0.168131891998 0)
(0.0507111545663 0.156082642722 0)
(0.0487926747174 0.144507259567 0)
(0.0466515420038 0.133464448748 0)
(0.0443409877182 0.122997947111 0)
(0.0419132461945 0.113136833692 0)
(0.0394163620775 0.103896643188 0)
(0.0368940226153 0.095281024785 0)
(0.0343836529629 0.0872836602668 0)
(0.0319173604543 0.0798901571254 0)
(0.0295210137032 0.0730797634182 0)
(0.0272156344038 0.066826846339 0)
(0.0250167994331 0.0611022181806 0)
(0.0229360475086 0.0558742642154 0)
(0.0209804324727 0.0511100121066 0)
(0.0191539388457 0.0467759935445 0)
(0.0174571619886 0.0428390245575 0)
(0.0158886610402 0.0392667868187 0)
(0.0144447083926 0.0360283425216 0)
(0.0131205627843 0.0330944770336 0)
(0.011910307277 0.0304379883144 0)
(0.0108081263655 0.0280338130144 0)
(0.0098084002978 0.0258590997055 0)
(0.00890742801792 0.023892817443 0)
(0.00810404617527 0.0221176338117 0)
(0.0074146178707 0.0205108219936 0)
(0.0067429063437 0.0187809238349 0)
(0.00633243941684 0.017714497013 0)
(0.00596122465448 0.0164766089925 0)
(0.00566638386285 0.0152969574532 0)
(0.00549575720451 0.0140440331414 0)
(0.00518261447065 0.0124248369393 0)
(0.0047932282978 0.0104164155228 0)
(0.00496943071715 0.00925101652798 0)
(0.00528716675399 0.00759922130433 0)
(0.00654371846935 0.00672982583043 0)
(0.00795271293814 0.00546898435593 0)
(0.00840106563894 0.00350852537583 0)
(0.00905487461627 0.00207123229469 0)
(0.00903716194238 0.000686315336187 0)
(-0.0846379274423 0.00760492333268 0)
(-0.0895021189434 0.0244952902524 0)
(-0.0892341074551 0.0412034086716 0)
(-0.0886093446438 0.057977573705 0)
(-0.0877770225916 0.0745969909302 0)
(-0.0867455149051 0.0910346895361 0)
(-0.0855206313452 0.107251785553 0)
(-0.0841093637558 0.123211845106 0)
(-0.0825199160796 0.138880200251 0)
(-0.0807611843821 0.154224149919 0)
(-0.0788426897617 0.169213056166 0)
(-0.0767740298609 0.183818451706 0)
(-0.0745648689937 0.198014062414 0)
(-0.0722243463155 0.211775790779 0)
(-0.0697611243254 0.22508159653 0)
(-0.0671827733687 0.237911333193 0)
(-0.0644959157237 0.250246483189 0)
(-0.0617056373998 0.262069867889 0)
(-0.0588157793444 0.273365270325 0)
(-0.0558284266393 0.284117069746 0)
(-0.0527443847195 0.294309823346 0)
(-0.0495627670915 0.303927901215 0)
(-0.0462816523548 0.312955107438 0)
(-0.0428977541084 0.321374387673 0)
(-0.0394072247361 0.329167550814 0)
(-0.0358053718676 0.336315088181 0)
(-0.0320875675059 0.342796022865 0)
(-0.0282489951672 0.348587832918 0)
(-0.0242856775255 0.353666440072 0)
(-0.020194243678 0.358006340528 0)
(-0.0159730218128 0.361580638603 0)
(-0.0116219642397 0.364361358382 0)
(-0.00714383382694 0.366319814239 0)
(-0.00254412837444 0.367427111351 0)
(0.00216768244098 0.367654799671 0)
(0.00697825791082 0.366975684113 0)
(0.0118692384095 0.365364786427 0)
(0.0168174962491 0.362800434961 0)
(0.0217942222008 0.359265496336 0)
(0.0267654485861 0.354748644832 0)
(0.0316914958775 0.349245717857 0)
(0.0365278580833 0.342761028725 0)
(0.041225077516 0.335308671977 0)
(0.0457300217358 0.326913713209 0)
(0.0499862329243 0.317613314261 0)
(0.0539356716049 0.307457676724 0)
(0.0575196723562 0.296510823746 0)
(0.0606813667337 0.284851076977 0)
(0.0633674956332 0.272571111248 0)
(0.0655316889975 0.259777329263 0)
(0.0671370391772 0.24658833271 0)
(0.0681596295767 0.233132225272 0)
(0.0685905586362 0.219542779017 0)
(0.0684378291385 0.205954635788 0)
(0.0677257659699 0.192498177183 0)
(0.0664938129257 0.179294729689 0)
(0.0647930726947 0.16645283334 0)
(0.0626833673545 0.154066107208 0)
(0.0602301759166 0.142212103558 0)
(0.0575026847326 0.130951376974 0)
(0.0545705457176 0.120326971522 0)
(0.0515010607419 0.110364818073 0)
(0.048356024324 0.101075377177 0)
(0.0451902402883 0.092456038374 0)
(0.0420504073504 0.084493767011 0)
(0.0389754978135 0.0771675320176 0)
(0.0359969355311 0.0704503019089 0)
(0.0331395191897 0.0643106380241 0)
(0.0304217206671 0.0587140380524 0)
(0.0278565292698 0.0536241080302 0)
(0.0254517878416 0.049003657426 0)
(0.0232111315223 0.0448156087443 0)
(0.0211344230366 0.0410237613455 0)
(0.019218659254 0.0375933871271 0)
(0.0174583907955 0.0344917141163 0)
(0.0158465672861 0.0316882981386 0)
(0.0143749639053 0.0291553332713 0)
(0.0130350281262 0.026867901318 0)
(0.0118184502992 0.0248043803122 0)
(0.0107184142535 0.0229464926706 0)
(0.00973089032075 0.0212920302075 0)
(0.00887967294276 0.0197185726867 0)
(0.00816274713763 0.0183136869857 0)
(0.00754373517409 0.0169722496738 0)
(0.00715504786262 0.0156939473085 0)
(0.00694484180329 0.0145295389801 0)
(0.00663014404167 0.0128759175186 0)
(0.00663281777748 0.0117191215817 0)
(0.00664918122533 0.010373729365 0)
(0.00688046887402 0.00901096604088 0)
(0.00667287180128 0.00680365640853 0)
(0.00743750884239 0.00538364024176 0)
(0.00923860605134 0.0045895331281 0)
(0.0100492463627 0.00317055984643 0)
(0.010337696122 0.0017900257263 0)
(0.0103580592098 0.000593309299137 0)
(-0.100652243391 0.00769723014315 0)
(-0.106444094008 0.0248480739311 0)
(-0.106126831507 0.0417778022829 2.63146030472e-27)
(-0.105380303602 0.058778421986 0)
(-0.104383243049 0.0756189752955 0)
(-0.103146954479 0.0922719309472 0)
(-0.10167919452 0.108697031364 0)
(-0.0999889301087 0.124856592812 0)
(-0.0980863665279 0.14071494834 0)
(-0.0959826070663 0.156238683455 0)
(-0.093689412451 0.171396758165 0)
(-0.0912187808858 0.186160617638 0)
(-0.0885826805053 0.200504224344 0)
(-0.0857925922154 0.214404035136 0)
(-0.0828592520124 0.227838875551 0)
(-0.0797921978041 0.240789742192 0)
(-0.0765995819339 0.253239508303 0)
(-0.0732877956798 0.26517256218 0)
(-0.0698614241838 0.276574376035 0)
(-0.0663230206053 0.287431043806 0)
(-0.0626732563047 0.297728799477 0)
(-0.0589108739849 0.307453554123 0)
(-0.055033028743 0.316590466315 0)
(-0.0510353885252 0.325123572911 0)
(-0.0469126104153 0.33303548725 0)
(-0.0426585255845 0.340307159889 0)
(-0.0382666925269 0.346917714532 0)
(-0.0337306357607 0.352844311697 0)
(-0.0290445050517 0.358062129139 0)
(-0.0242033486259 0.3625444129 0)
(-0.0192038642849 0.366262475745 0)
(-0.0140448929261 0.369185948569 0)
(-0.00872827385931 0.371283120506 0)
(-0.00325939398562 0.372521415426 0)
(0.00235187719444 0.372868056703 0)
(0.00809064451389 0.372290927476 0)
(0.0139361465103 0.370759606021 0)
(0.0198613863997 0.368246594782 0)
(0.0258325705308 0.364728695743 0)
(0.031809101321 0.360188488358 0)
(0.037743448022 0.354615879703 0)
(0.0435816053243 0.348009649187 0)
(0.04926346155 0.340378975503 0)
(0.0547237382781 0.331744879987 0)
(0.059892857384 0.3221415959 0)
(0.0646984128004 0.311617839897 0)
(0.0690667147057 0.300237995734 0)
(0.0729251350977 0.28808308334 0)
(0.0762048521574 0.27525136041 0)
(0.0788446149731 0.261858191927 0)
(0.0807949142449 0.248034742191 0)
(0.0820226142641 0.233925019824 0)
(0.0825147505044 0.219681092045 0)
(0.082280986461 0.205456722532 0)
(0.0813533925429 0.191400346368 0)
(0.0797840909783 0.177648486278 0)
(0.0776400797385 0.164321000575 0)
(0.0749980671686 0.151519333583 0)
(0.0719414629229 0.139326202794 0)
(0.0685583906377 0.127804481023 0)
(0.0649378591442 0.116996014985 0)
(0.0611651179954 0.106922036298 0)
(0.0573173586756 0.0975855726319 0)
(0.0534614530849 0.0889751821333 0)
(0.0496532243901 0.0810687164974 0)
(0.0459381933964 0.0738365024494 0)
(0.0423526057361 0.0672436199958 0)
(0.0389245681945 0.0612514838142 0)
(0.0356747619781 0.0558190962667 0)
(0.032617134099 0.0509042121538 0)
(0.0297595481163 0.0464645075549 0)
(0.0271047181629 0.042458534508 0)
(0.0246510060199 0.0388464687985 0)
(0.0223932978568 0.0355906812853 0)
(0.0203236916388 0.0326561867931 0)
(0.0184322804874 0.0300109928979 0)
(0.0167077709891 0.0276263999614 0)
(0.0151381573539 0.0254772570863 0)
(0.0137112228693 0.0235424413429 0)
(0.0124149143237 0.0218049948254 0)
(0.0112380624791 0.0202717998774 0)
(0.0101835385849 0.0187271478051 0)
(0.00953719306701 0.0176226016595 0)
(0.00897739462409 0.0163636766928 0)
(0.00851211832526 0.0149976567158 0)
(0.00830864035836 0.0137400117264 0)
(0.00809523002128 0.0123483387785 0)
(0.00785803767413 0.0107929319266 0)
(0.00809070328913 0.00958519557729 0)
(0.00819601330104 0.00785791483268 0)
(0.0087727234779 0.00658759053409 0)
(0.00878481742626 0.00469118932791 0)
(0.00980521615788 0.00359927896865 0)
(0.0112429981369 0.00276320540045 0)
(0.011447377001 0.00156067618167 0)
(0.0114915427369 0.000517914014326 0)
(-0.116912677307 0.00780358591207 0)
(-0.123640588563 0.0252613419195 0)
(-0.123269647033 0.0424549429731 -2.63104129478e-27)
(-0.122396158406 0.0597252821639 0)
(-0.121228158442 0.0768284888044 0)
(-0.11977952109 0.0937363770427 0)
(-0.118059953569 0.110407172477 0)
(-0.116080555294 0.126801834419 0)
(-0.113853821675 0.142883550849 0)
(-0.111393349142 0.158618060003 0)
(-0.108713503074 0.173973822243 0)
(-0.105829004012 0.188922153229 0)
(-0.102754520282 0.203437287085 0)
(-0.0995041960873 0.217496351324 0)
(-0.0960912190457 0.231079238841 0)
(-0.0925273570669 0.244168379925 0)
(-0.0888225852386 0.256748397779 0)
(-0.0849847285723 0.268805675283 0)
(-0.0810192545308 0.28032783052 0)
(-0.0769291252392 0.291303152995 0)
(-0.0727148349914 0.30172000916 0)
(-0.0683745117302 0.311566282419 0)
(-0.0639041936188 0.320828849809 0)
(-0.0592981270753 0.329493152329 0)
(-0.0545491928665 0.337542837799 0)
(-0.0496492894154 0.344959496693 0)
(-0.0445898196917 0.351722457859 0)
(-0.0393621140197 0.357808623394 0)
(-0.0339580221373 0.363192401234 0)
(-0.0283703597905 0.367845697365 0)
(-0.0225936456429 0.371737821494 0)
(-0.0166248348452 0.374835678401 0)
(-0.0104641964908 0.377104038265 0)
(-0.00411617779807 0.378505974849 0)
(0.00240958540941 0.37900353608 0)
(0.00909738324206 0.378558630559 0)
(0.0159244995296 0.377134179705 0)
(0.0228605307346 0.37469548929 0)
(0.0298667921239 0.371211824301 0)
(0.0368960903774 0.366658123524 0)
(0.043892667748 0.361016819425 0)
(0.0507925638704 0.354279646188 0)
(0.0575241529231 0.346449424186 0)
(0.0640090495741 0.337541759483 0)
(0.070163148418 0.327586680729 0)
(0.0758980378009 0.316630279601 0)
(0.0811226972936 0.304736354984 0)
(0.0857459291624 0.291988094884 0)
(0.0896796598381 0.278489546981 0)
(0.0928436288926 0.264366423957 0)
(0.0951712864205 0.249765441031 0)
(0.0966166188136 0.234851237419 0)
(0.0971603293858 0.219800387122 0)
(0.0968139471423 0.204792565535 0)
(0.0956196590207 0.190000616958 0)
(0.0936470266791 0.175580792933 0)
(0.0909836582869 0.161666229449 0)
(0.0877262844279 0.148366962974 0)
(0.0839786626126 0.135771941646 0)
(0.0798516492999 0.12394733298 0)
(0.0754581636369 0.112933295787 0)
(0.0709053844203 0.102743953363 0)
(0.0662882488696 0.093371384361 0)
(0.0616863805342 0.0847916100392 0)
(0.0571641607548 0.0769702436147 0)
(0.0527726659313 0.0698666809865 0)
(0.0485518676642 0.0634364674906 0)
(0.0445324335132 0.0576326084684 0)
(0.0407365430765 0.0524064376244 0)
(0.037178452544 0.0477087458643 0)
(0.0338651597577 0.0434911097707 0)
(0.0307976388382 0.0397069478111 0)
(0.0279719222664 0.0363122349838 0)
(0.0253800461272 0.0332659784776 0)
(0.0230109113275 0.0305306153718 0)
(0.0208511067515 0.0280723077907 0)
(0.0188856282903 0.0258611481877 0)
(0.0170985428769 0.0238712986297 0)
(0.0154735153432 0.0220810701658 0)
(0.0139940196943 0.0204727376863 0)
(0.0126472972817 0.0190444934959 0)
(0.0114093463593 0.0175357526116 0)
(0.0107360303821 0.0164792284486 0)
(0.0101394234874 0.0151764273107 0)
(0.0098287146239 0.0141048022518 0)
(0.00955052548152 0.0127806555999 0)
(0.00959208813312 0.0117051981772 0)
(0.00950643344412 0.0102404010216 0)
(0.00957733597903 0.0087497741629 0)
(0.00955998122385 0.00705295162825 0)
(0.00988588295192 0.00566589338452 0)
(0.010586528178 0.0044863514901 0)
(0.0107311784004 0.00305900206431 0)
(0.0122852727624 0.00234577167623 0)
(0.0124232592175 0.00139544513049 0)
(0.0124306066754 0.000446765974026 0)
(-0.133458662632 0.00792547423286 0)
(-0.141135688418 0.0257397904822 0)
(-0.140706685313 0.043240248894 0)
(-0.139699904459 0.0608245688671 0)
(-0.138353109829 0.0782333044782 0)
(-0.13668263699 0.0954372162152 0)
(-0.134700215687 0.112392745764 0)
(-0.13241925136 0.129059235851 0)
(-0.129854821012 0.145398512715 0)
(-0.127023345276 0.161375284871 0)
(-0.123942199861 0.176957378111 0)
(-0.120629239498 0.192115922179 0)
(-0.117102296172 0.206825445952 0)
(-0.113378610998 0.221063874407 0)
(-0.109474279782 0.234812398941 0)
(-0.10540367426 0.248055221015 0)
(-0.101178941253 0.260779148836 0)
(-0.0968095491128 0.272973072397 0)
(-0.0923019913893 0.284627322278 0)
(-0.0876596080828 0.295732962444 0)
(-0.0828826127513 0.306281060137 0)
(-0.0779682523312 0.31626197675 0)
(-0.0729111494834 0.325664752586 0)
(-0.067703717874 0.334476581182 0)
(-0.0623366655355 0.342682425402 0)
(-0.056799486533 0.350264712107 0)
(-0.0510809798551 0.357203134762 0)
(-0.0451697420136 0.363474423147 0)
(-0.0390547719733 0.36905227993 0)
(-0.0327259661428 0.373907229824 0)
(-0.0261749340151 0.378006455106 0)
(-0.0193958798929 0.381313856032 0)
(-0.0123866120415 0.383790228441 0)
(-0.00514966976624 0.385393634633 0)
(0.0023064592116 0.386080035096 0)
(0.00996612830765 0.385804229547 0)
(0.0178053721154 0.384521112249 0)
(0.0257909265964 0.382187222508 0)
(0.0338794760005 0.378762569004 0)