/*--------------------------------*- C++ -*----------------------------------*\
| =========                 |                                                 |
| \\      /  F ield         | OpenFOAM: The Open Source CFD Toolbox           |
|  \\    /   O peration     | Version:  v1906                                 |
|   \\  /    A nd           | Web:      www.OpenFOAM.com                      |
|    \\/     M anipulation  |                                                 |
\*---------------------------------------------------------------------------*/
FoamFile
{
    version     2.0;
    format      ascii;
    class       surfaceScalarField;
    location    "29";
    object      phi;
}
// * * * * * * * * * * * * * * * * * * * * * * * * * * * * * * * * * * * * * //

dimensions      [0 3 -1 0 0 0 0];
oriented        oriented;


internalField   nonuniform List<scalar> 
18240
(
-0.000519172953864
0.000520427274893
-0.000957279298652
0.000439999851228
-0.00141872812767
0.000462183931735
-0.00188190378333
0.000465261171598
-0.00234236567726
0.000460922093674
-0.00279525185556
0.000455154706412
-0.00324359110244
0.000448519650711
-0.00368478560062
0.000443635889231
-0.00412515798297
0.000440234977072
-0.00456176900413
0.00043922686047
-0.00500391070845
0.000441670940404
-0.00541715718319
0.000416001933998
-0.00580612161227
0.000388140558899
-0.00617229719672
0.000369016349394
-0.00651736067882
0.000343843435839
-0.00682445761719
0.000309950003473
-0.007088430294
0.000262380706587
-0.00733869501144
0.000253086212412
-0.00758991927449
0.000249250168302
-0.00784948338125
0.000262480926986
-0.00812301863809
0.000271151020877
-0.00833572124407
0.000215407647306
-0.00845918590902
0.000120582189969
-0.00853789195578
8.11437842597e-05
-0.00862658130271
8.51700484029e-05
-0.00874114591738
0.000116927191019
-0.00887674550538
0.000131515604573
-0.00898453780653
0.000110001551681
-0.00906390358415
7.49044427462e-05
-0.00908407378872
2.20457819059e-05
-0.00912534972744
3.62374101292e-05
-0.00904620111813
-7.81260288715e-05
-0.00873325731183
-0.000318440937095
-0.00837021689069
-0.000362996520852
-0.00802020622173
-0.000355465298884
-0.00766210550034
-0.000359097103325
-0.00731853797842
-0.000348988929847
-0.00697264247498
-0.000347930589999
-0.00663061165452
-0.000347556722806
-0.00628625450655
-0.000347266505737
-0.00597637294688
-0.000315361875996
-0.00568115608627
-0.000298984952808
-0.00534368732695
-0.000342831200244
-0.00495135754959
-0.000396806305603
-0.00457378274111
-0.000382664207995
-0.00422602452989
-0.000352672219434
-0.0038863463231
-0.000344363280534
-0.00355387219956
-0.000337777927644
-0.00321402820485
-0.000343938129487
-0.00288079592384
-0.000338773196478
-0.00256837383455
-0.000315884812302
-0.00228019676927
-0.00029371964382
-0.00200808075754
-0.000275022716841
-0.00176384922831
-0.000249684544822
-0.00155171315899
-0.000214627348906
-0.00137331238691
-0.000183710015505
-0.00121580808723
-0.000159565422022
-0.00107726088245
-0.000143493076165
-0.000953031966869
-0.000126038131423
-0.000852038306396
-0.000105816996704
-0.000762341576521
-9.08806118084e-05
-0.000685224186064
-8.17982451747e-05
-0.000613951572723
-7.17330149839e-05
-0.000553399462041
-6.50418752961e-05
-0.000492390051138
-6.08818713784e-05
-0.000437897507467
-5.90643809785e-05
-0.000383972152301
-5.29099341358e-05
-0.000340015633128
-4.87542589236e-05
-0.000294304419378
-4.40602817114e-05
-0.000254417754122
-4.45305123802e-05
-0.000212018845351
-4.05544415907e-05
-0.00017634937807
-3.94747865891e-05
-0.000138978979285
-3.53981789821e-05
-0.000111066166063
-3.1087330383e-05
-7.92753808109e-05
-2.95481268032e-05
-5.67009421605e-05
-2.55599073287e-05
-3.40970681998e-05
-2.00869894671e-05
-1.94362739957e-05
-1.73935513376e-05
-4.01198586308e-06
-1.30648442196e-05
5.10801898206e-06
-1.13288626225e-05
1.73688522468e-05
-1.01722007769e-05
2.50919071363e-05
-9.76909397953e-06
3.45514043883e-05
-7.38777886856e-06
3.96064878035e-05
-7.02307502454e-06
4.60900876495e-05
-4.43002594518e-06
4.7513444652e-05
-3.20076887217e-06
4.88254966518e-05
4.58422490818e-07
4.47705707964e-05
2.59470339115e-06
4.12426153937e-05
4.93432315499e-06
3.4279044711e-05
5.74533205334e-06
2.85347950858e-05
7.13404376387e-06
2.10102971057e-05
7.1276577063e-06
1.52695365314e-05
6.35311675848e-06
1.32972333738e-05
3.47311902327e-06
1.33998482093e-05
2.50061490193e-06
1.4546442879e-05
-0.000442987546303
0.000964663712931
-0.000981615255661
0.000980210719812
-0.00149856530713
0.000980411148669
-0.00200103485037
0.000969337343433
-0.00250361640279
0.000964687345015
-0.00300297953847
0.000956146667955
-0.00349990797226
0.000946520707795
-0.00398789706831
0.000933258876993
-0.00446004995222
0.000913318840193
-0.00491196505201
0.000892729140415
-0.00534922947036
0.000879722716503
-0.0057973528315
0.000865680127197
-0.00625085290205
0.000842257283975
-0.00664953664163
0.000769180960014
-0.00703693961952
0.000731665557855
-0.00741406006773
0.000688439791857
-0.00776739064341
0.000615877794208
-0.00809035354877
0.000577232019915
-0.00838045524566
0.00053926692968
-0.00858964283479
0.000472677783371
-0.00874952093867
0.000430593625148
-0.00895114655409
0.000417744788534
-0.00915763409336
0.000326217780878
-0.00932195149845
0.00024587318648
-0.00942469251747
0.000186689924746
-0.00945101365928
0.000143285665167
-0.00945573108051
0.000134756628649
-0.009479655184
0.000133629711185
-0.00956497464643
0.000158312582247
-0.0096563970556
0.000112713697679
-0.00960818835429
-1.43381860337e-05
-0.00946399350444
-0.000223932916072
-0.00935706620045
-0.000428309463031
-0.00922277896387
-0.000499681414687
-0.00901695757364
-0.000564957092101
-0.00874975086026
-0.000629458978319
-0.00846821017431
-0.000635016902447
-0.008166790672
-0.000653294944404
-0.00784147505183
-0.00067785725479
-0.00748180850208
-0.000711257646792
-0.00705850817637
-0.000744038766867
-0.00660800668454
-0.000754005208293
-0.00622757328798
-0.000728929290839
-0.00588834124371
-0.000741191877095
-0.0054976823294
-0.000779148270502
-0.0051085916603
-0.000747398567423
-0.00471026588109
-0.000748508047273
-0.0043238141349
-0.000730056221658
-0.00391748167216
-0.000756042775424
-0.0035176760783
-0.00074452398815
-0.00316203589709
-0.000677160870837
-0.00283943972498
-0.000621939042579
-0.00256028027404
-0.000559471704704
-0.00232298525129
-0.000492307385909
-0.00208869308461
-0.000453850764962
-0.00186532370217
-0.00041198550046
-0.00167281323142
-0.000356416225125
-0.00152584751887
-0.000295035219085
-0.00139642841372
-0.000259668452359
-0.00126741063164
-0.000238642634286
-0.00114832003772
-0.000213935140249
-0.00103677360181
-0.000196643437386
-0.00092793893403
-0.000183918899098
-0.000824983481213
-0.000170569577955
-0.000732879035344
-0.000156478482647
-0.000649241287787
-0.00014446732611
-0.000571542861383
-0.000133812790595
-0.000494271948285
-0.000127422253415
-0.000418466851936
-0.000122379131293
-0.000350182903046
-0.00011388940859
-0.000292575068846
-9.94674983563e-05
-0.000244868395166
-8.80888756794e-05
-0.000200477249619
-8.00539345516e-05
-0.000163720049892
-6.85734016237e-05
-0.000126918256546
-6.63349663114e-05
-9.64134650138e-05
-5.71319413011e-05
-7.0318829684e-05
-4.60641255975e-05
-5.01641436779e-05
-3.86280359312e-05
-3.29438966637e-05
-2.95667540515e-05
-1.98557971568e-05
-2.53403719591e-05
-5.96299451228e-06
-2.29782101446e-05
4.20505264308e-06
-2.0806625672e-05
1.31354627442e-05
-1.53995722773e-05
1.88085810084e-05
-1.30809344938e-05
2.34817939676e-05
-8.62749213376e-06
2.41187850564e-05
-3.86214008252e-06
2.29851915633e-05
2.07220298897e-06
1.80015058309e-05
7.47186654837e-06
1.04942520629e-05
1.25930298157e-05
-1.78235690515e-06
1.8050090967e-05
-1.25421792133e-05
1.80933056527e-05
-1.80304083957e-05
1.27245067322e-05
-1.79141890687e-05
7.15212716227e-06
-1.02595877505e-05
-2.56716799417e-06
4.3698270976e-07
-5.78453338021e-06
1.64906526169e-05
-0.000467488773184
0.00143348243575
-0.000992285773638
0.00150650379725
-0.00151018855606
0.00149974933602
-0.00202414358053
0.00148479224902
-0.00254265219997
0.00148459138374
-0.00304943532051
0.00146441359141
-0.00354293081674
0.00144134237766
-0.00402242399768
0.00141417377818
-0.0044991155568
0.00139123074702
-0.00497292908189
0.00136789172727
-0.00542853503839
0.00133644066014
-0.00584955794975
0.00128797289435
-0.00624904671761
0.00124273910858
-0.00671893020499
0.00124022654899
-0.00717658940376
0.00119018574582
-0.00755160798134
0.00106448497302
-0.00792211343648
0.000987035435084
-0.00825542018656
0.0009113683219
-0.00854359110084
0.000827832190561
-0.00880439012224
0.000734043878453
-0.00900962082761
0.000635914237483
-0.00915604470516
0.000564392315636
-0.00932692805159
0.00049694808698
-0.00949398296573
0.000412898151858
-0.00969904917998
0.000391326574689
-0.00995635396347
0.000400267918487
-0.0102036126299
0.000381188172066
-0.0103490238268
0.000278201625767
-0.0103694019995
0.000177330578701
-0.0103877000717
0.000129618240035
-0.0103832386821
-2.08309947233e-05
-0.0103911086017
-0.000218036525185
-0.0103827052554
-0.00043964199591
-0.0102448934218
-0.000640278745118
-0.0100133661456
-0.000800169724396
-0.00967852568894
-0.000968101865132
-0.00926449052162
-0.00105348297004
-0.00883395559866
-0.0010880755616
-0.00839301330794
-0.00112358396918
-0.00795015622572
-0.00115872370165
-0.0075086380524
-0.00119055328531
-0.00715512212577
-0.00111306101808
-0.00682098613206
-0.00106876156203
-0.00656249574124
-0.00100593041218
-0.00630927627225
-0.00103881600885
-0.00606503778978
-0.000998325190453
-0.00579831030455
-0.00102215019494
-0.00552903736608
-0.00100638235264
-0.00534055431432
-0.000951802167384
-0.00503368436275
-0.00105891128768
-0.00458330066826
-0.00113497080773
-0.00412528327412
-0.00108718485852
-0.0036638148794
-0.00102754647202
-0.00325847422579
-0.00090406264439
-0.00289726603768
-0.000820943370687
-0.00257678784608
-0.000737794849689
-0.00229634235885
-0.000642303268842
-0.00205428068414
-0.000541883813342
-0.0018524316181
-0.000466437704705
-0.00167947606596
-0.000415994799754
-0.00153185698894
-0.000366941592333
-0.00139561943847
-0.000335601378212
-0.00127781019301
-0.000307170845213
-0.00116970479142
-0.000281151227403
-0.00106151641208
-0.000269184755956
-0.00095869386356
-0.000249431503062
-0.000877447961958
-0.000219317528514
-0.000802738328986
-0.000203111900319
-0.000720188225642
-0.000209313425833
-0.000628967232232
-0.000204369104822
-0.000527576716151
-0.000205191836065
-0.000428684674395
-0.000184585551348
-0.000338173446116
-0.000174613712671
-0.000262121383231
-0.000141965461397
-0.000207460577678
-0.000124864133534
-0.000160898816547
-0.000101862890023
-0.000128486483591
-8.13468564194e-05
-9.99497730745e-05
-6.55877336882e-05
-7.7608504807e-05
-5.29970137263e-05
-5.59713636872e-05
-4.60119009791e-05
-3.51704632931e-05
-4.40178691329e-05
-1.38333265469e-05
-4.1862004861e-05
3.92259232296e-06
-3.27702931662e-05
1.62666512301e-05
-2.57537768438e-05
2.33197074622e-05
-1.51514742804e-05
2.62294750989e-05
-6.83462590675e-06
2.61131906799e-05
2.89349655202e-06
2.22811950146e-05
1.16257330267e-05
1.81575643595e-05
1.70636128381e-05
1.30352538732e-05
2.34008912509e-05
-1.47841206665e-06
3.31469301529e-05
-9.84632747586e-06
2.12667289673e-05
-1.29838305479e-05
1.07041468899e-05
-1.09847142809e-05
-2.47108001697e-06
1.98971159409e-06
-1.58413021238e-05
1.99082480929e-05
-0.000479518570274
0.00191436520447
-0.00100123612621
0.00202974020735
-0.00151897320649
0.0020189672092
-0.0020445277377
0.00201184642066
-0.00256542781031
0.00200695347792
-0.00307518475496
0.00197563544751
-0.00357433689781
0.00194189549035
-0.00407756679644
0.00191880014745
-0.0045726446091
0.00188762784852
-0.00504025346618
0.00183680419182
-0.00548267582925
0.00178008462135
-0.00590705930764
0.00171355830896
-0.00637206616622
0.00170886398479
-0.00682460804827
0.00169385938852
-0.00722470769669
0.00159126873978
-0.0076313996437
0.0014721425949
-0.00800395239193
0.00136039616014
-0.00834502241029
0.00125321214293
-0.00864588845426
0.0011292577392
-0.00892841067207
0.00101705419167
-0.00920974381195
0.000917523947843
-0.0094405581982
0.00079546309704
-0.00966318829711
0.000719665609974
-0.00995800239307
0.00070781871056
-0.0103100195742
0.000743134944292
-0.0106182161192
0.000708139201613
-0.0108342126583
0.000596475166579
-0.0110521585822
0.000495227793666
-0.011204856747
0.00032865092374
-0.011168199559
9.14388327558e-05
-0.0110568787769
-0.000134139469707
-0.0108823007249
-0.000394961399587
-0.0106781236912
-0.00064658293938
-0.0104884411079
-0.000833052945102
-0.010257668567
-0.00103450817927
-0.0100528297751
-0.00117668709572
-0.00981658300111
-0.00129381213254
-0.00943703437905
-0.00147206880618
-0.00906685866196
-0.0014982825052
-0.00908048076083
-0.00115037490805
-0.00931979413997
-0.000957108978857
-0.00941388876681
-0.00102543425846
-0.00923629273874
-0.00125353284127
-0.00873850721474
-0.00151113938977
-0.0081407876981
-0.00164427159787
-0.00758550204102
-0.00156159825532
-0.00701032191122
-0.00160520902013
-0.00642022858795
-0.00160450943619
-0.00588672011714
-0.00149314289926
-0.00556230501981
-0.00139137888503
-0.00526225606585
-0.00144294533396
-0.00478256039822
-0.00157448655076
-0.00422865955171
-0.00158860124513
-0.00377485244224
-0.00136473877603
-0.00334866948172
-0.00125303070528
-0.00295934982003
-0.00113341465005
-0.00261980851856
-0.000987157965011
-0.00234250047521
-0.000825948939954
-0.00213766122774
-0.000675924315489
-0.00194868615219
-0.000613859848785
-0.00177816649144
-0.00053924276707
-0.00160899386851
-0.000516061413737
-0.00146727348725
-0.000448276429783
-0.00135398902397
-0.00040535975704
-0.0012399700038
-0.000381575492259
-0.00112693126922
-0.000373864087722
-0.00103013875128
-0.000312596270568
-0.000960506515934
-0.000283181066655
-0.000871948180732
-0.000292523644518
-0.000790316976249
-0.000296617627554
-0.000693593789092
-0.000294833957632
-0.000609110847521
-0.000278757486049
-0.000497650355829
-0.000278609417149
-0.000402705654167
-0.000244587159031
-0.000327882985594
-0.000193629205599
-0.000266954505985
-0.000167037598825
-0.000224351814768
-0.000120096319493
-0.000198997434653
-9.00328043021e-05
-0.000179296342322
-7.19572047864e-05
-0.000153481874206
-6.83752766895e-05
-0.000120244558552
-7.91813070178e-05
-7.36716224961e-05
-8.49462216046e-05
-3.47832676726e-05
-7.34154577447e-05
-7.88748803733e-06
-5.07766158377e-05
6.91990563823e-06
-3.04711546559e-05
1.47129175214e-05
-1.36706363801e-05
2.17328926801e-05
-3.00549991685e-06
2.98202300925e-05
4.13710514245e-06
2.93679375955e-05
1.81287043315e-05
2.21710281768e-05
3.11785230979e-05
2.18458775887e-05
3.36341510972e-05
8.0677062973e-06
3.51460405367e-05
2.2256622273e-06
1.76591237068e-05
6.66274128992e-06
-5.35071953115e-06
9.47239742917e-06
-1.57846876962e-05
3.14419533937e-05
-0.000490468986452
0.00240623330515
-0.00101649896746
0.00255727701168
-0.00154127946949
0.00254527340673
-0.00207661377432
0.00254869988636
-0.00259802039447
0.00252985440489
-0.00311186572976
0.00249095819568
-0.00363097605989
0.00246244532005
-0.0041420012889
0.00243123666078
-0.004628484365
0.00237546798218
-0.00510038546962
0.00231002687645
-0.00555517978615
0.00223612919297
-0.00603982999648
0.00219944512673
-0.00652006704477
0.00219025656919
-0.0069304948358
0.00210541728646
-0.00733819819368
0.00199999146443
-0.00774466908567
0.001879605269
-0.00812118020687
0.00173779795249
-0.00848800203472
0.00162079766814
-0.00887049930789
0.00151238588597
-0.00921823295068
0.00136530901015
-0.0094609852421
0.00116068588656
-0.00972295112543
0.00105777349813
-0.0100684355484
0.00106541557919
-0.0104827887488
0.00112226923741
-0.0108647222527
0.00112492269645
-0.0111828667633
0.00102591077384
-0.01142656326
0.000839431182601
-0.0114987647665
0.000566483290554
-0.0115034695956
0.0003320443997
-0.0114602310604
4.65725069803e-05
-0.0113958024339
-0.000200610505433
-0.0114255730469
-0.000367683310248
-0.0114025940407
-0.000672482645334
-0.0112261483851
-0.00101262796707
-0.0109460602313
-0.00131795794526
-0.0105682631608
-0.00155810304653
-0.0104641516716
-0.00140200597621
-0.0108464064547
-0.00109435703063
-0.0112891526659
-0.0010610876359
-0.0112823321211
-0.00116320026617
-0.0108853163985
-0.00136066447267
-0.0103592327895
-0.00155832267419
-0.00984114530592
-0.00177901974435
-0.00959770389536
-0.0017623276136
-0.00930301094331
-0.00194747096996
-0.00878155493885
-0.00209148322484
-0.00813101166112
-0.00226439491155
-0.00737327169096
-0.0023711441264
-0.00667748713174
-0.00219768702665
-0.00599325082093
-0.00208422135432
-0.00548563760106
-0.00195865980327
-0.00517073225051
-0.00189754337169
-0.00477982796727
-0.0019876525949
-0.00434201912565
-0.00181118277175
-0.00385745601552
-0.00174522760052
-0.00336299035035
-0.00163760653563
-0.00295024933539
-0.0014074420178
-0.00261372981625
-0.00117349315523
-0.00255136164573
-0.000748184071785
-0.00249109822249
-0.000682724871357
-0.00226151235826
-0.000783195076866
-0.0019100545635
-0.000874883891098
-0.00165165300502
-0.000724112232836
-0.00145569236661
-0.000605067050278
-0.00138795064226
-0.000466166503188
-0.00130219188952
-0.000460570402801
-0.00106719965397
-0.000562782624354
-0.000829494460736
-0.000519154002826
-0.00070855525697
-0.000426757790452
-0.000619028262984
-0.000382751848431
-0.000527112316768
-0.00039792219964
-0.000443756849428
-0.000357968240951
-0.000411662581442
-0.000318041625657
-0.000387947757602
-0.000263644704526
-0.000366290124411
-0.000216341655981
-0.000289995399725
-0.000241101823437
-0.000233710777452
-0.000170359309801
-0.000227317197791
-9.74186423786e-05
-0.000217658253394
-7.19076273112e-05
-0.000210041582401
-8.01428087149e-05
-0.000182590871026
-9.87546286818e-05
-0.000137857813261
-0.000132330744238
-7.51270870283e-05
-0.000131471814125
-3.51528195139e-05
-8.96405560653e-05
-1.68074270756e-05
-4.81466125683e-05
-2.75554019852e-06
-2.40235805369e-05
1.1133667931e-05
-1.65508161233e-05
2.07196296225e-05
-3.53710419025e-06
2.79976616797e-05
1.183345472e-05
3.40682606315e-05
2.56293308328e-05
3.55976496818e-05
3.22850926493e-05
3.35695735246e-05
3.71719051213e-05
1.91175439984e-05
3.22515343504e-05
1.47579306477e-05
1.26800016491e-06
1.33167393302e-05
-1.09772974322e-05
4.63270334704e-05
-0.000500144687699
0.00290779347402
-0.00103532064901
0.00309401726448
-0.00157090348733
0.00308240174668
-0.00211216671638
0.00309150766808
-0.002638868906
0.00305807874133
-0.00317343382558
0.00302701930411
-0.00369769145641
0.00298817551108
-0.00420096380126
0.00293594561394
-0.0046944109465
0.00287029635823
-0.00517395855085
0.00279091768694
-0.00564857246319
0.00271204606518
-0.00615190953506
0.00270404038707
-0.00661446074407
0.00265403252114
-0.00703857747174
0.00253066909875
-0.00746911940653
0.00243164194097
-0.00790245234805
0.00231394979286
-0.00835336185026
0.00218961789012
-0.00878187229627
0.00205011045764
-0.00913539033158
0.00186655673329
-0.00944201973637
0.00167251816211
-0.00975560559658
0.00147477050481
-0.0101317911024
0.00143439502755
-0.010604967607
0.0015388837946
-0.0111091988835
0.00162657280498
-0.0114664386964
0.00148199205722
-0.0116517398494
0.00121073533588
-0.011742896324
0.000929912716503
-0.0117899570606
0.000612545320518
-0.0118463000593
0.000387056920164
-0.0120147617575
0.000213330088657
-0.0121225662191
-9.50494471399e-05
-0.0120145709596
-0.00047825752231
-0.0118200310611
-0.000869764929878
-0.0116441813232
-0.00119152926976
-0.0116291185608
-0.00133615440051
-0.0119316463168
-0.0012593529484
-0.0121900616106
-0.00114818752598
-0.012241870626
-0.00104763516974
-0.0121525851567
-0.00115618988606
-0.0117917879129
-0.00153020850423
-0.0113729299696
-0.00178619242403
-0.0112579316508
-0.00168062883606
-0.0110711873532
-0.00197358803874
-0.0104287573886
-0.00241302904523
-0.00970759134023
-0.00267724999932
-0.00916960186938
-0.00263839749833
-0.00888787276548
-0.00255525191277
-0.00851104770378
-0.00275768645534
-0.00782820445944
-0.00289023346475
-0.00698445767871
-0.0029377240087
-0.00633929910458
-0.00261376063243
-0.0059458410383
-0.00230076722962
-0.00553597794191
-0.00240971158316
-0.00511691285574
-0.00224182925441
-0.00480683802073
-0.0020698651777
-0.00470909877291
-0.00174803791322
-0.00443858292656
-0.00169929186733
-0.00419387295273
-0.00143567903441
-0.00345402791699
-0.00150909763053
-0.00263898175003
-0.00151480986899
-0.00192236988931
-0.00152037945537
-0.00105098385151
-0.00177213080898
2.19682510491e-05
-0.00181589964327
0.00107503261264
-0.001679867512
0.00202347728028
-0.00142983503216
0.00276854696482
-0.00122309219398
0.00327892176133
-0.00108385601954
0.00361033140394
-0.000865170978109
0.00376405884157
-0.000588878434981
0.00373823454642
-0.000368571289006
0.00356134431305
-0.000226567517083
0.00328521570597
-8.92632530358e-05
0.00291631803575
4.80297202358e-05
0.00248039672827
0.000172868430654
0.00199114303125
0.000270311424097
0.00136431767106
0.000395313639834
0.000787675510944
0.000403649404996
0.000439495495013
0.000263866170855
0.000193295288605
0.000172055945926
5.96835405832e-05
6.27753661035e-05
-2.43083531927e-05
-1.39352116006e-05
-6.99034182037e-05
-8.05734192641e-05
-5.32629528514e-05
-0.000139352104898
-2.01638004026e-05
-0.000121989631204
-2.13196646616e-05
-3.92654890429e-05
-2.27259004788e-05
-2.17021143312e-05
-2.44999017899e-06
-3.2335585304e-05
2.17247225465e-05
-2.45058805467e-05
3.41114062132e-05
8.53553412331e-07
4.24888244392e-05
1.88010569511e-05
4.42994010109e-05
3.07926820098e-05
4.61313432934e-05
3.55435918183e-05
3.97462369612e-05
3.98942282121e-05
2.36955399532e-05
1.895620163e-05
1.76758073729e-05
-2.36535688999e-06
6.58407546888e-05
-0.000509194407681
0.00341843853532
-0.00105609509341
0.00364247085321
-0.00160427001107
0.00363215866914
-0.00215225128422
0.00364105562463
-0.00270217668697
0.00360954865845
-0.00324300375088
0.00356937425556
-0.00375277683194
0.00349944971053
-0.0042670416579
0.00345167113334
-0.0047725051164
0.00337718231458
-0.0052608125544
0.003280607063
-0.00578174468476
0.00323432529749
-0.00629382565878
0.00321744873681
-0.00675185321644
0.00311331972823
-0.00725312079902
0.00303314814071
-0.0077510012084
0.00293065793819
-0.00820014285283
0.00276414133542
-0.0086116839386
0.00260209928846
-0.00898484236402
0.00242405996147
-0.00933699365828
0.00221942815017
-0.00965749765694
0.00199364355856
-0.0100853171398
0.00190321876983
-0.0106331474874
0.00198269779457
-0.0111792171344
0.00208524920682
-0.0115566062746
0.00200402872123
-0.0117831593419
0.00170832294528
-0.0119616748098
0.00138881441524
-0.012100968315
0.00106851418645
-0.0123600955739
0.000870627006929
-0.012604832547
0.000630344103784
-0.0126382373455
0.000244815269722
-0.0125700583774
-0.000165371416857
-0.0124782794736
-0.000572460571164
-0.0125088963454
-0.000841818138367
-0.0125792117835
-0.0011240435373
-0.0128721328852
-0.00104654978848
-0.01338215855
-0.00075360233103
-0.0135309222926
-0.00100429890838
-0.013185720726
-0.00139840728878
-0.012803860992
-0.00154414977294
-0.0128324001653
-0.00150835511465
-0.012759089745
-0.00186694580821
-0.0122591513425
-0.00218810071986
-0.0117674163099
-0.0024733762682
-0.0115317930585
-0.00265742452802
-0.0112633584395
-0.00295537550722
-0.0105863688997
-0.00332495597265
-0.00970627370555
-0.00344516515263
-0.00883370001312
-0.00364058094112
-0.00848543651253
-0.0032490019909
-0.0081039085672
-0.00333128064343
-0.00731978794086
-0.00341048072676
-0.00685429453082
-0.00278013013936
-0.00638375189251
-0.00289666712985
-0.00622143485117
-0.00242134658277
-0.00558885538719
-0.00272541677936
-0.00497431719238
-0.00238820108686
-0.00376418102406
-0.00293846057116
-0.00167931633511
-0.00354928719122
0.000736753940369
-0.00394821135604
0.00326231642098
-0.00406392697937
0.00573791691786
-0.00401728975554
0.00787995133022
-0.00393396759086
0.00976355867702
-0.00371675565256
0.011391065777
-0.00332455156614
0.0127544733481
-0.00280790512428
0.0137862925139
-0.00226912097889
0.0144376922519
-0.0017470354497
0.0147559868056
-0.0011954289085
0.0147894201543
-0.000631890855972
0.0145383462883
-0.000127023969534
0.0140122994389
0.000292287774905
0.0132620707636
0.000653918861297
0.0123390609142
0.000966778869939
0.0112842954931
0.00122307300322
0.0101438952377
0.00140909588842
0.00902276365465
0.0015127750142
0.00788691540326
0.00154231489213
0.00668278537212
0.00146864744501
0.00551297069111
0.00134790447421
0.00438028296378
0.00120045399797
0.00332180995886
0.00105017262049
0.00236262131521
0.000894452515325
0.00140714938452
0.000820800522514
0.000648196953853
0.000649835487764
0.00024018590464
0.00037415437388
5.55901317195e-05
0.000170842581487
7.05686918269e-06
2.65579173595e-05
3.01455994465e-05
-4.37587019251e-05
3.34207497451e-05
2.30339785228e-06
5.19166743721e-05
3.55178395911e-06
5.88584456155e-05
2.60145428763e-05
5.63946387054e-05
3.94124540709e-05
5.61858186169e-05
4.0610122073e-05
3.71050171292e-05
4.00921896456e-05
2.33912365099e-05
1.38901033939e-05
9.00519939746e-05
-0.000515618407731
0.00393552057894
-0.00107765296947
0.00420612953204
-0.0016421418948
0.00419824348308
-0.00218705486771
0.00418756298755
-0.00273809701952
0.00416215823278
-0.00327183093715
0.00410465589515
-0.00380158755126
0.00403073169804
-0.00434376538353
0.00399535187776
-0.00486948712137
0.00390437389186
-0.00539410042551
0.00380664266305
-0.0059290241769
0.00377068153496
-0.00641877172336
0.00370856310758
-0.00694676853304
0.00364264370355
-0.00746850990478
0.00355614479381
-0.00792962941766
0.00339294652144
-0.0083758586833
0.00321143753588
-0.00879568866108
0.00302285513377
-0.00918987785347
0.00281912732826
-0.00956287902642
0.00259317770558
-0.00995689877288
0.00238844350604
-0.0104903243735
0.00243726456759
-0.011105762094
0.0025986640483
-0.0115896766554
0.00256945479139
-0.0118714417983
0.00228583904871
-0.0121090254958
0.00194571027891
-0.0123208121512
0.00160016951446
-0.012650222906
0.0013971733871
-0.0129354881956
0.00115475217318
-0.0130396038004
0.000732892316949
-0.0130703186047
0.000273773892201
-0.0130238097304
-0.000214039352092
-0.0131342074956
-0.000464239345937
-0.0132485728496
-0.000730077515612
-0.0136434629111
-0.000732068157089
-0.014283418926
-0.000410540915657
-0.0144184643033
-0.000623035528079
-0.0142447392588
-0.0011831351249
-0.0143289419571
-0.0013201876474
-0.0144051213792
-0.00147472979849
-0.0139798518618
-0.00194078122874
-0.0133755981474
-0.00247845066527
-0.0128059263115
-0.0027658266606
-0.012744186312
-0.00254359572077
-0.0124902569141
-0.0029207655543
-0.0117661820131
-0.0036888896975
-0.0109369186793
-0.00416432306883
-0.0105871195019
-0.00380564649267
-0.0101261819837
-0.00411291700201
-0.00910211995996
-0.00428608045118
-0.00878680111007
-0.00365991478301
-0.00829558283634
-0.00391872829247
-0.00766145489736
-0.00343150975082
-0.00663265159768
-0.00394902961215
-0.0054641209405
-0.0036158680893
-0.00363067480986
-0.00458899061507
-0.000404782467953
-0.00564181636691
0.00313438690344
-0.00650261648451
0.00670525358753
-0.00714312294293
0.0101904605086
-0.00745365092064
0.0135441060341
-0.00743690720302
0.0166860366074
-0.00717679331423
0.0194817321525
-0.00674603744308
0.0218987461676
-0.00614883107645
0.0239480288101
-0.0053883098409
0.0256315586311
-0.00450457885036
0.0269142990019
-0.003564243352
0.0277668316289
-0.0026105968204
0.0282105379068
-0.00164950897683
0.028274373528
-0.00070472410157
0.0279635100284
0.000175528804781
0.0272927894972
0.00095598544779
0.0263038351195
0.00163625764341
0.0250479629529
0.00221736847367
0.0235711164866
0.00269438007149
0.0219164438481
0.00305898696947
0.0201214926022
0.00330302046354
0.0182222523743
0.00343940351488
0.0162238125028
0.00346591676416
0.014172783606
0.00340018914014
0.0121108861627
0.00326393596704
0.0100896121403
0.00307641508903
0.00815331609218
0.00283579170925
0.00642498495909
0.00255833713804
0.00485186365962
0.00223179935825
0.00339416491798
0.00184220501629
0.00213181733167
0.00145142593865
0.00103203709496
0.00113859611084
0.000310609049535
0.000689006587225
6.53570180954e-05
0.000258005394221
6.67980605701e-05
7.8117399128e-06
7.96060797623e-05
1.76913231612e-05
7.8650822905e-05
4.32875805559e-05
7.29236771857e-05
4.87617937069e-05
5.59628217005e-05
5.81132162261e-05
2.90841870176e-05
4.19881970027e-05
0.000120209898608
-0.000520052016827
0.00445706958035
-0.0010964076013
0.00478409419332
-0.00166947836439
0.00477295086352
-0.0022206923397
0.00474038419218
-0.00278783782766
0.00473090789504
-0.0033443041473
0.00466270634752
-0.0038915876898
0.0045795781342
-0.00443927785441
0.00454459723155
-0.004972969391
0.00443955863553
-0.00551133825565
0.00434651218435
-0.00605340171359
0.00431419220202
-0.00660056921878
0.00425717082272
-0.0071516664496
0.0041951069764
-0.00763997165651
0.0040457397402
-0.00811074477421
0.00386491113148
-0.00856637396863
0.00366812207132
-0.00900007712698
0.00345755167972
-0.00940885522805
0.00322879873564
-0.00977969247145
0.00296489109106
-0.010262701011
0.00287218026606
-0.0108917972645
0.00306706260606
-0.0114784727007
0.003185831375
-0.0119029441623
0.00299420642668
-0.0122128521158
0.0025957907632
-0.0124917980035
0.00222444309888
-0.0128991884637
0.0020071125789
-0.0132539648554
0.00175113960763
-0.0133938885346
0.00129350613282
-0.0135114387655
0.000848996622278
-0.0135899668774
0.000350363723786
-0.0137373608199
-6.84906694579e-05
-0.0139394849336
-0.000264596230837
-0.0144537491417
-0.000218356051997
-0.015180958511
-8.49786728598e-06
-0.01538533174
-0.000210322872802
-0.0152048906653
-0.000808053069767
-0.0153585774698
-0.00103502231856
-0.0153991746876
-0.00128574640053
-0.0150779691715
-0.00180269268069
-0.0147440803791
-0.00228145930926
-0.0147213503072
-0.00250902383345
-0.0146629567368
-0.00283268940247
-0.014023289616
-0.00319234091966
-0.0133889820979
-0.00356429750918
-0.0131379814576
-0.00395010159028
-0.012843522833
-0.00446994504006
-0.0117722502565
-0.00488873463663
-0.0113660336869
-0.00453233907546
-0.0107708417194
-0.00489639292432
-0.0103113792841
-0.00413684847768
-0.00973774099164
-0.00451140757771