/*--------------------------------*- C++ -*----------------------------------*\
| =========                 |                                                 |
| \\      /  F ield         | OpenFOAM: The Open Source CFD Toolbox           |
|  \\    /   O peration     | Version:  v1906                                 |
|   \\  /    A nd           | Web:      www.OpenFOAM.com                      |
|    \\/     M anipulation  |                                                 |
\*---------------------------------------------------------------------------*/
FoamFile
{
    version     2.0;
    format      ascii;
    class       volVectorField;
    location    "29";
    object      U;
}
// * * * * * * * * * * * * * * * * * * * * * * * * * * * * * * * * * * * * * //

dimensions      [0 1 -1 0 0 0 0];


internalField   nonuniform List<vector> 
9216
(
(0.00522683962014 -0.00525496061454 0)
(0.00343304974985 -0.0114296605334 1.01871265791e-27)
(0.00359338171942 -0.0196308729502 2.71028765268e-31)
(0.00363734334012 -0.0272185814903 0)
(0.00359856289582 -0.0349134048454 0)
(0.00352809962403 -0.0423353300439 0)
(0.00346414582753 -0.0498405112276 0)
(0.00340532608316 -0.0571297560246 0)
(0.00341568027521 -0.0643989219296 0)
(0.00345790478486 -0.0714898369578 0)
(0.00354608361544 -0.0785120366831 0)
(0.00325716388503 -0.0859289580481 0)
(0.00290421293144 -0.091339360512 0)
(0.00278075310404 -0.0980370892211 0)
(0.00256577146612 -0.10296003728 0)
(0.00219457440907 -0.108743688152 0)
(0.00172084759311 -0.112982583417 0)
(0.00167190009503 -0.116897718357 0)
(0.00171469175139 -0.120989424489 0)
(0.00201665966865 -0.124944531003 0)
(0.0022477694762 -0.127803622561 0)
(0.0015624218017 -0.132539550687 0)
(0.000536517849584 -0.133619176717 0)
(0.000183516635644 -0.134237218663 0)
(0.000377854876616 -0.134885906301 0)
(0.000835788616609 -0.134820093143 0)
(0.00104497023879 -0.136985679137 0)
(0.000820461958863 -0.13758658707 0)
(0.000382958604144 -0.13779949528 0)
(-0.000122426914913 -0.138495342691 0)
(0.000213173722334 -0.135085048129 0)
(-0.000892808772584 -0.137466204663 0)
(-0.00332316465858 -0.132272124315 0)
(-0.00364846602582 -0.124149706117 0)
(-0.00340900829101 -0.120516377063 0)
(-0.00324113362196 -0.112588739163 0)
(-0.0030911774361 -0.106970592843 0)
(-0.00293453878033 -0.10058869047 0)
(-0.00283559915112 -0.0943259588374 0)
(-0.00268923876425 -0.0883060226863 0)
(-0.00232160752374 -0.0822614724663 0)
(-0.00217834770852 -0.0770890846038 0)
(-0.00256113242822 -0.0723721302954 0)
(-0.00282487015397 -0.0664905863519 0)
(-0.00254474031896 -0.0600718147743 0)
(-0.00222927045899 -0.0553902380535 0)
(-0.00208539345662 -0.0507376887929 0)
(-0.00200053084867 -0.046371667584 0)
(-0.0020791158503 -0.0419432268659 0)
(-0.00204461600563 -0.0375478810999 0)
(-0.00181853419715 -0.0333914173802 0)
(-0.00159906833697 -0.0299158044093 0)
(-0.00147165199803 -0.0268059333221 0)
(-0.00126217370143 -0.0240012528639 0)
(-0.000980155718599 -0.0217054329366 0)
(-0.000767519564629 -0.0198709112046 0)
(-0.000673628982358 -0.0184115062871 0)
(-0.000682712284621 -0.0170476609118 0)
(-0.000589714660052 -0.0157573467725 0)
(-0.00042883943956 -0.0146815920373 0)
(-0.000354989184383 -0.0138260554376 0)
(-0.000304398454056 -0.0130287217128 0)
(-0.000233421979717 -0.0123198722379 0)
(-0.000194510062112 -0.0117345257239 0)
(-0.000221151266171 -0.0111795060027 0)
(-0.000243272841761 -0.0105946542399 0)
(-0.000214698521806 -0.0100392487962 0)
(-0.00017313326014 -0.00948779114883 0)
(-0.000159536460345 -0.00907725919109 0)
(-0.000208161997408 -0.00860386301339 0)
(-0.000206499345382 -0.00811797801342 0)
(-0.000208341948824 -0.00770203514736 0)
(-0.000191375902393 -0.00728973082027 0)
(-0.000169053865982 -0.0069403021012 0)
(-0.000204706803406 -0.00657302313493 0)
(-0.000187305389545 -0.00615512563313 0)
(-0.000132839947374 -0.00579408159083 0)
(-0.000101508945005 -0.00550627856138 0)
(-0.00010449484143 -0.0052891844807 0)
(-0.000122361954491 -0.00510490565224 0)
(-0.00011472286783 -0.00489748656238 0)
(-6.75674152935e-05 -0.00473619570963 0)
(-1.96422131675e-07 -0.00464481563363 0)
(-8.03541613367e-06 -0.00462556296802 0)
(-3.91554831484e-05 -0.00458141619013 0)
(-5.36867839872e-05 -0.00446496326488 0)
(-8.51459645014e-06 -0.00437373735759 0)
(3.2806401863e-05 -0.00438094807002 0)
(-4.22609542561e-05 -0.0043911371164 0)
(-0.000179943167424 -0.00404401414003 0)
(-0.000171118748895 -0.00361246083612 0)
(-0.000160385294193 -0.00313192715139 0)
(-0.000234294855089 -0.00257998399186 0)
(-0.000229824634071 -0.0018198172478 0)
(-0.000208237945157 -0.000899271306461 0)
(-0.000215118753403 -0.000176015925698 0)
(0.0115021065635 -0.00348314354551 0)
(0.011619070945 -0.0116765189451 0)
(0.011852612792 -0.0204788355213 -1.0308236797e-27)
(0.0118042849024 -0.0288459047026 0)
(0.0116653692863 -0.0371153680414 0)
(0.0115684250552 -0.0454109938643 0)
(0.011453707009 -0.0534992495476 0)
(0.011346821235 -0.0617858619108 0)
(0.0111653853813 -0.0695489157028 0)
(0.010983593443 -0.0771279746943 0)
(0.0109041128501 -0.0843829368893 0)
(0.0105240171745 -0.0911754703943 0)
(0.0101094948173 -0.0985187366016 0)
(0.00908992924851 -0.10544896758 0)
(0.00832679774844 -0.111102352665 0)
(0.00777407623887 -0.117532529895 0)
(0.00657123338533 -0.123204549241 0)
(0.00621173772553 -0.128788587941 0)
(0.00593532789013 -0.133070819912 0)
(0.00553796725984 -0.138226407372 0)
(0.00534751146312 -0.138615079423 0)
(0.00468918974445 -0.141895545369 0)
(0.00274719258208 -0.144032393985 0)
(0.00157463705081 -0.146400168467 0)
(0.00108920164767 -0.147477098928 0)
(0.00102220659874 -0.147419731586 0)
(0.00117606316294 -0.146676954099 0)
(0.00114148620353 -0.146101881204 0)
(0.00124892515373 -0.145123788161 0)
(0.000336776165 -0.146526963087 0)
(-0.000559023005867 -0.146130443181 0)
(-0.0036265644717 -0.142570498434 0)
(-0.00774324466065 -0.13979481616 0)
(-0.00858223794103 -0.13711194541 0)
(-0.00876874984872 -0.133720413201 0)
(-0.00914464154755 -0.128994111966 0)
(-0.00889252614405 -0.122813731838 0)
(-0.00893680285209 -0.11829696451 0)
(-0.00893942746712 -0.111031816391 0)
(-0.00908960079504 -0.105875146985 0)
(-0.00893595648713 -0.098523740241 0)
(-0.00873014241528 -0.0912731451278 0)
(-0.00848946104887 -0.0836209050072 0)
(-0.00889589042405 -0.0790031347604 0)
(-0.00856993957266 -0.0727743657836 0)
(-0.00777754204016 -0.067253999741 0)
(-0.00728125115237 -0.0620839256927 0)
(-0.00703693416877 -0.0570589765035 0)
(-0.00731463870662 -0.0518860799448 0)
(-0.00670174434308 -0.0463322270569 0)
(-0.00564645124552 -0.0413715922491 0)
(-0.00482211837548 -0.0375129004939 0)
(-0.00413554325647 -0.0340091354502 0)
(-0.00346912908763 -0.0316293226763 0)
(-0.00296519818402 -0.0294894551107 0)
(-0.00252471167825 -0.0273012114977 0)
(-0.00212081532535 -0.0255824846602 0)
(-0.00177621266168 -0.0239123164215 0)
(-0.00163598088878 -0.0230994793419 0)
(-0.00150059159003 -0.0217280909608 0)
(-0.00132536280895 -0.0206263698728 0)
(-0.00121325105873 -0.0194505157595 0)
(-0.00115391865081 -0.0184011578581 0)
(-0.00108406974484 -0.0171390594775 0)
(-0.00100892708512 -0.0160541701221 0)
(-0.000958181840133 -0.0150723621117 0)
(-0.000927222713325 -0.0141582175415 0)
(-0.000913073937032 -0.0131321995081 0)
(-0.000875780174666 -0.0120487060263 0)
(-0.000796139184953 -0.0108231142234 0)
(-0.000531889310435 -0.00991892378037 0)
(-0.000453519091425 -0.00931286620834 0)
(-0.000409180907264 -0.008850561484 0)
(-0.000370456833376 -0.00846424782953 0)
(-0.000651000274595 -0.00803889225736 0)
(-0.00063542635895 -0.00740801734074 0)
(-0.000561510510207 -0.0068878256879 0)
(-0.000509106724942 -0.00635442589533 0)
(-0.000373544640364 -0.00581425016973 0)
(-0.000287967510624 -0.00550871324712 0)
(-0.000277448181106 -0.00523626054367 0)
(-0.000215684424851 -0.00509273479878 0)
(-8.3024348994e-05 -0.00490785954137 0)
(-0.000104797339499 -0.00477925203094 0)
(-0.000152789300071 -0.00460559110888 0)
(-0.000172398045529 -0.00448468846757 0)
(1.67984220082e-05 -0.0043187543333 0)
(0.000172566724252 -0.00445480589098 0)
(-8.1659770527e-06 -0.00437402627881 0)
(-0.000341721249508 -0.00429483508822 0)
(-0.000486202480919 -0.00416190920004 0)
(-0.000632195508416 -0.00364474695956 0)
(-0.000866355667399 -0.00308463731948 0)
(-0.0011590113181 -0.00239998892052 0)
(-0.00134195738228 -0.0013212824433 0)
(-0.00098070271554 -0.000218525282071 0)
(0.01979126327 -0.00363668022937 0)
(0.0204875984862 -0.0120174311358 0)
(0.0204366191627 -0.0207007281328 -1.03121390875e-27)
(0.0201420788193 -0.0290111656122 0)
(0.0201180659414 -0.0377203863131 0)
(0.0198889668424 -0.0460885413352 0)
(0.0196332407233 -0.0543514502241 0)
(0.0192370576779 -0.0623174535932 0)
(0.018784874374 -0.0701862740218 0)
(0.0184314603323 -0.0777773475537 0)
(0.0181406429613 -0.0856795843534 0)
(0.0176654414523 -0.0925519697653 0)
(0.0169584444481 -0.0992194866519 0)
(0.0159767977294 -0.104583226255 0)
(0.0154718957267 -0.114567110766 0)
(0.0137928917154 -0.119109786259 0)
(0.0124411628851 -0.125898582407 0)
(0.0114197527349 -0.131416942206 0)
(0.0103243612249 -0.136141577562 0)
(0.00870398791334 -0.140304480829 0)
(0.00738014899489 -0.143601630204 0)
(0.0067562220658 -0.145907993656 0)
(0.00532556278727 -0.146420427177 0)
(0.00363614771515 -0.149823074798 0)
(0.00276971624994 -0.149880088415 0)
(0.00249767608915 -0.153597659761 0)
(0.00248642704767 -0.156278977126 0)
(0.0017013901905 -0.159329896101 0)
(0.00135279720063 -0.158990662175 0)
(0.000965666034125 -0.15742753584 0)
(-0.0015025708479 -0.158252488411 0)
(-0.00513689081226 -0.154638835806 0)
(-0.00894672565073 -0.156021913783 0)
(-0.011265580713 -0.152407481503 0)
(-0.0131678809606 -0.148790565699 0)
(-0.0151471318525 -0.143166701542 0)
(-0.015427638921 -0.136002111662 0)
(-0.0154683654468 -0.128087016194 0)
(-0.0158417951463 -0.120190792672 0)
(-0.0163805669498 -0.11235656767 0)
(-0.0162151728685 -0.105028916187 0)
(-0.0150411070116 -0.0969127671641 0)
(-0.0135045500464 -0.0928577894683 0)
(-0.0121419049956 -0.0853590722244 0)
(-0.0124220542178 -0.0837860779105 0)
(-0.0112112128953 -0.0775905674559 0)
(-0.0110672887075 -0.0766179767192 0)
(-0.0103355536458 -0.0714879660892 0)
(-0.0101597860875 -0.0689459617683 0)
(-0.0114312458888 -0.066483284919 0)
(-0.0108547841114 -0.0602906761428 0)
(-0.00952556753386 -0.0551321551055 0)
(-0.00814654550228 -0.0500854234622 0)
(-0.00639022995832 -0.0454370606114 0)
(-0.00546202967694 -0.0416887221278 0)
(-0.00478197952902 -0.0385260788306 0)
(-0.00395814995628 -0.0358141840172 0)
(-0.00308217364609 -0.033344494759 0)
(-0.00273201263127 -0.0310602525283 0)
(-0.00265321568639 -0.029047363705 0)
(-0.00229634647755 -0.0273911240556 0)
(-0.00211026964642 -0.0259812115196 0)
(-0.00211269189355 -0.024737469476 0)
(-0.0021207447322 -0.0236066750735 0)
(-0.00201501543209 -0.0224275799902 0)
(-0.00183698748913 -0.0212207168732 0)
(-0.00167315186739 -0.0202622308331 0)
(-0.00174677297167 -0.0195340634493 0)
(-0.00195198959573 -0.0186573433085 0)
(-0.00200311591455 -0.0173109985123 0)
(-0.00195602936822 -0.0161798855129 0)
(-0.00171195395182 -0.0140676123022 0)
(-0.00149025623837 -0.0132246601348 0)
(-0.00127752806904 -0.0113937371023 0)
(-0.00135963914504 -0.0107646271627 0)
(-0.00115377446541 -0.00968828055404 0)
(-0.001005039132 -0.00900849319206 0)
(-0.000965748290101 -0.00841109137046 0)
(-0.000826112074444 -0.00785131496347 0)
(-0.00068526436785 -0.00715034935775 0)
(-0.000562942475397 -0.00631046016608 0)
(-0.000321021159909 -0.00572111471377 0)
(-0.000111298929083 -0.00540204709331 0)
(-0.000205450877708 -0.00517923280715 0)
(-0.000294739268445 -0.00486572488742 0)
(-0.00028528891283 -0.00457215420654 0)
(-2.46918090445e-05 -0.00459427230397 0)
(0.000147045268275 -0.00431810711671 0)
(0.000118261921649 -0.00410589082668 0)
(-3.94688391067e-05 -0.00401854966869 0)
(-0.000627892176514 -0.00429010871042 0)
(-0.00103607456307 -0.00340693417833 0)
(-0.00144607379301 -0.0030608990082 0)
(-0.00199977644837 -0.00231092009838 0)
(-0.00235040705929 -0.00138507175349 0)
(-0.00187409364825 -0.000291572409954 0)
(0.0275782396863 -0.00374868433742 0)
(0.0291260722801 -0.0122525009524 0)
(0.0289341285198 -0.020792874554 1.02482229853e-27)
(0.0287348856857 -0.0292951139019 0)
(0.0287150438716 -0.0381083017102 0)
(0.0282580224986 -0.046498669722 0)
(0.0277491898193 -0.0548372408211 0)
(0.0272344679538 -0.0629040116282 0)
(0.0269041773474 -0.0713883494522 0)
(0.026295139512 -0.0791183737063 0)
(0.0254547114186 -0.0865653314989 0)
(0.0242991780598 -0.0935686571333 0)
(0.0236996331366 -0.0999543721681 0)
(0.0241118603342 -0.108376391472 0)
(0.0224215668752 -0.11440616905 0)
(0.0200791110078 -0.120955253172 0)
(0.01838757971 -0.127312318222 0)
(0.016683524699 -0.132957330323 0)
(0.0146528796533 -0.137884146434 0)
(0.0126787685485 -0.142380994784 0)
(0.0109743695856 -0.145771691743 0)
(0.00916101787191 -0.150524069445 0)
(0.00775214687068 -0.151497507037 0)
(0.00678514582923 -0.155104644571 0)
(0.00719034187608 -0.159282455556 0)
(0.00736007151877 -0.16324750561 0)
(0.00638345846614 -0.167476680156 0)
(0.00480149960554 -0.167510034259 0)
(0.00247529029601 -0.17237340718 0)
(0.000115502688461 -0.170699209362 0)
(-0.0032273200946 -0.168844890778 0)
(-0.00734961893491 -0.1653323503 0)
(-0.0111898315474 -0.161206842629 0)
(-0.0143302353697 -0.156887572157 0)
(-0.0172668028543 -0.152834842499 0)
(-0.019863293643 -0.146354627865 0)
(-0.0221981125752 -0.14403220676 0)
(-0.0239754061504 -0.13618668742 0)
(-0.0231189702219 -0.129212502744 0)
(-0.0188954783831 -0.1212896126 0)
(-0.0173041568363 -0.126635381202 0)
(-0.0168809184971 -0.124674115903 0)
(-0.0183708122703 -0.125434123333 0)
(-0.0196632744453 -0.116784489553 0)
(-0.0190114939863 -0.108764351144 0)
(-0.0163698965183 -0.100271250505 0)
(-0.0154674254831 -0.0931714615099 0)
(-0.0140515551987 -0.0857475638637 0)
(-0.0111614597105 -0.0790311765947 0)
(-0.0106644017432 -0.0714590258562 0)
(-0.0124418582052 -0.070563096083 0)
(-0.0136329140795 -0.0639993777563 0)
(-0.0123554730099 -0.0584724099328 0)
(-0.00944568631502 -0.0529268929824 0)
(-0.00790374772312 -0.0488590399127 0)
(-0.0067395974419 -0.0451380830519 0)
(-0.00555324439437 -0.0417681542815 0)
(-0.00457256545457 -0.0388802593238 0)
(-0.00395006536621 -0.0361347400346 0)
(-0.00325554185767 -0.0340437247935 0)
(-0.00252053415076 -0.0319282385861 0)
(-0.00231310907361 -0.0302744789363 0)
(-0.0022416906198 -0.0287345350194 0)
(-0.00231952523903 -0.0273692986298 0)
(-0.00256284746739 -0.0259093331354 0)
(-0.00231088708119 -0.0247628242455 0)
(-0.00177391340519 -0.0236974882501 0)
(-0.00182942814514 -0.022841002108 0)
(-0.00232189418961 -0.0221734321793 0)
(-0.00271843126909 -0.0210047668467 0)
(-0.00323741410678 -0.0198860804395 0)
(-0.00355386248779 -0.0184524908976 0)
(-0.00378063357876 -0.0175627254467 0)
(-0.00326917032757 -0.0151564825974 0)
(-0.00235349299917 -0.0140654587011 0)
(-0.00167331595016 -0.0127089978732 0)
(-0.00126985511913 -0.0118674088293 0)
(-0.00118778510863 -0.011306034293 0)
(-0.00112816217634 -0.0106453074563 0)
(-0.00116020772333 -0.00993485575325 0)
(-0.00120065033474 -0.00902117828986 0)
(-0.00110343086083 -0.00821761969178 0)
(-0.000990912261865 -0.00729973463919 0)
(-0.000953184972409 -0.0067521181348 0)
(-0.000785759558048 -0.0058119677267 0)
(-0.000498958021845 -0.00517048295122 0)
(-0.000189317099514 -0.00473365650961 0)
(-7.37673061671e-06 -0.00431916769821 0)
(2.29387814654e-05 -0.00426825718492 0)
(-4.49791804837e-05 -0.00366097735934 0)
(-0.000573696026861 -0.00328616576825 0)
(-0.00153689768416 -0.0033834885193 0)
(-0.00193913884718 -0.00250641955367 0)
(-0.00267106218908 -0.00184435453981 0)
(-0.00343498128142 -0.00124074589352 0)
(-0.00292771448621 -0.000299506357977 0)
(0.0356533158349 -0.00384966049631 0)
(0.0377998816704 -0.0124989996309 0)
(0.037585353774 -0.0210587749016 0)
(0.0375367714985 -0.0298416340609 0)
(0.0373475482429 -0.0386302358766 0)
(0.0367187214696 -0.0471005466889 0)
(0.0360753417111 -0.0554813105737 0)
(0.0357914908769 -0.0642136210396 0)
(0.0349636523698 -0.0722704538048 0)
(0.033910814473 -0.0801454420877 0)
(0.032719671163 -0.0877795456961 0)
(0.031689277931 -0.0946097776425 0)
(0.0319109992029 -0.103499036207 0)
(0.0309017706984 -0.109895640785 0)
(0.0289620017431 -0.116450343565 0)
(0.0267385079745 -0.12308994629 0)
(0.0242802777647 -0.129378592999 0)
(0.0220589131364 -0.135366859739 0)
(0.0200311376933 -0.140518243875 0)
(0.0178241470177 -0.147357860932 0)
(0.014994360547 -0.151018897764 0)
(0.0125956490553 -0.153414804954 0)
(0.0119128604968 -0.157820357835 0)
(0.0124684982319 -0.161500028546 0)
(0.0134080698915 -0.169285646645 0)
(0.01265879023 -0.170522935794 0)
(0.0101902585 -0.177193174596 0)
(0.00704112843777 -0.177094240998 0)
(0.0032866999626 -0.177183029408 0)
(-0.0018774683316 -0.175879432961 0)
(-0.0059388803657 -0.174346364825 0)
(-0.00923021251956 -0.170887811664 0)
(-0.0141070472498 -0.172766492002 0)
(-0.0187018114721 -0.168122789486 0)
(-0.0232960661661 -0.163694560304 0)
(-0.0264151245303 -0.156600238 0)
(-0.02412466361 -0.149544955212 0)
(-0.0227762628696 -0.147738686588 0)
(-0.0223338377606 -0.154845954861 0)
(-0.0186330363917 -0.156448722185 0)
(-0.016670826404 -0.150360211107 0)
(-0.0182087067265 -0.14292039982 0)
(-0.0203318487971 -0.134962196244 0)
(-0.0213867465692 -0.124156628886 0)
(-0.0236820161565 -0.124403304994 0)
(-0.0230922841978 -0.115225261511 0)
(-0.0239659512283 -0.107815308474 0)
(-0.0219862065384 -0.0986739978136 0)
(-0.0175280186791 -0.0891149880785 0)
(-0.0137650485744 -0.0807306530587 0)
(-0.0122486893851 -0.0738667306233 0)
(-0.0132233606231 -0.0662711272688 0)
(-0.0131626411401 -0.0670111823595 0)
(-0.0104068914198 -0.0606588735706 0)
(-0.0094385938173 -0.0566538111982 0)
(-0.00734604325489 -0.0527785578677 0)
(-0.00569516136728 -0.0481211318912 0)
(-0.00343255894215 -0.045321049615 0)
(-0.00163340260763 -0.0412699010311 0)
(-0.00129973025995 -0.0447064939628 0)
(-0.00158471147362 -0.0413600076991 0)
(-0.00185398252366 -0.0387935947526 0)
(-0.00205351836996 -0.0350946687668 0)
(-0.00220257699027 -0.0319678011721 0)
(-0.00217383207671 -0.0290743628616 0)
(-0.0026757769512 -0.0332293418878 0)
(-0.00322031592839 -0.0310461756702 0)
(-0.00310249081442 -0.0236881798632 0)
(-0.00330291682094 -0.0226398314644 0)
(-0.00371315800401 -0.0214291833319 0)
(-0.00445446284493 -0.0207178377356 0)
(-0.00437528812703 -0.0171525493023 0)
(-0.00489785790204 -0.0169800381338 0)
(-0.00465311407766 -0.0165924289478 0)
(-0.00358697353577 -0.0160361415333 0)
(-0.00311693580528 -0.0154136748051 0)
(-0.0022371278739 -0.0129628658827 0)
(-0.00175707924813 -0.0127509133625 0)
(-0.00143689849976 -0.0120878032477 0)
(-0.00145854295915 -0.011567501725 0)
(-0.0018770087408 -0.0107417225912 0)
(-0.00254016567136 -0.0100339654756 0)
(-0.00245349295542 -0.00861446161696 0)
(-0.00198647021514 -0.0079465320793 0)
(-0.00145550676357 -0.00697097769926 0)
(-0.000937635894681 -0.00620135050913 0)
(-0.000867561463966 -0.00566074233871 0)
(-0.000838213148323 -0.00506216278066 0)
(-0.00059416424628 -0.00412466586354 0)
(-0.000436870310377 -0.00360778948669 0)
(-0.000629091607874 -0.00287596170974 0)
(-0.001585106595 -0.0028339407316 0)
(-0.00280218503988 -0.00260184867183 0)
(-0.0034034008788 -0.00164133568004 0)
(-0.00405705231713 -0.00100870813867 0)
(-0.00362934460727 -0.000268687631231 0)
(0.0438535161629 -0.00393040362563 0)
(0.0465766619942 -0.0127544232505 0)
(0.0463564144744 -0.0214386572687 0)
(0.0464865911577 -0.0304756995597 0)
(0.0459649817949 -0.0392243067168 0)
(0.0452229824416 -0.0478630097582 0)
(0.0448676268309 -0.0568239623689 0)
(0.0440825297512 -0.0651460081002 0)
(0.0430168807538 -0.0733567948883 0)
(0.0417488969967 -0.0814091754259 0)
(0.0403361924899 -0.0889208272072 0)
(0.0399170856787 -0.0968046060451 0)
(0.0394929441169 -0.105052679896 0)
(0.0374731782496 -0.111653349263 0)
(0.0354033806333 -0.11861344035 0)
(0.0333450638576 -0.125765741198 0)
(0.0309571701555 -0.132282394518 0)
(0.0288574007908 -0.14039998729 0)
(0.0262746650402 -0.145876948986 0)
(0.0229745656604 -0.151245811695 0)
(0.0188372780474 -0.154660358101 0)
(0.0172518592615 -0.159853529685 0)
(0.0185580030403 -0.16435523465 0)
(0.0206420838022 -0.171533815885 0)
(0.0198472526826 -0.178303141096 0)
(0.0166995627695 -0.180565074464 0)
(0.0122986026637 -0.182412961398 0)
(0.00645773766343 -0.182479310386 0)
(0.00237390380175 -0.182761791835 0)
(-0.00116202072019 -0.181512806443 0)
(-0.00581034010113 -0.186078450574 0)
(-0.0103265340799 -0.18284385339 0)
(-0.0166477885765 -0.17940548284 0)
(-0.0223772257449 -0.175502768637 0)
(-0.0266259692523 -0.17042093217 0)
(-0.0273163669114 -0.167567984124 0)
(-0.0234500867029 -0.176312614728 0)
(-0.0164287725894 -0.167524483156 0)
(-0.015608835439 -0.172008995123 0)
(-0.0196528545235 -0.163240340348 0)
(-0.0220233264561 -0.157809290428 0)
(-0.0210223361263 -0.148584760116 0)
(-0.0245031066769 -0.151908925001 0)
(-0.0261481231242 -0.139669336273 0)
(-0.025793885038 -0.129440537823 0)
(-0.0249078387683 -0.120360822389 0)
(-0.024179399477 -0.111250754623 0)
(-0.0259060303827 -0.113179929308 0)
(-0.0240870743024 -0.102232666493 0)
(-0.0197801027415 -0.0939385497498 0)
(-0.0147583458943 -0.0851693565994 0)
(-0.011014450781 -0.0755385203097 0)
(-0.00948411572935 -0.0792217221399 0)
(-0.008543125481 -0.0711761376107 0)
(-0.00637893858197 -0.0666578293175 0)
(-0.00444574143378 -0.0746885914886 0)
(-0.00204275515565 -0.0689938774803 0)
(0.000565357988842 -0.0826607917787 0)
(0.00172751728053 -0.0692057362533 0)
(-7.76257345569e-05 -0.0546454750767 0)
(-0.00389928163987 -0.0443721024018 0)
(-0.00921221573976 -0.0492283103187 0)
(-0.0110475757711 -0.032722857376 0)
(-0.0111626408776 -0.015232056061 0)
(-0.00976489752482 0.000699792640291 0)
(-0.0102040788129 0.0124858347993 0)
(-0.0125591341376 0.020802007208 0)
(-0.012691094923 0.0258197545637 0)
(-0.0107826129797 0.0270631599417 0)
(-0.010044073982 0.0263592548233 0)
(-0.0109112089627 0.0230866985406 0)
(-0.0111514176701 0.0185206852148 0)
(-0.0105911995476 0.0123946773067 0)
(-0.00958771206502 0.00591817089498 0)
(-0.00870008245364 -0.000661636823574 0)
(-0.00853519498928 -0.00605625315105 0)
(-0.005037392241 -0.00772164563822 0)
(-0.00411509599584 -0.0109149427692 0)
(-0.00294642197152 -0.00988542126472 0)
(-0.00289868239803 -0.00916940423622 0)
(-0.00312509148671 -0.0087887919979 0)
(-0.00397558816087 -0.00956386750454 0)
(-0.00410048831583 -0.00983656546757 0)
(-0.00274972367933 -0.00810641039873 0)
(-0.00190580807098 -0.00719011591277 0)
(-0.00162504799084 -0.00659767007562 0)
(-0.00169744161997 -0.00576590067864 0)
(-0.00177374930646 -0.0053966065093 0)
(-0.00141623104787 -0.00462789677692 0)
(-0.00125586917532 -0.00395708565898 0)
(-0.00121549095236 -0.00291586249625 0)
(-0.00169177103041 -0.00230650353146 0)
(-0.00311094648608 -0.00221049454252 0)
(-0.00436668918774 -0.00170012591607 0)
(-0.00489236681331 -0.000977038308105 0)
(-0.00443700552479 -0.000268795619157 0)
(0.052212891932 -0.00399753342191 0)
(0.0555409969547 -0.0130045910347 0)
(0.0553400805856 -0.02191907451 1.01358532755e-27)
(0.055432617024 -0.0311183809654 0)
(0.0549118191435 -0.0400000220264 0)
(0.0545724116703 -0.0492484244216 0)
(0.0534787495137 -0.0577425714691 0)
(0.0524388288084 -0.0661505366951 0)
(0.0512493488644 -0.0746156528292 0)
(0.0496631489971 -0.0828693304516 0)
(0.0483748083574 -0.0903886725492 0)
(0.0485603963789 -0.0998661035306 0)
(0.0469775895019 -0.10703916779 0)
(0.044831552127 -0.114297785966 0)
(0.0434275597489 -0.12338836057 0)
(0.0409003434201 -0.130592843326 0)
(0.0384015027263 -0.137673010998 0)
(0.0353108271676 -0.143938363723 0)
(0.0316155831008 -0.149643367559 0)
(0.0275904311335 -0.155148227586 0)
(0.0245843171565 -0.158245229794 0)
(0.0249583846293 -0.166579161964 0)
(0.0275369657799 -0.173275134851 0)
(0.0284767532522 -0.180521721684 0)
(0.0241851591055 -0.183292850115 0)
(0.0185890639126 -0.186255110678 0)
(0.0128540652614 -0.188345474659 0)
(0.00828144056168 -0.188442172958 0)
(0.00485896751261 -0.19488965978 0)
(0.0004901113966 -0.194148996874 0)
(-0.00586659719486 -0.193282597227 0)
(-0.0134634156488 -0.190971871289 0)
(-0.0191077995536 -0.18680988122 0)
(-0.025016713262 -0.190164017572 0)
(-0.0238505789291 -0.18183679567 0)
(-0.0182901915574 -0.189986588675 0)
(-0.0177826079418 -0.19309962082 0)
(-0.0195018117936 -0.18591367002 0)
(-0.01898354018 -0.180223757265 0)
(-0.0198816041449 -0.170858497158 0)
(-0.0237514072851 -0.177116078013 0)
(-0.0229968432546 -0.167118902575 0)
(-0.0255920999096 -0.159428875768 0)
(-0.0274680729187 -0.147054941876 0)
(-0.030091118045 -0.149583159672 0)
(-0.0299758285616 -0.138087274616 0)
(-0.027360251008 -0.127424913902 0)
(-0.0248139318163 -0.116427194917 0)
(-0.0219184220604 -0.103116188685 0)
(-0.0215314266962 -0.107731005854 0)
(-0.015755860823 -0.0981455366306 0)
(-0.00844821841368 -0.0856244418342 0)
(-0.00476682443333 -0.0942419781977 0)
(-0.0043834435705 -0.079935622916 0)
(-0.00216132026101 -0.0956786275102 0)
(-0.00363191308236 -0.0786392340013 0)
(-0.00851848916478 -0.0943307326857 0)
(-0.0146573841105 -0.0649829643629 0)
(-0.0221891428677 -0.0247083385034 0)
(-0.0275561646506 0.0164350679289 0)
(-0.0314895265604 0.0548442014713 0)
(-0.0339698726702 0.0874158768651 0)
(-0.0341100964097 0.118487532447 0)
(-0.031682769359 0.146103927192 0)
(-0.0275171411432 0.169515034694 0)
(-0.0236016985634 0.187635995256 0)
(-0.0203147767601 0.19953562053 0)
(-0.0160343259456 0.205289857314 0)
(-0.0109385223392 0.20589869253 0)
(-0.006643451548 0.202623732951 0)
(-0.00365025213657 0.195012064076 0)
(-0.000995246476115 0.183679740701 0)
(0.00148209050901 0.16954518827 0)
(0.00351237977602 0.153599446453 0)
(0.00464946884806 0.136383534512 0)
(0.0046581989511 0.118150004692 0)
(0.00444380376268 0.100263089844 0)
(0.00279925465853 0.0811554177596 0)
(0.000336391706211 0.0631278522834 0)
(-0.00254996576905 0.045219947044 0)
(-0.00490385553818 0.0282506235711 0)
(-0.00710346656395 0.012820863817 0)
(-0.00820414774129 0.00119359979986 0)
(-0.00539682658955 -0.00451838877821 0)
(-0.00371862133253 -0.00555551921195 0)
(-0.00299203929098 -0.00522893631902 0)
(-0.00324970920053 -0.00623553380004 0)
(-0.00248171771787 -0.00531055520769 0)
(-0.00213902643335 -0.0047638115798 0)
(-0.00223828143256 -0.00387502214851 0)
(-0.00241810028409 -0.00331727781872 0)
(-0.0023354906524 -0.00214784922285 0)
(-0.00316422445498 -0.00155378790798 0)
(-0.00490917715831 -0.00142705232584 0)
(-0.00562385749005 -0.000877951626586 0)
(-0.00517990450835 -0.000236836928576 0)
(0.0607885426881 -0.00402558996464 0)
(0.0647502798455 -0.01321242127 0)
(0.0646149278063 -0.0224659804329 -1.01319528154e-27)
(0.0647548991652 -0.0317256521179 0)
(0.0641286046762 -0.040698746091 0)
(0.0631083374361 -0.0497425054368 0)
(0.0618372084305 -0.0582627264568 0)
(0.0612312499947 -0.0673876944007 0)
(0.0598225013981 -0.0761474194613 0)
(0.0580807537451 -0.0844711307865 0)
(0.0575544139778 -0.0934428476651 0)
(0.0565620007402 -0.101821234451 0)
(0.054788048706 -0.109258805067 0)
(0.0539030028237 -0.118856067728 0)
(0.0512986509987 -0.126350614834 0)
(0.0480511979549 -0.133822432053 0)
(0.0448392439387 -0.14091364779 0)
(0.0413644518008 -0.14746467783 0)
(0.0374317905259 -0.153762934203 0)
(0.0332422622979 -0.158715404214 0)
(0.0328232288825 -0.164854764954 0)
(0.0353977364105 -0.172528781282 0)
(0.036537051364 -0.182038281857 0)
(0.033067332496 -0.185043846176 0)
(0.027160706794 -0.189141118797 0)
(0.0208856856387 -0.19243567502 0)
(0.0162269720398 -0.193881097661 0)
(0.0134691461389 -0.201099950713 0)
(0.00763164059805 -0.201289835747 0)
(-0.000203940964427 -0.201998726281 0)
(-0.00858460001391 -0.201088823263 0)
(-0.0141836841642 -0.197776946009 0)
(-0.0190841504391 -0.202080420983 0)
(-0.0198694051102 -0.194453746885 0)
(-0.0139693618485 -0.204932245162 0)
(-0.0106246097714 -0.208390376491 0)
(-0.0173758996447 -0.202191306672 0)
(-0.0200308990564 -0.194232792998 0)
(-0.0202624924996 -0.201729210982 0)
(-0.0208156019042 -0.19274819243 0)
(-0.0260448993147 -0.184224162107 0)
(-0.0270550822167 -0.17449151106 0)
(-0.0239021216893 -0.162433034387 0)
(-0.0252011022011 -0.167397635508 0)
(-0.0299535110573 -0.152932099266 0)
(-0.0314406098891 -0.142152836547 0)
(-0.0268090606654 -0.127895790917 0)
(-0.027253541316 -0.132658471645 0)
(-0.0205597156922 -0.118780059946 0)
(-0.0153517272044 -0.104564324733 0)
(-0.0128619626848 -0.115269007401 0)
(-0.00715073395941 -0.0960214154633 0)
(-0.00556300338072 -0.110380659628 0)
(-0.0115331497124 -0.0813180374044 0)
(-0.0238509307566 -0.0929763612774 0)
(-0.0386892344987 -0.0459221013182 0)
(-0.0523196667727 0.00434648630451 0)
(-0.0638309994304 0.0607026224803 0)
(-0.0716375102904 0.117896813856 0)
(-0.0755829369296 0.172726632035 0)
(-0.0764135730964 0.223495236444 0)
(-0.0744403945336 0.26895087297 0)
(-0.0695652499691 0.309298239156 0)
(-0.0620591220018 0.344216140693 0)
(-0.0526872110888 0.373369636109 0)
(-0.0426463036841 0.396123094022 0)
(-0.0325499745672 0.4117663098 0)
(-0.0221471584883 0.420336207747 0)
(-0.0117153978952 0.422664242242 0)
(-0.00212099186159 0.419364386848 0)
(0.0061136241257 0.410404604154 0)
(0.0132000035243 0.396225828809 0)
(0.0191637130657 0.377675932269 0)
(0.0238277861432 0.355629104398 0)
(0.0269277609332 0.330738588741 0)
(0.0282949442256 0.303312256047 0)
(0.0283876975385 0.273851799967 0)
(0.0272042115078 0.242721763098 0)
(0.0248633002254 0.210681628866 0)
(0.0217778505387 0.178017921678 0)
(0.0184055342029 0.145600016501 0)
(0.0145698942045 0.114328214092 0)
(0.0106650722124 0.0852434700774 0)
(0.00706292615237 0.0599761912376 0)
(0.00202124849882 0.0375484821809 0)
(-0.00293345881356 0.0181110722452 0)
(-0.00605498726955 0.00333636913327 0)
(-0.00473515695234 -0.00368079278041 0)
(-0.00344968750183 -0.00387484500979 0)
(-0.00329305932027 -0.00377613875476 0)
(-0.00317117623 -0.00297810616405 0)
(-0.00341019152981 -0.00229489387793 0)
(-0.00357967104309 -0.00118082551252 0)
(-0.00540348784174 -0.000971110490996 0)