/*--------------------------------*- C++ -*----------------------------------*\
| =========                 |                                                 |
| \\      /  F ield         | OpenFOAM: The Open Source CFD Toolbox           |
|  \\    /   O peration     | Version:  v1906                                 |
|   \\  /    A nd           | Web:      www.OpenFOAM.com                      |
|    \\/     M anipulation  |                                                 |
\*---------------------------------------------------------------------------*/
FoamFile
{
    version     2.0;
    format      ascii;
    class       volScalarField;
    location    "81";
    object      alpha;
}
// * * * * * * * * * * * * * * * * * * * * * * * * * * * * * * * * * * * * * //

dimensions      [0 0 -1 0 0 0 0];


internalField   nonuniform List<scalar> 
9216
(
99.9319531016
99.9521036235
99.9510961553
99.9510961553
99.9460208674
99.9497207523
99.9497207523
99.9497207523
99.9497207523
99.9497207523
99.9456097691
99.938647783
99.9309122429
99.9309122429
99.9309122429
99.9309122429
99.9309122429
99.9309122429
99.9309122429
99.9309122429
99.9309122429
99.9309122429
99.9309122429
99.9309122429
99.9309122429
99.9309122429
99.9203010768
99.9203010768
99.9280366169
99.934998603
99.934998603
99.9016396976
99.897792565
99.9168890211
99.9254485535
99.9254485535
99.9254485535
99.9208807944
99.9208807944
99.9208807944
99.9208807944
99.9090906098
99.9090906098
99.9090906098
99.9090906098
99.9090906098
99.9090906098
99.9090906098
99.9090906098
99.9090906098
99.9090906098
99.9090906098
99.9090906098
99.9090906098
99.9090906098
99.9090906098
99.9090906098
99.91848635
99.9208807944
99.9208807944
99.9208807944
99.9208807944
99.9208807944
99.9195380136
99.9045596817
99.8741544215
99.8549373083
99.8510898822
99.8402972877
99.8333232563
99.8267492384
99.8216522935
99.8170560298
99.8155672809
99.8140600955
99.8130059429
99.8099241609
99.8031882506
99.7931619521
99.7784018374
99.7542264248
99.7084993976
99.6450566527
99.5445111762
99.398706774
99.1803442723
99.074743051
98.8452002867
96.7222631942
79.9075242085
58.763233197
42.4347603116
29.2581657309
17.7457966156
11.5258604878
1.45744634881
99.9460208674
99.9510961553
99.9547960401
99.9547960401
99.9547960401
99.9547960401
99.9497207523
99.9460208674
99.9460208674
99.9460208674
99.9460208674
99.9460208674
99.9460208674
99.9460208674
99.9313233412
99.9313233412
99.9313233412
99.9460208674
99.9460208674
99.9460208674
99.9419098843
99.9349478982
99.9303801391
99.9303801391
99.9303801391
99.9303801391
99.9303801391
99.919768973
99.919768973
99.919768973
99.9079787884
99.9079787884
99.8984287389
99.8984287389
99.8984287389
99.8984287389
99.8984287389
99.8984287389
99.8984287389
99.8898336943
99.8820981542
99.8820981542
99.8820981542
99.8820981542
99.8820981542
99.8689979491
99.8689979491
99.8689979491
99.8689979491
99.8689979491
99.8689979491
99.8689979491
99.8689979491
99.8689979491
99.8689979491
99.8689979491
99.8689979491
99.8635902983
99.849031168
99.849031168
99.849031168
99.849031168
99.849031168
99.849031168
99.8705669955
99.8334000705
99.8109905813
99.7908135921
99.7726441287
99.7768101796
99.7671699927
99.7571478539
99.7500781962
99.7480596255
99.7469060134
99.7471398277
99.7478933845
99.7395133923
99.7632837963
99.7441608511
99.7128330817
99.739218677
99.6865519666
99.6554967067
99.5419410207
99.3861816509
99.2338386104
98.9908586425
98.480232675
91.0848883399
70.258463672
53.2232641663
40.4096125578
28.3340378912
18.1470269321
11.5460645474
99.9460208674
99.9547960401
99.9547960401
99.9510961553
99.9510961553
99.9510961553
99.9510961553
99.9460208674
99.9460208674
99.9460208674
99.9419098843
99.9419098843
99.9419098843
99.9419098843
99.9419098843
99.9373421252
99.9373421252
99.9303801391
99.9303801391
99.9303801391
99.9303801391
99.9303801391
99.9303801391
99.9303801391
99.9303801391
99.9303801391
99.9120334329
99.9002432483
99.9002432483
99.8906931988
99.8906931988
99.8820981542
99.8820981542
99.8820981542
99.8689979491
99.8689979491
99.8689979491
99.8689979491
99.8689979491
99.8689979491
99.8689979491
99.8689979491
99.8689979491
99.8689979491
99.8544421657
99.8544421657
99.8544421657
99.8344753846
99.8165052816
99.8165052816
99.8003321889
99.7781468766
99.7781468766
99.7781468766
99.7781468766
99.7781468766
99.7781468766
99.7781468766
99.7781468766
99.7781468766
99.7781468766
99.7781468766
99.7781468766
99.7781468766
99.7607495425
99.7124306031
99.6596418765
99.6186656003
99.5822197211
99.5557380516
99.5838112713
99.5651024525
99.5506765725
99.6183532364
99.6113229466
99.5887117036
99.568541388
99.5427719445
99.5123508766
99.6563860624
99.6134399889
99.615159791
99.5249441596
99.3919589755
99.2269021289
99.0878309557
98.7071857775
98.2717729314
98.3485902814
96.3823833648
71.2770864516
52.1492722031
44.6094340289
36.3925895882
29.4073521867
19.3682913942
99.9497207523
99.9510961553
99.9510961553
99.9510961553
99.9510961553
99.9510961553
99.9460208674
99.9460208674
99.9419098843
99.9419098843
99.9419098843
99.9419098843
99.9419098843
99.9373421252
99.9303801391
99.9303801391
99.9303801391
99.9303801391
99.9303801391
99.9303801391
99.9303801391
99.9303801391
99.922644599
99.922644599
99.9120334329
99.9002432483
99.8906931988
99.8820981542
99.8820981542
99.8820981542
99.8689979491
99.8689979491
99.8689979491
99.8689979491
99.8689979491
99.8689979491
99.8689979491
99.8544421657
99.8544421657
99.8544421657
99.8544421657
99.8544421657
99.8183022919
99.8003321889
99.8003321889
99.7781468766
99.7781468766
99.7781468766
99.7781468766
99.7781468766
99.7781468766
99.7781468766
99.7781468766
99.7534965295
99.7534965295
99.7534965295
99.7534965295
99.7534965295
99.7534965295
99.7534965295
99.7534965295
99.7534965295
99.7534965295
99.7534965295
99.7411932021
99.6797634358
99.6137051626
99.5665653111
99.525721806
99.4991967857
99.4818788166
99.4692855102
99.505080994
99.4954814845
99.4848224073
99.4732739782
99.4582043838
99.4309327208
99.3888959377
99.3104859131
99.202247579
99.0715247919
99.0289578718
98.8155867104
98.8794324099
98.5158128821
97.9427751211
98.3397147216
97.7383254048
94.4425413159
74.7982508519
59.8296178678
47.741526368
45.9516307479
39.4126639669
27.1312287042
99.9497207523
99.9510961553
99.9510961553
99.9510961553
99.9510961553
99.9510961553
99.9510961553
99.9419098843
99.9419098843
99.9419098843
99.9419098843
99.9419098843
99.9373421252
99.9303801391
99.9303801391
99.9303801391
99.9303801391
99.9303801391
99.9303801391
99.9303801391
99.922644599
99.922644599
99.922644599
99.9120334329
99.9002432483
99.8820981542
99.8820981542
99.8689979491
99.8689979491
99.8689979491
99.8689979491
99.8689979491
99.8689979491
99.8544421657
99.8544421657
99.8544421657
99.8544421657
99.8544421657
99.838269073
99.838269073
99.8003321889
99.8003321889
99.7781468766
99.7781468766
99.7781468766
99.7781468766
99.7781468766
99.7534965295
99.7534965295
99.7534965295
99.7534965295
99.7534965295
99.7534965295
99.7534965295
99.726107255
99.726107255
99.726107255
99.726107255
99.726107255
99.726107255
99.726107255
99.726107255
99.726107255
99.726107255
99.6574080287
99.5158029682
99.4424889878
99.3790236185
99.3351565364
99.3289752149
99.3289752149
99.3289752149
99.3289752149
99.3403166839
99.357604761
99.4051185369
99.4168220446
99.4052918026
99.3894830285
99.3457258675
99.3116900263
99.2968772492
99.06228902
98.8256085347
98.5240612153
98.1163458179
97.5793585857
97.288047566
96.9283489825
87.7147416401
80.429764183
69.0791224936
59.6581094524
51.8443699605
52.107598243
37.6530258209
99.9547960401
99.9510961553
99.9510961553
99.9510961553
99.9510961553
99.9510961553
99.9469851721
99.9469851721
99.9419098843
99.9419098843
99.9419098843
99.9419098843
99.9303801391
99.9303801391
99.9303801391
99.9303801391
99.9303801391
99.9303801391
99.922644599
99.922644599
99.922644599
99.922644599
99.922644599
99.9002432483
99.8820981542
99.8820981542
99.8689979491
99.8689979491
99.8689979491
99.8689979491
99.8689979491
99.8544421657
99.8544421657
99.8544421657
99.8544421657
99.8544421657
99.838269073
99.838269073
99.8003321889
99.8003321889
99.7781468766
99.7781468766
99.7781468766
99.7781468766
99.7534965295
99.7534965295
99.7534965295
99.7534965295
99.7534965295
99.726107255
99.726107255
99.726107255
99.726107255
99.726107255
99.6956747278
99.6956747278
99.6956747278
99.6956747278
99.6618608086
99.6618608086
99.6242897874
99.6242897874
99.6242897874
99.3460163955
99.1854121681
99.0776595315
99.0459737041
98.9115504028
98.8542862338
98.8542862338
98.8029879595
98.7212582873
98.7806784804
98.9006702107
98.9006702107
98.9006702107
98.9424157899
99.0997119629
99.1335258821
99.1059365379
99.1832139032
99.0786346671
98.9428018299
98.8682100464
98.6604911975
98.2422492414
97.9703625042
97.2913488982
96.0699116689
85.9098082969
79.3209612308
77.3299901529
71.0515927834
60.0319880466
61.4318015884
48.1232411561
99.9547960401
99.9510961553
99.9510961553
99.9510961553
99.9510961553
99.9469851721
99.9469851721
99.9469851721
99.9419098843
99.9419098843
99.9419098843
99.9303801391
99.9303801391
99.9303801391
99.9303801391
99.9303801391
99.9303801391
99.922644599
99.922644599
99.922644599
99.922644599
99.922644599
99.9120334329
99.8820981542
99.8689979491
99.8689979491
99.8689979491
99.8689979491
99.8689979491
99.8689979491
99.8544421657
99.8544421657
99.8544421657
99.8544421657
99.8544421657
99.838269073
99.82029897
99.8003321889
99.7781468766
99.7781468766
99.7781468766
99.7781468766
99.7534965295
99.7534965295
99.7534965295
99.7534965295
99.726107255
99.726107255
99.726107255
99.726107255
99.726107255
99.6956747278
99.6956747278
99.6956747278
99.6618608086
99.6618608086
99.6242897874
99.6242897874
99.5825442082
99.5825442082
99.5825442082
99.2026550457
99.0312755546
98.8027484817
98.6697205353
98.6697205353
98.5219117059
98.3576796732
98.3576796732
98.3576796732
98.2834124718
98.1751996369
98.1751996369
98.1751996369
98.3576796732
98.3576796732
98.3576796732
98.3576796732
98.5219117059
98.5177510071
98.6116273624
98.6181825716
98.478245567
98.4796201675
98.421712935
98.3769879909
97.9581165753
97.3534116272
96.2791998328
92.7475831789
83.7398709071
80.0916545596
81.7349713354
71.3326859566
69.0324691676
56.9926807269
99.9547960401
99.9510961553
99.9510961553
99.9510961553
99.9510961553
99.9469851721
99.9469851721
99.9469851721
99.9419098843
99.9419098843
99.9349478982
99.9303801391
99.9303801391
99.9303801391
99.9303801391
99.9303801391
99.922644599
99.922644599
99.922644599
99.922644599
99.922644599
99.922644599
99.8820981542
99.8820981542
99.8689979491
99.8689979491
99.8689979491
99.8689979491
99.8544421657
99.8544421657
99.8544421657
99.8544421657
99.8544421657
99.838269073
99.838269073
99.82029897
99.8003321889
99.7781468766
99.7781468766
99.7781468766
99.7534965295
99.7534965295
99.7534965295
99.7534965295
99.726107255
99.726107255
99.726107255
99.726107255
99.726107255
99.6956747278
99.6956747278
99.6618608086
99.6618608086
99.6242897874
99.6242897874
99.5825442082
99.5825442082
99.5825442082
99.5361602313
99.2996324186
98.9797378025
98.8027484817
98.6697205353
98.5219117059
98.3576796732
98.1751996369
98.1751996369
97.972444041
97.972444041
97.972444041
97.7471600455
97.7471600455
97.7471600455
97.7471600455
97.7471600455
97.7471600455
97.7471600455
97.972444041
97.972444041
97.972444041
98.1751996369
98.1751996369
98.240515961
98.1949253384
98.0652649988
97.8441732349
97.2011624696
97.1922016349
96.9638763305
96.1219002776
92.0603190248
84.8349663909
83.8324911752
85.6647474951
76.8997011421
65.8558265657
99.9547960401
99.9510961553
99.9510961553
99.9510961553
99.9469851721
99.9469851721
99.9469851721
99.9469851721
99.9419098843
99.9419098843
99.9349478982
99.9303801391
99.9303801391
99.922644599
99.922644599
99.922644599
99.922644599
99.922644599
99.922644599
99.922644599
99.922644599
99.8916482037
99.8820981542
99.8689979491
99.8689979491
99.8689979491
99.8689979491
99.8544421657
99.8544421657
99.8544421657
99.8544421657
99.8544421657
99.838269073
99.838269073
99.82029897
99.8003321889
99.7781468766
99.7781468766
99.7781468766
99.7534965295
99.7534965295
99.7534965295
99.7534965295
99.726107255
99.726107255
99.726107255
99.726107255
99.6956747278
99.6956747278
99.6956747278
99.6618608086
99.6618608086
99.6242897874
99.6242897874
99.5825442082
99.5825442082
99.5361602313
99.5361602313
98.9797378025
98.8027484817
98.6697205353
98.5219117059
98.3576796732
98.1751996369
97.972444041
97.972444041
97.7471600455
97.496844495
97.496844495
97.496844495
97.2187161056
97.2187161056
97.2187161056
97.2187161056
97.2187161056
97.2187161056
97.2187161056
97.2187161056
97.2187161056
97.496844495
97.496844495
97.7471600455
97.7471600455
97.9463499851
97.8684919157
97.7045032668
97.4541116395
96.9903980527
96.4144835864
96.1545773809
95.6367257216
93.9310360165
87.9432200422
93.816280714
87.217646982
75.0216269349
99.9547960401
99.9510961553
99.9510961553
99.9510961553
99.9469851721
99.9469851721
99.9469851721
99.9469851721
99.9419098843
99.9419098843
99.9349478982
99.9303801391
99.922644599
99.922644599
99.922644599
99.922644599
99.922644599
99.922644599
99.922644599
99.922644599
99.9120334329
99.8820981542
99.8689979491
99.8689979491
99.8689979491
99.8689979491
99.8544421657
99.8544421657
99.8544421657
99.8544421657
99.8544421657
99.838269073
99.838269073
99.82029897
99.8003321889
99.7781468766
99.7781468766
99.7534965295
99.7534965295
99.7534965295
99.7534965295
99.726107255
99.726107255
99.726107255
99.726107255
99.6956747278
99.6956747278
99.6956747278
99.6618608086
99.6618608086
99.6242897874
99.6242897874
99.5825442082
99.5825442082
99.5361602313
99.5361602313
99.4846224793
98.9224736336
98.6697205353
98.5219117059
98.3576796732
98.1751996369
97.972444041
97.7471600455
97.496844495
97.496844495
97.2187161056
97.2187161056
96.9096845617
96.9096845617
96.6900116823
96.5663161797
96.5663161797
96.5663161797
96.5663161797
96.5663161797
96.5663161797
96.5663161797
96.5663161797
96.5663161797
96.9096845617
96.9096845617
97.2187161056
97.2187161056
97.4944472949
97.5304484072
97.3458710918
96.8786456303
96.5086460093
96.2938896116
95.8165719166
95.803836883
95.1743990547
95.2236477058
95.0266876357
83.1782705396
99.9547960401
99.9510961553
99.9510961553
99.9510961553
99.9469851721
99.9469851721
99.9469851721
99.9469851721
99.9419098843
99.9349478982
99.9349478982
99.9303801391
99.922644599
99.922644599
99.922644599
99.922644599
99.922644599
99.922644599
99.922644599
99.922644599
99.8916482037
99.8820981542
99.8689979491
99.8689979491
99.8689979491
99.8544421657
99.8544421657
99.8544421657
99.8544421657
99.8544421657
99.838269073
99.838269073
99.82029897
99.8003321889
99.7781468766
99.7781468766
99.7534965295
99.7534965295
99.7534965295
99.7534965295
99.726107255
99.726107255
99.726107255
99.726107255
99.6956747278
99.6956747278
99.6956747278
99.6618608086
99.6618608086
99.6242897874
99.6242897874
99.5825442082
99.5825442082
99.5361602313
99.5361602313
99.3353743023
98.8027484817
98.5219117059
98.3576796732
98.1751996369
97.972444041
97.7471600455
97.496844495
97.496844495
97.2187161056
96.9096845617
96.9096845617
96.5663161797
96.5663161797
96.1847957552
96.1847957552
96.1847957552
96.1847957552
95.8364822867
95.7608841725
95.7608841725
95.7608841725
95.7608841725
96.1847957552
96.1847957552
96.1847957552
96.1847957552
96.5663161797
96.5663161797
96.9096845617
97.2187161056
97.1073235651
96.9107972257
96.6048351438
96.6329349268
96.0142057376
95.7146920591
95.8474521701
95.3258131912
95.960735805
89.6535446876
99.9610618276
99.9510961553
99.9510961553
99.9510961553
99.9469851721
99.9469851721
99.9469851721
99.9469851721
99.9419098843
99.9349478982
99.9303801391
99.922644599
99.922644599
99.922644599
99.922644599
99.922644599
99.922644599
99.922644599
99.922644599
99.9140495544
99.8820981542
99.8689979491
99.8689979491
99.8689979491
99.8544421657
99.8544421657
99.8544421657
99.8544421657
99.838269073
99.838269073
99.838269073
99.82029897
99.8003321889
99.7781468766
99.7781468766
99.7534965295
99.7534965295
99.7534965295
99.7534965295
99.726107255
99.726107255
99.726107255
99.6956747278
99.6956747278
99.6956747278
99.6618608086
99.6618608086
99.6242897874
99.6242897874
99.5825442082
99.5825442082
99.5361602313
99.5361602313
99.4846224793
99.3488066382
98.8027484817
98.5219117059
98.3576796732
98.1751996369
97.7471600455
97.496844495
97.496844495
97.2187161056
96.9096845617
96.5663161797
96.5663161797
96.1847957552
96.1847957552
95.7608841725
95.7608841725
95.7608841725
95.7608841725
95.2898713028
95.2898713028
95.2898713028
95.2898713028
95.2898713028
95.2898713028
95.2898713028
95.2898713028
95.7608841725
95.7608841725
95.7608841725
96.1847957552
96.1847957552
96.5663161797
96.5636653757
96.5447265962
96.827026355
96.5857582307
96.355743476
95.9895604249
95.7974292414
96.1565640208
95.5402115175
93.0050305073
99.9610618276
99.9573619428
99.9573619428
99.9510961553
99.9469851721
99.9469851721
99.9469851721
99.9469851721
99.9419098843
99.9349478982
99.9303801391
99.922644599
99.922644599
99.922644599
99.922644599
99.922644599
99.922644599
99.922644599
99.9140495544
99.8820981542
99.8820981542
99.8689979491
99.8689979491
99.8544421657
99.8544421657
99.8544421657
99.8544421657
99.838269073
99.838269073
99.838269073
99.82029897
99.8003321889
99.7781468766
99.7781468766
99.7534965295
99.7534965295
99.7534965295
99.726107255
99.726107255
99.726107255
99.726107255
99.6956747278
99.6956747278
99.6956747278
99.6618608086
99.6618608086
99.6242897874
99.6242897874
99.5825442082
99.5825442082
99.5361602313
99.5361602313
99.4846224793
99.3488066382
98.6697205353
98.5219117059
98.1751996369
97.972444041
97.7471600455
97.496844495
97.2187161056
96.9096845617
96.5663161797
96.1847957552
96.1847957552
95.7608841725
95.7608841725
95.2898713028
95.2898713028
95.2898713028
95.2898713028
94.7665236697
94.7665236697
94.7665236697
94.7665236697
94.7665236697
94.7665236697
94.7665236697
94.7665236697
94.7665236697
94.7665236697
95.2898713028
95.2898713028
95.2898713028
95.7608841725
95.7608841725
96.1847957552
96.5663161797
96.6862635759
96.4905849452
96.1672716586
96.1684948215
95.6296495648
95.737745791
95.8610394067
93.6851093892
99.9610618276
99.9630011515
99.9573619428
99.9510961553
99.9469851721
99.9469851721
99.9469851721
99.9469851721
99.9419098843
99.9349478982
99.9303801391
99.922644599
99.922644599
99.922644599
99.922644599
99.922644599
99.922644599
99.9140495544
99.9140495544
99.8820981542
99.8689979491
99.8689979491
99.8689979491
99.8544421657
99.8544421657
99.8544421657
99.838269073
99.838269073
99.838269073
99.82029897
99.8003321889
99.7781468766
99.7781468766
99.7534965295
99.7534965295
99.7534965295
99.726107255
99.726107255
99.726107255
99.6956747278
99.6956747278
99.6956747278
99.6618608086
99.6618608086
99.6618608086
99.6242897874
99.6242897874
99.5825442082
99.5825442082
99.5361602313
99.5361602313
99.4846224793
99.4273583103
98.6697205353
98.3576796732
98.1751996369
97.7471600455
97.496844495
97.2187161056
96.9096845617
96.5663161797
96.1847957552
95.7608841725
95.7608841725
95.2898713028
95.2898713028
94.7665236697
94.7665236697
94.7665236697
94.7665236697
94.1850262997
94.1850262997
94.1850262997
94.1850262997
94.1850262997
94.1850262997
94.1850262997
94.1850262997
94.1850262997
94.1850262997
94.1850262997
94.1850262997
94.7665236697
94.7665236697
94.7665236697
95.2898713028
95.2898713028
95.7608841725
96.1847957552
96.3328041939
95.9990274035
95.8800737717
95.8443426759
95.3864411454
96.0677852254
93.485265656
99.9610618276
99.9630011515
99.9630011515
99.9573619428
99.9469851721
99.9469851721
99.9469851721
99.9469851721
99.9419098843
99.9349478982
99.9303801391
99.922644599
99.922644599
99.922644599
99.922644599
99.922644599
99.9140495544
99.9140495544
99.8938883388
99.8820981542
99.8689979491
99.8689979491
99.8544421657
99.8544421657
99.8544421657
99.838269073
99.838269073
99.82029897
99.82029897
99.8003321889
99.8003321889
99.7781468766
99.7781468766
99.7534965295
99.7534965295
99.726107255
99.726107255
99.726107255
99.6956747278
99.6956747278
99.6956747278
99.6618608086
99.6618608086
99.6242897874
99.6242897874
99.5825442082
99.5825442082
99.5825442082
99.5361602313
99.5361602313
99.4846224793
99.4273583103
98.6697205353
98.3576796732
97.972444041
97.7471600455
97.2187161056
96.9096845617
96.5663161797
95.7608841725
95.7608841725
95.2898713028
94.7665236697
94.7665236697
94.1850262997
94.1850262997
94.1850262997
94.1850262997
94.1850262997
93.5389181108
93.5389181108
93.5389181108
93.5389181108
93.5389181108
93.5389181108
93.5389181108
93.5389181108
93.5389181108
93.5389181108
93.5389181108
93.5389181108
93.5389181108
94.1850262997
94.1850262997
94.1850262997
94.7665236697
94.7665236697
95.2898713028
95.7608841725
95.9826797654
96.0851504965
95.7062251752
95.7345794774
95.6291526787
95.5526543912
93.3510002848
99.9667010363
99.9630011515
99.9630011515
99.9630011515
99.9532509596
99.9469851721
99.9469851721
99.9469851721
99.9349478982
99.9303801391
99.9303801391
99.922644599
99.922644599
99.922644599
99.922644599
99.9140495544
99.9140495544
99.9044995049
99.8820981542
99.8689979491
99.8689979491
99.8689979491
99.8544421657
99.8544421657
99.838269073
99.838269073
99.82029897
99.82029897
99.8003321889
99.8003321889
99.7781468766
99.7781468766
99.7534965295
99.7534965295
99.726107255
99.726107255
99.726107255
99.6956747278
99.6956747278
99.6618608086
99.6618608086
99.6618608086
99.6242897874
99.6242897874
99.5825442082
99.5825442082
99.5361602313
99.5361602313
99.4846224793
99.4846224793
99.4273583103
98.6697205353
98.3576796732
97.972444041
97.496844495
96.9096845617
96.1847957552
95.7608841725
94.7665236697
94.1850262997
94.1850262997
93.5389181108
93.5389181108
93.5389181108
93.5389181108
92.8210201231
92.8210201231
92.8210201231
92.8210201231
92.8210201231
92.8210201231
92.8210201231
92.8210201231
92.8210201231
92.8210201231
92.8210201231
92.8210201231
92.8210201231
92.8210201231
92.8210201231
92.8210201231
93.5389181108
93.5389181108
93.5389181108
93.5389181108
94.1850262997
94.1850262997
94.7665236697
94.7665236697
95.2898713028
95.6596721928
95.8837949053
95.6182435537
95.6000554458
95.263542835
93.570402701
99.9667010363
99.9630011515
99.9630011515
99.9630011515
99.9588901683
99.9532509596
99.9469851721
99.9469851721
99.9349478982
99.9303801391
99.922644599
99.922644599
99.922644599
99.922644599
99.9140495544
99.9140495544
99.9140495544
99.8938883388
99.8820981542
99.8689979491
99.8689979491
99.8544421657
99.8544421657
99.838269073
99.838269073
99.82029897
99.82029897
99.8003321889
99.8003321889
99.7781468766
99.7781468766
99.7534965295
99.7534965295
99.726107255
99.726107255
99.6956747278
99.6956747278
99.6956747278
99.6618608086
99.6618608086
99.6242897874
99.6242897874
99.6242897874
99.5825442082
99.5825442082
99.5361602313
99.5361602313
99.4846224793
99.4846224793
99.4273583103
98.6697205353
98.3576796732
97.7471600455
97.2187161056
96.1847957552
94.1850262997
92.0233556923
90.1522909782
90.1522909782
90.1522909782
90.1522909782
91.1370618803
91.1370618803
91.1370618803
91.1370618803
91.1370618803
92.0233556923
92.0233556923
92.0233556923
92.0233556923
92.0233556923
92.0233556923
92.0233556923
92.0233556923
92.0233556923
92.0233556923
92.0233556923
92.0233556923
92.0233556923
92.8210201231
92.8210201231
92.8210201231
92.8210201231
92.8210201231
92.8210201231
93.5389181108
93.5389181108
94.1850262997
94.1850262997
94.7665236697
95.2898713028
95.4811347889
95.4002733275
95.2288862994
95.1203932376
93.690261937
99.9667010363
99.9630011515
99.9630011515
99.9630011515
99.9588901683
99.9532509596
99.9469851721
99.9469851721
99.9349478982
99.9303801391
99.922644599
99.922644599
99.922644599
99.922644599
99.9140495544
99.9140495544
99.9044995049
99.8820981542
99.8820981542
99.8689979491
99.8544421657
99.8544421657
99.8544421657
99.838269073
99.838269073
99.82029897
99.8003321889
99.8003321889
99.7781468766
99.7781468766
99.7534965295
99.7534965295
99.726107255
99.726107255
99.6956747278
99.6956747278
99.6956747278
99.6618608086
99.6618608086
99.6242897874
99.6242897874
99.5825442082
99.5825442082
99.5825442082
99.5361602313
99.5361602313
99.4846224793
99.4846224793
99.4273583103
98.8027484817
98.1751996369
97.7471600455
96.1847957552
84.9905364703
71.7570463519
65.13215599
64.5593428551
65.13215599
65.13215599
68.618940391
74.5813417167
79.4108867905
83.3228183003
86.4914828233
87.8423345409
89.0581010868
89.0581010868
90.1522909782
90.1522909782
90.1522909782
91.1370618803
91.1370618803
91.1370618803
91.1370618803
91.1370618803
91.1370618803
91.1370618803
92.0233556923
92.0233556923
92.0233556923
92.0233556923
92.0233556923
92.0233556923
92.0233556923
92.8210201231
92.8210201231
92.8210201231
93.5389181108
93.5389181108
94.1850262997
94.7665236697
95.2785399259
95.5383380362
95.4634217041
95.0741784056
93.845815065
99.9667010363
99.9630011515
99.9630011515
99.9630011515
99.9588901683
99.9588901683
99.9532509596
99.9469851721
99.9349478982
99.9303801391
99.922644599
99.922644599
99.922644599
99.9140495544
99.9140495544
99.9044995049
99.8938883388
99.8820981542
99.8689979491
99.8689979491
99.8544421657
99.8544421657
99.838269073
99.838269073
99.82029897
99.8003321889
99.8003321889
99.7781468766
99.7781468766
99.7534965295
99.7534965295
99.726107255
99.726107255
99.6956747278
99.6956747278
99.6618608086
99.6618608086
99.6618608086
99.6242897874
99.6242897874
99.5825442082
99.5825442082
99.5361602313
99.5361602313
99.5361602313
99.4846224793
99.4273583103
99.3637314559
98.9224736336
98.1751996369
97.2187161056
65.13215599
46.8559
40.951
34.39
34.39
34.39
40.951
40.951
46.8559
52.17031
56.953279
65.13215599
68.618940391
77.123207545
81.4697981115
83.3228183003
86.4914828233
86.4914828233
87.8423345409
89.0581010868
89.0581010868
89.0581010868
90.1522909782
90.1522909782
90.1522909782
90.1522909782
91.1370618803
91.1370618803
91.1370618803
91.1370618803
91.1370618803
91.1370618803
92.0233556923
92.0233556923
92.0233556923
92.0233556923
92.8210201231
93.173737735
93.5389181108
94.1850262997
94.7665236697
95.5357234528
95.661291748
95.1831381212
93.6132823245
99.9667010363
99.9630011515
99.9630011515
99.9630011515
99.9588901683
99.9588901683
99.9532509596
99.9469851721
99.9303801391
99.9303801391
99.922644599
99.922644599
99.922644599
99.9140495544
99.9044995049
99.8938883388
99.8820981542
99.8820981542
99.8689979491
99.8544421657
99.8544421657
99.838269073
99.838269073
99.82029897
99.8003321889
99.8003321889
99.7781468766
99.7781468766
99.7534965295
99.7534965295
99.726107255
99.726107255
99.6956747278
99.6956747278
99.6618608086
99.6618608086
99.6242897874
99.6242897874
99.5825442082
99.5825442082
99.5825442082
99.5361602313
99.5361602313
99.4846224793
99.4846224793
99.4273583103
99.3637314559
99.2144832789
98.1751996369
71.7570463519
34.39
19
19
19
19
19
19
19
27.1
27.1
34.39
34.39
40.951
46.8559
56.9395830557
61.2579511
68.618940391
74.5813417167
79.4108867905
83.3228183003
84.9905364703
86.4914828233
87.8423345409
87.8423345409
87.8423345409
89.0581010868
89.0581010868
89.0581010868
90.1522909782
90.1522909782
90.1522909782
90.1522909782
90.1522909782
91.1370618803
91.1370618803
91.1370618803
92.0233556923
92.0233556923
92.8210201231
92.8210201231
93.5389181108
94.1850262997
95.2898713028
95.4894411117
95.3205825974
93.3556775266
99.9667010363
99.9630011515
99.9630011515
99.9630011515
99.9588901683
99.9588901683
99.9532509596
99.9419098843
99.9303801391
99.9303801391
99.922644599
99.922644599
99.9140495544
99.9140495544
99.9044995049
99.8938883388
99.8820981542
99.8689979491
99.8689979491
99.8544421657
99.838269073
99.838269073
99.82029897
99.8003321889
99.8003321889
99.7781468766
99.7781468766
99.7534965295
99.726107255
99.726107255
99.726107255
99.6956747278
99.6956747278
99.6618608086
99.6618608086
99.6242897874
99.6242897874
99.5825442082
99.5825442082
99.5361602313
99.5361602313
99.4846224793
99.4846224793
99.4846224793
99.4273583103
99.3637314559
99.2144832789
98.1751996369
46.8559
10
0
0
10
10
10
10
10
10
19
19
19
19
27.1
27.1
34.39
40.951
46.8559
52.17031
61.2579511
68.618940391
77.123207545
79.4108867905
83.3228183003
84.9905364703
86.4914828233
86.4914828233
87.8423345409
87.8423345409
87.8423345409
89.0581010868
89.0581010868
89.0581010868
90.1522909782
90.1522909782
90.1522909782
90.1522909782
91.1370618803
91.1370618803
92.0233556923
92.8210201231
92.8210201231
94.1850262997
94.7665236697
95.3977091016
95.4782598214
93.1023656927
99.9667010363
99.9630011515
99.9630011515
99.9630011515
99.9588901683
99.9588901683
99.9532509596
99.9373421252
99.9303801391
99.9303801391
99.922644599
99.922644599
99.9140495544
99.9044995049
99.8938883388
99.8820981542
99.8689979491
99.8689979491
99.8544421657
99.8544421657
99.838269073
99.82029897
99.8003321889
99.8003321889
99.7781468766
99.7534965295
99.7534965295
99.726107255
99.726107255
99.6956747278
99.6956747278
99.6618608086
99.6618608086
99.6242897874
99.6242897874
99.5825442082
99.5825442082
99.5361602313
99.5361602313
99.5361602313
99.4846224793
99.4846224793
99.4273583103
99.4273583103
99.3637314559
99.2144832789
98.1751996369
27.1
0
0
0
0
0
10
10
10
10
10
10
10
10
10
10
19
19
19
27.1
34.39
40.951
46.8559
56.953279
65.13215599
71.7570463519
77.123207545
81.4697981115
83.3228183003
84.9905364703
86.3799387722
86.4914828233
86.4914828233
87.8423345409
87.8423345409
89.0581010868
89.0581010868
89.0581010868
90.1522909782
90.1522909782
91.1370618803
91.1370618803
92.0233556923
92.8210201231
93.5389181108
94.1850262997
95.2828309775
95.4349408148
92.9759361523
99.9667010363
99.9630011515
99.9630011515
99.9630011515
99.9588901683
99.9588901683
99.9532509596
99.9373421252
99.9303801391
99.9303801391
99.922644599
99.922644599
99.9140495544
99.9044995049
99.8938883388
99.8820981542
99.8689979491
99.8544421657
99.8544421657
99.838269073
99.82029897
99.8003321889
99.8003321889
99.7781468766
99.7534965295
99.7534965295
99.726107255
99.726107255
99.6956747278
99.6956747278
99.6618608086
99.6242897874
99.6242897874
99.5825442082
99.5825442082
99.5361602313
99.5361602313
99.5361602313
99.4846224793