/*--------------------------------*- C++ -*----------------------------------*\
| =========                 |                                                 |
| \\      /  F ield         | OpenFOAM: The Open Source CFD Toolbox           |
|  \\    /   O peration     | Version:  v1906                                 |
|   \\  /    A nd           | Web:      www.OpenFOAM.com                      |
|    \\/     M anipulation  |                                                 |
\*---------------------------------------------------------------------------*/
FoamFile
{
    version     2.0;
    format      ascii;
    class       volVectorField;
    location    "283";
    object      Ua;
}
// * * * * * * * * * * * * * * * * * * * * * * * * * * * * * * * * * * * * * //

dimensions      [0 1 -1 0 0 0 0];


internalField   nonuniform List<vector> 
9216
(
(-0.00719006951248 0.00720329239266 0)
(-0.00696417819097 0.0213705266907 2.44527343198e-27)
(-0.00700002047814 0.0360916140888 -4.80589955863e-31)
(-0.00697146489427 0.0506665759602 0)
(-0.00691273312023 0.065132524985 0)
(-0.00683192086444 0.0794286733344 0)
(-0.0067350309362 0.0935116144779 0)
(-0.00662096830849 0.107344576831 0)
(-0.00649401368175 0.120891640055 0)
(-0.00635159348128 0.134121606658 0)
(-0.00619845508527 0.147003355554 0)
(-0.00603124269825 0.159510372453 0)
(-0.0058554000346 0.171616138985 0)
(-0.00566681610742 0.183298703831 0)
(-0.0054715953163 0.194535981579 0)
(-0.00526480229883 0.205310269652 0)
(-0.00505313983234 0.215603471508 0)
(-0.00483079865282 0.225401475873 0)
(-0.00460500379547 0.23468941506 0)
(-0.00436903904117 0.243455883903 0)
(-0.00413060424872 0.251688316984 0)
(-0.00388210304592 0.25937697102 0)
(-0.00363166758172 0.266510577811 0)
(-0.00337088139606 0.273080066597 0)
(-0.00310830226399 0.279074591679 0)
(-0.00283481754517 0.284484901756 0)
(-0.00255940098787 0.28929990541 0)
(-0.00227239257183 0.293509646623 0)
(-0.00198319821215 0.297102495098 0)
(-0.00168181591121 0.300067602454 0)
(-0.00137807990569 0.302392945364 0)
(-0.00106183346415 0.304067082493 0)
(-0.000743365777257 0.305078084796 0)
(-0.000412663850597 0.305414769279 0)
(-8.0456567333e-05 0.305066456288 0)
(0.000262897375729 0.304023546664 0)
(0.000606230922317 0.302278240148 0)
(0.000958555179095 0.2998243352 0)
(0.0013083136627 0.296658947901 0)
(0.00166367556727 0.292781522373 0)
(0.00201276557556 0.288196458808 0)
(0.00236273479494 0.282911304126 0)
(0.0027015088594 0.276940215535 0)
(0.00303511684828 0.270301399862 0)
(0.00335142614685 0.26302121589 0)
(0.00365531429905 0.255130925939 0)
(0.00393480081417 0.24667121441 0)
(0.00419374306609 0.237688348003 0)
(0.00442065110384 0.228238698456 0)
(0.00461875384624 0.218384285478 0)
(0.00477765061965 0.208196782136 0)
(0.00490070349772 0.19775236657 0)
(0.00497945644809 0.187134613981 0)
(0.00501840089723 0.176428667954 0)
(0.00501185802714 0.16572276618 0)
(0.00496623111542 0.155102233644 0)
(0.00487886047763 0.144650019032 0)
(0.00475805391352 0.134441475479 0)
(0.00460348579105 0.124544833452 0)
(0.00442450135879 0.115017686258 0)
(0.00422180455724 0.10590815546 0)
(0.00400465141222 0.0972531183292 0)
(0.00377374711205 0.0890800561225 0)
(0.00353763837228 0.081406153384 0)
(0.00329661980127 0.074240419003 0)
(0.00305827129822 0.0675829790009 0)
(0.00282226885933 0.0614275287492 0)
(0.00259495991667 0.0557606851778 0)
(0.00237521610862 0.050564873666 0)
(0.00216797139693 0.0458176088238 0)
(0.00197130770164 0.0414945952365 0)
(0.00178883496029 0.0375687371714 0)
(0.00161808416359 0.0340130862854 0)
(0.00146161784471 0.0307995121269 0)
(0.00131671676567 0.0279013154354 0)
(0.00118519129311 0.0252916820915 0)
(0.0010642985201 0.0229459208834 0)
(0.00095530983515 0.0208398710663 0)
(0.000855527156456 0.0189518331622 0)
(0.000765617677685 0.01726123586 0)
(0.000682283785906 0.0157508120693 0)
(0.000603680701443 0.0144069877555 0)
(0.00051669913195 0.0132384452593 0)
(0.000401728144227 0.0120420840597 0)
(0.000393029596568 0.011459707211 0)
(0.000418562938955 0.0105792934436 0)
(0.000378125175901 0.00970095939372 0)
(0.000328293640433 0.00900156317358 0)
(0.000352079338561 0.00840700326597 0)
(0.000411201403437 0.00763704168018 0)
(0.00042888076118 0.00682849646541 0)
(0.000452271371212 0.00592057250819 0)
(0.00053490565297 0.00489111925541 0)
(0.000618636661558 0.00372940025163 0)
(0.000697675631774 0.00229517461782 0)
(0.000744315381911 0.000727141151915 0)
(-0.0213694139697 0.00701418852629 0)
(-0.0224934047916 0.0226251705348 0)
(-0.0224890854658 0.0382660470631 -2.51348896201e-27)
(-0.0223277414891 0.0538362108715 0)
(-0.0220907698676 0.0692346444105 0)
(-0.0217861807673 0.0844386961739 0)
(-0.0214236308065 0.0994107646538 0)
(-0.0210032972278 0.114113803889 0)
(-0.0205335014891 0.128511254565 0)
(-0.0200127655807 0.14256954364 0)
(-0.0194503170473 0.156256472724 0)
(-0.0188436686262 0.169543211358 0)
(-0.0182030797425 0.18240243474 0)
(-0.0175249092511 0.194810207908 0)
(-0.0168202251047 0.206743995963 0)
(-0.0160839646927 0.21818444889 0)
(-0.0153277476276 0.2291133243 0)
(-0.0145448690745 0.239515166443 0)
(-0.013747276351 0.249375195045 0)
(-0.0129264905882 0.2586808752 0)
(-0.012094654907 0.267419839801 0)
(-0.0112415272317 0.27558135701 0)
(-0.0103794038944 0.283154368403 0)
(-0.00949642019302 0.290128857464 0)
(-0.00860508794389 0.296494080067 0)
(-0.0076921996029 0.302239831481 0)
(-0.00677060447816 0.307354946489 0)
(-0.00582612338749 0.311828451314 0)
(-0.00487212491487 0.315648391547 0)
(-0.00389392638738 0.318802848699 0)
(-0.00290562493919 0.321279129157 0)
(-0.0018925292772 0.323064745019 0)
(-0.000869678955101 0.324146948311 0)
(0.000176996841683 0.324513451 0)
(0.0012312916023 0.324152565714 0)
(0.00230609813195 0.323053685031 0)
(0.00338385124067 0.321207910513 0)
(0.00447571425685 0.318608289886 0)
(0.00556266996843 0.315250921925 0)
(0.00665371551861 0.311134916759 0)
(0.00772839591227 0.306263917595 0)
(0.00879323400318 0.300645750097 0)
(0.00982648194453 0.294294294971 0)
(0.0108320455671 0.287228823622 0)
(0.011787137956 0.279476119742 0)
(0.0126931023151 0.271069507688 0)
(0.0135265761321 0.262051088785 0)
(0.014286800793 0.252470438221 0)
(0.0149507687504 0.242386688558 0)
(0.0155168540354 0.231866730085 0)
(0.0159642232247 0.220986702308 0)
(0.0162927518592 0.209829389199 0)
(0.0164865626315 0.19848457786 0)
(0.0165501871455 0.18704541499 0)
(0.0164755437027 0.175607432509 0)
(0.0162742351949 0.164264207935 0)
(0.0159469639509 0.153105639759 0)
(0.0155121905752 0.142214002775 0)
(0.0149773288664 0.131662668554 0)
(0.0143645728295 0.121513711838 0)
(0.0136838770511 0.111818002228 0)
(0.0129573032859 0.102614581747 0)
(0.0121941244289 0.0939318005024 0)
(0.0114143484242 0.0857874101836 0)
(0.0106254820047 0.0781899276346 0)
(0.00984482763828 0.0711388190828 0)
(0.00907752217717 0.0646261034464 0)
(0.00833737890948 0.0586367401722 0)
(0.00762648904298 0.0531506193951 0)
(0.00695464704103 0.0481430712412 0)
(0.00632087755595 0.043586960311 0)
(0.00573131213467 0.0394529835993 0)
(0.00518268754934 0.0357114867347 0)
(0.00467841055669 0.0323323871654 0)
(0.0042139143053 0.029286604567 0)
(0.0037908168008 0.026545689672 0)
(0.00340401748865 0.0240829123499 0)
(0.00305403138602 0.0218727046314 0)
(0.00273563424409 0.0198914280318 0)
(0.00244841451755 0.0181166137052 0)
(0.00218638295502 0.0165271638591 0)
(0.0019459500422 0.0151010658891 0)
(0.00171335713092 0.0138183187057 0)
(0.00146102559572 0.0125549510079 0)
(0.00133042131074 0.0113062873128 0)
(0.00131058797352 0.0104725313035 0)
(0.00113129042641 0.00949355785047 0)
(0.00098657887162 0.00885360417414 0)
(0.00102901119502 0.00811519704356 0)
(0.00118137510011 0.00752670317991 0)
(0.00128026261146 0.00686107665377 0)
(0.00140753261529 0.00589796194959 0)
(0.00160357319426 0.00483975382625 0)
(0.00202812046934 0.00387289515302 0)
(0.00249678332366 0.00248080688245 0)
(0.00223114220685 0.00066981139611 0)
(-0.0362255365022 0.00711672465968 0)
(-0.0381913107706 0.0228695298619 0)
(-0.0380459939038 0.038534302958 -2.51695201793e-27)
(-0.0377373861965 0.0542101481854 0)
(-0.0373255320704 0.0697162875505 0)
(-0.0368122097496 0.0850253451897 0)
(-0.0362031208771 0.100098114604 0)
(-0.0355015357747 0.114896873168 0)
(-0.0347147782204 0.129385161291 0)
(-0.0338464394893 0.143528925426 0)
(-0.0329047571439 0.157296145071 0)
(-0.0318932026228 0.170657608986 0)
(-0.0308205282891 0.183586328081 0)
(-0.0296896345389 0.196058159794 0)
(-0.0285093187027 0.208051090894 0)
(-0.0272814334647 0.219545748224 0)
(-0.0260143660384 0.230524575738 0)
(-0.024708516263 0.240972239285 0)
(-0.0233715052052 0.250874743671 0)
(-0.022002024429 0.260219761467 0)
(-0.02060674055 0.268995730603 0)
(-0.0191825854244 0.277192132368 0)
(-0.0177352796812 0.284798640018 0)
(-0.0162601591245 0.291805387647 0)
(-0.0147621983873 0.298202214482 0)
(-0.0132354917258 0.30397894204 0)
(-0.0116846144438 0.309124773885 0)
(-0.0101029165698 0.313628602307 0)
(-0.00849502897888 0.317478586118 0)
(-0.00685416205653 0.320662472305 0)
(-0.0051855583273 0.323167431717 0)
(-0.00348298497031 0.324980391102 0)
(-0.00175284894201 0.326088083649 0)
(9.75165069426e-06 0.326477458833 0)
(0.00179659464066 0.326135988558 0)
(0.00361049171939 0.325052112283 0)
(0.005440830669 0.323215803112 0)
(0.00728765176996 0.320619018888 0)
(0.00913751866842 0.317256513118 0)
(0.0109872019698 0.313126257662 0)
(0.012820214591 0.308230430659 0)
(0.0146297885587 0.30257575917 0)
(0.0163963853417 0.296174639279 0)
(0.0181096624751 0.289045378064 0)
(0.0197472385396 0.281213384465 0)
(0.0212954287436 0.272711300115 0)
(0.0227295585213 0.263580211669 0)
(0.0240333994626 0.253869633129 0)
(0.0251813587405 0.243638552351 0)
(0.0261567267147 0.232955041747 0)
(0.0269360118494 0.221896719724 0)
(0.0275060990302 0.210549488504 0)
(0.0278506197633 0.19900677557 0)
(0.0279657179787 0.187366853787 0)
(0.0278476042121 0.175730528601 0)
(0.0275061308512 0.16419725463 0)
(0.0269523033706 0.15286200666 0)
(0.0262092100288 0.141811563721 0)
(0.0252990802577 0.13112213206 0)
(0.0242521703544 0.120857435855 0)
(0.023094208675 0.11106844024 0)
(0.0218551640818 0.101793626072 0)
(0.0205586015155 0.0930601041298 0)
(0.0192310899875 0.0848843484389 0)
(0.0178927082648 0.0772731965735 0)
(0.0165659259294 0.0702244014122 0)
(0.0152664011051 0.0637277526993 0)
(0.0140111130786 0.0577659816863 0)
(0.0128098862148 0.0523163801463 0)
(0.0116732079219 0.047351995118 0)
(0.0106049278678 0.0428433403598 0)
(0.00960977634746 0.038759350604 0)
(0.0086870790004 0.0350686652995 0)
(0.00783757423819 0.03174010908 0)
(0.00705784166001 0.0287435261394 0)
(0.00634625226142 0.0260499113395 0)
(0.00569801969303 0.0236319296473 0)
(0.00511034268615 0.0214638033399 0)
(0.0045780393426 0.0195215489766 0)
(0.00409799813598 0.0177825471367 0)
(0.00366536532792 0.0162252344558 0)
(0.00327754511974 0.014827298061 0)
(0.00293204542184 0.0135711531827 0)
(0.00263712133619 0.0123356297324 0)
(0.00240023538486 0.011180792471 0)
(0.00221650073047 0.0103055859194 0)
(0.00200586630122 0.00957852604121 0)
(0.00176524639023 0.00853632348744 0)
(0.00165552482297 0.00761729404392 0)
(0.00180438640517 0.00710666855779 0)
(0.00220352328308 0.00672018577547 0)
(0.0023485569022 0.00539716594901 0)
(0.00276311639778 0.00450971741022 0)
(0.00330611454437 0.00332362931583 0)
(0.00376561435329 0.0020135201915 0)
(0.00364625509237 0.000616417431852 0)
(-0.051135751063 0.00719048281319 0)
(-0.0540281501037 0.0230875786124 0)
(-0.0538188894094 0.0388549332011 2.51661928459e-27)
(-0.0533743811691 0.0546530249712 0)
(-0.0527834354798 0.0702811227058 0)
(-0.0520511432658 0.0857089856217 0)
(-0.0511833724834 0.100895568841 0)
(-0.0501861099085 0.115802078699 0)
(-0.0490674561532 0.130391567974 0)
(-0.0478347184058 0.14462948914 0)
(-0.0464971175273 0.158483705917 0)
(-0.0450623965946 0.171924820024 0)
(-0.0435401233219 0.184926028023 0)
(-0.0419377228905 0.197463305196 0)
(-0.0402643674741 0.209515122986 0)
(-0.0385264426501 0.221062504885 0)
(-0.0367320490407 0.232088627756 0)
(-0.0348859271433 0.242578772597 0)
(-0.0329945878671 0.252519840216 0)
(-0.0310607350797 0.26190022638 0)
(-0.0290890301687 0.270709301039 0)
(-0.0270800431302 0.278937258153 0)
(-0.0250366253725 0.286574615205 0)
(-0.0229574228281 0.293612083148 0)
(-0.020843808191 0.300040139956 0)
(-0.0186929795677 0.305848961726 0)
(-0.0165053784663 0.311028107374 0)
(-0.0142774195141 0.315566528086 0)
(-0.0120093193397 0.31945238804 0)
(-0.00969751349769 0.322673146583 0)
(-0.00734283921309 0.325215592536 0)
(-0.00494266499297 0.32706597636 0)
(-0.00249933216657 0.328210198897 0)
(-1.2185773588e-05 0.328634137041 0)
(0.00251391814811 0.328323992175 0)
(0.00507664277305 0.327266749026 0)
(0.00766768458018 0.325450721661 0)
(0.0102808099151 0.322866122495 0)
(0.012903542382 0.319505773383 0)
(0.015525119542 0.315365733353 0)
(0.0181284798394 0.31044611313 0)
(0.0206980381813 0.304751701981 0)
(0.0232120679792 0.298292830325 0)
(0.0256501715624 0.291085961939 0)
(0.0279861363895 0.283154585205 0)
(0.0301950408552 0.274529791247 0)
(0.0322467425793 0.265251211639 0)
(0.0341127287226 0.255367591364 0)
(0.035760563355 0.244937685016 0)
(0.03716081573 0.234030601677 0)
(0.0382829005006 0.22272620751 0)
(0.0391023546935 0.211114553772 0)
(0.0395980696521 0.199294841905 0)
(0.03975947224 0.187372959637 0)
(0.0395839252017 0.175458313026 0)
(0.0390822187895 0.163659438189 0)
(0.0382742263195 0.152079626736 0)
(0.0371915788793 0.140812522934 0)
(0.0358711589952 0.129938796257 0)
(0.03435539279 0.119524131584 0)
(0.0326851929048 0.109619201698 0)
(0.0309012447147 0.100260955294 0)
(0.0290397981331 0.0914743925717 0)
(0.0271360785255 0.0832738106845 0)
(0.0252211929232 0.0756636417846 0)
(0.0233249266103 0.0686389310573 0)
(0.0214721595961 0.0621861935094 0)
(0.0196849367356 0.0562845294159 0)
(0.0179793110639 0.0509073026023 0)
(0.0163677685533 0.0460238262066 0)
(0.0148571933262 0.041601160974 0)
(0.0134518117109 0.0376054292044 0)
(0.0121517953061 0.0340029333379 0)
(0.0109560047609 0.0307607924596 0)
(0.0098606563177 0.0278475083074 0)
(0.00886162992386 0.0252332159101 0)
(0.00795317914792 0.0228899662523 0)
(0.00712988989594 0.0207917509756 0)
(0.00638553281173 0.0189145802791 0)
(0.0057148630902 0.0172362748908 0)
(0.00511289886829 0.0157362170904 0)
(0.00457704997733 0.0143946670022 0)
(0.00411106130706 0.0132005083016 0)
(0.00371115321322 0.011977507753 0)
(0.00340711427848 0.0110169105295 0)
(0.00312557896548 0.0101448570699 0)
(0.00286745824953 0.00924211791398 0)
(0.00260434565724 0.00817614961695 0)
(0.00254337085087 0.00749046946615 0)
(0.00253026444651 0.00648025209225 0)
(0.00284677614868 0.00564076649244 0)
(0.00352593129827 0.00509879043994 0)
(0.00378920887653 0.0037309434479 0)
(0.00438114998005 0.00263833938067 0)
(0.00497742034371 0.00162488443081 0)
(0.00495720202399 0.000531126325427 0)
(-0.0662219356177 0.00726772266444 0)
(-0.0699949674376 0.0233575516711 0)
(-0.0697244277506 0.0392856518257 0)
(-0.0691439616797 0.0552508584904 0)
(-0.0683713943571 0.0710426440045 0)
(-0.0674152393876 0.0866291374053 0)
(-0.0662829373437 0.101967581109 0)
(-0.0649829356911 0.117017937003 0)
(-0.0635251978918 0.131742420395 0)
(-0.0619200659226 0.146105853834 0)
(-0.0601789126604 0.160075777349 0)
(-0.0583128639351 0.17362262833 0)
(-0.0563336433689 0.186719731593 0)
(-0.0542521214918 0.199343335623 0)
(-0.0520793537331 0.211472463204 0)
(-0.0498249706011 0.223088808925 0)
(-0.0474984343181 0.234176459053 0)
(-0.045107304023 0.244721666287 0)
(-0.0426587446857 0.254712470164 0)
(-0.0401577046522 0.264138390781 0)
(-0.0376086983088 0.272989998718 0)
(-0.0350139215417 0.281258583886 0)
(-0.0323753064173 0.2889357428 0)
(-0.0296925779542 0.296013087315 0)
(-0.0269655480087 0.302481903878 0)
(-0.0241921002082 0.308332944475 0)
(-0.0213706777724 0.313556195607 0)
(-0.0184981889297 0.318140773898 0)
(-0.0155726490197 0.322074817028 0)
(-0.0125910187949 0.325345462041 0)
(-0.00955200269628 0.327938953275 0)
(-0.00645378198569 0.329840678994 0)
(-0.0032969432118 0.331035410151 0)
(-8.22433720284e-05 0.33150758274 0)
(0.00318647748439 0.331241676414 0)
(0.00650454324088 0.330222683338 0)
(0.00986357000546 0.328436679449 0)
(0.0132537641813 0.325871450218 0)
(0.0166611837616 0.322517220272 0)
(0.0200700981371 0.318367377192 0)
(0.0234604434445 0.313419276719 0)
(0.0268102121049 0.307674982233 0)
(0.0300931054634 0.301142077978 0)
(0.0332808712168 0.293834386993 0)
(0.0363411293359 0.285772795593 0)
(0.0392396179062 0.276986018033 0)
(0.0419382843577 0.267511551528 0)
(0.0443976310851 0.257396619298 0)
(0.0465754826387 0.246699293278 0)
(0.0484300187649 0.235489499216 0)
(0.0499199226341 0.223849825319 0)
(0.0510087867289 0.211875653387 0)
(0.0516669287904 0.199674303409 0)
(0.0518766208324 0.187362523661 0)
(0.0516339496553 0.175062487369 0)
(0.0509520888948 0.162896165542 0)
(0.049859912957 0.15097937978 0)
(0.0484013038916 0.139415925022 0)
(0.0466299917971 0.128292808684 0)
(0.0446048702265 0.117677790746 0)
(0.0423831195526 0.107620099428 0)
(0.040018018454 0.0981535552165 0)
(0.037557523209 0.0892998093803 0)
(0.035046486886 0.0810701928562 0)
(0.0325263593477 0.073466102325 0)
(0.0300358166376 0.0664790629517 0)
(0.027608678018 0.0600911231749 0)
(0.0252734484133 0.0542761863741 0)
(0.0230516077908 0.0490019841725 0)
(0.020958164041 0.0442323932302 0)
(0.0190016034688 0.0399296659568 0)
(0.0171856740346 0.036056022888 0)
(0.015509983178 0.0325747361684 0)
(0.0139715883141 0.0294506735878 0)
(0.0125652157414 0.0266506972184 0)
(0.0112844134888 0.0241438379024 0)
(0.0101215626764 0.0219014652693 0)
(0.00906877660666 0.0198973174404 0)
(0.00811787989071 0.018107579096 0)
(0.00726128996958 0.0165108770345 0)
(0.00649229830304 0.0150882960759 0)
(0.00580618303704 0.0138260981737 0)
(0.00520887791966 0.0127014680094 0)
(0.00467403333246 0.0115289919962 0)
(0.00437461669229 0.0108163330627 0)
(0.00410475543744 0.0099643033536 0)
(0.00392252324268 0.0090891329279 0)
(0.00365931742838 0.00801400832863 0)
(0.00336325899919 0.0067136833773 0)
(0.00344353388175 0.00591939170671 0)
(0.0036072513129 0.00484165078189 0)
(0.00434085305042 0.0042312518156 0)
(0.00515964073032 0.00339294127902 0)
(0.00541077230925 0.00217193155105 0)
(0.00578715149785 0.0012753322739 0)
(0.00577564462244 0.00042262223862 0)
(-0.0815048673479 0.00735869588629 0)
(-0.0861560950416 0.0236906972619 0)
(-0.0858220649563 0.0398297461179 0)
(-0.0851021253246 0.05600923986 0)
(-0.0841427139086 0.0720092223184 0)
(-0.0829555386404 0.0877965901155 0)
(-0.0815501954637 0.103326927403 0)
(-0.0799376693548 0.118558813144 0)
(-0.0781303918882 0.133453401543 0)
(-0.076141683596 0.147974733246 0)
(-0.0739857006322 0.162089885055 0)
(-0.0716768101171 0.175769104096 0)
(-0.0692295827569 0.188985838328 0)
(-0.0666581128228 0.201716727167 0)
(-0.0639760746335 0.213941478474 0)
(-0.0611960135144 0.225642705572 0)
(-0.058329503578 0.236805653994 0)
(-0.0553864526963 0.247417899637 0)
(-0.0523754082352 0.257468952402 0)
(-0.0493029253489 0.266949857229 0)
(-0.0461740599072 0.275852735613 0)
(-0.0429918282301 0.284170363101 0)
(-0.039757892132 0.291895727626 0)
(-0.0364721029643 0.299021660023 0)
(-0.0331333454002 0.305540479513 0)
(-0.0297391261531 0.311443730738 0)
(-0.0262865242609 0.316721948022 0)
(-0.0227717923429 0.321364510519 0)
(-0.0191913828089 0.325359530366 0)
(-0.0155415590255 0.328693790377 0)
(-0.0118195232478 0.331352860123 0)
(-0.00802298458064 0.333321075103 0)
(-0.00415140036459 0.334581779843 0)
(-0.000205631307772 0.335117599185 0)
(0.00381085245276 0.334910815855 0)
(0.00789230692813 0.333943871479 0)
(0.012029554573 0.332199963178 0)
(0.0162104066187 0.329663746097 0)
(0.0204186453995 0.326322105657 0)
(0.0246345934755 0.322164979912 0)
(0.0288342891634 0.317186203187 0)
(0.0329901935684 0.311384330834 0)
(0.0370705154334 0.30476344909 0)
(0.0410399430479 0.2973339412 0)
(0.044859000648 0.289113286389 0)
(0.0484846993562 0.280126903881 0)
(0.0518699287707 0.270409189624 0)
(0.0549642402407 0.260004765671 0)
(0.0577137759345 0.248970063019 0)
(0.0600630678682 0.237375047979 0)
(0.0619567739376 0.225304997085 0)
(0.0633437693261 0.212861593605 0)
(0.0641816579935 0.200162715793 0)
(0.0644429842116 0.187340018681 0)
(0.0641202305344 0.174533809316 0)
(0.0632294841633 0.161885412452 0)
(0.0618101558058 0.149528830192 0)
(0.0599227070569 0.137582565673 0)
(0.057642898094 0.126142303675 0)
(0.0550517852767 0.115277183019 0)
(0.0522255823394 0.105032263706 0)
(0.0492310412389 0.0954352704183 0)
(0.0461266254712 0.0865027760238 0)
(0.0429666098785 0.0782425689844 0)
(0.0398028238952 0.0706529024589 0)
(0.0366842291803 0.0637211899269 0)
(0.0336544451711 0.0574237748594 0)
(0.0307496177682 0.051727418184 0)
(0.0279965073864 0.0465919865788 0)
(0.0254123919886 0.041973799197 0)
(0.0230059792855 0.0378286564004 0)
(0.0207796763222 0.0341138012808 0)
(0.0187312307164 0.0307888456173 0)
(0.0168553720622 0.0278160274546 0)
(0.0151444475334 0.0251603393347 0)
(0.0135893846522 0.022789571302 0)
(0.0121800326934 0.0206743397763 0)
(0.0109057923959 0.0187880800203 0)
(0.00975587256604 0.0171071064316 0)
(0.00871985195068 0.0156107054342 0)
(0.0077881169025 0.0142810817705 0)
(0.00695253741252 0.0131099492343 0)
(0.00622019107898 0.0120279182871 0)
(0.00559201345861 0.0109719908393 0)
(0.00522720062791 0.0101697017342 0)
(0.0049949994034 0.00933603777199 0)
(0.00470385205145 0.00824395114407 0)
(0.0046264315119 0.00744540345969 0)
(0.00458484302064 0.0065461357832 0)
(0.00468828526156 0.00564119248865 0)
(0.00451616580248 0.00425461146765 0)
(0.00494820892572 0.00333921797953 0)
(0.00598706086682 0.00279877961912 0)
(0.00642361121832 0.00191997911033 0)
(0.00657402721296 0.00108239262613 0)
(0.00658050697805 0.000358747843593 0)
(-0.0970252465463 0.00746705321531 0)
(-0.102562156251 0.0240934906249 0)
(-0.102160316238 0.0404919158635 2.53504019226e-27)
(-0.10129498713 0.0569339820273 0)
(-0.100141174291 0.0731882812839 0)
(-0.0987135927631 0.0892203880065 0)
(-0.0970242615379 0.104984035978 0)
(-0.0950868858604 0.120436222812 0)
(-0.0929167830952 0.135536822933 0)
(-0.0905304563907 0.150248931086 0)
(-0.0879453014435 0.164539036447 0)
(-0.0851791175251 0.178377156816 0)
(-0.0822498007884 0.191736884601 0)
(-0.0791748273359 0.204595359483 0)
(-0.0759709647564 0.216933148453 0)
(-0.0726537641468 0.228734042117 0)
(-0.069237337144 0.239984760737 0)
(-0.0657339158082 0.250674580956 0)
(-0.062153761383 0.260794892921 0)
(-0.0585048588277 0.270338706649 0)
(-0.05479301478 0.279300130478 0)
(-0.0510217276319 0.287673847629 0)
(-0.0471924876096 0.295454619134 0)
(-0.0433048049658 0.302636833711 0)
(-0.0393566634733 0.309214122315 0)
(-0.0353446410232 0.315179042536 0)
(-0.0312644437864 0.320522835018 0)
(-0.0271110607992 0.325235243157 0)
(-0.0228793421816 0.329304394484 0)
(-0.0185641867453 0.332716690811 0)
(-0.0141612125004 0.335456930469 0)
(-0.00966692846715 0.337508209701 0)
(-0.00507954300637 0.338852171829 0)
(-0.000399265434968 0.339469240958 0)
(0.00437091334177 0.339339014135 0)
(0.00922488716418 0.338440776948 0)
(0.0141527067971 0.336754161362 0)
(0.0191403584735 0.334259913669 0)
(0.0241692184683 0.330940770692 0)
(0.0292160526419 0.326782376957 0)
(0.034252727051 0.321774227604 0)
(0.0392464307451 0.315910557383 0)
(0.044159560911 0.309191178553 0)
(0.0489499900003 0.301622230578 0)
(0.0535708751408 0.293216923386 0)
(0.0579707027189 0.283996337356 0)
(0.0620928697471 0.273990510302 0)
(0.0658755929162 0.263239917935 0)
(0.069251859104 0.251797611841 0)
(0.0721504329721 0.239732031451 0)
(0.0744981397819 0.227130104833 0)
(0.076224502818 0.214100155745 0)
(0.0772686766321 0.200773168986 0)
(0.0775885420528 0.187300768304 0)
(0.0771695947059 0.173848668735 0)
(0.0760309788836 0.160585770659 0)
(0.0742250200887 0.147672272774 0)
(0.0718346005007 0.135248323486 0)
(0.068967043207 0.123421530846 0)
(0.0657347122759 0.112260114349 0)
(0.0622372594252 0.10179900139 0)
(0.0585541185864 0.0920542620092 0)
(0.0547509938191 0.0830350670501 0)
(0.0508900641737 0.0747461091557 0)
(0.0470339882092 0.0671834685374 0)
(0.0432441473037 0.0603304587579 0)
(0.0395759398271 0.0541563122998 0)
(0.0360748710039 0.0486180739389 0)
(0.0327731284992 0.0436646075911 0)
(0.0296893687859 0.0392417368695 0)
(0.0268305525114 0.0352968425414 0)
(0.0241959805674 0.0317811844616 0)
(0.0217800657991 0.0286503571815 0)
(0.0195743287025 0.0258638283171 0)
(0.01756796063 0.0233846582815 0)
(0.0157487470888 0.0211793803891 0)
(0.014103495581 0.0192178377823 0)
(0.0126185232187 0.0174731283465 0)
(0.0112799284295 0.0159216148345 0)
(0.0100739587389 0.0145430978781 0)
(0.00898716078762 0.0133208301302 0)
(0.00800667919923 0.0122538215043 0)
(0.00713272273731 0.0112035729838 0)
(0.0065872202669 0.0104147770148 0)
(0.00616179767131 0.00952366568672 0)
(0.00591736801446 0.0086610787788 0)
(0.00568241867401 0.00773779514322 0)
(0.0054558564915 0.00672650695322 0)
(0.00553548096968 0.00591653661602 0)
(0.00553607204798 0.00482363659931 0)
(0.00583958357218 0.0040028489724 0)
(0.00580166927641 0.00283908134895 0)
(0.00636290370927 0.00215696236547 0)
(0.00715330946644 0.00163556984588 0)
(0.00724271363339 0.000922852280729 0)
(0.00725876857928 0.000306201565997 0)
(-0.112828580246 0.00759463973128 0)
(-0.119263760304 0.0245709265896 0)
(-0.118789020937 0.0412781838798 -2.53465128499e-27)
(-0.117770693901 0.0580328067079 0)
(-0.116412756802 0.0745894039433 0)
(-0.114732975422 0.0909119003775 0)
(-0.112746009065 0.106951850768 0)
(-0.110468555828 0.122664382226 0)
(-0.10791918985 0.138007844179 0)
(-0.105117945022 0.152944194464 0)
(-0.102085882831 0.167439207923 0)
(-0.098844604208 0.18146262453 0)
(-0.0954157781847 0.194988208485 0)
(-0.0918206215321 0.207993721082 0)
(-0.0880794250011 0.220460789138 0)
(-0.0842110443737 0.232374676704 0)
(-0.0802324839834 0.243723944086 0)
(-0.076158475249 0.254500014236 0)
(-0.0720012073724 0.264696641682 0)
(-0.0677700891971 0.274309324213 0)
(-0.0634717130808 0.283334668728 0)
(-0.0591098616717 0.291769766445 0)
(-0.0546857256092 0.299611593016 0)
(-0.0501981294321 0.306856485516 0)
(-0.0456439297829 0.313499695457 0)
(-0.0410183550973 0.319535045111 0)
(-0.0363154697338 0.324954657756 0)
(-0.0315285357204 0.32974876879 0)
(-0.0266504935642 0.333905581306 0)
(-0.0216743557032 0.337411127593 0)
(-0.0165937782225 0.340249364297 0)
(-0.0114034633991 0.342401995162 0)
(-0.00609992509025 0.34384869363 0)
(-0.000682068305698 0.344567302172 0)
(0.00484804478903 0.344534207479 0)
(0.0104845468053 0.343724893803 0)
(0.0162170497313 0.342114651666 0)
(0.022030139185 0.339679462809 0)
(0.0279028972199 0.336396993359 0)
(0.0338087148282 0.332247672258 0)
(0.0397151757128 0.327215758083 0)
(0.0455842180901 0.321290338407 0)
(0.0513722731531 0.314466183948 0)
(0.0570304953218 0.306744439051 0)
(0.0625047211558 0.29813319804 0)
(0.0677352267239 0.288648121177 0)
(0.0726560061524 0.278313335593 0)
(0.0771938646722 0.267163053484 0)
(0.0812675178549 0.255244252953 0)
(0.0847875449372 0.242620736186 0)
(0.0876583688507 0.229378533865 0)
(0.0897832164539 0.215631652401 0)
(0.0910742276374 0.201526320958 0)
(0.0914660289814 0.187240530584 0)
(0.0909317533207 0.172975850143 0)
(0.0894934666896 0.158940436479 0)
(0.0872188338706 0.145332032914 0)
(0.0842212130523 0.13232414465 0)
(0.0806565061007 0.120041947748 0)
(0.0766849373125 0.108546920129 0)
(0.0724359906164 0.0978511984531 0)
(0.0679967365653 0.0879485591579 0)
(0.0634316495008 0.0788383137971 0)
(0.0588070898038 0.0705251975398 0)
(0.0541982108222 0.0630066602029 0)
(0.0496825313344 0.0562628528184 0)
(0.0453313071027 0.0502542431145 0)
(0.0412019335768 0.0449243828904 0)
(0.0373328441707 0.0402062911129 0)
(0.033741957649 0.0360310595824 0)
(0.0304312285414 0.0323351317016 0)
(0.0273937897995 0.0290632015324 0)
(0.0246189419098 0.0261671001253 0)
(0.0220940846451 0.0236038445622 0)
(0.0198045160029 0.0213346931512 0)
(0.0177343268994 0.0193250526662 0)
(0.0158668602896 0.0175440715385 0)
(0.0141850167611 0.0159644762632 0)
(0.0126714930244 0.0145625115884 0)
(0.011309111043 0.0133179025052 0)
(0.0100808702954 0.0122134276381 0)
(0.00897188716434 0.0112437854996 0)
(0.00796724800049 0.010241569544 0)
(0.00739305686288 0.0094844725387 0)
(0.00705600184043 0.00874259780732 0)
(0.00675312714896 0.00786693301248 0)
(0.00666343086804 0.00713714649192 0)
(0.00651928273515 0.00619814932194 0)
(0.00648174456117 0.00525256705776 0)
(0.00640140611467 0.00420587059946 0)
(0.00653698233493 0.00334778735466 0)
(0.00689870903958 0.00262254978246 0)
(0.0069267579771 0.00178070709528 0)
(0.00777530374135 0.00134625931169 0)
(0.00781505811529 0.00080002524017 0)
(0.00780777690943 0.000256492396855 0)
(-0.128964081038 0.00774282381894 0)
(-0.136313441211 0.0251279710264 0)
(-0.13575998016 0.0421957379159 0)
(-0.134579411441 0.0593152981209 0)
(-0.133005439806 0.0762244729532 0)
(-0.131059052296 0.0928851416302 0)
(-0.128757839043 0.109246243084 0)
(-0.126121822455 0.125260681021 0)
(-0.123173254731 0.140884985254 0)
(-0.119936125849 0.156079756936 0)
(-0.116435651861 0.170809910277 0)
(-0.112697704749 0.18504484665 0)
(-0.108748243312 0.198758533588 0)
(-0.104612700347 0.2119294805 0)
(-0.100315389192 0.224540607746 0)
(-0.0958788925513 0.236578985921 0)
(-0.091323512947 0.248035454505 0)
(-0.08666676075 0.258904101376 0)
(-0.0819229724161 0.269181636463 0)
(-0.0771030345626 0.278866664756 0)
(-0.0722142994778 0.287958919627 0)
(-0.0672606415104 0.296458485369 0)
(-0.0622427077147 0.304365080823 0)
(-0.0571582690757 0.31167742862 0)
(-0.0520026936641 0.318392755865 0)
(-0.0467694252165 0.324506412557 0)
(-0.0414504966084 0.33001160593 0)
(-0.0360369874096 0.334899203497 0)
(-0.0305195060054 0.339157583535 0)
(-0.0248886595479 0.342772459192 0)
(-0.0191356122771 0.345726912859 0)
(-0.0132526260057 0.348001157052 0)
(-0.00723387968939 0.349572661063 0)
(-0.0010762437488 0.350416299801 0)
(0.00521981335202 0.350504708848 0)
(0.0116493410139 0.349808849048 0)