/*--------------------------------*- C++ -*----------------------------------*\
| =========                 |                                                 |
| \\      /  F ield         | OpenFOAM: The Open Source CFD Toolbox           |
|  \\    /   O peration     | Version:  v1906                                 |
|   \\  /    A nd           | Web:      www.OpenFOAM.com                      |
|    \\/     M anipulation  |                                                 |
\*---------------------------------------------------------------------------*/
FoamFile
{
    version     2.0;
    format      ascii;
    class       volScalarField;
    location    "430";
    object      p;
}
// * * * * * * * * * * * * * * * * * * * * * * * * * * * * * * * * * * * * * //

dimensions      [0 2 -2 0 0 0 0];


internalField   nonuniform List<scalar> 
9216
(
268.212457509
268.297614181
268.470456477
268.731336093
269.078826126
269.511186726
270.026284313
270.621628953
271.294429675
272.041624828
272.85994109
273.745919406
274.695973632
275.706408057
276.773472377
277.893368329
279.062299549
280.276466639
281.532112011
282.825504082
284.152978166
285.510911199
286.895760077
288.304028596
289.732304618
291.177220873
292.635492069
294.103871154
295.579187241
297.058298848
298.538133153
300.0156378
301.487822316
302.951709936
304.404381224
305.842927913
307.264499097
308.666258679
310.045434019
311.399278497
312.725122004
314.020339673
315.282402962
316.508855147
317.697361316
318.845691093
319.95176599
321.013650415
322.029595762
322.998041744
323.917657636
324.787356038
325.606330923
326.374082834
327.090449178
327.755633217
328.370216286
328.935177491
329.451876626
329.922052755
330.347771528
330.731397216
331.075508013
331.382849848
331.656240452
331.898528218
332.112510332
332.300912617
332.4663285
332.611218193
332.737862532
332.848378124
332.944683798
333.028531451
333.101482722
333.164950147
333.220177275
333.268282776
333.310240038
333.346921326
333.379077094
333.407380274
333.432408424
333.454730557
333.474530538
333.491439736
333.505379204
333.516577333
333.525182545
333.531540976
333.536034427
333.539114272
333.541177657
333.54243454
333.543072522
333.543299079
268.127381708
268.212965703
268.386444861
268.648543477
268.997688095
269.432084603
269.949553446
270.547564562
271.223282765
271.973607013
272.795220733
273.684629242
274.638207675
275.652231584
276.722918791
277.846450645
279.019006374
280.236774467
281.495979789
282.792885911
284.123816191
285.485148546
286.873332065
288.284875881
289.716362826
291.16443396
292.625800566
294.09722571
295.575535639
297.05759961
298.54034165
300.020719898
301.495739372
302.962432164
304.417872236
305.85915765
307.283428049
308.687850248
310.069638901
311.426046416
312.754386819
314.052030425
315.316430259
316.545121326
317.735748442
318.886069719
319.993984768
321.057542628
322.074970402
323.044687211
323.965334731
324.835799466
325.655246169
326.423147933
327.13931854
327.803942422
328.417594281
328.981254568
329.496303086
329.964507878
330.3879844
330.769151695
331.110657582
331.415311037
331.685996235
331.925611193
332.137000775
332.322920672
332.485994445
332.628696782
332.753324938
332.861996152
332.956632883
333.03897605
333.110582833
333.172849674
333.227013796
333.274177233
333.315307275
333.351259657
333.382777815
333.410514181
333.435025959
333.456789371
333.476168395
333.492880097
333.506573073
333.517451887
333.525908685
333.532186709
333.536543677
333.539521539
333.541547176
333.542736189
333.543311006
333.54354605
267.953787021
268.040465471
268.215697289
268.48040413
268.832967841
269.27153493
269.793850614
270.397304158
271.078974541
271.835676344
272.664008721
273.560399389
274.521149496
275.542470595
276.620521621
277.751436403
278.931351535
280.156424192
281.422851468
282.726879633
284.064816442
285.433033557
286.8279736
288.246147488
289.684137886
291.138592995
292.606227762
294.083815415
295.56818755
297.056224508
298.544855311
300.031047965
301.511810206
302.984180822
304.445232209
305.892063904
307.321807986
308.731625962
310.11871784
311.480323205
312.813734299
314.116301481
315.385449871
316.618688588
317.813629792
318.968000659
320.079663655
321.146630855
322.167085704
323.13940135
324.062166513
324.934211468
325.75464122
326.522870481
327.238661431
327.902159213
328.51391991
329.074928349
329.586599719
330.050766111
330.469640874
330.845764464
331.181925444
331.481072643
331.74622226
331.980381029
332.18648333
332.367350815
332.525660321
332.663922424
332.784460283
332.889399231
332.980660242
333.05996806
333.128861175
333.188710428
333.240731412
333.286000723
333.325465222
333.359956639
333.390199297
333.416822734
333.440365885
333.461283176
333.479986308
333.496082215
333.508961876
333.519205139
333.527374841
333.533411701
333.537502762
333.540358736
333.542244266
333.543332574
333.543913461
333.544202737
267.689518386
267.777605681
267.955547301
268.224285085
268.582123909
269.027113852
269.5568849
270.168700275
270.859506762
271.625986719
272.464610127
273.371683436
274.343395626
275.375858566
276.465143299
277.607309709
278.798432193
280.034618911
281.312027963
282.626877862
283.975456184
285.354123361
286.759315862
288.187545263
289.635397728
291.099529928
292.576666224
294.063592652
295.557152881
297.054241282
298.551798551
300.046804849
301.536276165
303.017258494
304.486825943
305.942077236
307.380136818
308.798154917
310.193312721
311.562826946
312.903959659
314.214027513
315.490415774
316.730591278
317.932119106
319.092677459
320.210075157
321.282267267
322.307373411
323.283696079
324.209743847
325.084258523
325.906250173
326.675038372
327.390298991
328.052110576
328.660993672
329.217935962
329.724402282
330.182324157
330.594067506
330.962371117
331.290251172
331.580886151
331.837501059
332.063273113
332.261268267
332.434406398
332.585440238
332.716936461
332.831255394
332.930535974
333.016691287
333.091419426
333.156223345
333.212434741
333.261232453
333.303656888
333.34062133
333.372924343
333.4012602
333.426230049
333.44835016
333.468066848
333.485756095
333.500703767
333.512550336
333.522081054
333.529548445
333.535102844
333.539030739
333.541692639
333.54341221
333.544449802
333.545035421
333.545323571
267.333258162
267.423215394
267.604867864
267.87912961
268.244192004
268.697966568
269.237921452
269.861143288
270.56439499
271.344175107
272.196775634
273.118336066
274.104892695
275.152421716
276.256876295
277.41421695
278.620436207
279.871577314
281.163748395
282.4931319
283.855990874
285.248671753
286.667605197
288.109304437
289.570362591
291.047448184
292.537300315
294.036722504
295.54257669
297.051776285
298.561279767
300.068083842
301.569217708
303.061737209
304.542720774
306.009266003
307.458488763
308.887523643
310.293527602
311.673685533
313.025219309
314.345398756
315.631555627
316.881098671
318.09153034
319.260463086
320.385635718
321.464928418
322.49637784
323.478192796
324.408773869
325.286739796
326.110964581
326.880627101
327.595271695
328.254872351
328.859889325
329.411303838
329.910641315
330.359965661
330.761857577
331.119347412
331.435790727
331.714708013
331.959625201
332.17395391
332.360928098
332.523589104
332.664784689
332.787157386
332.893118978
332.984826218
333.064174601
333.13281668
333.19219724
333.243590179
333.28812282
333.326787578
333.360452078
333.389871061
333.415697992
333.438497304
333.458756794
333.476942093
333.493145255
333.506555559
333.51719883
333.525776642
333.532600758
333.537650696
333.541176865
333.543595907
333.545204902
333.546188761
333.546760155
333.547044582
266.883061085
266.975413349
267.161850961
267.44323762
267.817609614
268.282691017
268.835733566
269.473589217
270.192778168
270.989557716
271.859988004
272.799992488
273.805411651
274.872049018
275.995709346
277.17222912
278.397500067
279.667486341
280.978236411
282.32589039
283.70668378
285.116948217
286.553110012
288.011686806
289.489282964
290.982583793
292.488349107
294.003406026
295.524641519
297.048994499
298.573447924
300.095020931
301.610761521
303.117739534
304.613040905
306.09376312
307.557012791
308.999905348
310.41956779
311.813144321
313.177805575
314.510760818
315.809273248
317.070677092
318.292395902
319.471960186
320.607023557
321.695376034
322.734955092
323.723855657
324.660343386
325.542876455
326.370143711
327.141124102
327.855168317
328.512091625
329.112257978
329.656621774
330.146772767
330.584933095
330.973966701
331.317316955
331.618833395
331.882530815
332.112353825
332.312011691
332.484926769
332.63426644
332.762985738
332.873826486
332.969274031
333.051508776
333.122391764
333.183497563
333.236177565
333.281623413
333.320897301
333.354933242
333.38454142
333.410421102
333.433172509
333.453308938
333.471268019
333.487472237
333.501788061
333.513480239
333.522949157
333.53062233
333.536583637
333.540859489
333.544023934
333.546217515
333.547661624
333.54865933
333.549233565
333.549523512
266.336435412
266.431768907
266.624169759
266.914430688
267.300384278
267.779509264
268.348776137
269.004733961
269.743592011
270.561300963
271.453628899
272.416229663
273.444701936
274.534638325
275.68166456
276.88146943
278.129826503
279.422608784
280.755797609
282.125486863
283.527883649
284.959306174
286.416179662
287.895030725
289.392480691
290.905238091
292.430090579
293.963896352
295.503575242
297.046099511
298.588484421
300.127778939
301.661056698
303.185407272
304.697928488
306.19572014
307.675879724
309.135500804
310.571674651
311.981495688
313.362071084
314.710534513
316.02406362
317.299900192
318.535371382
319.727909877
320.875070641
321.974542287
323.024152231
324.02186741
324.965795154
325.854194453
326.685509354
327.458439453
328.1720529
328.825926263
329.420281482
329.956005822
330.434751252
330.858897356
331.231660634
331.557065291
331.839682761
332.084248291
332.295282015
332.476847257
332.63253225
332.765597538
332.87910551
332.975935086
333.058688617
333.129582862
333.190415426
333.242624127
333.287408308
333.3258452
333.35892603
333.387521243
333.412372188
333.434110501
333.453271381
333.470304483
333.485586581
333.499481844
333.511650197
333.521571968
333.529710531
333.53622762
333.541207528
333.544917368
333.547721895
333.54970098
333.550983903
333.551936259
333.55249553
333.55277431
265.690278325
265.789251045
265.988929297
266.290008835
266.690059256
267.18624329
267.775171595
268.453008669
269.215572463
270.058431465
270.976993618
271.966584187
273.022510932
274.140116209
275.314816585
276.542131211
277.817700588
279.137297479
280.496831649
281.892349956
283.320033055
284.776189745
286.257249695
287.759755128
289.280351805
290.815779542
292.362862397
293.91849854
295.479649862
297.043331281
298.606599705
300.166543
301.720269008
303.26489462
304.797535756
306.315298643
307.815273215
309.294529399
310.750117279
312.179071869
313.578423255
314.945212206
316.276511015
317.569448154
318.821234703
320.029189079
321.190756424
322.303518309
323.365190653
324.373609268
325.326710355
326.222517115
327.059158244
327.834943922
328.548525671
329.199120279
329.78676273
330.312200073
330.777151289
331.184075373
331.536589227
331.839542919
332.098593882
332.319552271
332.507745705
332.667613517
332.802791062
332.916518951
333.011950666
333.092180937
333.160025031
333.217769029
333.267092937
333.309188553
333.344996189
333.375439115
333.401457703
333.423868469
333.443328454
333.460388363
333.475507142
333.489058252
333.501350901
333.512652053
333.522429234
333.53051816
333.537189119
333.542542053
333.546671075
333.54989102
333.552240174
333.554012253
333.555225128
333.556014547
333.55656135
333.55681763
264.940802714
265.044163275
265.252608775
265.566703306
265.983678818
266.500293801
267.112701987
267.816583871
268.607269938
269.479858099
270.429318569
271.450582906
272.538615727
273.688469279
274.89532228
276.154505138
277.461514066
278.812016552
280.201850469
281.627018742
283.083681111
284.568144119
286.07685015
287.606366006
289.153371346
290.714647089
292.287063816
293.867570077
295.453180506
297.040963611
298.628029028
300.211514575
301.788573019
303.356358513
304.912013625
306.452657493
307.975376001
309.477215174
310.955178971
312.406232882
313.827314323
315.215350645
316.567284484
317.880105286
319.150883941
320.376806092
321.555197552
322.683535173
323.759435937
324.78062262
325.744867823
326.649937241
327.49356352
328.273511547
328.987803754
329.635089854
330.215239556
330.728695304
331.177348409
331.563424178
331.890906205
332.165863282
332.395646448
332.587743075
332.748657481
332.883138703
332.994521331
333.085755819
333.160050816
333.220899187
333.271553435
333.314442973
333.351027273
333.382035903
333.407944324
333.429474696
333.447619677
333.463181589
333.47669769
333.488618365
333.499318972
333.509080377
333.518137139
333.526592565
333.533916392
333.540148483
333.545342737
333.549560539
333.552917535
333.555561317
333.55759629
333.559099812
333.560211676
333.560867506
333.561406962
333.561636646
264.083443872
264.192056972
264.410986043
264.740615801
265.177744823
265.71861502
266.358801298
267.093377376
267.917069984
268.824402181
269.809817664
270.867782518
271.992863361
273.179783098
274.423456891
275.719011835
277.061793948
278.447365977
279.871498945
281.330159876
282.819497447
284.335826828
285.875614479
287.435463333
289.012098536
290.602353735
292.203157749
293.811521425
295.424524376
297.039301322
298.653027672
300.262904516
301.866142879
303.459947018
305.041497851
306.607937004
308.156352729
309.683769061
311.187140104
312.663351249
314.109229353
315.521563196
316.89713489
318.23276101
319.525340278
320.771901217
321.969640935
323.115942236
324.208357657
325.244547544
326.222173318
327.138756666
327.991559329
328.777577844
329.493843469
330.138020143
330.710130784
331.209837031
331.639810764
332.000993739
332.297495282
332.537295962
332.730514445
332.887367892
333.016226795
333.121835808
333.206365714
333.2718997
333.321652645
333.359947447
333.390992642
333.417522876
333.440557235
333.459933845
333.475231104
333.486925809
333.496402169
333.504554298
333.511673902
333.518080389
333.524076779
333.529822045
333.535460747
333.540955185
333.545929715
333.550345693
333.554085454
333.557179521
333.559741585
333.561850943
333.563628754
333.564983202
333.565907394
333.566504799
333.566997723
333.567218836
263.112739687
263.227620182
263.459041284
263.807142723
264.268164565
264.83768695
265.510550746
266.281069525
267.143224348
268.09083976
269.117731366
270.217821383
271.385222194
272.614290717
273.899658216
275.23624081
276.61923598
278.044109717
279.506578148
281.002586504
282.528287424
284.080019827
285.654289043
287.247748398
288.857182284
290.479490437
292.111673129
293.75081682
295.394079813
297.038677363
298.681865773
300.320925302
301.953141629
303.575785598
305.186092175
306.781239331
308.358328138
309.914366065
311.446255727
312.95079206
314.424670758
315.864510948
317.266893669
318.62841631
319.94575931
321.215757877
322.435464994
323.602188173
324.713475872
325.767031548
326.760533638
327.691363248
328.556285554
329.351223118
330.071570195
330.71292982
331.276955994
331.760766048
332.170542399
332.502529776
332.760315874
332.955200642
333.101983122
333.215499864
333.307495706
333.381698132
333.43705945
333.473681689
333.494782144
333.506491025
333.515208187
333.524261856
333.53374932
333.541748116
333.545997525
333.546675442
333.546591175
333.546958662
333.547369034
333.547969032
333.549089206
333.550689779
333.552841348
333.55540412
333.558111628
333.560730847
333.563108511
333.565251358
333.567172817
333.568843835
333.570283844
333.571477173
333.572345086
333.572902292
333.573314315
333.573539224
262.022176012
262.144533958
262.390834614
262.760881037
263.250188939
263.853486278
264.564679872
265.377129686
266.283896789
267.277960309
268.352392176
269.500486664
270.715846663
271.992432323
273.324579493
274.706995949
276.134742755
277.60320699
279.108070539
280.64527831
282.2110079
283.801641826
285.413742688
287.044031211
288.689366805
290.346730204
292.013207569
293.685975426
295.362285721
297.039450142
298.714823109
300.385782716
302.049709309
303.70396119
305.345848278
306.972604378
308.581359702
310.169115801
311.732726157
313.26888622
314.774137662
316.244891437
317.677473941
319.068197982
320.413456808
321.709832356
322.954201583
324.143813632
325.276303174
326.349594234
327.361645078
328.309984552
329.191034866
329.999302653
330.727407169
331.365532369
331.92276684
332.386729469
332.778340892
333.077251313
333.285593391
333.421346399
333.507347619
333.566336316
333.617464349
333.660370732
333.686008295
333.690609762
333.677407834
333.656503596
333.639523568
333.630799269
333.628343468
333.62682808
333.619980488
333.607459252
333.596548864
333.589251616
333.582859284
333.577375557
333.573609485
333.571031518
333.569768344
333.569529681
333.570081806
333.571050043
333.572297398
333.573677325
333.575079803
333.576376813
333.577558434
333.578546704
333.579373236
333.579957124
333.58027934
333.580490591
260.80398559
260.935287343
261.199350274
261.595511967
262.118340352
262.761458315
263.517578042
264.378859897
265.337229974
266.384647799
267.513311727
268.715800743
269.985158232
271.314927628
272.699151771
274.132347551
275.609466017
277.1258459
278.67716626
280.259401797
281.868782779
283.501760166
285.154975875
286.825237545
288.509497105
290.204832307
291.908430404
293.61757309
295.329621712
297.042001551
298.752184294
300.457667466
302.155950152
303.84450432
305.52074223
307.181980619
308.825403249
310.448024487
312.046657703
313.61789383
315.158096645
316.663422617
318.129872866
319.553383518
320.929955354
322.255816161
323.527595971
324.742481118
325.898297138
326.993451908
328.026643801
328.996195201
329.898840977
330.727607929
331.470691927
332.101373897
332.657971698
333.089017716
333.475502973
333.737811312
333.879984228
333.93514082
333.93931797
333.929699181
333.946106857
333.969678058
333.968996698
333.934601846
333.87269883
333.805237381
333.756879934
333.731711651
333.722056243
333.716341548
333.69877918
333.66744895
333.643371643
333.630219942
333.617357555
333.605207486
333.596867832
333.590111596
333.585669056
333.582852902
333.581515317
333.58118497
333.581539294
333.582283425
333.583225423
333.584239211
333.585256926
333.586156409
333.586906702
333.587530006
333.587784179
333.587994574
259.44888473
259.590936312
259.876297811
260.303657535
260.866330461
261.556494208
262.365323498
263.28346432
264.301442295
265.409992217
266.600296023
267.864131813
269.1939456
270.582862597
272.024656069
273.513690428
275.044852101
276.613478171
278.215289174
279.84632959
281.502917229
283.181601376
284.879128627
286.592415149
288.318524018
290.054646506
291.798086216
293.54624502
295.296609506
297.04673633
298.794235197
300.536747509
302.271919633
303.997369622
305.710647599
307.409190136
309.090270265
310.750945712
312.38800998
313.997952705
315.576938638
317.120816648
318.625172341
320.085436807
321.497060112
322.855747112
324.157736629
325.400082755
326.580877318
327.699329453
328.75557482
329.749967799
330.681419028
331.542905281
332.318158968
332.92033491
333.503612654
333.863714113
334.360901186
334.601790784
334.642072291
334.566172537
334.430398073
334.250533841
334.123802114
334.090604319
334.088337989
334.067934538
334.009130893
333.919794172
333.848042933
333.817843208
333.815263056
333.820381102
333.790989558
333.723570617
333.681214623
333.669701585
333.650927
333.629709622
333.618175358
333.607062703
333.599947602
333.594880788
333.592136831
333.590831193
333.590578863
333.59083485
333.591464833
333.592333442
333.593275879
333.594152604
333.594917194
333.595530791
333.595801847
333.596016131
257.945724596
258.100788261
258.411856845
258.876704278
259.486969128
260.232920629
261.103740973
262.088157146
263.174967034
264.353442292
265.613597269
266.94633431
268.34348743
269.797791636
271.302805002
272.852806698
274.442688698
276.067852953
277.724120778
279.407657053
281.114909213
282.842559266
284.587486506
286.346738511
288.117508452
289.89711719
291.682999008
293.472689792
295.263816215
297.054083748
298.841261688
300.623162322
302.397612464
304.162415798
305.915305572
307.653887699
309.375575295
311.077517161
312.756524752
314.409005351
316.03091311
317.617734572
319.164529589
320.666051611
322.11696795
323.512189334
324.847294217
326.11899886
327.325608016
328.46737365
329.546662504
330.567729144
331.53559162
332.450299901
333.311863417
333.819181557
334.632690465
334.574904332
334.440327595
334.503752157
334.547842732
334.506881921
334.416880789
334.308762642
334.213218139
334.148553965
334.104232171
334.062107629
334.015089687
333.970833417
333.944651309
333.944167368
333.964543899
333.978718506
333.921372452
333.756399797
333.682671571
333.70889895
333.68592693
333.646937372
333.637731638
333.620699236
333.611993153
333.605022361
333.601534478
333.59965504
333.599151147
333.599133747
333.599692364
333.600611112
333.601586828
333.602509498
333.603302026
333.603935007
333.604329753
333.604525285
256.281024131
256.451983413
256.794347636
257.304587418
257.972068622
258.784514102
259.728504847
260.790327476
261.956651205
263.215013794
264.55411266
265.963925679
267.435700491
268.961855502
270.535832221
272.151930659
273.805149866
275.491046797
277.205619329
278.945214106
280.706456601
282.486199314
284.281483623
286.089511526
287.907624426
289.733287299
291.564077209
293.397675278
295.231860523
297.064502824
298.89355227
300.717020801
302.53295338
304.339386575
306.134293456
307.915514188
309.680672604
311.427080062
313.151630579
314.850694839
316.520027056
318.154706097
319.749142367
321.297189989
322.792407265
324.228495705
325.59991602
326.902611439
328.134770124
329.297586945
330.396111076
331.440508132
332.450232263
333.469726796
334.714128861
334.524096586
334.532558856
334.617390942
334.567283224
334.54142757
334.52489253
334.468370454
334.382300479
334.287356694
334.201201181
334.134397245
334.084443844
334.041227227
333.999427812
333.963067622
333.938458192
333.926625515
333.921079844
333.907113648
333.872561662
333.846400353
333.86341045
333.866672701
333.749775594
333.632045952
333.655595718
333.628462543
333.621360834
333.612486141
333.60927984
333.607357362
333.607218527
333.607100101
333.607851681
333.60898203
333.610119921
333.611178795
333.612063857
333.612769034
333.613268491
333.613460969
254.438335125
254.628934194
255.009802861
255.575528836
256.312351991
257.204560188
258.235313976
259.387788184
260.646038127
261.99557215
263.423642803
264.919306188
266.473315207
268.077913367
269.726586072
271.41381112
273.134834672
274.885485521
276.662030762
278.461069498
280.279457922
282.114257885
283.962701685
285.822167288
287.690160409
289.564301817
291.442319721
293.32204713
295.201422888
297.078492795
298.95140664
300.818405235
302.677793275
304.527895419
306.36699385
308.193246131
310.00458208
311.798578974
313.57231658
315.322218044
317.043890499
318.731991082
320.380160879
321.981089369
323.526788047
325.00914496
326.420790276
327.756136135
329.012456635
330.190891275
331.297130016
332.342134501
333.347920098
334.379019774
334.591915137
334.678049771
334.606281248
334.59987928
334.554862586
334.512053313
334.469491609
334.405292278
334.323516364
334.237360901
334.158423331
334.094632877
334.045502978
334.004470556
333.968318604
333.938711328
333.917987387
333.904891956
333.894207969
333.878597525
333.854389106
333.83349401
333.826079046
333.813778261
333.800239009
333.81006667
333.773237475
333.620774898
333.623052599
333.615431549
333.615012334
333.613650364
333.615093571
333.614528986
333.615671475
333.61730533
333.61882905
333.620126248
333.621187939
333.621968289
333.622547514
333.622761654
252.397365585
252.612563033
253.041407761
253.675723406
254.497383678
255.485990953
256.620178297
257.879148037
259.243766855
260.697213533
262.225224307
263.816027932
265.460078134
267.149684421
268.878620604
270.641763862
272.43479257
274.253952322
276.095886966
277.957524501
279.836004643
281.72863494
283.632864074
285.546264277
287.466518336
289.391410525
291.318823106
293.246740603
295.173261238
297.096610923
299.01515293
300.927384531
302.831914388
304.727417899
306.612568714
308.485944947
310.345906804
312.190441122
314.016969723
315.822122489
317.601485298
319.349347855
321.058503524
322.72019138
324.32431917
325.860117658
327.317374351
328.687912802
329.967115138
331.15519631
332.258395395
333.294816677
334.322992309
334.472924734
334.572492514
334.620871521
334.58427539
334.549960683
334.496727223
334.438763182
334.377611132
334.306030566
334.226620701
334.147509363
334.076145272
334.01791193
333.972819713
333.936744822
333.907643797
333.88566241
333.870945847
333.861606234
333.853840959
333.843503752
333.828776936
333.814191308
333.804693614
333.793265978
333.77975487
333.770872763
333.756889727
333.760956902
333.739696818
333.618258229
333.614768054
333.617734403
333.62390075
333.620697928
333.622901658
333.625681459
333.627840484
333.62943332
333.630644351
333.63152498
333.632158925
333.632398427
250.132746587
250.379252598
250.868764443
251.588973815
252.51555679
253.621655647
254.879878657
256.264363886
257.752133523
259.323774623
260.963552221
262.659116554
264.400976563
266.181889255
267.996272414
269.839702914
271.70852589
273.599574586
275.509986226
277.437092626
279.378363093
281.331379098
283.293824218
285.263478105
287.23820949
289.215969323
291.194789834
293.172796439
295.148233902
297.119500314
299.085177001
301.044040755
302.995049221
304.937297341
306.869944579
308.792112723
310.702748223
312.600438756
314.483172817
316.348033909
318.190828393
320.005661462
321.784511547
323.51691833
325.190012622
326.789188186
328.299949795
329.710046453
331.011512959
332.203116298
333.298309141
334.356176702
334.470973353
334.520732993
334.560740199
334.563184812
334.518649413
334.459962951
334.389381169
334.314748989
334.23935849
334.162021942
334.084797688
334.012569884
333.949979739
333.900075383
333.862303869
333.833832665
333.813270976
333.799968742
333.793004843
333.790401698
333.789359805
333.787319743
333.783312656
333.779052579
333.77609844
333.770884028
333.761904315
333.752815787
333.741554313
333.733849724
333.721801974
333.729052675
333.714473479
333.624019763
333.636918964
333.622999831
333.629397284
333.634606377
333.637479213
333.639233077
333.640480544
333.641452483
333.642097976
333.642386369
247.612261755
247.899376432
248.466923616
249.296287373
250.354201208
251.604814451
253.012693469
254.54555438
256.175874782
257.881507248
259.645506624
261.455443416
263.302472285
265.18037323
267.084704768
269.012134218
270.959956319
272.925780142
274.907349942
276.902462374
278.908944803
280.924664855
282.947547992
284.975588177
287.006845971
289.039438847
291.071536919
293.101381498
295.127331889
297.147931083
299.16196801
301.168513875
303.166919033
305.156770898
307.137818029
309.109865345
311.072630915
313.025544967
314.967468181
316.896306255
318.808499222
320.698370228
322.557352455
324.37319964
326.129529735
327.806177976
329.382285751
330.839225626
332.163932582
333.359827293
334.484855518
334.558303841
334.547261285
334.53486695
334.516298775
334.471146837
334.398390038
334.314106071
334.224806465
334.136100476
334.051335159
333.971395837
333.897928136
333.833788458
333.781747904
333.742613698
333.714682691
333.696023233
333.685637221
333.682500694
333.68524942
333.691990104
333.700523491
333.708976889
333.716461089
333.72326746
333.72950876
333.733450852
333.734320751
333.733282611
333.728967003
333.722865837
333.715710192
333.713873889
333.709697407
333.71966593
333.693883643
333.607578898
333.634412075
333.645256583
333.648318464
333.649667941
333.650791317
333.651767311
333.652430983
333.652776852
244.794243274
245.135211138
245.805115401
246.775480112
247.999929352
249.430001267
251.019533714
252.728190379
254.523251702
256.379958263
258.280791711
260.214134027
262.17271828
264.152181722
266.149890895
268.164088516
270.193338493
272.236212009
274.291149903
276.356441067
278.430265832
280.510763223
282.596091029
284.684458573
286.774125668
288.86337771
290.950503272
293.033814466
295.111723158
297.18285918
299.246185374
301.301070238
303.347298232
305.385024519
307.414693255
309.436939142
311.452456973
313.4618054
315.465106314
317.461599916
319.449005116
321.422611549
323.374028815
325.289580747
327.14877498
328.923170552
330.582313196
332.09835584
333.458717885
334.717203805
334.751089109
334.661026745
334.57815424
334.502977994
334.421361734
334.32650745
334.220289132
334.111413536
334.005526978
333.906652887
333.817287321
333.738485398
333.671253349
333.617059089
333.577329252
333.550666678
333.534203413
333.526960104
333.52813762
333.536508778
333.550553258
333.568498961
333.588486186
333.608917513
333.628770438
333.64760773
333.664976563
333.679840081
333.691654818
333.700616074
333.70620645
333.709021355
333.709144832
333.707738314
333.705142377
333.705491986
333.704145643
333.694423068
333.655515072
333.662469156
333.661213045
333.660628472
333.661490653
333.662458415
333.663198826
333.663598999
241.623634941
242.037922232
242.845112866
244.000902055
245.439429795
247.094490484
248.905697466
250.82282199
252.807532161
254.833093976
256.882680516
258.946977177
261.02171029
263.105539184
265.198495386
267.300962547
269.413099907
271.534589973
273.664601615
275.80188052
277.944898663
280.092010189
282.241573586
284.392012767
286.541806884
288.689425126
290.833251897
292.971596494
295.102812596
297.225508926
299.33875357
301.442200515
303.536110502
305.621285306
307.698965677
309.77075247
311.838520591
313.904265379
315.969824408
318.036424565
320.10398185
322.169993565
324.227768901
326.263577247
328.253086147
330.154415943
331.923232645
333.529340963
335.022526873
335.043442632
334.865398123
334.699365444
334.552276919
334.408798803
334.266156154
334.124729129
333.986902355
333.857374014
333.739619974
333.635784068
333.546941929
333.473368069
333.415239291
333.373108969
333.346658352
333.332811297
333.328693898
333.333798226
333.347315808
333.367915834
333.394059538
333.424099362
333.456385254
333.489453726
333.522179819
333.55376514
333.583481621
333.610463183
333.634128829
333.654293646
333.670687611