/*--------------------------------*- C++ -*----------------------------------*\
| =========                 |                                                 |
| \\      /  F ield         | OpenFOAM: The Open Source CFD Toolbox           |
|  \\    /   O peration     | Version:  v1906                                 |
|   \\  /    A nd           | Web:      www.OpenFOAM.com                      |
|    \\/     M anipulation  |                                                 |
\*---------------------------------------------------------------------------*/
FoamFile
{
    version     2.0;
    format      ascii;
    class       volScalarField;
    location    "839";
    object      pa;
}
// * * * * * * * * * * * * * * * * * * * * * * * * * * * * * * * * * * * * * //

dimensions      [0 2 -2 0 0 0 0];


internalField   nonuniform List<scalar> 
9216
(
915.370330858
915.064843933
914.432870364
913.468919233
912.178402556
910.567380924
908.643403112
906.415378577
903.893445512
901.088836994
898.013749176
894.68120195
891.104905007
887.299119453
883.278530741
879.058119619
874.653049391
870.078552019
865.349834218
860.481981559
855.489885025
850.388163349
845.191109418
839.912629255
834.566206269
829.164854408
823.721097727
818.246935124
812.753832802
807.252698257
801.75388328
796.267167178
790.801768929
785.366332404
779.968947682
774.617143838
769.317915296
764.077717319
758.902497758
753.797695092
748.768274232
743.818726222
738.953107064
734.17503834
729.487748126
724.894071896
720.396494621
715.9971514
711.697869918
707.500170284
703.405307079
699.414267982
695.527814714
691.746480132
688.070607485
684.500345799
681.035687014
677.676459621
674.422363411
671.272961495
668.227712577
665.285961616
662.446969681
659.709903647
657.073863807
654.537873065
652.100902536
649.761860725
647.519617394
645.372993173
643.320781935
641.361741238
639.494613402
637.718117072
636.030967113
634.431867494
632.919530025
631.492668653
630.150016999
628.890324048
627.712370384
626.61496518
625.596960967
624.657251761
623.794786149
623.00856631
622.297659073
621.661195315
621.098378119
620.608480715
620.19084756
619.844881424
619.570011919
619.3655741
619.229463869
619.170668201
915.674827786
915.367612122
914.733989309
913.765679919
912.468956293
910.850164056
908.917020273
906.678578158
904.145117002
901.328014064
898.239611213
894.893074991
891.302258606
887.481563071
883.445806077
879.210093629
874.78970355
870.199973621
865.45620413
860.573565304
855.567020304
850.451252029
845.24060566
839.949033061
834.590052592
829.176708473
823.721545156
818.236578979
812.733284616
807.222576775
801.71480695
796.219752031
790.746619726
785.304046173
779.900106759
774.542317556
769.237652805
763.99255087
758.812935952
753.704227109
748.671363337
743.71881478
738.850610247
734.07034983
729.381233991
724.786076869
720.287336154
715.887126423
711.587249055
707.389204998
703.294224049
699.303276531
695.417101322
691.636216034
687.960943311
684.391419207
680.927617428
677.569355778
674.31631817
671.168059177
668.12402382
665.18355041
662.345888261
659.610199141
656.975573174
654.441029299
652.005529684
649.667979615
647.427240773
645.282130956
643.231436523
641.273912295
639.408293413
637.633295676
635.947626962
634.349988164
632.839084246
631.413625817
630.072339804
628.813971642
627.637295459
626.541116765
625.524282015
624.585681627
623.724258714
622.939012239
622.229004676
621.593365051
621.031295351
620.542073484
620.125059508
619.779703322
619.505566312
619.302400169
619.170521038
619.111824308
916.308272207
915.996327061
915.356941335
914.379926556
913.071654209
911.438606796
909.488695751
907.231194667
904.67662061
901.836600466
898.723731758
895.351438163
891.733826115
887.885542485
883.82163909
879.557442468
875.108434267
870.490139191
865.718025579
860.807414116
855.773399684
850.630780572
845.39400023
840.077094798
834.693652043
829.256774196
823.779051055
818.272535274
812.74872701
807.218559359
801.692392589
796.180007486
790.690607924
785.232821472
779.814707779
774.443764731
769.126942299
763.870653118
758.680790385
753.562741744
748.521410243
743.561230608
738.686192363
733.89985769
729.205385894
724.605552101
720.102772326
715.699122311
711.396362487
707.195956311
703.099094464
699.10671212
695.219511797
691.437979079
687.762403672
684.192893232
680.729392326
677.371694187
674.11945745
670.972215837
667.929392719
664.990308897
662.15419519
659.420198617
656.787393334
654.2547856
651.82132344
649.485900824
647.247366445
645.1045275
643.056157944
641.101002205
639.237783178
637.465206131
635.781966614
634.186754687
632.67826283
631.255190524
629.916252149
628.66018187
627.485741419
626.391725172
625.376967661
624.440348683
623.580800358
622.797312085
622.088936999
621.454796691
620.894087136
620.406083687
619.990148023
619.645736995
619.372418487
619.169911208
619.038371055
618.975811018
917.28209558
916.964703894
916.316313226
915.325698702
913.999427
912.344212445
910.368260976
908.081184017
905.493867089
902.618325663
899.467556091
896.055382805
892.39630677
888.505356934
884.397948721
880.089749991
875.596557704
870.934184464
866.118357448
861.164627781
856.088292312
850.904324942
845.627319194
840.271438581
834.850376544
829.377322267
823.864934474
818.325319499
812.770016189
807.209983885
801.655596455
796.116638485
790.60230739
785.121215654
779.68139914
774.2903258
768.954908648
763.681518783
758.47600228
753.343696525
748.28945001
743.317641056
738.432199644
733.636627727
728.934022311
724.32709661
719.818203649
715.409357563
711.102257009
706.898305946
702.798636207
698.804127136
694.915426739
691.132969667
687.456996475
683.88756958
680.424590325
677.067812711
673.816858153
670.671226978
667.630310952
664.693402724
661.859706364
659.128345074
656.498370104
653.968767147
651.538464061
649.206336396
646.97121435
644.831887845
642.787113111
640.835617655
638.976106757
637.207268588
635.52778081
633.93631597
632.431548276
631.0121593
629.676844912
628.424321213
627.253331523
626.162652424
625.151100629
624.21753896
623.36088293
622.580106486
621.874248161
621.242416528
620.683796018
620.197652445
619.78333935
619.440304852
619.168100109
618.966393353
618.835236963
618.771970387
918.600333286
918.275936032
917.615236577
916.605997267
915.25508415
913.569549114
911.558008047
909.230539526
906.598538036
903.674555198
900.472137007
897.005658949
893.290163443
889.341202278
885.174687306
880.806750808
876.253617694
871.531489746
866.656443106
861.644338125
856.510742
851.270862477
845.93949257
840.530964149
835.059110299
829.537234299
823.978085449
818.393839823
812.796086615
807.195818357
801.603425966
796.028697025
790.480818868
784.968381924
779.499389174
774.081266622
768.720876723
763.424533096
758.198017721
753.046598867
747.975051053
742.987675287
738.088320962
733.28040763
728.566948072
723.950570889
719.433544026
715.017797469
710.704946529
706.496313948
702.392952261
698.395664672
694.505025873
690.721401133
687.044965088
683.475718629
680.013505343
676.658025986
673.408852465
670.265439899
667.227138236
664.293202115
661.462800401
658.735024206
656.108894774
653.583370117
651.157351739
648.829690377
646.599192043
644.46462334
642.424717231
640.478178304
638.62368859
636.859913029
635.18550553
633.599114773
632.099390581
630.68499007
629.354584291
628.106864646
626.940549684
625.854391617
624.847183096
623.91776364
623.065026188
622.287923268
621.585473167
620.956765722
620.400968082
619.917330189
619.50519028
619.163979728
618.893227151
618.692563378
618.561993273
618.498755151
920.269635072
919.936374739
919.259909453
918.226775942
916.844250415
915.119839696
913.062700921
910.683524644
907.99436932
905.008483691
901.740126304
898.204384727
894.416998861
890.394191614
886.152509874
881.708677639
877.079462957
872.281559267
867.331481632
862.24547732
857.039450235
851.728897786
846.328859065
840.853872551
835.317942158
829.734510037
824.116435405
818.475978297
812.824788083
807.173895996
801.533711856
795.914024347
790.324005726
784.772216237
779.266615545
773.814574748
768.422890958
763.097803575
757.845012445
752.669697186
747.576537949
742.569736941
737.653041007
732.829764605
728.1028135
723.474708502
718.947609562
714.523339571
710.203408146
705.989034768
701.881171555
697.880525036
693.987577253
690.20260557
686.525701555
682.956788379
679.49563713
676.141881565
672.895031752
669.754486183
666.719542873
663.789409083
660.963210209
658.239997546
655.618755458
653.098407707
650.677823465
648.35582277
646.131181919
644.002638563
641.968896948
640.028633058
638.18050004
636.423133667
634.75515815
633.175192049
631.681854526
630.273771702
628.949583296
627.707949313
626.54755692
625.467127281
624.465422471
623.541252232
622.693480699
621.921032868
621.222900924
620.598150247
620.045925179
619.565454399
619.156055879
618.817140771
618.548215979
618.348887712
618.219138797
618.156247245
922.298443517
921.954261315
921.258333319
920.195689391
918.77413339
917.001756881
914.888406923
912.445549557
909.686080712
906.624124667
903.274831279
899.654175159
895.778761519
891.665642269
887.332145274
882.795718719
878.073792046
873.183654015
868.142348058
862.966584194
857.672666487
852.276434293
846.793215514
841.237789681
835.624359127
829.966526468
824.277277377
818.568967696
812.853314663
807.141391849
801.443628069
795.769809676
790.129087056
784.52998075
778.980395136
773.487632107
768.058407294
762.698867979
757.414612641
752.210711703
747.091729489
742.061747011
737.124385617
732.282831147
727.539858621
722.897857103
718.358854753
713.924543696
709.596304704
705.375231331
701.262153462
697.25765995
693.362120322
689.575705232
685.898405713
682.33005096
678.870324726
675.518780175
672.27485332
669.137874969
666.107081366
663.181623531
660.360575522
657.642941661
655.027662996
652.513623046
650.099653095
647.784537105
645.567016474
643.445794682
641.419542038
639.486900518
637.646488861
635.896907886
634.236746149
632.664585859
631.179009128
629.778604469
628.461973554
627.227738141
626.07454716
625.001083845
624.006072913
623.08828764
622.246556861
621.479771746
620.786892355
620.166953872
619.619072467
619.142450692
618.736382286
618.400255791
618.133557117
617.93587388
617.807174789
617.744816351
924.69715077
924.339787275
923.620393464
922.522175115
921.053596224
919.223481713
917.042539528
914.523198425
911.679388707
908.526310639
905.080204025
901.358122836
897.377719955
893.157045871
888.714364154
884.06798569
879.236122914
874.236764543
869.087570602
863.805786795
858.408176557
852.910968542
847.329816912
841.679771669
835.975256511
830.23005219
824.457284
818.669412689
812.878228615
807.094849181
801.329720456
795.592620886
789.892670158
784.238338005
778.637459661
773.097251871
767.624331031
762.224732988
756.903934221
751.666874191
746.517978693
741.46118405
736.499962021
731.637345269
726.875953248
722.218018338
717.665412063
713.219671191
708.882023543
704.653413258
700.534525366
696.525809395
692.627501887
688.839647578
685.16211916
681.594635462
678.13677802
674.788005957
671.547669242
668.415020322
665.389224287
662.469367615
659.654465736
656.943469506
654.33527085
651.828707707
649.422568513
647.115596364
644.906493059
642.793923146
640.776518117
638.852880832
637.021590273
635.28120665
633.630276925
632.067340706
630.590936551
629.199608612
627.891913584
626.6664279
625.521755116
624.456533383
623.469442966
622.559213706
621.724632355
620.964549715
620.277887502
619.663644852
619.120904404
618.648837853
618.246710858
617.91388688
617.649830112
617.454110791
617.326683849
617.264998587
927.478278525
927.105240205
926.357996287
925.217577403
923.693263734
921.794788404
919.533920588
916.924269234
913.981025386
910.720693058
907.160825019
903.319767882
899.216421948
894.870019606
890.299925048
885.525457093
880.565736216
875.439556112
870.165279361
864.760755814
859.243261472
853.629454741
847.935346459
842.176279879
836.366917257
830.521230373
824.652493532
818.773278445
812.895451337
807.030172713
801.187901546
795.378400895
789.610748969
783.89335103
778.23395729
772.639681414
767.117020989
761.671879413
756.309588989
751.034934993
745.852180627
740.765092718
735.776968078
730.890660387
726.108607488
721.432858924
716.865103557
712.406697055
708.058689064
703.821849799
699.696695856
695.683514968
691.782389522
687.993218593
684.315738351
680.749540692
677.294090023
673.948738152
670.712737321
667.585251435
664.565365608
661.652094187
658.844387423
656.141137025
653.541180785
651.043306538
648.646255652
646.348726273
644.149376516
642.046827768
640.039668249
638.126456931
636.305727907
634.575995256
632.935758426
631.383508128
629.91773272
628.536925039
627.239589615
626.024250185
624.889457456
623.83379699
622.855897151
621.954437009
621.128154113
620.375852047
619.696407682
619.088778045
618.552006716
618.085229657
617.687680419
617.358694287
617.097711759
616.904284553
616.778351197
616.717463547
930.656687853
930.265196182
929.485245518
928.29530262
926.705651878
924.727145096
922.372851281
919.657815688
916.598753217
913.213732878
909.52187274
905.543050179
901.2976329
896.80623431
892.08949558
887.167895967
882.061592272
876.790287707
871.37312949
865.828633507
860.174632986
854.428247079
848.605864249
842.723135248
836.794970923
830.835541496
824.85827557
818.875858881
812.900233776
806.942600872
801.013425379
795.122445192
789.278683407
783.49046473
777.765435964
772.110587487
766.532276374
761.036250679
755.627674593
750.311154397
745.090765114
739.970077828
734.952187606
730.039741943
725.234969615
720.53970979
715.955441242
711.483311446
707.124165331
702.878573443
698.746859222
694.729125138
690.825277414
687.035049075
683.358021143
679.79364179
676.341243384
673.000057357
669.769226959
666.647817951
663.634827405
660.729190793
657.929787591
655.235445656
652.644944641
650.157018724
647.770358906
645.483615144
643.295398527
641.204283686
639.208811618
637.307493012
635.498812198
633.781231727
632.153197633
630.61314534
629.159506181
627.790714473
626.505215059
625.301471243
624.177972997
623.13324536
622.165856904
621.274428168
620.457639951
619.71424138
619.043057629
618.442997237
617.9130589
617.452337688
617.060030602
616.73544118
616.477983362
616.28718786
616.162973608
616.103004502
934.249834276
933.836758151
933.018659822
931.771007614
930.105321744
928.033830367
925.571190831
922.73418978
919.541374649
916.012681163
912.169079712
908.032245311
903.624256143
898.967323423
894.083554232
888.994748379
883.722230096
878.286714811
872.708210456
867.005951284
861.198360474
855.303035878
849.336751908
843.315469992
837.254350971
831.16776477
825.069295639
818.971743776
812.887125954
806.826677889
800.800862026
794.819378529
788.891178764
783.024487746
777.226827591
771.505042505
765.865324999
760.313242769
754.853766099
749.491295733
744.229691307
739.072300333
734.021987789
729.081166217
724.251826291
719.535567673
714.933630028
710.446923953
706.076061579
701.821386554
697.683003088
693.660803717
689.75449548
685.963624189
682.287596563
678.725700008
675.277119955
671.940954687
668.716227714
665.601897802
662.596866831
659.699985728
656.910058746
654.225846408
651.646067432
649.16939997
646.794482472
644.51991448
642.344257591
640.266036832
638.283742609
636.395833374
634.600739083
632.896865496
631.282599322
629.756314179
628.316377308
626.961156967
625.689030398
624.498392262
623.38766342
622.355299935
621.399802166
620.519723836
619.713680953
618.980360466
618.318528563
617.727038502
617.204837895
616.750975372
616.364606577
616.044999156
615.791537062
615.603727146
615.481465204
615.422536917
938.278082418
937.83985233
936.97744016
935.662828128
933.90906203
931.730067148
929.142442416
926.165082963
922.818733362
919.125546042
915.108670931
910.791880117
906.199230928
901.354768533
896.282268344
891.005018687
885.545644438
879.925972412
874.166938357
868.288533728
862.309787659
856.248776746
850.1226526
843.947676269
837.739249598
831.51193715
825.279476926
819.054782674
812.849942909
806.676222092
800.544068585
794.463129014
788.442262772
782.489572425
776.612430651
770.817509555
765.110810385
759.497693246
753.982906739
748.570617763
743.264441656
738.067472882
732.982316296
728.011119024
723.155602849
718.417097005
713.796571195
709.294668613
704.911738686
700.647869204
696.502917443
692.476539891
688.568220173
684.777294794
681.102976393
677.544374277
674.100512087
670.770342543
667.552759342
664.446606328
661.450684189
658.563754945
655.78454461
653.111744363
650.544010672
648.079964725
645.718191571
643.457239305
641.295618617
639.231802936
637.26422939
635.391300709
633.611388164
631.922835574
630.323964365
628.813079639
627.388477161
626.048451175
624.791302898
623.615349588
622.51893401
621.500434168
620.558273159
619.690928988
618.896944224
618.174935365
617.523601787
616.941734194
616.428222464
615.982062811
615.602364246
615.28835405
615.039382354
614.854928798
614.734862739
614.677101379
942.765096564
942.297593293
941.383797068
939.991653157
938.136102694
935.833173223
933.101843064
929.963561054
926.441701548
922.561040157
918.347279004
913.826622368
909.025402926
903.96975651
898.68534359
893.19711697
887.529136806
881.704434815
875.744929025
869.671387991
863.503439534
857.259614109
850.957408615
844.613354074
838.243072197
831.861311231
825.481959905
819.118045612
812.781726936
806.484290308
800.236156981
794.046899356
787.925260492
781.879193115
775.915891563
770.041826381
764.262778041
758.583869503
753.009597985
747.543866457
742.190015373
736.950854945
731.828698129
726.82539432
721.942363705
717.180632151
712.540866464
708.023409785
703.628316804
699.355388409
695.204205304
691.174160085
687.264487277
683.474290857
679.802568877
676.248234876
672.81013593
669.487067265
666.277783524
663.18100687
660.195432213
657.319729934
654.55254652
651.892503611
649.338195894
646.888188373
644.541013432
642.29516812
640.149112015
638.101265952
636.150011846
634.293693751
632.53062024
630.859068127
629.277287493
627.783507943
626.375945974
625.052813327
623.812326158
622.652714868
621.572234411
620.569174909
619.641872393
618.788719515
618.008176063
617.298779137
616.659152875
616.088017592
615.584198259
615.146632238
614.774376248
614.466612247
614.222652396
614.041945786
613.924331752
613.867868559
947.738328204
947.236737967
946.263350747
944.781453209
942.808361741
940.362725973
937.466451961
934.144085701
930.422145504
926.328501167
921.8918291
917.14113833
912.105361349
906.813002581
901.291839248
895.568673132
889.669135269
883.617548038
877.436848945
871.148577471
864.772920212
858.328801676
851.833999972
845.305262039
838.758394292
832.208313909
825.669060383
819.153780522
812.674705434
806.243138965
799.869458457
793.563135329
787.332767169
781.186123156
775.130185167
769.171188763
763.314661161
757.565456462
751.927789021
746.405266201
741.000921348
735.717247528
730.556232174
725.519392685
720.607812843
715.822179979
711.162822701
706.629748981
702.222684229
697.941108934
693.784295253
689.751341948
685.841206995
682.052737282
678.384694877
674.835779511
671.404647049
668.089923905
664.890217496
661.804122988
658.830226696
655.967106603
653.213330537
650.567452573
648.028008261
645.593509258
643.262437916
641.033242305
638.904332107
636.874075702
634.940798706
633.1027841
631.358274035
629.705473298
628.142554383
626.667664043
625.278931176
623.974475873
622.752419422
621.610895087
620.548059422
619.562103944
618.651266936
617.813845201
617.04820558
616.352796082
615.72615647
615.166928201
614.673863611
614.245834264
613.881838444
613.581007559
613.342611356
613.166064623
613.051173298
612.996145816
953.229630267
952.688250412
951.645621668
950.059670836
947.950725974
945.34073578
942.255227949
938.722511597
934.772858945
930.437775752
925.749385552
920.73991109
915.441236261
909.884532951
904.099942754
898.116310854
891.960976463
885.659628969
879.236240084
872.713078344
866.110803364
859.448623931
852.744489793
846.015276772
839.276925383
832.544507966
825.832226332
819.153366363
812.520244401
805.944178105
799.435481017
793.003490585
786.65661929
780.402411075
774.247594975
768.198133742
762.259266136
756.435543904
750.730865748
745.148510433
739.691170529
734.360987367
729.159587373
724.088119594
719.147294338
714.337422747
709.658457254
705.11003269
700.691507694
696.402005892
692.240456105
688.205630768
684.296181715
680.51067254
676.847606886
673.305452202
669.882658699
666.57767346
663.388949846
660.314952518
657.354158556
654.50505525
651.766135226
649.135889644
646.61280016
644.195330398
641.881917551
639.670964746
637.560834619
635.549844524
633.636263619
631.818312002
630.094161934
628.461941123
626.919737941
625.465608426
624.09758486
622.813685703
621.611926639
620.490332498
619.446949804
618.479859689
617.587190961
616.767133078
616.017948832
615.337986563
614.72569174
614.179617788
613.698436046
613.280944803
612.926077361
612.632908871
612.40066194
612.228713357
612.116831888
612.063384748
959.276039287
958.688014093
957.564633948
955.857683188
953.591362991
950.791817252
947.489080989
943.716043509
939.507449548
934.899055258
929.926950772
924.627012283
919.034449498
913.183420326
907.106695976
900.835372984
894.398640893
887.823623274
881.135312843
874.356617145
867.508517893
860.610325634
853.679985627
846.734369818
839.78948599
832.860559301
825.961992474
819.107258272
812.308789237
805.577916722
798.924864347
792.358789239
785.887864848
779.51935713
773.259694112
767.114523488
761.088758279
755.186613633
749.411639284
743.766751643
738.254267586
732.875940512
727.632998381
722.526183366
717.555792774
712.721721201
708.023503896
703.46036127
699.031244181
694.734879362
690.569814052
686.534458743
682.627126896
678.84607061
675.189511395
671.655665461
668.242763217
664.949062934
661.772858783
658.71248368
655.766307535
652.93273165
650.210180116
647.597089048
645.091894612
642.693020652
640.39886675
638.207797416
636.118132978
634.128142632
632.236039929
630.439980856
628.73806452
627.128336347
625.608793617
624.177393111
622.832060599
621.570701898
620.391215204
619.291504412
618.269493124
617.323139065
616.450448622
615.64949125
614.918413503
614.255452488
613.658948569
613.127357181
612.659259645
612.25337292
611.908558254
611.623828575
611.398354332
611.231470169
611.122904073
611.071190017
965.920786128
965.277736461
964.059661572
962.211344768
959.76205552
956.74333801
953.19087317
949.143129667
944.640159414
939.722648695
934.43120675
928.805820364
922.88541351
916.707465885
910.30766491
903.719587671
896.974429418
890.100810177
883.124698374
876.069486209
868.956233248
861.804060541
854.630632065
847.452616667
840.28600759
833.146212681
826.047930273
819.004920236
812.029792812
805.133898438
798.327327017
791.618985712
785.016734131
778.527491814
772.157328498
765.911530736
759.794648291
753.810526564
747.962333911
742.252590539
736.683201733
731.255495058
725.970260516
720.827792548
715.827933378
710.970117733
706.253419287
701.676598894
697.238154414
692.936371286
688.769372668
684.735167596
680.831695667
677.056866831
673.408595229
669.884826338
666.483557049
663.202848686
660.040833256
656.995713517
654.06575763
651.249289346
648.544674769
645.95030679
643.464588273
641.085915083
638.812659878
636.643157564
634.575693049
632.608491848
630.739713815
628.967450149
627.289723632
625.704491908
624.209653565
622.803056681
621.482509502
620.245792918
619.090674364
618.014922833
617.016324639
616.092699599
615.241917313
614.461913229
613.750704235
613.106403522
612.527234551
612.011543953
611.557813276
611.1646695
610.830894319
610.555431969
610.337395458
610.176073212
610.071148363
610.021328984
973.214624064
972.506117982
971.17615586
969.16161561
966.498536145
963.225509129
959.385330411
955.023257562
950.185594092
944.918676881
939.268190274
933.278681144
926.99317493
920.452822756
913.696543836
906.760661714
899.678563548
892.480436032
885.19314577
877.8403313
870.442750767
863.018877963
855.585660057
848.159261697
840.755569679
833.390278277
826.078585844
818.834733696
811.67162064
804.600619408
797.631604271
790.773123421
784.032613807
777.416559339
770.930604479
764.579627167
758.367779851
752.298509636
746.374574062
740.598064037
734.970436318
729.492552808
724.164723723
718.986752509
713.957981562
709.077339343
704.343389773
699.754384533
695.308318158
691.002984991
686.836036254
682.805035152
678.907507839
675.140988428
671.503056624
667.991367079
664.603670083
661.337823632
658.191797345
655.163668963
652.251614496
649.453893152
646.768828401
644.194786488
641.73015377
639.373314146
637.122627775
634.976412084
632.932925902
630.990357294
629.146815412
627.400326466
625.748833669
624.190200865
622.722219457
621.342618195
620.049075395
618.839233162
617.71071322
616.661133953
615.688128253
614.7893618
613.96255138
613.205482886
612.516028697
611.892164149
611.331982904
610.833711052
610.395719849
610.016537024
609.694856673
609.429547633
609.219659905
609.064431169
608.96349582
608.915742627
981.217609733
980.430383764
978.9669055
976.75526855
973.840776913
970.271354694
966.098804091
961.376603902
956.158328303
950.496671175
944.44289684
938.046511774
931.355005136
924.413559453
917.26468525
909.947783488
902.498684357
894.949247995
887.327139563
879.655899868
871.955410148
864.2427777
856.533536584
848.842878956
841.186495768
833.580628204
826.041389137
818.583861617
811.22141341
803.965417404
796.8253775
789.809296878
782.924030061
776.175510986
769.568884367
763.108576227
756.798318466
750.641141835
744.639369596
738.794631373
733.107896814
727.57951951
722.209285283
716.996460827
711.939841491
707.037799973
702.28833821
697.689143818
693.23765143
688.931107652
684.766637138
680.741306664
676.852184234
673.096390678
669.471141984
665.973781276
662.60180007
659.352848966
656.224738463
653.215430915
650.323024965
647.54573395
644.88185991
642.329764857
639.887840966
637.554481259
635.32805221
633.206869523
631.189178051
629.273136532
627.456807473
625.738152203
624.115030807
622.585206479
621.146353726
619.796069828
618.531889011
617.351298833
616.251758336
615.230717501
614.285637588
613.414011878
612.61338639
611.881380129
611.21570452
610.614181697
610.074761435
609.595536545
609.174756663
608.810840371
608.50238571
608.248178936
608.047201255
607.898635212
607.802062108
607.756557301
990.001545076
989.118335543
987.493495011
985.045644879
981.833142833
977.916453712
973.358789044
968.223472009
962.57235059
956.465063574
949.958816854
943.108360312
935.96595007
928.581168612
921.00054825
913.267012761
905.419212422
897.490881549
889.510394317
881.500726306
873.480022128
865.462884359
857.462290924
849.491698166
841.566541187
833.704193993
825.922496824
818.238021769
810.664872501
803.214324431
795.895199696
788.714627629
781.678650953
774.792516324
768.060794614
761.487431949
755.075740667
748.82833763
742.747097729
736.833157412
731.086956662
725.508293465
720.096380947
714.849901059
709.767052999
704.845601581
700.08293026
695.476101535
691.021925696
686.717036202
682.557967672
678.541231897
674.663387497
670.92109992
667.311189528
663.83066663
660.476753126
657.246891193
654.138739976
651.1501617
648.279198909
645.524044723
642.883008152
640.354476469
637.936876705
635.628638148
633.428157622
631.333769057
629.343718529
627.45614556
625.669071019
623.980391506
622.387879734
620.889190156
619.481869022
618.163368053
616.931061078
615.782263038
614.714250897
613.724285983
612.809637246
611.967604931
611.195544089
610.490887463
609.851167261
609.27403551
608.757282698
608.298854576
607.896867017
607.549618946
607.25560339
607.013516687
606.822265268
606.680971748
606.589160263
606.546097859
999.653407943
998.651161922
996.828148944
994.093369344
990.524234059
986.198274839
981.193057587
975.583428652
969.440307291
962.83056546
955.817424958
948.460951876
940.818368758
932.944038403
924.889062479
916.700528272
908.420512968
900.085026329
891.723149504
883.356704872
875.000837501
866.665826164
858.360155255
850.094219756
841.883223177
833.746935908
825.706493202
817.781088161
809.985931919
802.331883063
794.826435587
787.475276034
780.283325526
773.255004055
766.394253024
759.704544327
753.188820454
746.849323828
740.687478939
734.703891764
728.898420727
723.27025253
717.817974414
712.539634312
707.432786028
702.49453288
697.721579287
693.110294228
688.656789105
684.357007179
680.206817958
676.202109284
672.338870884
668.613264972
665.021681328
661.560775702
658.227491494
655.019065468
651.933018955
648.967136428
646.11943366
643.388117849
640.771542184
638.268157345
635.876462366
633.594957228
631.422099309
629.356265577
627.395721966
625.538600911
623.782887355
622.12641294
620.566857537
619.101756957
617.728515636
616.444423214
615.246674189
614.132390053
613.098643446
612.142483857
611.26096436
610.45116872
609.710238227
609.035397622
608.423979598
607.873447438
607.381415555
606.945667759
606.564173203
606.235100076
605.956827133
605.727953096
605.547303556
605.413936704
605.327315027
605.286901644
1010.28028694
1009.12740771
1007.05607633
1003.96680766
999.966081255
995.154807717
989.628206924
983.47403325
976.772514815
969.597456286
962.017673476
954.098283448
945.901517439
937.486924602
928.910913969
920.225697851
911.477784025
902.706247523
893.941126798
885.202447563
876.500549863
867.838460948
859.216775602
850.640348704
842.124368468
833.693708285
825.375799711
817.194402766
809.166242423
801.30091472
793.603257881
786.076530228
778.72418599
771.549748549
764.556522642
757.747569301
751.125604904
744.692602128
738.449542425
732.396442452
726.532506714
720.856240445
715.365545352
710.057787963
704.929831095
699.978064072
695.198448341
690.586582079
686.137789674
681.847231329
677.710020647
673.721338938
669.876536984
666.17121894
662.601305606
659.163076335
655.853189999
652.668686359
649.606969906
646.66577872
643.843141185
641.137323517
638.546771116
636.070046736
633.705768414
631.452550011
629.308946997
627.273409811
625.344246669
623.519596972
621.797415723
620.175468307
618.651334282
617.222418341
615.885966682
614.639087311
613.47877334
612.401928735
611.405396184
610.485986727
609.640510556
608.865808237
608.158781451