/*--------------------------------*- C++ -*----------------------------------*\
| =========                 |                                                 |
| \\      /  F ield         | OpenFOAM: The Open Source CFD Toolbox           |
|  \\    /   O peration     | Version:  v1906                                 |
|   \\  /    A nd           | Web:      www.OpenFOAM.com                      |
|    \\/     M anipulation  |                                                 |
\*---------------------------------------------------------------------------*/
FoamFile
{
    version     2.0;
    format      ascii;
    class       surfaceScalarField;
    location    "60";
    object      phi;
}
// * * * * * * * * * * * * * * * * * * * * * * * * * * * * * * * * * * * * * //

dimensions      [0 3 -1 0 0 0 0];
oriented        oriented;


internalField   nonuniform List<scalar> 
18240
(
-0.000253412051288
0.000251556727119
-0.000476132968585
0.000220904867472
-0.000708315395469
0.000230683213406
-0.000941142480581
0.000230922654018
-0.00117080483774
0.000228224088447
-0.00139654859173
0.000223754247013
-0.00161635439622
0.000218437148148
-0.00183055290731
0.00021212552508
-0.00203731653252
0.000205471894741
-0.00223752868162
0.000198056727504
-0.00242934135195
0.000190606196118
-0.00261361162826
0.000182032496045
-0.00278829623721
0.000173569802096
-0.0029553119895
0.000164696797043
-0.00311237679261
0.000156051981607
-0.00326152946157
0.000146757691295
-0.00340018507699
0.000137754738858
-0.00353147077643
0.000128822950881
-0.00365284440393
0.000120597706134
-0.00376745662544
0.000112089364266
-0.00387230228663
0.000104205745288
-0.00396956942621
9.46994686109e-05
-0.00405539464639
8.53353369102e-05
-0.00413413135508
7.61403674697e-05
-0.00420282686305
6.8368766013e-05
-0.0042656779052
6.02439098279e-05
-0.00431848540294
5.26567423691e-05
-0.00436467934546
4.35999154271e-05
-0.00439982918659
3.51822654075e-05
-0.00442791632141
2.55350956919e-05
-0.00444547221445
1.77826738572e-05
-0.0044551668884
7.21692555346e-06
-0.00445026227938
-4.48140595092e-06
-0.00443816878046
-1.44591792998e-05
-0.00441480216771
-2.27496203157e-05
-0.00438479906241
-3.2229173633e-05
-0.0043435546574
-4.04424580623e-05
-0.00429582117832
-4.97939766675e-05
-0.00423669480822
-5.81459177595e-05
-0.00417119408646
-6.73718347777e-05
-0.00409523312754
-7.48181032302e-05
-0.00401366124475
-8.32335981933e-05
-0.00392071600106
-9.1657260546e-05
-0.00382119911392
-0.000100956319212
-0.00371236701901
-0.000107419169589
-0.00359974858369
-0.000113827147422
-0.00347913405202
-0.000119097779447
-0.00335556376144
-0.000124548946035
-0.0032254036948
-0.000128569215361
-0.003093851366
-0.000132304433755
-0.00295813447769
-0.000134083048967
-0.00282307323322
-0.000135599298724
-0.00268586798407
-0.000135563065037
-0.00255124190416
-0.00013497130126
-0.00241725275686
-0.000132363374166
-0.0022877872887
-0.000129641007482
-0.00216014727854
-0.000126053219767
-0.00203729951002
-0.000122874446224
-0.0019171783514
-0.000118586027039
-0.00180339869768
-0.000113681321832
-0.00169432710863
-0.000107595189871
-0.00159261403137
-0.000101515437987
-0.00149647570328
-9.4727923827e-05
-0.00140773699026
-8.8460879105e-05
-0.0013237251468
-8.2670935592e-05
-0.00124579028723
-7.75868312961e-05
-0.00117262500161
-7.18822734635e-05
-0.00110639559655
-6.58295825615e-05
-0.00104499157872
-6.01824978613e-05
-0.000988145804246
-5.63959291613e-05
-0.00093383335898
-5.31612225104e-05
-0.000882634489093
-5.06911772414e-05
-0.000833729646958
-4.7822664075e-05
-0.000788091012624
-4.50935620313e-05
-0.000744084705761
-4.29922048546e-05
-0.000703693723633
-3.98388456492e-05
-0.000667434057146
-3.53024998058e-05
-0.000636525897114
-3.03673281144e-05
-0.000608112635355
-2.75246551873e-05
-0.000579607453834
-2.794905911e-05
-0.000550237090283
-2.85163925264e-05
-0.000524568973768
-2.51029611278e-05
-0.000504737045963
-1.8991091282e-05
-0.000486784301385
-1.73564894411e-05
-0.00046563006985
-2.02917444064e-05
-0.000443989116968
-2.09934632935e-05
-0.00042728850258
-1.58115979316e-05
-0.000415839050587
-1.06178998173e-05
-0.000396655323752
-1.80567024946e-05
-0.000362592573091
-3.28342008926e-05
-0.000321454366231
-3.95999972346e-05
-0.00027554069634
-4.42621378898e-05
-0.000216043430319
-5.77211116337e-05
-0.000142320532439
-7.18678303787e-05
-6.3752551634e-05
-7.66807167419e-05
-6.28430485182e-05
-0.000224801171415
0.00047473108769
-0.000493351511771
0.000487671169825
-0.000749828132352
0.000485449195424
-0.00100064824161
0.000479922981903
-0.00124651355969
0.000472386161679
-0.00148727555676
0.00046266988734
-0.00172182961729
0.000451300094818
-0.00194983373833
0.000438259330929
-0.00217003072814
0.000423995173847
-0.0023824028491
0.000408538298467
-0.00258599301075
0.000392544131009
-0.00278159319229
0.000375724234728
-0.0029681181822
0.000358469173309
-0.00314524166052
0.000339897546033
-0.00331268599987
0.000321902926877
-0.00347140070073
0.000303542202507
-0.00362017336538
0.000284977581691
-0.00375996640788
0.000266688555354
-0.00388967537518
0.000248810181335
-0.00400979982984
0.000230300458375
-0.00411964563449
0.000212623947389
-0.00422199233488
0.000195161687487
-0.00431495862404
0.000176954390241
-0.00439927854392
0.000158617765266
-0.00447314912807
0.000140987837955
-0.0045379044884
0.000123218911349
-0.00459274111382
0.000106352733202
-0.0046399103922
8.90706345322e-05
-0.00467825149885
7.25137171036e-05
-0.00470865522163
5.43437469139e-05
-0.00472710734714
3.53699387736e-05
-0.00473597410075
1.46175886334e-05
-0.00473535687372
-5.80093642551e-06
-0.00472600156036
-2.51326526105e-05
-0.00470524797153
-4.40301583655e-05
-0.00467510469936
-6.35248620436e-05
-0.00463421143143
-8.1677886321e-05
-0.00458442226957
-0.000100555910098
-0.0045237187618
-0.000119005641873
-0.00445389776499
-0.000137979705319
-0.00437265398331
-0.000156030225953
-0.00428278559097
-0.000173695033385
-0.0041845498147
-0.000189681293615
-0.00407972593519
-0.000206172493271
-0.00396533147972
-0.000221433849518
-0.00384445081069
-0.000234898411001
-0.00371614637394
-0.000246868928109
-0.00358313339396
-0.000257560860851
-0.00344423580343
-0.000266796352702
-0.0033026138703
-0.000273751673025
-0.00315827996957
-0.000277628555884
-0.00301357608607
-0.000279979721929
-0.00286853783322
-0.000279721939272
-0.00272538333874
-0.000277680207402
-0.0025829697893
-0.000273833887054
-0.00244395624547
-0.000268112520333
-0.00230871393095
-0.000260312717729
-0.00217954346035
-0.00025142580402
-0.00205485976672
-0.000242263916403
-0.00193483550919
-0.000233026610683
-0.00181979679322
-0.000221621047699
-0.00171150589403
-0.000209089412589
-0.00160928710258
-0.000195945687074
-0.00151414919696
-0.000182858671553
-0.00142581753969
-0.000170022074744
-0.00134427196534
-0.000158368984174
-0.00126733133845
-0.000147857700109
-0.00119415081147
-0.000138228639046
-0.0011240460633
-0.000129348203032
-0.00105911498126
-0.000120537716231
-0.00100066584358
-0.00011068545392
-0.000947585737477
-0.000102975389474
-0.000898313878455
-9.61804132106e-05
-0.000852089868277
-9.05276906083e-05
-0.000805739591723
-8.84641813637e-05
-0.000760781581948
-8.40203767896e-05
-0.000714907435299
-8.03322113847e-05
-0.000667282978873
-7.72569483592e-05
-0.000625228786865
-6.87815485421e-05
-0.000593280313765
-5.91902763159e-05
-0.000565763393126
-5.52472433831e-05
-0.000536891690119
-5.32759381016e-05
-0.000507321991316
-4.78015918718e-05
-0.000479867932524
-4.41086934778e-05
-0.000454916080157
-4.44964028839e-05
-0.000430354540705
-4.48286575609e-05
-0.000413214776458
-3.21400748883e-05
-0.000401857317541
-2.11241093375e-05
-0.000389463134638
-2.94618287617e-05
-0.000371486558505
-4.95722135333e-05
-0.000338595687222
-7.09551161851e-05
-0.000294586752196
-8.66819434708e-05
-0.000241225934217
-0.000109325139838
-0.000171205437182
-0.000139890394426
-8.02180384809e-05
-0.000165751022252
-0.000142231012152
-0.000238526190826
0.00071159869255
-0.000499492364984
0.000746869770536
-0.00075693213093
0.000741129153952
-0.00101022086889
0.000731422401886
-0.00125877140387
0.000719172749688
-0.00150172471109
0.000703823029856
-0.00173817548153
0.000685986521502
-0.00196757972916
0.000665855238323
-0.00218934023639
0.000643993393047
-0.00240315353088
0.000620537526181
-0.00260815197033
0.000595785766491
-0.00280399482386
0.000569750548868
-0.00299040880267
0.000543136046255
-0.00316895912151
0.000516632901786
-0.00333803931154
0.000489249988592
-0.00349683931854
0.00046053595562
-0.00364623199361
0.000432661763843
-0.0037861349827
0.000404804495193
-0.00391611436051
0.000377117283944
-0.00403692407051
0.000349354953012
-0.00414778599908
0.000321862318778
-0.0042491563521
0.000294822499193
-0.00434188139915
0.000268117714592
-0.00442605894351
0.000241144081083
-0.00450173551231
0.000215178999237
-0.00456965373757
0.000189561646122
-0.00462831817359
0.000163627127299
-0.00467706885948
0.000136343214875
-0.00471493273216
0.000109103607046
-0.0047440994485
8.21509895499e-05
-0.00476365926077
5.37923620773e-05
-0.00477459789248
2.43336881321e-05
-0.00477589649409
-5.48570371743e-06
-0.00476646791847
-3.56268058657e-05
-0.00474600354598
-6.53083954964e-05
-0.00471490719444
-9.55123101041e-05
-0.00467270991762
-0.000124510058114
-0.00462076620281
-0.000153210183959
-0.00455856790577
-0.000181653920934
-0.00448674158925
-0.000210325553052
-0.00440515482347
-0.000237882404148
-0.00431600242407
-0.000263168206655
-0.00421803829246
-0.000287721364427
-0.0041130146242
-0.000311324004904
-0.00400001816108
-0.000334316282621
-0.00387989055331
-0.000354967602572
-0.00375266262827
-0.000373805184587
-0.00361984352496
-0.000390146370713
-0.0034829415395
-0.000403247649371
-0.00334077132531
-0.000415529020495
-0.00319366428971
-0.000424147549161
-0.00304493970207
-0.000428177093416
-0.00289515527675
-0.000428808522226
-0.00274650480374
-0.00042569797041
-0.00259973895943
-0.000419820563181
-0.00245624996321
-0.000410886594515
-0.00231697798574
-0.000398745149314
-0.00218346212595
-0.00038416822875
-0.00205617141416
-0.000368676630891
-0.00193500351069
-0.000353382522301
-0.00181975189556
-0.000335980964035
-0.00171146758014
-0.000316546108083
-0.00161100817019
-0.000295515776154
-0.00151881717462
-0.000274219451189
-0.00143390280255
-0.000254050844705
-0.00135578560548
-0.000235648084721
-0.00128405797117
-0.000218696028609
-0.00121857184169
-0.000202869755606
-0.00115857476626
-0.000188454909072
-0.00110265561305
-0.00017559640396
-0.00104721739362
-0.000165231770443
-0.000993954584702
-0.000155363409569
-0.000941559057576
-0.000147690389023
-0.000892457264877
-0.000138772822377
-0.000850087281492
-0.000129971125162
-0.000811429188399
-0.000121822653294
-0.000774445326722
-0.000116467275374
-0.000738371339725
-0.000112487166804
-0.000697239108159
-0.000109081186879
-0.000648112153698
-0.000107488223436
-0.000598775854384
-0.000103784064007
-0.000557555986467
-9.36980393851e-05
-0.000523213231601
-8.13591782601e-05
-0.000491850296843
-7.47205548259e-05
-0.000464049723244
-7.15322147177e-05
-0.000441976842023
-6.61156715228e-05
-0.000415101634807
-5.81745620246e-05
-0.000383465368399
-5.19164023303e-05
-0.000365896732971
-4.60609068943e-05
-0.000363094315074
-5.11656399959e-05
-0.000334357592019
-9.82444957914e-05
-0.000283048762518
-0.000136395927514
-0.000228935470671
-0.000161654107648
-0.000160120707319
-0.000206942540125
-8.00109183957e-05
-0.000244154958658
-0.000221359889317
-0.000245070019042
0.000954997457539
-0.000506870216386
0.00100690160156
-0.00076665143091
0.000999136483338
-0.0010228563028
0.000985843491924
-0.00127417211249
0.00096870898553
-0.00151963108053
0.000947492305056
-0.00175838401419
0.000922956339592
-0.00199000734639
0.000895683949236
-0.00221364665211
0.000865847434606
-0.00242855783364
0.000833651384735
-0.00263433789366
0.000799781340961
-0.00283088728709
0.000764503320195
-0.00301883639628
0.000729304950814
-0.00319736189054
0.000693365505375
-0.00336572677156
0.000655844348706
-0.00352493845166
0.000617966547669
-0.00367432628063
0.000580298320668
-0.00381411651327
0.000542835747846
-0.00394415074687
0.000505430803676
-0.00406498634826
0.000468466215043
-0.00417685736612
0.000432055829275
-0.00427924228236
0.000395529562194
-0.00437262076103
0.000359873579716
-0.00445830304796
0.000325207945508
-0.00453584541726
0.000291169681708
-0.00460410164599
0.000256278698475
-0.00466231949512
0.000220385347248
-0.00471187199002
0.000184457262614
-0.00475170968145
0.000147595409829
-0.0047804136939
0.000109537525871
-0.00479910672205
7.12723267926e-05
-0.00480799524588
3.20473754181e-05
-0.00480722495935
-7.31752001577e-06
-0.00479733957087
-4.65291549628e-05
-0.00477727015691
-8.6272189061e-05
-0.00474796937608
-0.000125659267146
-0.00470818955037
-0.000165008802557
-0.00465676057409
-0.000205302097877
-0.00459561968109
-0.000243329533521
-0.00452912709355
-0.000277291552388
-0.00445498602079
-0.000312361411964
-0.00436922831625
-0.000349203568546
-0.00427129720489
-0.000385791791285
-0.00416156413492
-0.000421134236905
-0.00404271955205
-0.000453107848093
-0.00391664379962
-0.000480930313464
-0.00378343502666
-0.000506777789449
-0.00364421590475
-0.00052907815149
-0.00350018100555
-0.000546881066225
-0.00335434409245
-0.000560923322375
-0.00320591284618
-0.000572036253136
-0.0030537409057
-0.000579775117175
-0.00290014140587
-0.000581752825718
-0.00274799502318
-0.000577167142942
-0.00259773343556
-0.000569336242858
-0.00245061029545
-0.000557252865562
-0.00230739210272
-0.000541150175063
-0.00216920373762
-0.000521548914456
-0.00203784624173
-0.000499191865751
-0.00191409480909
-0.000476306749383
-0.00179823457534
-0.000450990773742
-0.00169040963486
-0.000423545522021
-0.00159097658952
-0.000394094656342
-0.00149963384678
-0.000364736829984
-0.00141594699497
-0.000336881806563
-0.0013395959297
-0.000311166730824
-0.001270287663
-0.000287138880531
-0.00120678650471
-0.000265531457931
-0.00114805973448
-0.00024630902641
-0.00109446614195
-0.000228341889576
-0.00104606950246
-0.000212740642385
-0.00100057260277
-0.00020000173244
-0.000955330640986
-0.000192044984753
-0.000912729123905
-0.000180515832166
-0.000875023754226
-0.000166788662845
-0.000840458894965
-0.000155517123859
-0.000806730117253
-0.000149316444458
-0.000772353154866
-0.000146006310738
-0.000738703280136
-0.000141858688851
-0.000705698164937
-0.000139627812731
-0.000669817023966
-0.000138787606247
-0.000626001235233
-0.00013663917639
-0.000578386778057
-0.000128143515881
-0.000531336346302
-0.000120945668108
-0.000490229915896
-0.000111828000163
-0.000452442666902
-0.0001030428533
-0.000414841366605
-9.48867368425e-05
-0.000384204941105
-8.16590679419e-05
-0.000348865751563
-8.04405521225e-05
-0.000309688149392
-8.92892410064e-05
-0.000297206451054
-0.000109437534867
-0.000258042946708
-0.000173998647328
-0.000192896554494
-0.00022521844947
-0.000137975698576
-0.000260214443637
-7.40169393424e-05
-0.00030641989683
-0.000294564778152
-0.000250724329272
0.00120404529634
-0.000516449435976
0.00127085800406
-0.0007802300421
0.001261138345
-0.00104040763827
0.00124423760884
-0.0012953457991
0.00122186324545
-0.00154414089791
0.00119449924032
-0.00178610803242
0.00116313523306
-0.00202030200084
0.00112808471389
-0.00224583290654
0.00108958652708
-0.00246241284486
0.00104843517701
-0.0026696234657
0.00100519936418
-0.00286796028743
0.000961043424346
-0.00305671925165
0.000916272270616
-0.00323490574666
0.000869758748681
-0.00340350563954
0.000822660928868
-0.00356262382705
0.000775302854611
-0.00371189622735
0.000727803657924
-0.00385176302404
0.000680942361617
-0.00398270455215
0.000634633423977
-0.00410415823344
0.00058819267951
-0.0042151932032
0.000541391502876
-0.00431768617813
0.000496340420534
-0.00441248615272
0.000453025803785
-0.00449932444108
0.000410422770687
-0.00457698468953
0.000367251096625
-0.00464519079212
0.000322941118591
-0.00470388188907
0.000277588904858
-0.00475191377325
0.000231046158533
-0.00479032474981
0.000184630512274
-0.00481930779264
0.000137199905515
-0.00483905193242
8.97727319756e-05
-0.0048507877196
4.2603605354e-05
-0.00485263454626
-6.5649530389e-06
-0.00484329339416
-5.6894187279e-05
-0.00482302877264
-0.000107468825977
-0.00479188776283
-0.000157653781758
-0.00475367500588
-0.000203977154696
-0.00471008997419
-0.000249559256989
-0.00465634138875
-0.00029764460334
-0.00458768003846
-0.000346430528536
-0.00450521326554
-0.000395194262196
-0.0044117453405
-0.000442944874206
-0.00430876420365
-0.000488935738087
-0.00419900050587
-0.00053097009653
-0.00408033169039
-0.000571739709801
-0.0039518045859
-0.00060933397025
-0.00381499929787
-0.000643361485441
-0.00367122568002
-0.000672547270349
-0.00352242489589
-0.000695292563307
-0.00336935887272
-0.000713530698426
-0.00321450978372
-0.00072635335782
-0.00305957703396
-0.000734120819664
-0.00290352550399
-0.000737154169582
-0.00274752792411
-0.000732473481106
-0.00259304677027
-0.00072307504612
-0.00244166136156
-0.000707866183954
-0.00229473338178
-0.000687280858487
-0.00215308078726
-0.000662397842727
-0.00201963198398
-0.000631827065589
-0.00189457091317
-0.000600565447334
-0.00177815845411
-0.000566585153796
-0.00167158339432
-0.000529306771852
-0.00157429184643
-0.000490561550555
-0.00148421516062
-0.00045398257123
-0.00140201814914
-0.000418248910364
-0.0013264805953
-0.000385854608906
-0.00125607287409
-0.000356710548557
-0.00119298169705
-0.000327762880206
-0.00113609128217
-0.000302358027362
-0.00108398743346
-0.000279574218916
-0.00103482213328
-0.00026105742344
-0.00098979487857
-0.000244154729834
-0.000951222583637
-0.000229759538504
-0.000915802761469
-0.000215046188253
-0.000881646986032
-0.000200058332136
-0.00084393640572
-0.00019233914169
-0.000803199165192
-0.000189186866009
-0.00076601639769
-0.00018232075035
-0.000732824047817
-0.000174175854235
-0.000700332289528
-0.000171266131189
-0.000664949993279
-0.000173298540705
-0.000624516553579
-0.000176215898011
-0.000589126685844
-0.000162669114695
-0.000562303975561
-0.000146916482766
-0.000530953276441
-0.000142283478239
-0.000494001402539
-0.000139049277427
-0.000447200980913
-0.000140744845371
-0.000381707475364
-0.000146233379899
-0.000325201598954
-0.00013601180833
-0.000280603052596
-0.000132826066609
-0.000253980146652
-0.000134930002984
-0.000240974912064
-0.000185565652435
-0.000188181605039
-0.000276328439094
-0.000120013861193
-0.000326880983861
-6.32118799114e-05
-0.000361759045046
-0.000356988573474
-0.000256896007451
0.00145926280574
-0.00052838385623
0.00154057622568
-0.000797682036881
0.00152865679108
-0.00106298573973
0.00150775818105
-0.0013226477227
0.00147974024144
-0.00157593668903
0.00144600037952
-0.00182161670846
0.00140702462313
-0.00205874312413
0.00136341785427
-0.00228689308417
0.00131594120344
-0.00250555654177
0.00126530142447
-0.00271453959653
0.00121238394975
-0.00291415023925
0.00115885432873
-0.00310329047417
0.00110361307542
-0.00328198826504
0.00104665942574
-0.0034509523002
0.000989831195468
-0.00361029012908
0.000932853052126
-0.0037603480785
0.000876082753313
-0.00390071684706
0.000819543038238
-0.00403079826283
0.000762961825483
-0.00415119709705
0.000706855140894
-0.00426278456772
0.000651262883892
-0.00436635849421
0.000598219830859
-0.00446225624205
0.000547255775716
-0.00454973177589
0.000496261304417
-0.00462692284612
0.000442842894785
-0.00469365394393
0.000388114842775
-0.00475079395285
0.000333219308206
-0.00479882984574
0.000277624152548
-0.00483823876321
0.000222640275161
-0.0048700924289
0.000167715502184
-0.00489236869938
0.000110780450862
-0.0049031653695
5.22021700418e-05
-0.00490361316683
-7.23930999992e-06
-0.00489481808193
-6.6734549774e-05
-0.00487776984871
-0.000125478142735
-0.00485379839503
-0.000182502803344
-0.00481880434888
-0.000239754714469
-0.00477082589074
-0.000298228720277
-0.00471090855453
-0.000358150762718
-0.00463809586874
-0.000419732785254
-0.00455428897053
-0.000479386384216
-0.0044623171473
-0.000535199873133
-0.00435978877323
-0.000591641784109
-0.00424424791124
-0.000646584355732
-0.00411912729396
-0.000696831749572
-0.00398683069917
-0.000741505064937
-0.0038486382714
-0.000781330663051
-0.00370330091257
-0.000817576228252
-0.00355004653697
-0.00084815423086
-0.00339139432966
-0.000871716072875
-0.00323061588028
-0.000886596204958
-0.00306952110821
-0.000894616157349
-0.00290791322887
-0.000898108169123
-0.00274693293949
-0.000892745572158
-0.00258927283803
-0.000879994818747
-0.00243628496842
-0.000860086323043
-0.00228714715691
-0.000835643356666
-0.00214450835001
-0.000804263949039
-0.0020087911741
-0.00076677058146
-0.00188755805817
-0.000721006781332
-0.00178135730832
-0.000671994477809
-0.00167934833928
-0.000630497773786
-0.00158457813673
-0.000584507882228
-0.00149368009927
-0.000544049392424
-0.00140726085696
-0.000503823137631
-0.0013304928663
-0.000461785540676
-0.00126038970126
-0.000425953104004
-0.00119461445435
-0.000392698213472
-0.00113580026185
-0.000360304954767
-0.00108494416434
-0.000329584299208
-0.00104026200555
-0.000304871027822
-0.00100055463292
-0.000283006088118
-0.00096470952571
-0.000264721251271
-0.000927314062058
-0.000251556082915
-0.000885452196986
-0.000241023227541
-0.000847536779466
-0.0002293779499
-0.000815113686801
-0.000220727586701
-0.000781787564336
-0.000214749896884
-0.000741546559414
-0.000213550526297
-0.000698520583868
-0.000213419674778
-0.00066506450207
-0.000205889432676
-0.000637602945638
-0.000202785698253
-0.000597579618636
-0.000201798974018
-0.000557626388053
-0.00018598610075
-0.000520141370159
-0.000178858332759
-0.000473042159355
-0.000185214799861
-0.000430589486068
-0.000182285371357
-0.00039570730941
-0.000180155939229
-0.000346342807543
-0.000184330581417
-0.000285795894066
-0.000192296616738
-0.000223395961245
-0.00019620734108
-0.000197851693288
-0.00020985979878
-0.000179970685575
-0.00029279289502
-0.000116950123087
-0.000388398308595
-6.00061206246e-05
-0.000417255666512
-0.000416272507054
-0.000264158943729
0.00172174415769
-0.000542986492551
0.00181763561521
-0.000819270447227
0.0018031624102
-0.00109099281634
0.00177769857131
-0.00135679011035
0.00174375344491
-0.0016152871897
0.00170270989568
-0.00186512711501
0.0016550741865
-0.0021060961467
0.00160259267514
-0.00233739062867
0.00154543893013
-0.00255845743548
0.00148456813803
-0.00276979416934
0.00142191853561
-0.00297065025096
0.00135790501901
-0.00316033178226
0.00129148992712
-0.00334037448268
0.00122489700926
-0.00351026313551
0.00115791821237
-0.00366951839114
0.00109031077466
-0.0038185219107
0.00102329757537
-0.00395752270389
0.0009567650206
-0.00408699349491
0.000890667678732
-0.00420697950245
0.00082509107666
-0.0043194359123
0.000761987742679
-0.00442452580009
0.000701597730131
-0.00452067454279
0.000641719119984
-0.00460637628714
0.000580307846861
-0.00468204420302
0.000516893656421
-0.0047488235816
0.000453316908167
-0.0048067048826
0.000389570701869
-0.00485736741236
0.000326806682214
-0.00489934592605
0.000263196131767
-0.00493039608793
0.000197405172973
-0.00495149429135
0.000130584395168
-0.00496319494522
6.2677978265e-05
-0.00496683681205
-4.74884106747e-06
-0.00496110927526
-7.35368938703e-05
-0.00494718052073
-0.000140398295456
-0.00492444358054
-0.000206143741513
-0.00488768717468
-0.000277321559562
-0.00483633839696
-0.000350288875119
-0.00477352862134
-0.000421571422424
-0.00470256530734
-0.000491204310218
-0.00461993783413
-0.000562415549986
-0.00452331802593
-0.000632115735572
-0.00441576860615
-0.000699376362171
-0.00429958099744
-0.000762849891397
-0.00417364654569
-0.000822737570084
-0.00403627172081
-0.00087874873893
-0.00388934072157
-0.000928035544037
-0.00373516852749
-0.000971429949446
-0.00357803597769
-0.00100488485195
-0.00341608166699
-0.0010331925598
-0.00324844396387
-0.00105368271332
-0.00308044648727
-0.00106200008605
-0.00291235281885
-0.00106552663061
-0.00274659652625
-0.0010577957045
-0.00258224132987
-0.00104360870503
-0.00242441340682
-0.00101717857156
-0.00227200114701
-0.000987317527941
-0.00213164162681
-0.000943874063216
-0.00201468672502
-0.000882962716344
-0.00190116645112
-0.000833745368521
-0.00179207370322
-0.000780286758656
-0.00168538085236
-0.000736377115284
-0.00158299521517
-0.000686075286446
-0.001488814839
-0.000637402601095
-0.00140284183997
-0.000588966045422
-0.00131918215265
-0.000544601085555
-0.00124434531213
-0.000499957850424
-0.00117785386004
-0.000458333914543
-0.00111867975558
-0.000418635026754
-0.00106440357563
-0.000383005965056
-0.00101722163361
-0.000351202403712
-0.000978122851902
-0.000321248296565
-0.000942667234125
-0.000299312296946
-0.000908359652395
-0.000284983127115
-0.000872961766756
-0.000275538231131
-0.000840445277385
-0.000261013559325
-0.000811659968461
-0.000248615674827
-0.000780339962772
-0.000245177568838
-0.000750612384137
-0.000242391220951
-0.000722918763189
-0.000240223685898
-0.000688793808755
-0.00023910730293
-0.000654277864728
-0.000236384599891
-0.000623620452607
-0.000231524412699
-0.000581510855216
-0.000227165054258
-0.000533979934332
-0.000225444729532
-0.000488949501439
-0.000229287136351
-0.000433032785792
-0.000237231027747
-0.000383127092733
-0.000229072439927
-0.000329411226934
-0.000236996042595
-0.000281533429518
-0.000239119779604
-0.000223592408897
-0.000253025012849
-0.000166103286874
-0.00026621437748
-0.000152199814956
-0.000305420525866
-0.000110090491167
-0.000429106195009
-5.60249614523e-05
-0.000469965707866
-0.000471548566761
-0.00027280073312
0.00199286954816
-0.000560627959443
0.00210369856589
-0.000845490893196
0.00208624955908
-0.00112484606003
0.00205527496758
-0.00139759300255
0.00201471834766
-0.00166206038775
0.00196539220289
-0.00191742141596
0.00190864561424
-0.00216311505917
0.00184649251635
-0.00239810917135
0.00177863463198
-0.00262228037114
0.00170693755857
-0.00283559776369
0.00163342895941
-0.00303720323595
0.00155770147233
-0.00322844507668
0.00148091984644
-0.00340887258677
0.00140351292554
-0.0035779627201
0.00132519773055
-0.00373666211076
0.00124720458065
-0.00388511008687
0.00116994602494
-0.00402362550868
0.00109349052269
-0.00415257141071
0.00101783458683
-0.00427272846059
0.000943483469296
-0.00438563455913
0.000873144647034
-0.00449061238734
0.000804846568666
-0.00458553049684
0.00073493229038
-0.00466996009853
0.000663064365217
-0.00474569294683
0.000590987754132
-0.00481288008528
0.000518906095043
-0.00487301428521
0.000448150690746
-0.00492443022167
0.00037671888325
-0.00496555929165
0.000302877914145
-0.00499742061308
0.000227878409168
-0.00501969152643
0.000151532727129
-0.00503446405259
7.61933256468e-05
-0.00503975945928
-6.36168549678e-07
-0.00503736512664
-7.70377741219e-05
-0.00502657872075
-0.000152206787178
-0.00500078477506
-0.000232870681145
-0.00496176146836
-0.00031718092282
-0.00491325093854
-0.000399537499221
-0.0048532519777
-0.000482205137805
-0.00477839153549
-0.000566592749818
-0.00469069592107
-0.000650530274209
-0.0045914960092
-0.000731621854706
-0.00448360128179
-0.000807462884927
-0.00436360929924
-0.000882920267725
-0.00423033300964
-0.000955979969802
-0.00408692512811
-0.00102201910847
-0.0039369884256
-0.00107773169073
-0.00377874654221
-0.00112933768237
-0.00361089575537
-0.00117231514808
-0.00344120754417
-0.00120237825748
-0.00326761516646
-0.00122670001706
-0.0030914875252
-0.00123748659915
-0.00291504729589
-0.00124128878702
-0.00274003976985
-0.00123209284445
-0.00256880599534
-0.00121413624487
-0.00240598257502
-0.00117928632473
-0.00226523009548
-0.00112734438716
-0.00213934802237
-0.00106901083863
-0.0020108729188
-0.00101067410297
-0.00188436057504
-0.000959475559988
-0.0017672129891
-0.000896647676224
-0.0016588058659
-0.000843991043626
-0.00156187661669
-0.000782208242248
-0.00146962073335
-0.000728852383346
-0.00138752203093
-0.000670250025347
-0.00131462225564
-0.000616677707717
-0.00124676897144
-0.000566968864757
-0.00118385580971
-0.000520402523582
-0.00112235600481
-0.000479273486442
-0.00107128546696
-0.000433214854616
-0.00102400465145
-0.00039761780934
-0.000977978604352
-0.000366401912997
-0.000941001148236
-0.000335416178595
-0.000908245106625
-0.000316860183791
-0.000878902858307
-0.000303984280759
-0.000846311850848
-0.000292701084812
-0.000813168498602
-0.000280846396367
-0.000781591116509
-0.000275854992316
-0.00074663336036
-0.000276462657167
-0.000708954834165
-0.000277002710288
-0.000677730241494
-0.000269421369423
-0.000642541319696
-0.000270637965641
-0.00060639760455
-0.000266729037347
-0.000573937573673
-0.000258687397597
-0.000538635414698
-0.000259779907001
-0.000503424807376
-0.000263523482271
-0.000459125470385
-0.000280498923777
-0.00039493805227
-0.0002922062086
-0.000329769900198
-0.000301117962691
-0.000260939389019
-0.000306864765104
-0.000219192262198
-0.000293678543348
-0.000166151642644
-0.000318129391951
-0.000127877439039
-0.00034255996158
-0.000109362365622
-0.000446237874109
-5.23781402127e-05
-0.000525551678021
-0.000523230265996
-0.000283105033577
0.00227430426115
-0.000581705949777
0.00240053836963
-0.000876689621941
0.00237946292867
-0.00116533843773
0.00234214908607
-0.00144658768527
0.00229418953717
-0.00171857229731
0.00223559422333
-0.00198020569149
0.00216849177137
-0.00223082591018
0.0020953193295
-0.00246968131771
0.00201569210293
-0.00269676751407
0.00193221962429
-0.00291200316554
0.0018468558533
-0.00311549038926
0.00175937428931
-0.0033074169495
0.00167102933775
-0.0034872125106
0.00158148924122
-0.00365590643032
0.001492073944
-0.00381392037277
0.00140340299829
-0.00396157158824
0.00131578758363
-0.00409921893793
0.00122933486546
-0.00422705507203
0.00114387830552
-0.00434720639066
0.0010618540335
-0.00446015842402
0.000984330109228
-0.00456387923061
0.000906819381243
-0.00465764636416
0.000826976546188
-0.00474207517507
0.000745798708531
-0.00481806266054
0.000665315655686
-0.00488730344462
0.000586523861716
-0.00494805019749
0.000507318369548
-0.00499857842119
0.00042571702558
-0.00504065767197
0.000343481372103
-0.0050739463845
0.000259750332337
-0.00509926226746
0.000175491468207
-0.00511593754254