/*--------------------------------*- C++ -*----------------------------------*\
| =========                 |                                                 |
| \\      /  F ield         | OpenFOAM: The Open Source CFD Toolbox           |
|  \\    /   O peration     | Version:  v1906                                 |
|   \\  /    A nd           | Web:      www.OpenFOAM.com                      |
|    \\/     M anipulation  |                                                 |
\*---------------------------------------------------------------------------*/
FoamFile
{
    version     2.0;
    format      ascii;
    class       volScalarField;
    location    "7";
    object      p;
}
// * * * * * * * * * * * * * * * * * * * * * * * * * * * * * * * * * * * * * //

dimensions      [0 2 -2 0 0 0 0];


internalField   nonuniform List<scalar> 
9216
(
907.947447253
907.871284945
907.69981781
907.473257876
907.284290056
907.086756163
906.806572169
906.463577877
905.994819965
905.383810357
904.89192393
904.498806625
903.98576734
903.344711601
902.580057572
901.685328224
900.648461864
899.4629367
898.13853335
896.813375917
895.424153655
893.845548168
892.08125928
890.157621234
888.079085328
885.861289968
883.503233901
881.018345396
878.40631221
875.682245604
872.845481073
869.909643765
866.875363164
863.757608541
860.556730368
857.286663203
853.948462634
850.556463875
847.111535501
843.627435218
840.105922653
836.562563075
833.000205588
829.433545557
825.864065291
822.305596815
818.759329209
815.238947501
811.745401883
808.29112622
804.875744799
801.510328602
798.193368436
794.934747964
791.731960586
788.593803043
785.516857979
782.508827063
779.565351107
776.692647272
773.88485552
771.14413601
768.453347028
765.741451918
763.123756922
760.944828689
758.913509852
756.781900873
754.673600997
752.621652642
750.636365892
748.721259046
746.878822266
745.109992337
743.416060995
741.797420056
740.254919572
738.788724629
737.399398291
736.086962143
734.851753171
733.693675264
732.612829704
731.609073244
730.682434422
729.832504228
729.058789512
728.360471998
727.736372608
727.184641228
726.703567216
726.295048993
725.964554557
725.703331867
725.511096372
725.402750149
908.163855128
908.019474774
907.825203551
907.604951536
907.397202762
907.21181844
906.947513094
906.643524917
906.272158256
905.773542024
905.313750862
904.844392149
904.286096801
903.624620783
902.849055219
901.947659944
900.90208571
899.6825726
898.163415604
896.859837012
895.61130044
894.024893461
892.241243263
890.297629724
888.20595493
885.973282762
883.605118922
881.107517768
878.486994944
875.750683218
872.905412834
869.958230425
866.916604385
863.788208147
860.58099112
857.302879956
853.96159348
850.563938189
847.116040133
843.624144727
840.09705543
836.544760427
832.977690015
829.403933794
825.830372012
822.264525337
818.714496388
815.187726902
811.691453876
808.231779739
804.81449279
801.444423451
798.12616448
794.863465096
791.659857639
788.518131487
785.440844329
782.429878025
779.486843239
776.612643335
773.807860644
771.072105437
768.404903993
765.811157059
763.33687042
761.04278976
758.856865669
756.69702264
754.581111439
752.525263747
750.537683479
748.620887667
746.77738999
745.007636524
743.313102054
741.693842328
740.15090956
738.68420987
737.29448772
735.981561813
734.745923475
733.587335667
732.506058657
731.50181933
730.574675897
729.724200658
728.950104628
728.251694953
727.628077717
727.07789756
726.602580523
726.225442341
725.886084049
725.6118751
725.439346446
725.324759575
908.48705751
908.312502557
908.118317819
907.941506106
907.757576129
907.56052751
907.341950497
907.045708691
906.722249353
906.186113249
905.749424637
905.360073705
904.7919273
904.114945105
903.329374182
902.422326341
901.380156377
900.190962731
898.85340391
897.451434475
895.999912084
894.366483723
892.560405779
890.596540804
888.484546546
886.230840353
883.841618445
881.322710157
878.681032023
875.92327722
873.056975641
870.089178598
867.027805322
863.880731218
860.655702393
857.361829495
854.008930892
850.601504734
847.142844866
843.637355399
840.09465829
836.526678256
832.946341579
829.359900717
825.772672123
822.193268395
818.630955238
815.093087413
811.586971755
808.118378885
804.693188316
801.315913946
797.991276979
794.722742554
791.514029892
788.36768829
785.286552321
782.27237337
779.327241735
776.452322638
773.649370685
770.9199504
768.268263662
765.704253984
763.249072882
760.914486749
758.672082672
756.490068961
754.36723633
752.308950102
750.319993818
748.40265462
746.55886677
744.789366974
743.095209338
741.476696276
739.934530181
738.468820022
737.080033056
735.768151507
734.533458383
733.375849862
732.295460634
731.292126123
730.365836764
729.51634647
728.743530181
728.047122449
727.426957691
726.883220747
726.419915754
726.063201427
725.745329036
725.483505777
725.277283127
725.14891526
908.941069571
908.778371759
908.586445089
908.40298664
908.23398844
908.057994674
907.852033798
907.566626271
907.26338613
906.943006495
906.470336089
905.987468261
905.412157507
904.73596781
903.949929713
903.042560309
902.003665681
900.82765995
899.519355484
898.101475638
896.571479145
894.890508741
893.051314511
891.057829361
888.915932607
886.631575287
884.210840459
881.660113887
878.986276814
876.1965595
873.298533369
870.299899088
867.208630466
864.033772432
860.782011722
857.463563529
854.090971898
850.66757986
847.19180322
843.666180213
840.099796555
836.507635613
832.905242774
829.29645898
825.685530718
822.083823041
818.500746022
814.944139921
811.420902571
807.936999364
804.497826661
801.108081576
797.772045119
794.493405191
791.275515975
788.121212885
785.033076046
782.013264692
779.063820661
776.186599106
773.383720889
770.657885697
768.013459549
765.457452618
762.998686175
760.639018327
758.36624919
756.166382925
754.035173992
751.973377137
749.982952522
748.065448379
746.222127867
744.453784381
742.761118361
741.144549065
739.60449529
738.141170884
736.754811527
735.445489978
734.213308569
733.058243752
731.980306869
730.979419493
730.055545408
729.208620132
728.438703707
727.746026641
727.131300661
726.596388833
726.146913724
725.800939337
725.509728736
725.217034715
725.004840138
724.923456322
909.536470994
909.321649365
909.134931132
908.982337677
908.836183333
908.680933058
908.478200768
908.223934447
907.945023452
907.597348702
907.173206006
906.688511203
906.118478802
905.448134379
904.665479409
903.75973082
902.72227732
901.548464689
900.239124486
898.799233316
897.225199755
895.503678952
893.629058991
891.602197161
889.426909989
887.108448233
884.652773279
882.06651462
879.356762916
876.531107257
873.597395628
870.56373273
867.438383806
864.231330972
860.949311431
857.602424347
854.20518988
850.760838004
847.26344586
843.712796425
840.117731318
836.495606737
832.864250111
829.226233027
825.585574662
821.955491109
818.346046964
814.765373041
811.220244044
807.716553826
804.259442759
800.853514337
797.502824899
794.211022682
790.981306661
787.816548726
784.719265715
781.691759323
778.73613041
775.854495486
773.049090877
770.322647915
767.678610741
765.121190493
762.654078908
760.277151964
757.984747954
755.770093318
753.629606044
751.562478297
749.569123144
747.650277649
745.806646215
744.038811031
742.347229107
740.732246593
739.194118595
737.733018009
736.349051623
735.042264475
733.812657103
732.660189716
731.584803301
730.586428628
729.665019252
728.820592431
728.053320052
727.363686857
726.752839109
726.223278474
725.780809917
725.440321117
725.143540396
724.787498242
724.642585079
724.581321084
910.091051724
909.899862526
909.730919787
909.596756522
909.471558056
909.348658241
909.134139823
908.882404165
908.598030644
908.265164604
907.86935867
907.401832662
906.846245171
906.187855838
905.414008573
904.514021864
903.4795738
902.30538932
900.989329593
899.53086735
897.927097234
896.172755297
894.265154499
892.205092244
889.995841659
887.642336146
885.150550939
882.527288265
879.779925897
876.916359692
873.944791446
870.873647924
867.711613901
864.469400634
861.154247445
857.776468659
854.351140059
850.881168343
847.357572505
843.777244065
840.148967788
836.491673618
832.825722202
829.15311123
825.477381916
821.813732035
818.173083614
814.56382382
810.992695108
807.465427947
803.986965239
800.561711532
797.193551164
793.885987093
790.642110958
787.464720887
784.356297148
781.319136052
778.355352678
775.467058069
772.656390333
769.925706384
767.277533609
764.714373805
762.237878271
759.84763302
757.540785511
755.313782142
753.164115511
751.090658417
749.093143566
747.17173746
745.326727262
743.558421819
741.867071553
740.252877757
738.715965664
737.256409523
735.874217351
734.569356902
733.341747512
732.191286306
731.117848467
730.121317025
729.201599162
728.358677018
727.592671135
726.903983079
726.293529668
725.763228143
725.317249508
724.96496036
724.627348262
724.292858876
724.160917727
724.100872383
910.606766367
910.440340755
910.298623792
910.189133141
910.03298855
909.950173997
909.729948752
909.488914569
909.22298467
908.915087361
908.547618579
908.105070851
907.571342677
906.931509454
906.172483402
905.283298122
904.255335216
903.08253034
901.761151772
900.288886844
898.663453034
896.882634241
894.94577005
892.854398918
890.612006483
888.2236293
885.695435642
883.034482049
880.248477389
877.345657779
874.334592126
871.224028554
868.023205495
864.743313643
861.392446957
857.981128699
854.525099805
851.025945272
847.471133347
843.856345774
840.190416519
836.493312992
832.787811717
829.075687687
825.359963735
821.658016496
817.981724697
814.339754316
810.738828408
807.184494523
803.681487959
800.233983494
796.845677132
793.519891828
790.259589893
787.067449945
783.945875745
780.897082854
777.923117597
775.025961163
772.207539447
769.469785515
766.814543718
764.243366975
761.757086721
759.35535507
757.036618369
754.798862706
752.640393104
750.560168412
748.557674651
746.632750543
744.785393275
743.015673083
741.32365415
739.709382733
738.172856618
736.714035738
735.33282775
734.02910515
732.802699066
731.65341934
730.581055817
729.585401102
728.666261287
727.8234879
727.057002575
726.366852042
725.753227164
725.216480399
724.75698777
724.37633764
723.973395841
723.745456719
723.60377477
723.565236214
911.066510545
910.92063657
910.815604968
910.756381354
910.691814112
910.430581891
910.264834093
910.048633544
909.808820604
909.531040208
909.195814833
908.784500464
908.279563612
907.665127279
906.927350661
906.054670384
905.037929468
903.870386589
902.547485851
901.066328188
899.425094476
897.622983393
895.660647202
893.540456103
891.26641299
888.843921991
886.279508849
883.580590065
880.755267195
877.812164645
874.760235899
871.608562016
868.367094274
865.047252607
861.658262247
858.21119875
854.722478182
851.190615686
847.599430902
843.945388376
840.237411776
836.496218728
832.746565571
828.990159672
825.229824467
821.485214617
817.769195498
814.090728062
810.456502786
806.871876517
803.341352791
799.868861758
796.457883484
793.111541349
789.832635344
786.623696097
783.48700562
780.424652985
777.438554993
774.530511731
771.702205381
768.955204658
766.290881683
763.710268365
761.213845545
758.801374168
756.471942185
754.224318847
752.057334877
749.970115379
747.962084889
746.032909064
744.182393401
742.410421158
740.716895284
739.101715733
737.564754582
736.105853637
734.724814311
733.421404138
732.195353901
731.046368808
729.97413016
728.97830763
728.058563131
727.214559247
726.445954779
725.75237742
725.133287794
724.587515971
724.111741451
723.696804307
723.318049831
723.124401052
722.950481152
722.893053628
911.452291232
911.321622496
911.252489149
911.205155216
911.180784289
910.94665091
910.746576003
910.549592397
910.340480155
910.098448958
909.801362898
909.428098401
908.959237268
908.377475888
907.667882658
906.81805993
905.818185226
904.660943963
903.341314162
901.856224293
900.204219318
898.385330707
896.401127924
894.25475755
891.950842004
889.49530481
886.895147459
884.158246224
881.293158663
878.308952746
875.21498918
872.020700977
868.736922853
865.375127626
861.945875021
858.461561008
854.93804921
851.369485776
847.73712536
844.039091455
840.284662616
836.49531455
832.697101191
828.891693792
825.082365257
821.291033627
817.531532569
813.813098516
810.142367128
806.524485915
802.963704802
799.463691668
796.027687971
792.658598153
789.359033605
786.131351912
782.977680725
779.899952097
776.899920196
773.979188311
771.139203687
768.381242367
765.706352372
763.115262419
760.60828716
758.185265697
755.845618393
753.588529547
751.413151115
749.318752868
747.304761272
745.370752168
743.516402867
741.741454911
740.04567398
738.428828569
736.890669139
735.430920869
734.049274423
732.745386677
731.518877514
730.369334472
729.296311867
728.29933386
727.377891687
726.531439188
725.759379124
725.061038584
724.435593409
723.881888817
723.398220592
722.983541789
722.649659737
722.404495682
722.178577127
722.070150998
911.745499378
911.624385445
911.589596422
911.570601221
911.475343595
911.329741805
911.147169742
910.976056824
910.80272607
910.602885496
910.351251355
910.023952715
909.599320707
909.058273225
908.38451518
907.564624464
906.588031979
905.44689584
904.135891967
902.651926822
900.993871438
899.162366612
897.159716749
894.989787771
892.657866864
890.170481011
887.535199738
884.76043845
881.855278228
878.829281425
875.692249145
872.453994626
869.12641766
865.720852724
862.249489689
858.726465428
855.165976314
851.55703053
847.878899788
844.132020843
840.326611779
836.485162401
832.634099808
828.774995858
824.912485965
821.070652217
817.264220527
813.502656004
809.792499305
806.138663835
802.545120637
799.015258402
795.552059151
792.158192175
788.836058585
785.587824579
782.415440155
779.320662792
776.305068128
773.370064111
770.516883543
767.746568586
765.059933865
762.457515648
759.939530234
757.505858442
755.156091991
752.889638408
750.705837768
748.604059964
746.583745925
744.644419038
742.785666695
741.007119887
739.308428324
737.689242769
736.149199191
734.687909265
733.304952167
731.999871066
730.772168775
729.621306858
728.546700958
727.547716335
726.623659181
725.773765374
724.997193742
724.293028869
723.66030968
723.098157817
722.606160081
722.186116171
721.849939551
721.563957561
721.278801562
721.158874092
911.924521327
911.809218501
911.810447736
911.828387172
911.736069962
911.608075974
911.445687502
911.307127717
911.177263705
911.028240146
910.831290789
910.559475828
910.18856093
909.697405035
909.068123185
908.286121946
907.34001457
906.221453202
904.924885721
903.447274265
901.787812978
899.947686564
897.929864836
895.738921745
893.380841021
890.862821082
888.193070423
885.380617585
882.435127433
879.366711049
876.185639953
872.902171893
869.529463653
866.078484783
862.563399965
859.000152598
855.40031254
851.747746726
848.019457883
844.218563531
840.357462432
836.460050864
832.551968585
828.634491031
824.714804178
820.818959542
816.962452898
813.154895898
809.402682987
805.710457388
802.081887242
798.520062419
795.027689701
791.607187755
788.260732892
784.990284921
781.797602869
778.68425881
775.651645506
772.700981935
769.833308309
767.049472834
764.350111829
761.735621427
759.206144444
756.76157025
754.401573002
752.125674841
749.933319002
747.823933387
745.796965943
743.851901497
741.988257456
740.205574868
738.503403179
736.881287855
735.33875778
733.87531634
732.490433032
731.183537979
729.954015273
728.801197964
727.724358757
726.722698741
725.795332335
724.941269491
724.159407513
723.448550904
722.807484093
722.235179866
721.731260865
721.297117226
720.939455384
720.600843917
720.186485298
720.144939465
911.960690201
911.846578495
911.889171991
911.944479744
911.86582733
911.752633571
911.616353789
911.519376267
911.443357752
911.356325286
911.22561632
911.020863416
910.71494935
910.284406561
909.709561711
908.974517834
908.067018738
906.978217358
905.702391899
904.236619307
902.580458995
900.735647983
898.705834117
896.496324416
894.11385274
891.566352079
888.86274291
886.012732312
883.026630261
879.915136892
876.689010353
873.359108865
869.940025711
866.442290362
862.882236707
859.27726983
855.635520083
851.936055978
848.153036852
844.292767314
840.371160572
836.414041355
832.444890758
828.464384392
824.48372171
820.530641081
816.621225783
812.765124923
808.968517082
805.235735401
801.570117348
797.97443726
794.451111802
791.002298435
787.629936997
784.335772287
781.121363302
777.988092869
774.937170179
771.969634332
769.086349354
766.287997012
763.575065324
760.947836511
758.406384418
755.950582794
753.580133488
751.294609163
749.093500314
746.976259247
744.94232772
742.991154033
741.122195235
739.334914571
737.628772938
736.00322035
734.457686507
732.991572533
731.604242979
730.295018727
729.063168561
727.907900435
726.828347802
725.823551744
724.892437831
724.033787381
723.246217363
722.528180831
721.878017119
721.294143009
720.775477241
720.32238634
719.939293397
719.557269323
719.159905873
719.113318804
911.816783044
911.699020911
911.790001563
911.887425949
911.824683106
911.730294224
911.62998271
911.586200285
911.577202286
911.566213399
911.516093021
911.39256854
911.165254584
910.808063885
910.299325166
909.621721377
908.762081332
907.71108522
906.46290337
905.014814826
903.366821091
901.5212859
899.482598417
897.256872509
894.851665706
892.275727961
889.53876757
886.651243943
883.624168274
880.46886151
877.196571779
873.81914154
870.352121005
866.806481752
863.201049488
859.552870672
855.866360371
852.116045941
848.273189937
844.348360026
840.361496666
836.341045976
832.306882618
828.258699367
824.213468027
820.200220873
816.235387979
812.328510181
808.485469074
804.710239574
801.005802754
797.374600111
793.818748207
790.340134175
786.940455377
783.621235163
780.383829324
777.229429388
774.159064235
771.17359994
768.273737917
765.460009535
762.732772581
760.092205645
757.538312868
755.070932513
752.689760348
750.394378129
748.184287007
746.058937664
744.017752473
742.060140195
740.185501143
738.393227907
736.68270096
735.053283115
733.504312354
732.035094678
730.644896368
729.332936201
728.098375466
726.940306673
725.85773592
724.849559288
723.914531298
723.051222124
722.257973804
721.532858252
720.87364791
720.277856673
719.742965797
719.267483539
718.855643287
718.451227884
718.158512866
718.055071515
911.445013434
911.320400582
911.468439738
911.622066329
911.575751405
911.50164473
911.451435207
911.475847005
911.550523321
911.633212498
911.68154524
911.656717005
911.524583954
911.256079371
910.827307104
910.219410156
909.418286205
908.414191536
907.201294338
905.77719797
904.142481628
902.300259434
900.255785402
898.0160913
895.589669601
892.986186859
890.216234827
887.291105861
884.222580177
881.02262685
877.703008851
874.277097293
870.76026274
867.165631536
863.515033587
859.822073604
856.087350191
852.281266977
848.373140469
844.378864809
840.322137478
836.234827152
832.131746442
828.0112534
823.898099154
819.822084169
815.799669381
811.840113782
807.948906863
804.129617403
800.384843345
796.716680722
793.126937231
789.617225621
786.188996372
782.843549904
779.582036867
776.405459316
773.314668369
770.310364468
767.393094655
764.563251319
761.821070425
759.166632136
756.599865951
754.120561085
751.728383403
749.422897381
747.203588992
745.069888492
743.021186903
741.056849051
739.176219002
737.378622808
735.663366342
734.029732044
732.476973402
731.004308976
729.610915135
728.295918173
727.058383591
725.897303305
724.811575697
723.799978246
722.861129503
721.993434586
721.195018917
720.463633095
719.796507113
719.190110743
718.639612565
718.137800407
717.675582687
717.149017816
717.005252426
716.927342741
910.797398405
910.658266138
910.878574447
911.109729182
911.078749298
911.021857137
911.035580573
911.148992305
911.328826996
911.527573592
911.696832453
911.792473376
911.775962432
911.614815868
911.282648689
910.758963559
910.028741619
909.081926892
907.912844797
906.5196181
904.903597709
903.068842492
901.021645437
898.770120873
896.323839043
893.693514546
890.890733862
887.92772206
884.817102238
881.571530326
878.203377831
874.728010563
871.159835299
867.515297853
863.819382628
860.07975212
856.292760847
852.425094417
848.445988173
844.377617955
840.246592683
836.088855681
831.912844593
827.71552275
823.531454749
819.390477592
815.30870341
811.294918091
807.354126845
803.489446235
799.703070911
795.996740809
792.371951454
788.830038535
785.372205962
781.999530572
778.712959887
775.513307971
772.401252904
769.377334046
766.441951523
763.595364432
760.837692771
758.168918422
755.588892607
753.09734383
750.693892775
748.378067521
746.149321694
744.007050447
741.950604276
739.979299082
738.092422202
736.289235292
734.568974134
732.930846476
731.374028267
729.897658506
728.500833032
727.182596912
725.941934087
724.777754503
723.688873889
722.673985933
721.73162307
720.860098804
720.05743335
719.321238152
718.648521403
718.0352836
717.475563024
716.958879444
716.466907535
715.975967551
715.855554469
715.773243508
909.832003892
909.662640135
909.973718899
910.308151889
910.296978711
910.24442146
910.325041227
910.556070857
910.86928378
911.212949813
911.531799926
911.775384081
911.899977417
911.869139808
911.653721716
911.231514471
910.586678863
909.709040491
908.593344974
907.238514834
905.646960331
903.823949597
901.777060916
899.515703814
897.050715883
894.394018049
891.558328475
888.556912098
885.403311199
882.11088885
878.692895776
875.167044981
871.546663699
867.851663261
864.109621711
860.320602859
856.476682659
852.541060784
848.484838516
844.337888682
840.128466383
835.896305455
831.642671569
827.364521919
823.107170362
818.899555145
814.757068609
810.687862348
806.696381713
802.785258406
798.95626871
795.210792606
791.550011956
787.974987518
784.486677681
781.085938976
777.773517639
774.550044043
771.416026332
768.37184842
765.417767453
762.553914479
759.780295226
757.096793866
754.503178358
751.999109147
749.58414959
747.2577791
745.019405723
742.868379508
740.80400245
738.825537728
736.932214487
735.123231661
733.397758116
731.754932097
730.193858237
728.713603953
727.313193985
725.991604146
724.747751916
723.580485155
722.488563879
721.470635729
720.52520145
719.650565531
718.844777155
718.105542037
717.430098024
716.815016876
716.255853258
715.746838306
715.285073869
714.9011052
714.704922995
714.592780124
908.502270555
908.280855905
908.696821909
909.154472269
909.172559276
909.11455348
909.256762635
909.632838156
910.118122836
910.644603319
911.150150596
911.576782421
911.874556092
912.002450631
911.928288611
911.628181687
911.085690914
910.290871543
909.239286867
907.931076734
906.370104443
904.563213512
902.519585546
900.250204527
897.76740769
895.084519471
892.215547825
889.174921401
885.977162539
882.636356691
879.167296115
875.589254054
871.916047002
868.171155585
864.381755334
860.539581264
856.633171345
852.622399485
848.482460296
844.252830056
839.962604916
835.649743059
831.31173398
826.950908673
822.618837513
818.343468205
814.139337335
810.013869361
805.970901403
802.012557075
798.140187621
794.354811893
790.657301854
787.048446419
783.528963584
780.099492805
776.760584084
773.512687314
770.356145908
767.291191612
764.317943481
761.436406594
758.646474872
755.94793308
753.340463402
750.823651254
748.396995263
746.059916181
743.811768035
741.651847366
739.579402379
737.593639609
735.693729239
733.878808061
732.147981047
730.500320967
728.934867139
727.450622473
726.046549867
724.721567064
723.474539558
722.304271707
721.20949257
720.188837154
719.240821648
718.363809557
717.555979704
716.815292421
716.139473862
715.526039669
714.972460012
714.47686872
714.042446201
713.698385908
713.480381866
713.351762523
906.752245378
906.449952147
906.969740471
907.557003062
907.611318844
907.55092224
907.760296917
908.304473508
909.008758178
909.767538407
910.508373746
911.163395585
911.675035032
911.997001697
912.093949492
911.940533361
911.520174328
910.823725402
909.848179018
908.595479835
907.07149007
905.285105259
903.247524361
900.971649408
898.471604495
895.762348728
892.859368155
889.778391246
886.534977307
883.144049529
879.622915289
875.990232896
872.263321382
868.469952045
864.630997155
860.731411975
856.756185706
852.661438508
848.430850706
844.114578982
839.741976944
835.341471755
830.912034472
826.46764896
822.060080178
817.716347973
813.4500567
809.267840986
805.172895829
801.166825764
797.250556042
793.424750308
789.689976587
786.046759822
782.495583172
779.036875842
775.670995952
772.398218809
769.218726614
766.132604042
763.139834494
760.240300529
757.433784359
754.719971594
752.098455083
749.568741581
747.130258211
744.782361157
742.524343086
740.355441884
738.274846922
736.281705848
734.375128371
732.554190196
730.8179342
729.165371613
727.595481094
726.107207693
724.69946017
723.371108233
722.120977464
720.947844073
719.850425329
718.827368238
717.877235119
716.998486988
716.189479177
715.448471184
714.773684654
714.163461401
713.616559391
713.132854594
712.716398853
712.389589537
712.16572624
712.030676629
904.519380306
904.092261027
904.67666617
905.383224335
905.475692174
905.421164507
905.716448951
906.466169589
907.454828339
908.513766105
909.554876783
910.497448305
911.27475526
911.8347188
912.138992925
912.1613876
911.886015125
911.305444098
910.418989905
909.23122948
907.750746335
905.989108434
903.960044277
901.678795676
899.161609995
896.425350087
893.48718353
890.36427231
887.073240746
883.630196517
880.055770028
876.366819532
872.58556672
868.744032996
864.851631084
860.889399438
856.837688934
852.64946415
848.3220532
843.914313849
839.456750746
834.964111005
830.438066487
825.908437547
821.424749001
817.012404241
812.683806902
808.444693961
804.297581366
800.24354702
796.283096729
792.416548199
788.644177059
784.96625324
781.383034654
777.894746754
774.501563234
771.203589422
768.000852215
764.893292325
761.88076184
758.963022033
756.139745452
753.410517143
750.774839697
748.23213703
745.781761351
743.422998606
741.155076017
738.977167785
736.888401694
734.887863713
732.974602706
731.147633215
729.40593813
727.748469599
726.174149999
724.681871357
723.270494965
721.938849955
720.685731362
719.509897873
718.410067458
717.384912358
716.433054506
715.553062181
714.743462972
714.002781191
713.329626576
712.722859027
712.181862555
711.707001673
711.301589352
710.983184148
710.75826294
710.62159414
901.718775298
901.092386542
901.62427696
902.432583572
902.555918534
902.528776869
902.959588387
903.982828153
905.345612144
906.801255282
908.23045086
909.537889174
910.646615283
911.49877506
912.05384428
912.286041986
912.181595732
911.73618929
910.952747998
909.839597763
908.408988798
906.675934534
904.657319527
902.371220412
899.836397905
897.071917083
894.096846639
890.929889015
887.588752104
884.091585459
880.461578977
876.715720469
872.880785599
868.989480731
865.038719148
861.006450302
856.867658987
852.577373248
848.148779522
843.643911381
839.097757378
834.509850537
829.883087949
825.266816313
820.706743397
816.225916747
811.835224942
807.539386989
803.34020267
799.23822211
795.233542071
791.326149655
787.516041399
783.803245647
780.187804729
776.669750286
773.249078064
769.925730789
766.699584284
763.570440712
760.538023136
757.601974929
754.761859099
752.01716113
749.367291152
746.811588935
744.349327801
741.979720815
739.701925374
737.515049508
735.41815609
733.410268282
731.490372683
729.657423399
727.910343974
726.248030023
724.669350181
723.173147638
721.758240464
720.423422811
719.167464792
717.989113858
716.887094081
715.860106949
714.906832762
714.025935779
713.216086411
712.476003627
711.804540546
711.200836172
710.664480804
710.195734735
709.79701494
709.483064255
709.258431016
709.121974737
898.19371072
897.248895563
897.579283954
898.420065501
898.549802841
898.596170756
899.270885182
900.694061185
902.556811431
904.537757249
906.471420072
908.243598223
909.766123743
910.97629367
911.833306469
912.314063175
912.409165755
912.119473792
911.453291104
910.424163439
909.049192471
907.347778926
905.340696332
903.049423062
900.495664433
897.701014497
894.686665228
891.472941659
888.078856161
884.526105151
880.837065321
877.03311961
873.146296893
869.202054574
865.185987097
861.074511569
856.83731391
852.436870628
847.903709693
843.297958793
838.656928922
833.968017779
829.238857323
824.535819876
819.899844261
815.351176998
810.898995626
806.546929335
802.29604881
798.146386831
794.097650794
790.149516207
786.301719177
782.554060628
778.9063808
775.358526781
771.910325903
768.561564186
765.311973211
762.161220075
759.108903475
756.154550252
753.297616395
750.53748712
747.87348052
745.304849731
742.830788013
740.450432108
738.162867809
735.967133702
733.862226435
731.847104175
729.920691092
728.081880154
726.329536737
724.662500688
723.07958927
721.579598795
720.161307285
718.823476518
717.564854746
716.384179955
715.280182771
714.25159022
713.297131354
712.415545548
711.605604592
710.866153385
710.196181731
709.594922743
709.061963192
708.597341131
708.202715182
707.891168009
707.666988699
707.531371278
893.649357645
892.221173928
892.205222886
892.945253211
893.047822598
893.254492218
894.360278951
896.389714852
898.944590202
901.624727143
904.215756723
906.579437637
908.61664412
910.262574447
911.479828198
912.251724304
912.5766252
912.463432383
911.928163452
910.991428138
909.676612437
908.008597092
906.012871092
903.71493094
901.139882865
898.312170421
895.255281363
891.991159293
888.540765363
884.930497379
881.18038534
877.317507957
873.379027444
869.376296452
865.285170525
861.084222384
856.738035718
852.219265943
847.578500597
842.871808047
838.125779677
833.326163262
828.496703545
823.70842843
818.997899999
814.382577182
809.869903648
805.462418177
801.160480951
796.963635115
792.871226116
788.882643873
784.9973845
781.215039905
777.535261355
773.957723885
770.482094591
767.108011463
763.835066793
760.662798638
757.590683909
754.618136755
751.744506697
748.969080523
746.291083079
743.709681039
741.223985151
738.833054975
736.53590182
734.33149377
732.218758749
730.196589357
728.263845746
726.419360004
724.661938794
722.990367267
721.403411622
719.899822847
718.478339575
717.137692472
715.876607799
714.693813238
713.58804216