/*--------------------------------*- C++ -*----------------------------------*\
| =========                 |                                                 |
| \\      /  F ield         | OpenFOAM: The Open Source CFD Toolbox           |
|  \\    /   O peration     | Version:  v1906                                 |
|   \\  /    A nd           | Web:      www.OpenFOAM.com                      |
|    \\/     M anipulation  |                                                 |
\*---------------------------------------------------------------------------*/
FoamFile
{
    version     2.0;
    format      ascii;
    class       surfaceScalarField;
    location    "835";
    object      phia;
}
// * * * * * * * * * * * * * * * * * * * * * * * * * * * * * * * * * * * * * //

dimensions      [0 3 -1 0 0 0 0];
oriented        oriented;


internalField   nonuniform List<scalar> 
18240
(
0.000850589920087
-0.00085061906316
0.0017433113169
-0.000892755833127
0.00263398115979
-0.000890698390124
0.00351745482544
-0.000883509762894
0.0043909011056
-0.000873473465599
0.00525175460977
-0.000860891203418
0.00609767542788
-0.000845947163685
0.00692643413596
-0.000828798021621
0.00773599699353
-0.000809588650116
0.00852443328829
-0.000788477204916
0.0092900234106
-0.000765615584943
0.0100311495326
-0.000741168626887
0.0107464126808
-0.000715288554878
0.0114345042922
-0.000688135727763
0.0120943292813
-0.00065985059765
0.0127248604309
-0.000630576916165
0.0133252665953
-0.000600432275935
0.0138947530154
-0.000569533903506
0.0144326946557
-0.000537968525139
0.0149384660443
-0.000505820696335
0.0154115805454
-0.000473142469234
0.0158515134038
-0.000439984150228
0.0162578480874
-0.000406364007651
0.0166300957924
-0.000372301203288
0.0169678502308
-0.000337785424265
0.0172706060074
-0.000302811768441
0.0175379231279
-0.000267350015769
0.0177692456677
-0.00023138136903
0.0179640775626
-0.000194866950938
0.0181218022983
-0.000157786785076
0.0182418716187
-0.000120106681031
0.0183236239351
-8.18179813234e-05
0.0183664884067
-4.29042414835e-05
0.0183698051916
-3.38645134132e-06
0.0183330459616
3.67171001594e-05
0.0182556286324
7.73433043224e-05
0.0181371566724
0.000118427573446
0.0179772247444
0.000159853238704
0.01777567632
0.000201502066834
0.0175323928483
0.000243199906942
0.0172475686807
0.000284776212161
0.0169214756249
0.000326004633838
0.0165547544999
0.000366672288117
0.0161481490447
0.000406512678447
0.0157028166706
0.000445283741566
0.0152200318937
0.000482688971511
0.0147015236829
0.000518461434968
0.0141491577853
0.000552269441575
0.0135653109438
0.000583803855112
0.012952548113
0.000612669344046
0.0123140348022
0.00063847614998
0.0116532193222
0.000660729291913
0.0109742550889
0.000678934187177
0.0102816701563
0.000692509633969
0.00958072614583
0.000700921259801
0.00887702237203
0.000703639940019
0.00817670958149
0.000700295226227
0.00748600241797
0.000690651745795
0.00681126256658
0.000674723402827
0.00615849969947
0.000652710165324
0.00553341078837
0.00062506897013
0.00494094108074
0.000592413174065
0.00438535154737
0.000555563279976
0.00386992132883
0.000515367345685
0.00339714024045
0.000472749359191
0.00296818115324
0.00042889136463
0.00258295581566
0.000385191788608
0.00223996789355
0.000342920157163
0.0019368791029
0.000303056861046
0.00167063762836
0.000266176033979
0.00143804281745
0.000232564842201
0.00123571106736
0.000202267541125
0.00106046194661
0.000175219951774
0.000909166321804
0.000151231551197
0.000779058827567
0.000130079375622
0.000667507943017
0.000111487256003
0.000572251642923
9.52300210654e-05
0.000491104193488
8.10855347151e-05
0.000422199652566
6.88810709346e-05
0.00036375312776
5.83884299479e-05
0.000314336677766
4.93970973481e-05
0.000272623100068
4.16611059105e-05
0.000237657602514
3.49503546888e-05
0.000208722301729
2.88884443284e-05
0.000186108223164
2.26014066241e-05
0.000166936211276
1.91300843827e-05
0.000149219081245
1.77016057805e-05
0.000133826560131
1.53494487668e-05
0.000119138189475
1.46641418656e-05
0.000103927851569
1.51616265279e-05
8.89185343634e-05
1.49716908369e-05
7.41307983048e-05
1.47309127921e-05
5.8142248246e-05
1.59302011425e-05
3.98206202693e-05
1.82580037986e-05
1.92533649632e-05
2.04989762876e-05
1.9216066441e-05
0.000898064621642
-0.00174871470559
0.00185165438189
-0.00184638013977
0.00280002864668
-0.00183910455798
0.00373983757089
-0.00182335302631
0.00466859961286
-0.00180226744204
0.00558379441457
-0.00177612086199
0.00648297652893
-0.00174516140564
0.00736380659177
-0.00170966369554
0.00822410925889
-0.00166992374174
0.00906185202944
-0.00162625643801
0.00987519043421
-0.0015789868556
0.0106624310823
-0.00152844668938
0.0114220734033
-0.00147496434547
0.0121527605434
-0.00141886135165
0.0128533182871
-0.00136044260939
0.0135226954827
-0.00129999380256
0.0141600007566
-0.00123777281389
0.0147644346622
-0.00117400886493
0.0153353255027
-0.00110889585386
0.0158720559891
-0.00104259379136
0.0163741001143
-0.000975224542626
0.0168409473709
-0.000906875791699
0.0172721428736
-0.000837599193581
0.017667211959
-0.000767416715122
0.0180257055908
-0.000696320757422
0.0183471274927
-0.000624282441424
0.0186309864599
-0.000551253015951
0.0188767273944
-0.000477173749098
0.0190837918237
-0.000401978034158
0.0192515533311
-0.000325602744953
0.0193793883079
-0.000247991209776
0.0194666181268
-0.000169105568576
0.0195125895422
-8.89283034459e-05
0.0195166197151
-7.47796885332e-06
0.019478090051
7.51908760779e-05
0.0193963958206
0.000158972413148
0.0192710511262
0.000243713102181
0.0191016384075
0.0003291969345
0.0188879227531
0.000415155306248
0.0186297956264
0.000501254087363
0.0183273946177
0.000587111760436
0.01798103452
0.000672288056393
0.0175913287211
0.000756310049994
0.0171591026657
0.000838658981196
0.0166855166656
0.000918800164426
0.0161719631957
0.000996160986545
0.0156201981715
0.00107015706278
0.0150322333007
0.00114015344559
0.0144104900177
0.00120548048361
0.0137577048512
0.00126537748406
0.013077117331
0.0013190029087
0.0123723975296
0.00136537956381
0.0116478521009
0.00140342750261
0.0109083448244
0.00143195776745
0.0101594477914
0.00144977553058
0.00940727173951
0.00145576806913
0.00865845581659
0.00144907557299
0.00791985309315
0.00142921419056
0.00719837812725
0.0013961652311
0.00650067314655
0.00135037581718
0.00583292076411
0.001292785509
0.0052005762342
0.00122471193055
0.004608184153
0.00114791296743
0.00405934758957
0.00106414981753
0.00355690674596
0.000975141678164
0.0031023061652
0.000883433011117
0.00269531453281
0.000792132937902
0.00233409317075
0.000704083489278
0.00201575691529
0.000621344947432
0.00173680121458
0.000545076721008
0.00149356826828
0.000475751837517
0.001282368554
0.000413413475139
0.00109968667114
0.000357856663597
0.000942185184588
0.000308679599779
0.000806865624009
0.000265354621082
0.000690997062306
0.000227303395558
0.000592167560515
0.000194017066363
0.00050811852584
0.000165083911066
0.000436812090371
0.000140147989223
0.000376383662593
0.000118770662527
0.000325266846089
0.000100479421942
0.000282061522991
8.4826315413e-05
0.00024556584658
7.14167879926e-05
0.000214546887156
5.98727731781e-05
0.000187103473303
5.00195934805e-05
0.000163691591654
4.25123698143e-05
0.000144767588134
3.65998555548e-05
0.000129059592752
3.10246582205e-05
0.000114967108793
2.87247488351e-05
0.000101193356946
2.88956016859e-05
8.67279047478e-05
2.93925245265e-05
7.20380692889e-05
2.93693352456e-05
5.68814455077e-05
3.10323709143e-05
3.97962561717e-05
3.52799107826e-05
1.94345782585e-05
4.07941262738e-05
3.86212272684e-05
0.000906285083695
-0.00265503135155
0.00186554372254
-0.00280567127801
0.00282063157602
-0.00279422576547
0.00376722453625
-0.00276997944313
0.0047025965502
-0.00273767274567
0.00562414718312
-0.00269770547366
0.00652938489096
-0.00265043270592
0.00741594856669
-0.00259626191659
0.00828163474331
-0.00253564399541
0.00912440320586
-0.00246906010027
0.00994239343207
-0.00239701177153
0.0107339190887
-0.00232000832025
0.0114974766734
-0.00223855738598
0.0122317309354
-0.00215315250388
0.0129355167846
-0.00206426483798
0.0136078169577
-0.00197233194406
0.0142477584236
-0.00187775177147
0.0148545841032
-0.00178087377209
0.0154276456715
-0.00168199622255
0.0159663718258
-0.00158136064252
0.0164702600488
-0.0014791531142
0.0169388443184
-0.00137550247019
0.0173716885808
-0.00127048561012
0.0177683566278
-0.00116412916513
0.018128409677
-0.00105641807251
0.018451380444
-0.000947299919766
0.0187367765083
-0.00083669577015
0.0189840598415
-0.000724506436239
0.0191926571834
-0.000610624821791
0.0193619459623
-0.000494943846863
0.0194912729102
-0.000377370646112
0.0195799468665
-0.000257835107641
0.0196272668737
-0.000136304094585
0.0196325230737
-1.27932434829e-05
0.019595034826
0.000112619880306
0.0195141587908
0.000239785716805
0.0193893365317
0.000368472542552
0.0192201071507
0.000498359832596
0.0190061610182
0.000629035026088
0.0187473515466
0.000759993315898
0.0184437492935
0.000890644078455
0.0180956455862
0.00102031794261
0.0177036005086
0.001148282054
0.0172684323894
0.00127375029146
0.0167912569253
0.00139590031334
0.0162734633794
0.00151387600511
0.0157167516463
0.00162679299917
0.0151231081581
0.0017337188854
0.0144948604677
0.00183365466231
0.0138346770967
0.00192548655573
0.0131456639114
0.00200794833108
0.0124314075247
0.00207956904764
0.011696113067
0.00213866337392
0.0109446629175
0.00218335127809
0.0101827169968
0.0022116749249
0.00941665711114
0.00222178095577
0.00865348982875
0.00221220715311
0.00790054367055
0.00218211894076
0.00716519785003
0.00213147885247
0.00645458884126
0.00206094465893
0.00577529089646
0.00197204609236
0.00513316171384
0.00186679484688
0.00453279892519
0.00174822770749
0.00397790526333
0.00161898885457
0.00347199399959
0.00148099696464
0.00301698800389
0.00133837969544
0.00261241033909
0.00119665354352
0.00225571772284
0.00106071876563
0.0019431633321
0.000933846017903
0.00167057806027
0.00081760804645
0.00143384669155
0.000712432526388
0.0012290207883
0.000618186820409
0.00105236997635
0.000534457441867
0.000900437760275
0.000460560316659
0.000770160660493
0.000395582735096
0.000658869555594
0.000338544684752
0.000564220387261
0.000288618763745
0.000484008592059
0.000245247792852
0.000416125815422
0.000207986628922
0.000358682838047
0.000176170805361
0.000310119725481
0.000149004729659
0.000269092994786
0.000125816817021
0.000234433309961
0.000106044788432
0.000205106122378
8.91685512527e-05
0.000179982781515
7.51158971745e-05
0.000158189145964
6.42783474003e-05
0.000138295900631
5.64656732855e-05
0.00012020261645
4.9088328641e-05
0.000105506573425
4.33885590627e-05
9.35162451151e-05
4.08478355398e-05
7.95321499512e-05
4.33345935782e-05
6.37372055356e-05
4.51148429255e-05
4.79941037658e-05
4.67183413962e-05
3.15274189474e-05
5.16939560938e-05
1.5957557494e-05
5.6312070935e-05
5.45491126849e-05
0.000914713895937
-0.00356977694972
0.00188196062515
-0.00377295260238
0.00284512747441
-0.00375742588454
0.00379966519164
-0.00372455112044
0.00474272163061
-0.00368076286559
0.00567161159049
-0.00362662957484
0.00658378290459
-0.00356263816084
0.00747683231681
-0.00348934593909
0.00834852352957
-0.00340736987403
0.00919679818599
-0.0033173699662
0.0100197852026
-0.0032200340895
0.0108158024749
-0.00311606152895
0.0115833574068
-0.00300614838846
0.0123211399029
-0.00289097180795
0.0130280149067
-0.00277117684329
0.0137030077434
-0.00264736262435
0.0143452899838
-0.00252007211897
0.0149541588932
-0.00238978174588
0.0155290187663
-0.0022568955153
0.0160693571059
-0.00212173948296
0.0165747243669
-0.00198456133931
0.0170447100491
-0.00184553034072
0.017478924041
-0.00170474238886
0.0178769756289
-0.00156222492134
0.018238459049
-0.00141794640947
0.0185629374912
-0.00127182483611
0.0188499344467
-0.00112374011562
0.019098923811
-0.000973544924862
0.0193093279441
-0.000821079154649
0.0194805146969
-0.000666182707497
0.0196118032804
-0.000508712558119
0.0197024690598
-0.00034855626951
0.0197517587078
-0.000185650450784
0.0197589046824
-1.99981027753e-05
0.0197231506357
0.000148313642043
0.0196437754915
0.000319098311581
0.0195201287449
0.000492055305732
0.0193516620285
0.000666760229208
0.0191379705505
0.00084265873508
0.0188788263149
0.00101906741333
0.0185742182056
0.00119518064927
0.0182243777501
0.00137008454934
0.017829808251
0.00154277648367
0.0173912941361
0.00171218731728
0.0169099127833
0.00187720383146
0.0163870260222
0.0020366835717
0.0158242805321
0.00218945949139
0.0152235967633
0.00233432352555
0.0145871837928
0.00246999014348
0.0139175616419
0.00259503289501
0.0132176333438
0.00270780406632
0.0124907835052
0.00280635066263
0.0117410329892
0.00288834975623
0.0109732058899
0.00295112304531
0.0101930744148
0.00299175252825
0.0094074146213
0.00300740073635
0.00862383679618
0.0029957396692
0.00785044416922
0.00295547930943
0.00709532408121
0.00288655701697
0.00636642557729
0.00278980903549
0.00567089019195
0.00266753693501
0.00501537311479
0.00252226511865
0.00440422404227
0.00235932299614
0.00384085599905
0.00218229742461
0.00333052778284
0.0019912632623
0.00287631347871
0.00179253031948
0.00247723868424
0.00159566649753
0.00212929313288
0.00140860459597
0.00182713777408
0.00123594404926
0.00156547908156
0.00107921157605
0.00133959570557
0.000938261423202
0.00114522383902
0.000812504917608
0.000978357916211
0.000701270329093
0.000835331596791
0.00060353418181
0.000713014895859
0.000517848758422
0.000608873265401
0.000442635450672
0.000520785235083
0.000376658139114
0.000446644565109
0.000319339270765
0.00038418684831
0.000270399317829
0.000331410566815
0.000228905213115
0.000286841653311
0.000193536285447
0.000249242297835
0.000163381680556
0.000217514527641
0.000137741312039
0.00019082423211
0.000115829496082
0.000168521238604
9.73917744347e-05
0.000146891865009
8.58813474532e-05
0.000127399801126
7.593107053e-05
0.000110452476918
6.60073041413e-05
9.42600844343e-05
5.95511280622e-05
7.8405709326e-05
5.66689128066e-05
6.66667525513e-05
5.50332884249e-05
5.20791290583e-05
5.96551674732e-05
3.61700137187e-05
6.25818831469e-05
2.33181954391e-05
6.44971766595e-05
1.19343083959e-05
6.76464250994e-05
6.64614605333e-05
0.000925613157553
-0.00449542263083
0.00190399105114
-0.00475136340625
0.00287813456095
-0.00473160393526
0.00384337326086
-0.00468982384927
0.00479674769904
-0.00463417174186
0.00573547912738
-0.00456539549625
0.00665693835705
-0.00448413213825
0.00755866289685
-0.0043911054486
0.00843837258997
-0.00428711481116
0.00929398187661
-0.00417301478488
0.0101236072903
-0.00404969536707
0.0109255705883
-0.00391806104067
0.0116983969446
-0.00377901136583
0.0124408089958
-0.00363342089869
0.0131517161989
-0.00348212157552
0.0138302006492
-0.00332588510448
0.0144754988619
-0.00316540894621
0.0150869810969
-0.00300130319043
0.0156641278769
-0.00283408219539
0.0162065057033
-0.00266415792011
0.0167137417277
-0.00249183879164
0.017185499575
-0.0023173304626
0.0176214559513
-0.002140742001
0.0180212800599
-0.00196209327439
0.0183846150915
-0.00178132681259
0.0187110633818
-0.00159831968469
0.0190001741777
-0.00141289876919
0.0192514352697
-0.00122485525057
0.0194642675099
-0.00103396209931
0.019638023406
-0.000839990862126
0.0197719893847
-0.000642732409751
0.0198653925112
-0.000442014978755
0.0199174124611
-0.000237727710225
0.0199271990379
-2.98438214209e-05
0.019893895773
0.000181555966861
0.0198166693465
0.000396261866376
0.0196947452101
0.000613914720027
0.0195274473296
0.000833991376289
0.0193142419938
0.00105579544935
0.0190547813334
0.0012784573819
0.0187489459345
0.00150094345119
0.0183968801624
0.00172207568429
0.0179990196765
0.00194056051228
0.0175561045903
0.00215502414035
0.0170691798927
0.0023640487697
0.0165395802794
0.00256620223358
0.0159689064948
0.00276005168834
0.0153589980386
0.00294415003049
0.0147119192872
0.00311698823587
0.0140299694451
0.00327690206221
0.0133157506433
0.00342194716988
0.0125722911367
0.00354973427526
0.0118032777892
0.00365729854273
0.0110133250131
0.00374101033106
0.0102083104406
0.00379672039348
0.00939552240183
0.00382013543184
0.00858356729476
0.00380766191912
0.00778170233451
0.00375729665412
0.00699901656722
0.00366921011501
0.0062447013964
0.00354407947204
0.0055265417459
0.00338565294043
0.00485312470535
0.00319562901654
0.00422744039311
0.0029849482221
0.00365088797455
0.00275878492642
0.00313343623257
0.00250864674735
0.00268089384715
0.00224500424241
0.00229107839217
0.00198541561896
0.00195699463932
0.00174262509132
0.0016704385455
0.00152244002673
0.00142443494548
0.00132515650357
0.00121369542614
0.00114894351553
0.00103378100567
0.00099236269723
0.00088035107932
0.000854644015545
0.000749366496024
0.000734465830928
0.000637587686183
0.000629573663626
0.000542786427275
0.000537386261077
0.000463386446574
0.000456005416072
0.000397520141956
0.000385155932374
0.000342462701623
0.000325410182651
0.000295869859817
0.000275456924762
0.000256549931728
0.000232819741185
0.000223461601663
0.000196437903695
0.00019549356431
0.000165679858728
0.000171978704211
0.000139316428635
0.000152619404587
0.000116725349247
0.000133679683689
0.000104795425917
0.00011551391967
9.40713590948e-05
9.61952502567e-05
8.53009909989e-05
7.87206716009e-05
7.69984665617e-05
6.28900173622e-05
7.24680781407e-05
5.0439593424e-05
6.74493895371e-05
4.0270610927e-05
6.97824783287e-05
2.73938646705e-05
7.54103214819e-05
1.63726588922e-05
7.54797722553e-05
8.17752369223e-06
7.5804779755e-05
7.4616993465e-05
0.000939294226209
-0.00543474965263
0.00193192352572
-0.00574402880342
0.00292006723306
-0.00571978209612
0.00389891051359
-0.00566870230326
0.00486537500312
-0.00560067114141
0.00581657113573
-0.00551662688266
0.00674977594553
-0.00541737230353
0.00766245156487
-0.00530381672407
0.0085522624815
-0.00517696157029
0.0094170878306
-0.00503787632058
0.0102550292577
-0.00488767321751
0.0110644134306
-0.00472748205044
0.0118437899349
-0.00455842499936
0.01259192388
-0.00438159246945
0.0133077841702
-0.00419801985318
0.0139905268561
-0.00400866636549
0.0146394748627
-0.00381439597254
0.0152540937719
-0.0036159618118
0.015833965438
-0.00341399412201
0.0163787594769
-0.00320899303265
0.0168882047912
-0.00300132585385
0.0173620613205
-0.00279122969686
0.017800094136
-0.0025788183498
0.018202049739
-0.00236409353244
0.0185676361484
-0.0021469588818
0.0188965060085
-0.00192723650929
0.019188243703
-0.00170468462635
0.0194423553577
-0.00147901655829
0.0196582626339
-0.00124992041687
0.019835299496
-0.00101708042913
0.0199727134368
-0.00078020061418
0.0200696704576
-0.000539028066211
0.0201252664125
-0.000293381425025
0.0201385441477
-4.31812262238e-05
0.0201085183283
0.000211520318153
0.0200342074445
0.000470509294005
0.0199146738931
0.000733382930162
0.0197490702862
0.000999527581171
0.0195366912934
0.00126810506565
0.0192770270653
0.00153805010992
0.0189698153788
0.0018080815866
0.0186150863967
0.00207672897953
0.0182131954466
0.00234237370368
0.0177648375862
0.00260330228844
0.0172710401689
0.00285776456706
0.0167331325099
0.00310402686401
0.0161526943617
0.00334040513996
0.0155314960833
0.00356526370555
0.0148714397873
0.00377695774131
0.0141745410476
0.00397371748681
0.0134429598881
0.00415344172441
0.0126791649958
0.00431345298504
0.0118862117562
0.00445017209942
0.0110682481998
0.00455891564688
0.010231066555
0.00463383716706
0.00938267324843
0.00466849043603
0.00853318262858
0.00465710000011
0.00769378701005
0.0045966563739
0.00687453643116
0.00448841159559
0.00608683187358
0.00433174169957
0.00533824445401
0.00413418852116
0.00464338631024
0.00389043153731
0.00400043178912
0.00362784004704
0.00340231649287
0.00335682951213
0.00287271212857
0.00303817976933
0.00242362823667
0.00269401449319
0.00204947209634
0.00235950342399
0.00173701662533
0.00205501281697
0.00147291918334
0.0017864760868
0.00124795976543
0.00155005101017
0.00105690787811
0.00133993704943
0.000895772213292
0.00115343451736
0.000759754343226
0.0009906065077
0.000644026383123
0.000850134360184
0.000545090770052
0.000728457006805
0.000461351018801
0.000621067355174
0.00039256774843
0.000524734448425
0.000337499856058
0.000440168230889
0.000292108884694
0.000370751768638
0.00025302198859
0.000314502874323
0.000220024482513
0.000265782576946
0.00019248232781
0.000223948531792
0.000168887601034
0.000189247066224
0.000148835505205
0.000159341999688
0.000130136148304
0.000135400220302
0.000112181651138
0.000122725952398
9.59828274971e-05
0.000110247854518
8.11993907436e-05
0.000100061156002
6.49612017705e-05
9.3211361738e-05
4.97701230423e-05
8.76314683292e-05
3.52274247077e-05
8.19597771078e-05
2.62210144617e-05
7.87530513748e-05
1.94901319445e-05
8.2107242748e-05
1.13698219956e-05
8.35635439691e-05
5.57690625951e-06
8.15614098772e-05
8.01790309852e-05
0.00095596662564
-0.00639075045708
0.00196604920353
-0.00675414564125
0.00297132492143
-0.00672509413266
0.00396679496828
-0.00666420794583
0.00494923094585
-0.00658314321302
0.00591560988325
-0.00648304187272
0.00686309394282
-0.00636489269616
0.00778905332944
-0.00622981258031
0.00869108449414
-0.00607902949343
0.0095670237773
-0.00591385255375
0.0104149550061
-0.00573564174265
0.0112332122057
-0.00554577678551
0.0120203762629
-0.00534562701437
0.0127752668625
-0.00513652132446
0.0134969284038
-0.00491972015753
0.0141846115362
-0.00469638863302
0.0148377491022
-0.00446757327904
0.0154559287359
-0.00423418165082
0.0160388613443
-0.00399696765419
0.0165863484742
-0.00375652166875
0.0170982482439
-0.00351326798444
0.0175744432293
-0.00326746777102
0.0180148098819
-0.0030192291062
0.0184191924418
-0.00276852109894
0.0187873800793
-0.00251519272517
0.0191190892159
-0.00225899295118
0.0194139488353
-0.00199959294552
0.0196714901087
-0.00173660783728
0.019891138149
-0.00146962004835
0.0200722076349
-0.00119820300633
0.0202139012602
-0.000921949077991
0.0203153130489
-0.00064049635866
0.0203754373084
-0.000353564059799
0.0203931854262
-6.09895184159e-05
0.0203674108361
0.000237232774434
0.0202969442795
0.000540911802461
0.0201806387932
0.00084962233364
0.0200174246532
0.00116267361021
0.0198063719628
0.00147908753075
0.0195467579293
0.00179759176984
0.0192381336217
0.0021166313128
0.0188803833239
0.0024344024501
0.0184737682823
0.00274890967519
0.0180189458041
0.00305804341729
0.0175169559617
0.00335967091943
0.016969171025
0.00365172595146
0.016377209358
0.00393227968343
0.0157428200924
0.00419956224426
0.0150677673108
0.00445192162419
0.0143537238658
0.00468766491839
0.0136022695626
0.00490480940054
0.0128149851714
0.00510064178996
0.0119938671965
0.00527121621454
0.0111419932632
0.0054107106015
0.0102646889332
0.00551109042017
0.0093707176333
0.00556240303463
0.00847281278061
0.00555496470063
0.00758557834811
0.00548383526761
0.00671901261767
0.00535493027108
0.00588920025279
0.00516150412535
0.00509845464504
0.00492488099644
0.00438240146935
0.00460642889214
0.00372441658613
0.00428576021815
0.00308639083576
0.00399478204281
0.00253432286572
0.00359017491602
0.00209298380281
0.00313527678403
0.00174642487007
0.00270599001561
0.00146817418081
0.00233319444062
0.00123569599896
0.00201888190666
0.00103737351149
0.00174830969754
0.000870252813199
0.00150698611814
0.000732610502835
0.00129101382058
0.000618630706445
0.00110452224865
0.000521596026407
0.000947107002647
0.000437226715271
0.000812765815975
0.000365188254041
0.000693037493317
0.000308453167962
0.000581407838012
0.000267647794376
0.000480905338968
0.000235042144563
0.000403301745477
0.000204123878769
0.000345376013427
0.000178149345187
0.000291718887285
0.000157407840736
0.000244659546817
0.000138664363563
0.00020796095752
0.00012270920931
0.000175270532852
0.00010587680827
0.000152207739747
9.06331489529e-05
0.000137947207223
7.49844190594e-05
0.000125875555203
6.03193294318e-05
0.000114706279948
4.63118419626e-05
0.000107197299037
3.50805119953e-05
9.88391115122e-05
2.37511450078e-05
9.32638193626e-05
1.44511527631e-05
8.80244228882e-05
1.10522903136e-05
8.54719748019e-05
6.57724698089e-06
8.80111222691e-05
3.16534688102e-06
8.49475324509e-05
8.33281280683e-05
0.000975826225221
-0.0073666114525
0.00200671697076
-0.00778507501848
0.00303241297288
-0.00775082666711
0.00404767751145
-0.00767950987753
0.00504909975615
-0.00758460247161
0.00603349322644
-0.0074674727057
0.0069978820908
-0.00732931896999
0.00793952560696
-0.00717149377338
0.00885593911579
-0.00699548080882
0.00974490797772
-0.00680285951885
0.0106044959886
-0.00659526802563
0.0114330472014
-0.00637436662991
0.0122291824454
-0.00614180110635
0.0129917892892
-0.00589916745352
0.0137200067187
-0.00564797715203
0.0144132031216
-0.00538962512802
0.0150709492625
-0.00512535987295
0.0156929852722
-0.0048562587462
0.016279184305
-0.00458320823898
0.0168295127551
-0.00430689243036
0.0173439906738
-0.00402778881551
0.0178226527776
-0.00374617370068
0.0182655137513
-0.00346213467408
0.0186725375417
-0.00317559057777
0.0190436130777
-0.00288631491437
0.0193785344797
-0.00259396230285
0.0196769866174
-0.00229809421316
0.0199385331356
-0.00199820498841
0.0201626076768
-0.0016937466179
0.02034850638
-0.00138415543198
0.0204953840002
-0.00106888200706
0.0206022528637
-0.000747422380578
0.0206679892849
-0.000419359382121
0.0206913474729
-8.44085783888e-05
0.0206709848043
0.000257532700452
0.0206054989693
0.000606332823399
0.020493479398
0.000961575104429
0.0203335718041
0.00132251222857
0.020124555611
0.00168803263561
0.0198654294884
0.00205664450484
0.0195555000852
0.00242648506032
0.0191944636602
0.00279536082944
0.0187824696486
0.00316082310217
0.0183201518681
0.00352027821818
0.0178086128716
0.00387112382287
0.0172493537369
0.00421089718209
0.016644138336
0.0045374022305
0.0159948152033
0.00484879305619
0.0153030853828
0.00514354984261
0.0145703070126
0.00542034725466
0.013797308979
0.00567769985111
0.0129844366906
0.00591342177993
0.012131858509
0.006123698044
0.0112405843295
0.00630191502351
0.0103143182454
0.00643728632856
0.00936241584737
0.00651425868879
0.00840223901981
0.00651508474567
0.00745602909207
0.00642999362375
0.00652824566102
0.0062826615113
0.00564863955781
0.00604105933962
0.00479102571701
0.00578245064464
0.00406659455874
0.00533080518277
0.003415796444
0.00493647883738
0.00268933881422
0.0047211844584
0.0020924110515
0.00418699179576
0.00167034495543
0.00355729611978
0.00137519756547
0.00300102370097
0.00115243103097
0.00255591964053
0.000963693309067
0.00220751061778
0.000796260915062
0.00191570369494
0.00065565026673
0.00164748639616
0.000546913695649
0.00139972294486
0.000461035660268
0.00119028718074
0.000386541277782
0.0010215839582
0.00031707632152
0.000882114337317
0.000254542655384
0.000755544046177
0.000209667614101
0.000626180872615
0.000189092580439
0.000501431402298
0.000175019086469
0.000417316683772
0.000150647045745
0.000369697691024
0.000131516885941
0.000310816422208
0.000119821540367
0.000256316487839
0.00010556647976
0.000222181862807
9.3051976988e-05
0.000187754309877
7.89841958997e-05
0.000166247727758
6.5795926469e-05
0.000151112365987
5.29768998119e-05
0.000138674515985
3.97365533314e-05
0.000127928412977
2.86797995688e-05
0.00011823696255
1.8190611263e-05
0.000109309576474
1.18638343405e-05
9.95685062348e-05
5.98518299777e-06
9.38787234131e-05
2.78866061839e-06
8.86479651516e-05
2.07727332849e-06
8.86963502802e-05
8.27975970387e-07
8.61705146415e-05
8.41472105935e-05
0.000999087819973
-0.00836573622709
0.00205435419683
-0.00884037816071
0.00310395247478
-0.00880046422484
0.00414236182542
-0.00871795756675
0.0051659462107
-0.00860822575478
0.00617132380803
-0.00847288906932
0.00715535316648
-0.00831338735258
0.00811516241098
-0.00813134209997
0.00904817110375
-0.00792852882677
0.00995210570528
-0.00770683354496
0.0108250074654
-0.00746820950171
0.0116652345112
-0.00721463352403
0.0124714569056
-0.00694806371067
0.01324264609
-0.0066703970284
0.0139780567937
-0.0063834286901
0.0146772028263
-0.00608881224322
0.0153398248268
-0.00578802349673
0.0159658523235
-0.00548232820599
0.0165553592515
-0.00517275778652
0.0171085169392
-0.00486009319897
0.0176255450988
-0.0045448608556
0.0181066659337
-0.00422733903308
0.0185520620335
-0.00390757624475
0.0189618422763
-0.00358541709922
0.0193360143971
-0.00326053448985
0.01967446576
-0.00293246214638
0.0199769483921
-0.00260062672124
0.0202430680939
-0.00226437582289
0.0204722736056
-0.00192300487415
0.0206638471093
-0.0015757831582
0.0208168949708
-0.00122198588988
0.0209303419341
-0.000860927035254
0.0210029312765
-0.00049200836425
0.0210332350664
-0.00011477384308
0.0210196766584
0.000271027568943
0.0209605698444
0.000665374112645
0.020854175656
0.00106790160195
0.0206987790256
0.00147783902446
0.020492783853
0.00189395569428
0.0202348237169
0.00231453019533
0.0199238810869
0.00273735084722
0.0195594033041
0.0031597591174
0.0191413996013
0.00357874472039
0.0186704966671
0.0039910957156
0.0181479330671
0.00439359938581
0.0175754666242
0.00478327075302
0.0169551936667
0.00515758055819
0.0162892637665
0.00551462013811
0.0155795379821
0.00585317329925
0.0148271701521
0.00617260003313
0.0140322348327
0.00647252820254
0.0131934004032
0.00675214094997
0.0123080426768
0.00700896190261
0.0113731728862
0.0072366996654
0.0103883319921
0.00742206586854
0.00936177839943
0.00754075750649
0.00831962601725
0.00755718946302
0.00730506781897
0.00744449997205
0.00629604641635
0.0072916308225
0.0053713325743
0.00696574063087
0.00437269112455
0.00678101543471
0.00368683761365
0.00601659484839
0.0031402748983
0.00548298401555
0.00218671573157
0.00567460968932
0.0015107719193
0.00486289270424
0.00114801412607
0.00391989437016
0.000960543143484
0.00318847739274
0.000837726263247
0.00267857484192
0.00071054886122
0.00233468497445
0.000567963693801
0.00205811362651
0.000442946186153
0.00177251243327
0.000363980632015
0.00147851615701
0.000312041371606
0.00124224748072
0.000262426386158
0.00107104708286
0.000203753765551
0.000940800227226
0.000139591768926
0.000819599599663
9.88198736564e-05
0.000666931600706
0.000107116013199
0.000493101365329
0.000122772111553
0.000401591735739
9.39756356891e-05
0.000398500703632
7.90330436222e-05
0.000325711938543
8.29653280356e-05
0.000252351690685
7.11082013182e-05
0.000234007881941