/*--------------------------------*- C++ -*----------------------------------*\
| =========                 |                                                 |
| \\      /  F ield         | OpenFOAM: The Open Source CFD Toolbox           |
|  \\    /   O peration     | Version:  v1906                                 |
|   \\  /    A nd           | Web:      www.OpenFOAM.com                      |
|    \\/     M anipulation  |                                                 |
\*---------------------------------------------------------------------------*/
FoamFile
{
    version     2.0;
    format      ascii;
    class       surfaceScalarField;
    location    "411";
    object      phia;
}
// * * * * * * * * * * * * * * * * * * * * * * * * * * * * * * * * * * * * * //

dimensions      [0 3 -1 0 0 0 0];
oriented        oriented;


internalField   nonuniform List<scalar> 
18240
(
0.000844361993222
-0.000844211378856
0.00173054566587
-0.000886004256375
0.00261460493052
-0.000883908174605
0.00349146527875
-0.000876675924492
0.00435820807812
-0.000866599252995
0.0052123448187
-0.000853949107435
0.00605142137492
-0.000838941407849
0.00687330591134
-0.000821695008653
0.00767582709891
-0.000802394959162
0.00845717153215
-0.000781154345951
0.00921546118553
-0.000758172826443
0.00994921419095
-0.000733563623627
0.0106568553033
-0.000707533848693
0.0113372294524
-0.000680186666029
0.0119890509351
-0.000651723931557
0.0126114629315
-0.000622227502248
0.0132034332632
-0.00059188234509
0.0137643538701
-0.000560740109133
0.0142933925708
-0.000528960166322
0.0147901268881
-0.000496558706585
0.0152538614888
-0.000463665131255
0.0156842910129
-0.000430259599338
0.0160807934816
-0.000396441744572
0.0164431166633
-0.000362159622322
0.0167706569426
-0.000327487731647
0.017063163463
-0.000292349922562
0.0173200117555
-0.000256803447564
0.0175409194713
-0.0002207585744
0.017725223033
-0.000184265734574
0.0178725989581
-0.000147234679284
0.0179823509635
-0.000109720632957
0.0180541278699
-7.16439328342e-05
0.0180872314244
-3.30779058375e-05
0.0180813280709
6.02770328226e-06
0.0180357798215
4.5568773335e-05
0.0179503406351
8.55546046515e-05
0.0178245181731
0.000125838598557
0.0176582470339
0.000166377356943
0.0174512858389
0.00020697358669
0.017203858729
0.000247523969681
0.0169160913733
0.000287776821526
0.016588612826
0.000327566091042
0.0162220345441
0.000366585655696
0.0158175067303
0.000404606402128
0.0153762447522
0.000441268273174
0.0149000369402
0.000476278194254
0.0143908217462
0.000509221295024
0.0138511449693
0.000539740121522
0.0132837838297
0.000567367872082
0.012692147508
0.000591694246314
0.012079930259
0.000612225268943
0.0114514398309
0.000628544572278
0.0108112469894
0.000640202253659
0.0101644215603
0.000646876390802
0.00951614834925
0.000648282871695
0.00887186716693
0.000644328177581
0.00823685738351
0.000635018367674
0.00761631327132
0.000620585635019
0.00701493962466
0.000601380543963
0.00643700974559
0.000577964843854
0.00588602579845
0.00055098901687
0.00536480035723
0.000521253731787
0.00487523718949
0.000489566805744
0.00441849408266
0.000456765865641
0.00399491541342
0.000423582265955
0.00360425852816
0.000390675980298
0.00324571361479
0.000358549982562
0.0029181174853
0.000327613153991
0.00261998992392
0.000298134943032
0.00234969124591
0.000270314676871
0.00210544776082
0.000244253583016
0.00188544847954
0.000220015172625
0.00168785961055
0.000197601962183
0.00151087657206
0.000176999832301
0.0013527386023
0.000158154126978
0.00121175558211
0.000141001462793
0.00108632553304
0.000125449029065
0.000974945271118
0.000111400539517
0.000876229305917
9.87371492876e-05
0.000788917602052
8.7333393291e-05
0.000711917940752
7.70221210964e-05
0.000644386333032
6.75540199767e-05
0.000586019136237
5.83901635103e-05
0.000538360866045
4.76813284727e-05
0.000497546517983
4.08385067484e-05
0.000457300538277
4.02718021006e-05
0.000420220119652
3.71086850155e-05
0.000387708280546
3.25444106802e-05
0.000354355123518
3.33901062943e-05
0.000316618757451
3.77813575222e-05
0.000276965775448
3.970403433e-05
0.000235399050377
4.16278188995e-05
0.000187277967851
4.81910023379e-05
0.000129340787974
5.80128183139e-05
6.2662589313e-05
6.67570937874e-05
6.27036946071e-05
0.000891528149435
-0.00173557581649
0.00183816800968
-0.00183246691698
0.00277955517525
-0.00182512508118
0.00371235697808
-0.00180929963096
0.00463404662576
-0.00178812208982
0.005542124382
-0.00176184995881
0.00643409067883
-0.00173074532282
0.00730763429138
-0.0016950640271
0.00816051615003
-0.00165511976463
0.00899073861195
-0.00161120558356
0.00979638494673
-0.00156366818361
0.0105758033163
-0.0015128150831
0.0113274140914
-0.00145900038945
0.0120499090399
-0.0014025198491
0.0127420303398
-0.00134370821191
0.0134027832615
-0.00128282450537
0.0140311909102
-0.0012201605892
0.0146265191151
-0.00115591883625
0.015188011746
-0.00109033123078
0.0157151270554
-0.00102353144897
0.0162072589971
-0.000955683507511
0.016663984635
-0.000886849948384
0.0170847770729
-0.000817128623366
0.0174692634024
-0.000746518194748
0.0178169344415
-0.00067506117759
0.0181274122327
-0.000602707657288
0.0184001611387
-0.00052946256078
0.0186347632643
-0.000455248426147
0.0188306347031
-0.000380054993435
0.0189873064381
-0.000303801952852
0.019104151227
-0.000226490588424
0.0191806691872
-0.000148065226989
0.0192162235186
-6.85644865751e-05
0.0192103276845
1.20124494317e-05
0.0191623977341
9.35597026324e-05
0.0190720379141
0.000175995657198
0.0189388089706
0.000259122062667
0.0187625080207
0.00034275197529
0.018542953419
0.000426576637979
0.0182802538856
0.000510289827986
0.0179746095362
0.000593464038472
0.017626565516
0.000675669489744
0.0172368294677
0.000756359663619
0.0168065068738
0.000834982072513
0.0163369369255
0.000910872107469
0.0158299096215
0.000983353125872
0.0152875227742
0.00105163889412
0.0147123812437
0.00111492486117
0.0141074729641
0.00117230481406
0.0134763438467
0.00122286353552
0.0128229766012
0.00126562026662
0.012151920127
0.00129963955569
0.011468136774
0.00132401296499
0.0107770542037
0.00133799591336
0.0100843465538
0.00134101666606
0.00939589464712
0.00133281399648
0.00871750657488
0.00131342980045
0.00805482177937
0.0012833000727
0.00741302335925
0.00124319859003
0.00679674510217
0.00119426755093
0.00620983148899
0.00113791804173
0.0056552858389
0.0010758184027
0.00513513994117
0.00100972450993
0.00465053263821
0.000941388243203
0.0042017433755
0.000872381584217
0.00378837495989
0.00080405775455
0.0034094592985
0.000737475773543
0.00306363849317
0.000673446966255
0.0027492569272
0.000612527603746
0.00246449148954
0.000555093454285
0.00220740811349
0.000501349540808
0.00197603842384
0.000451399371285
0.0017684067184
0.000405248417831
0.00158257183554
0.000362851174674
0.00141664480052
0.00032409857454
0.00126881648173
0.000288848665508
0.00113737193791
0.000256913651052
0.00102070522534
0.000228088473202
0.000917324842327
0.000202139744011
0.000825851416441
0.000178829694026
0.00074499618381
0.000157900783475
0.000673487614917
0.000139086233346
0.000609818050053
0.000122083716881
0.000550990907429
0.000106532481991
0.000497778968215
9.40746351533e-05
0.000450308934689
8.77675420706e-05
0.000411000441789
7.64455919679e-05
0.000377709408277
6.58671854936e-05
0.00034611566532
6.50198073539e-05
0.000312980880239
7.09593529962e-05
0.00027499308353
7.77438001361e-05
0.00023332257972
8.33565483649e-05
0.00018768036348
9.38980430316e-05
0.000133209607044
0.00011255967084
6.55022274425e-05
0.00013454140587
0.000128239434114
0.000899751380286
-0.00263516108831
0.00185207766242
-0.00278461690181
0.00280019759344
-0.00277307066279
0.00373979214824
-0.00274871839526
0.0046681127074
-0.00271627058359
0.00558255575364
-0.00267611962034
0.00648060264084
-0.00262862360715
0.00735989035518
-0.00257418174177
0.00821818412919
-0.0025132493405
0.00905344280485
-0.00244629861272
0.00986377106483
-0.00237383755071
0.0106474831196
-0.00229636670133
0.0114030384044
-0.0022144028003
0.0121291046293
-0.00212843158653
0.0128244790664
-0.00203893643234
0.0134881512174
-0.0019463487167
0.0141192118781
-0.00185108214024
0.0147169161812
-0.00175348223656
0.0152805834878
-0.00165386692473
0.015809662211
-0.00155247666128
0.0163036240877
-0.00144952147742
0.0167620326561
-0.0013451326544
0.0171844357837
-0.00123941571381
0.0175704394833
-0.00113240381689
0.0179196019717
-0.00102411550086
0.0182315138831
-0.000914509338003
0.0185056964712
-0.00080354483943
0.0187416884625
-0.000691138005259
0.0189389502277
-0.000577224163443
0.0190969572784
-0.000461714342637
0.019215112116
-0.000344560422195
0.0192928437267
-0.00022570981135
0.0193295289316
-0.000105172067005
0.0193245980837
1.70228212119e-05
0.0192774665506
0.000140761664448
0.0191876452486
0.000265889159158
0.0190546823503
0.000392148467219
0.0188782759986
0.000519223425944
0.0186582246088
0.000646684916609
0.0183945378193
0.00077403496426
0.018087392735
0.00090065987542
0.0177372391973
0.00102587512795
0.0173447602732
0.00114888382431
0.0169109701358
0.00126881875055
0.0164371800808
0.00138470266413
0.0159250913284
0.00149548362944
0.0153767711106
0.00159999565103
0.0147947445368
0.00169698930113
0.0141819825081
0.00178510049898
0.0135419891764
0.00186289218247
0.0128787879726
0.00192885370887
0.0121969794226
0.00198148217463
0.0115016852105
0.00201933874579
0.0107985281363
0.00204118572327
0.0100934845334
0.00204608980121
0.00939275738571
0.00203357138957
0.00870253831577
0.00200367484562
0.00802882349184
0.00195704115894
0.00737715492372
0.00189488895602
0.00675245454843
0.00181898855394
0.00615880751484
0.00173158149444
0.00559932059506
0.00163532032718
0.00507601148635
0.0015330453738
0.00458986346588
0.00142754794869
0.00414093184704
0.00132132319505
0.00372854687344
0.00121645369801
0.00335148201608
0.00111455092192
0.00300813847971
0.0010168018056
0.0026966647384
0.000924012360004
0.00241507649624
0.000836693710261
0.00216132077216
0.000755117553656
0.00193333827261
0.000679395353255
0.00172908552852
0.000609515641423
0.00154656550001
0.0005453871228
0.00138384194403
0.000486839356358
0.00123906769095
0.000433641731671
0.00111049690746
0.000385504524872
0.00099650240685
0.000342104350825
0.000895575287782
0.000303089220975
0.000806323168705
0.000268104892533
0.000727440245275
0.000236807278715
0.000657644254854
0.00020890614151
0.000595537346811
0.000184214752288
0.000539028510779
0.000163065437272
0.000488630811303
0.000144496611056
0.000444623840047
0.000131801064846
0.00040164184133
0.000119456481406
0.000359779146266
0.000107761169006
0.0003257320925
9.91024934344e-05
0.000297889633584
9.88444440596e-05
0.000260153719106
0.000115528612769
0.000213667799266
0.000129899484246
0.000164700254218
0.000142932705536
0.000110321707771
0.000167002793293
5.63452788388e-05
0.00018857972136
0.000184618155312
0.000908209594192
-0.00354320343405
0.00186856053264
-0.00374479204456
0.00282479766544
-0.00372913180028
0.00377237347833
-0.00369611872564
0.00470842024693
-0.00365214360619
0.00563024252682
-0.00359776902037
0.00653526975527
-0.00353348040477
0.007421087004
-0.00345982975084
0.00828543682749
-0.00337743301429
0.00912624803337
-0.00328694518409
0.00994162618215
-0.00318905470631
0.0107298758962
-0.00308445723468
0.0114894801162
-0.00297385196869
0.0122191162421
-0.00285791470515
0.0129176251975
-0.00273729689542
0.0135840221311
-0.00261259939817
0.0142174569167
-0.00248437551272
0.0148172208578
-0.00235310713954
0.0153827010726
-0.00221921316702
0.0159133855034
-0.00208302959723
0.0164088144724
-0.00194482418652
0.0168685869013
-0.00180478134956
0.0172923125444
-0.00166302294005
0.0176796221191
-0.00151959752548
0.0180301231287
-0.00137450599874
0.0183434156919
-0.00122769392528
0.0186190537477
-0.00107908024373
0.0188565673169
-0.000928551435409
0.0190554301182
-0.000775992093363
0.0192150886525
-0.000621280476731
0.0193349372001
-0.000464321738633
0.0194143539056
-0.00030504172213
0.0194526846355
-0.000143423055082
0.0194492872868
2.04975222826e-05
0.0194035248247
0.000186596583377
0.0193148172867
0.000354666819769
0.0191826437083
0.000524387464403
0.0190065996571
0.000695330657412
0.0187864053209
0.000866937994602
0.0185219644079
0.00103853253001
0.0182133741434
0.0012093026916
0.0178609808796
0.00137831907557
0.0174653886204
0.00154452306299
0.0170275095029
0.0017067432298
0.0165485721183
0.00186368207021
0.0160301714466
0.00201392489121
0.0154742851147
0.00215591963892
0.0148833326562
0.00228797824777
0.0142602089068
0.00240825854093
0.0136083557651
0.00251477913184
0.0129318038013
0.00260543825945
0.0122352291017
0.00267808961363
0.0115239512829
0.00273064813438
0.0108039028556
0.00276126535747
0.0100815018494
0.00276852034365
0.00936347241524
0.0027516287788
0.00865658800256
0.00271058539689
0.00796741962336
0.00264623405038
0.00730205326805
0.00256027679149
0.00666588516723
0.00245517483645
0.0060633878119
0.00233409344558
0.00549785203307
0.00220086746636
0.00497124363382
0.00205966317197
0.00448427038487
0.0019145297423
0.00403658523489
0.00176901672167
0.00362706633501
0.00162598177499
0.00325406359024
0.00148756304429
0.00291560591436
0.00135526950874
0.00260954145634
0.00123008703362
0.00233365059954
0.00111259536276
0.0020857116633
0.00100306795526
0.00186354385507
0.000901575815659
0.00166501573115
0.000808057690966
0.0014880552844
0.000722362872693
0.00133066190918
0.000644249741225
0.00119093428675
0.000573387920058
0.00106708839362
0.000509370565408
0.000957473094384
0.000451741113697
0.00086057395678
0.000400010816253
0.000775015679736
0.000353686396131
0.000699547968666
0.000312298717702
0.000633018447273
0.000275459648932
0.000574305671663
0.000242951741522
0.000521650404725
0.000215744822761
0.000473639787058
0.000192532195857
0.000428346180501
0.000177121818551
0.00038445596196
0.000163376223495
0.000344869000995
0.000147379774049
0.00030413922115
0.000139867128646
0.000261680661499
0.000141341963218
0.000229840770886
0.000147415781854
0.000185400744805
0.000174395019339
0.0001326793699
0.000195710000672
8.77251757077e-05
0.000212016606686
4.54710182179e-05
0.000230892323932
0.000230115251121
0.000919150705442
-0.00446218645306
0.00189067905569
-0.00471614344224
0.00285794231698
-0.00469621847287
0.00381626936876
-0.00465426972464
0.00476268848794
-0.00459838817726
0.00569440843861
-0.00452931573379
0.00660878450571
-0.00444768518868
0.00750333934689
-0.00435421512392
0.00837577442038
-0.00424970106265
0.00922398710034
-0.00413499311497
0.0100460733186
-0.0040109790828
0.0108403363911
-0.00387856112876
0.0116052798213
-0.00373863951417
0.0123396077475
-0.0035920897399
0.0130422084453
-0.0034397483218
0.0137121471464
-0.00328239207285
0.0143486415261
-0.00312072773207
0.0149510485514
-0.00295537544821
0.0155188343637
-0.0027868643189
0.0160515579849
-0.0026156221261
0.0165488390839
-0.002441978365
0.017010342231
-0.00226616122486
0.017435746467
-0.0020883081445
0.0178247335553
-0.001908469251
0.0181769623707
-0.00172662370017
0.018492063241
-0.00154268734559
0.0187696186164
-0.00135653239736
0.0190091640884
-0.00116799730642
0.0192101757157
-0.000976908287849
0.0193720779282
-0.000783090830894
0.019494238269
-0.000586394322268
0.0195759827719
-0.000386701974552
0.01961659962
-0.000183959651908
0.0196153639851
2.18099773258e-05
0.0195715515603
0.000230481956912
0.0194844730656
0.000441814951368
0.0193534974155
0.000655429066013
0.0191780938003
0.000870797075107
0.0189578610185
0.00108723013639
0.0186925719827
0.00130387801395
0.0183822030635
0.00151972491837
0.0180269744543
0.00173359835144
0.0176273739037
0.00194417143558
0.0171841896974
0.00214997282537
0.016698529797
0.0023493846877
0.0161718542184
0.0025406408364
0.015606002822
0.00272180885628
0.0150032458946
0.00289077096646
0.0143663414891
0.0030451969053
0.0136986206072
0.00318253290625
0.013004076163
0.00330001490261
0.0122874567944
0.00339474042152
0.0115543224255
0.00346381336127
0.0108110343437
0.00350458290385
0.0100646349254
0.00351494717944
0.0093226132388
0.00349367787782
0.00859257672725
0.0034406461451
0.00788193857328
0.00335689694978
0.00719754916022
0.00324468631609
0.00654551352922
0.00310722674351
0.00593093032846
0.00294868788831
0.00535740037802
0.00277440530749
0.00482677884056
0.00259029050059
0.00433930401516
0.00240201037533
0.00389396506719
0.00221436228856
0.0034889430483
0.00203101151248
0.00312196494634
0.00185454993776
0.00279054030946
0.00168670316466
0.00249210856883
0.00152852838587
0.00222414333547
0.00138057055396
0.0019842134658
0.00124300882301
0.00177000070997
0.00111580064035
0.00157927703574
0.00099879491892
0.00140988092548
0.000891774021037
0.00125972416725
0.000794423122066
0.0011268315875
0.000706299182225
0.00100936767014
0.000626854722474
0.000905651249922
0.000555479121564
0.000814163840997
0.000491520929855
0.000733560973658
0.00043431256271
0.000662684257164
0.000383199166023
0.000600608873182
0.000337559186411
0.000546779309928
0.000296805475069
0.000501751909058
0.000260796694496
0.000457991102352
0.000236318746993
0.000414957136755
0.000220184126593
0.00037100557695
0.000207357753949
0.000319986094252
0.000198430529831
0.00027232560717
0.000187561455897
0.000227955491054
0.000185751244101
0.000191156439253
0.000184257137003
0.000158600989874
0.000207001644456
0.000112669738899
0.000241699983484
6.96705158179e-05
0.000255065357564
3.52471795195e-05
0.000265361442795
0.000265387923757
0.000932883192243
-0.00539490100906
0.00191872030867
-0.00570180373464
0.00290004293169
-0.00567736346679
0.00387203728409
-0.00562608754219
0.00483161331467
-0.00555778885242
0.00577586910059
-0.00547339771612
0.00670206681005
-0.00537371090271
0.00760765278349
-0.00525963109626
0.00849027328113
-0.00513215389865
0.00934778859641
-0.00499234321421
0.0101782793966
-0.00484130746678
0.0109800514361
-0.00468017360284
0.0117516318154
-0.00451006352141
0.0124917641245
-0.00433206885903
0.0131993949245
-0.00414722943605
0.0138736598983
-0.00395651081079
0.0145138616529
-0.00376078699952
0.0151194485177
-0.00356082347055
0.0156899861331
-0.00335726700653
0.016225132157
-0.00315063700251
0.0167246057507
-0.00294132483352
0.0171881627772
-0.00272959497806
0.0176155679364
-0.00251559409632
0.0180065747801
-0.00229936076617
0.018360904023
-0.00208084168519
0.0186782306575
-0.00185990658458
0.0189581695087
-0.00163636788975
0.0192002694728
-0.00140999773548
0.0194040058963
-0.0011805491615
0.019568781577
-0.000947774726627
0.0196939264284
-0.000711451307561
0.0197787060744
-0.000471397446491
0.0198223308379
-0.000227504069048
0.019823975035
2.02425475833e-05
0.019782797213
0.000271732855486
0.0196979713555
0.000526710471234
0.0195687187125
0.000784747873319
0.0193943489265
0.00104522984428
0.019174299216
0.00130733958829
0.0189081787665
0.00157005530631
0.0185958065896
0.0018321509749
0.0182372493789
0.00209220682102
0.0178328487083
0.00234862057589
0.0173832460013
0.00259962149943
0.0168893984171
0.00284327537429
0.0163525993106
0.00307748043505
0.0157745023439
0.00329994343454
0.0151571683932
0.00350814031689
0.0145031372686
0.00369926141927
0.0138155407218
0.00387016170937
0.0130982471946
0.00401733976003
0.0123560286589
0.00413698917646
0.0115947018309
0.00422516984757
0.0108211786416
0.00427813233053
0.0100433575674
0.00429279572174
0.00926979710317
0.00426726154931
0.00850926356246
0.00420120578921
0.00777033707503
0.00409584696453
0.00706086299639
0.00395418155292
0.00638793710893
0.003780165764
0.00575771492883
0.00357891896762
0.00517432248604
0.00335780124077
0.00463939328071
0.00312522260993
0.00415235335946
0.00288905403154
0.00371111458595
0.00265560625813
0.00331281542884
0.00242931869126
0.00295432126276
0.00221305215911
0.00263247056802
0.00200856353089
0.00234418770559
0.00181682024782
0.00208657794351
0.00163819079816
0.00185697980745
0.00147261791506
0.0016529536903
0.00131983923421
0.00147219399023
0.0011795685829
0.00131244363857
0.00105153886416
0.0011714947911
0.000935388860096
0.00104726983338
0.000830542731267
0.000937867458023
0.000736277572805
0.000841566010799
0.000651802459861
0.000756830528048
0.00057627913507
0.000682326715379
0.000508839705901
0.000616918081538
0.000448631648862
0.00055966631137
0.000394834968478
0.000509724933207
0.000346771070016
0.000466389883139
0.000304156189969
0.000422312455244
0.000280422420633
0.000377836593537
0.000264688311292
0.000336728538964
0.000248495204141
0.000298391727391
0.000236799413949
0.000253275005151
0.000232713642028
0.000205578958355
0.000233485531535
0.000156384085944
0.000233494654535
0.000123509276194
0.000239922449053
9.53245992502e-05
0.000269930415017
5.87007704055e-05
0.000291736733541
2.92932055169e-05
0.000294813765684
0.000294700551291
0.000949615950183
-0.00634434796653
0.00195297160452
-0.00670498089636
0.0029514960118
-0.00667570983154
0.00394019081684
-0.00661460489989
0.00491581787992
-0.00653323991893
0.00587534191798
-0.00643274723766
0.00681591079652
-0.00631410711422
0.00773487825133
-0.00617842792947
0.00862982211915
-0.00602692946721
0.00949855830634
-0.00586091365003
0.0103391485293
-0.00568173470868
0.0111499035252
-0.00549076859402
0.0119293800031
-0.0052893831412
0.0126763731367
-0.00507890846458
0.0133899028612
-0.00486060908486
0.0140691959712
-0.00463565744717
0.0147136624809
-0.00440511071661
0.0153228687906
-0.0041698907883
0.015896506622
-0.00393076968929
0.0164343610111
-0.0036883601664
0.0169362767701
-0.00344311330461
0.0174021271583
-0.00319532206508
0.0178317840055
-0.0029451316218
0.0182250926909
-0.0026925541264
0.0185818502678
-0.00243748791178
0.0189017892371
-0.0021797381783
0.0191845641995
-0.00191903942048
0.0194297433492
-0.00165507738162
0.0196368018786
-0.00138751207543
0.0198051197294
-0.00111600083256
0.0199339817257
-0.000840225381954
0.0200225826464
-0.000559914233549
0.0200700371335
-0.000274878130844
0.0200753968171
1.49596295091e-05
0.0200376735675
0.000309529337046
0.0199558714385
0.000608582369133
0.0198290247744
0.000911661023981
0.0196562433394
0.00121807455905
0.0194367604034
0.00152688282046
0.0191699824599
0.00183689062705
0.0188555351594
0.00214665294444
0.0184933029243
0.00245449100335
0.0180834574355
0.00275851538793
0.0176264747011
0.00305665073041
0.017123141012
0.0033466526447
0.0165745553145
0.00362610659409
0.0159821382618
0.00389239806384
0.0153476663638
0.00414264722249
0.0146733503666
0.00437361047105
0.0139619798548
0.0045815642228
0.0132171408712
0.00476220909115
0.0124435004976
0.00491065957832
0.0116470916525
0.00502160449511
0.0108355020708
0.00508974835879
0.0100177843068
0.00511053419729
0.00920400796918
0.00508106503244
0.00840448484597
0.00500075163715
0.00762943487702
0.0048709253025
0.00688780329816
0.00469583211526
0.00618799468872
0.00447998763295
0.00553809609542
0.00422882169772
0.00494317894166
0.00395271932474
0.00440440743457
0.00366399416843
0.00391976422939
0.00337369934129
0.00348539266039
0.0030899838626
0.00309689351371
0.00281782469506
0.00275001693772
0.00255993896784
0.00244079559457
0.00231779336085
0.00216555103095
0.00209207582124
0.00192096298257
0.00188278942152
0.00170415286944
0.00168944035468
0.00151263138266
0.00151137438563
0.00134408924285
0.00134812427118
0.00119618034249
0.00119946309495
0.00106650936723
0.00106507575805
0.000952852446729
0.00094421874234
0.00085323157644
0.000835919064907
0.000765877876101
0.000739178013829
0.000689229357452
0.000652950470443
0.000621964059701
0.000576128181702
0.000562979270877
0.000507639929777
0.000511377363722
0.000446460872883
0.000466297753716
0.000391874669323
0.0004259664039
0.000344512210575
0.000384510068594
0.000321905445923
0.000345156757992
0.00030407019872
0.000302600952757
0.000291081480653
0.000260954735829
0.000278478118492
0.000217597525066
0.000276106401588
0.000178965024565
0.000272155591578
0.000136067198376
0.000276431704564
9.60794261623e-05
0.00027995144071
7.5409184862e-05
0.0002906462501
4.851865255e-05
0.000318667232627
2.40871107246e-05
0.000319281676617
0.000318808560514
0.000969541986127
-0.00731371988659
0.00199377995134
-0.00772904072696
0.00301280211946
-0.00769455280182
0.00402137558609
-0.00762300039921
0.00501608027068
-0.00752776776622
0.00599371852527
-0.0074102103079
0.00695130026248
-0.00727151547911
0.0078860679839
-0.00711302437969
0.00879551739443
-0.00693620996796
0.00967741203531
-0.00674264195573
0.0105297915788
-0.00653395075506
0.0113509745801
-0.00631179109512
0.0121395549278
-0.00607780622551
0.0128943928897
-0.00583359250494
0.0136145996805
-0.00558066550294
0.0142995165901
-0.00532042759379
0.0149486877772
-0.00505413892045
0.0155618284243
-0.00478289225068
0.016138788168
-0.0045075941773
0.0166795125322
-0.00422895319184
0.0171840031754
-0.00394747661936
0.0176522802699
-0.00366347580214
0.0180843478492
-0.00337707987675
0.0184801647824
-0.00308825571355
0.0188396209422
-0.00279683274401
0.019162519569
-0.00250252942856
0.0194485638375
-0.0022049802913
0.0196973476235
-0.00190376167492
0.0199083483645
-0.00159841724653
0.0200809228378
-0.00128848357539
0.0202143053023
-0.000973519966361
0.0203076097032
-0.000653134492444
0.0203598378474
-0.000327025853484
0.0203698952191
4.9791167841e-06
0.0203366152648
0.000342882634849
0.0202587941476
0.000686473522396
0.0201352346222
0.00103528734326
0.0199647990776
0.00138857390224
0.0197464677565
0.00174527499887
0.0194793993396
0.00210401719544
0.0191629869628
0.00246312074566
0.0187969046749
0.00282062613758
0.0183811366369
0.00317433342931
0.0179159865014
0.00352184799192
0.0174020650436
0.00386061789301
0.0168402649449
0.00418794741084
0.0162317357039
0.00450096476163
0.0155778876693
0.00479653041525
0.0148804565994
0.00507107473843
0.0141416733187
0.00532037905924
0.0133645719002
0.00553934162528
0.0125534434856
0.00572181368893
0.0117143906507
0.00586068466597
0.010855765237
0.00594839118106
0.00998823385803
0.00597809167253
0.00912401918647
0.00594529851261
0.00827547349735
0.00584932795802
0.00745524710594
0.00569117784819
0.00667300652654
0.00547809722286
0.00593860959642
0.00521439310421
0.00526415365094
0.00490328203175
0.00465646459768
0.00456040653572
0.00411565635539
0.00420480213738
0.00363704643553
0.00385231356225
0.00321380104774
0.00351323481027
0.00283930436684
0.00319233305923
0.00250799196843
0.00289126009412
0.00221506880922
0.00261072976296
0.00195617454894
0.00235098076338
0.00172750601249
0.00211147232972
0.00152601149649
0.0018909497404
0.00134933461857
0.00168806630328
0.00119535271549
0.0015021224458
0.00106164463111
0.00133318510913
0.000945467168486
0.00118127017176
0.000844359956191
0.00104534507393
0.000756288895815
0.000924011086579
0.000679441020721
0.000816048036834
0.000612203301772
0.000720210930586
0.000553280544349
0.000635073480992
0.000501621845344
0.000559321990372
0.000456412262127
0.000491693925489
0.000416820566211
0.00043149022166
0.000378495564304
0.000382862083545
0.000341602774349
0.000358825280943
0.000306359945451
0.000339341880833
0.00026914820338
0.00032832456101
0.000226796850824
0.000320862873299
0.000186528392158
0.00031640947969
0.00014512345191
0.000313596893851
0.0001148240608
0.000306770006696
8.21885413109e-05
0.000312626233679
5.71245890642e-05
0.000315745517407
4.02282310868e-05
0.000335603744348
1.93921674323e-05
0.000340155564494
0.000338216628
0.00099287512634
-0.00830642471909
0.00204156692205
-0.00877755237337
0.00308457667153
-0.00873738308631
0.00411638764559
-0.00865463242469
0.00513335726048
-0.00854455996246
0.00613209312562
-0.00840877025721
0.00710944008091
-0.00824868842442
0.00806250884489
-0.00806592124415
0.00898869834339
-0.0078622299596
0.00988571122986
-0.00763948797605
0.0107515624977
-0.00739963801328
0.0115845817638
-0.00714464944402
0.0123834092645
-0.00687647605453
0.0131469854404
-0.00659701446578
0.013874533877
-0.00630806327597
0.0145655371029
-0.00601128388441
0.0152197053673
-0.00570816402196
0.0158369385674
-0.00539998619897
0.0164172827715
-0.00508780304482
0.0169608830259
-0.00477242212139
0.0174679354019
-0.00445440165786
0.017938641057
-0.00413405816712
0.0183731654172
-0.00381148495252
0.0187716044124
-0.00348657946032
0.0191339588022
-0.00315907587149
0.0194601159255
-0.00282857928844
0.0197498372104
-0.00249459825853
0.0200027491425
-0.00215657423485
0.0202183358203
-0.00181390843449
0.0203959324146
-0.00146598855162
0.0205347198993
-0.00111221962628
0.0206337229779
-0.000752053495839
0.0206918147633
-0.000385037183684
0.02070772983
-1.08590391677e-05
0.0206800888191
0.000370597198345
0.0206074359988
0.00075919663167
0.020488290399
0.00115450020327
0.02032120916
0.00155571944125
0.0201048603939
0.0019616853478
0.0198380996295
0.00237083681618
0.0195200426394
0.00278123403395
0.0191501239894
0.00319059831122
0.0187281315617
0.00359637655147
0.018254206966
0.00399582001854
0.0177288088331
0.00438606029546
0.0171526425577
0.00476415437579
0.016526577509
0.00512706770861
0.0158515841172
0.00547155919567
0.015128747948
0.00579394413331
0.0143594335672
0.00608972652653
0.0135456747782
0.00635312777927
0.012690885707
0.00657663126402
0.0118008278609
0.00675076011536
0.0108846561106
0.00686458376367
0.00995532317017
0.00690743837782
0.00902841608176
0.00687223539037
0.0081186444515
0.00675912424211
0.00724314218661
0.00656671796319
0.00641005732323
0.00631120432125
0.00563002909954
0.00599443635415
0.00492455725066
0.00560875887908
0.00430375030165
0.0051812162191
0.00376515860619
0.00474340059923
0.00329901095101
0.00431847002185
0.0028933275377
0.00391893446376
0.00253838560306
0.00354728899964
0.00222746624592
0.00320219848957
0.00195518315563
0.00288302917487
0.00171643378453
0.00258974993114
0.00150676486853
0.00232116345084
0.00132302720099
0.00207470854903
0.00116339520078
0.00184772119758
0.00102637741446
0.00163915795914
0.000909523191066
0.00145005717562
0.000809284648841
0.00128152622544
0.000722789049412
0.00113186112224
0.000648081564506
0.000998740172715
0.000583339163658
0.000880812630019
0.000526815473264
0.000776756809469
0.000477288926442
0.000684622300067
0.000433777775604
0.00060285541049
0.000395587774663
0.000529906733911
0.00036226847307
0.000464833055154
0.000325541090678
0.000419614571742
0.00029139060184
0.000393002413242