/*--------------------------------*- C++ -*----------------------------------*\
| =========                 |                                                 |
| \\      /  F ield         | OpenFOAM: The Open Source CFD Toolbox           |
|  \\    /   O peration     | Version:  v1906                                 |
|   \\  /    A nd           | Web:      www.OpenFOAM.com                      |
|    \\/     M anipulation  |                                                 |
\*---------------------------------------------------------------------------*/
FoamFile
{
    version     2.0;
    format      ascii;
    class       volVectorField;
    location    "336";
    object      U;
}
// * * * * * * * * * * * * * * * * * * * * * * * * * * * * * * * * * * * * * //

dimensions      [0 1 -1 0 0 0 0];


internalField   nonuniform List<vector> 
9216
(
(0.00271349664763 -0.00271605035493 0)
(0.00286101950437 -0.00876518833304 1.1710669935e-27)
(0.0028529342003 -0.0149086496993 1.84358025272e-31)
(0.00281571414952 -0.0210527206692 0)
(0.00276405275385 -0.0270941369464 0)
(0.00269938066278 -0.0330086994583 0)
(0.00262342055615 -0.038770598728 0)
(0.00253747509827 -0.0443569169791 0)
(0.00244289147537 -0.049747494133 0)
(0.0023408900763 -0.0549249842076 0)
(0.00223279193773 -0.0598747519752 0)
(0.00211973931579 -0.064584878153 0)
(0.00200295585964 -0.0690459678059 0)
(0.00188342538231 -0.0732510630282 0)
(0.0017622073764 -0.0771953771408 0)
(0.00164008077554 -0.0808761575158 0)
(0.00151791586264 -0.0842923925633 0)
(0.00139628063506 -0.0874446682031 0)
(0.0012758654238 -0.0903348863235 0)
(0.00115704849282 -0.0929661448436 0)
(0.00104036965563 -0.0953424890801 0)
(0.000926051854601 -0.097468828138 0)
(0.000814520052588 -0.0993507271102 0)
(0.000705877454539 -0.100994361185 0)
(0.000600467485096 -0.102406345505 0)
(0.000498304180649 -0.103593719796 0)
(0.000399675183043 -0.104563809073 0)
(0.000304527727041 -0.105324230144 0)
(0.000213111932927 -0.105882774321 0)
(0.000125324978597 -0.106247427793 0)
(4.13953524286e-05 -0.106426260992 0)
(-3.88293130187e-05 -0.106427503438 0)
(-0.000115168107474 -0.106259356348 0)
(-0.000187810565088 -0.105930022331 0)
(-0.000256568688714 -0.105447711837 0)
(-0.00032166197858 -0.104820615182 0)
(-0.000382926883949 -0.104056831991 0)
(-0.000440616838868 -0.10316439121 0)
(-0.000494584718378 -0.102151180142 0)
(-0.000545112192898 -0.101024964691 0)
(-0.000592065363617 -0.0997933276294 0)
(-0.000635749241951 -0.0984636865734 0)
(-0.000676040363122 -0.0970432431009 0)
(-0.000713262159957 -0.095538999274 0)
(-0.000747298083973 -0.0939577175421 0)
(-0.000778484308218 -0.0923059349292 0)
(-0.0008067080003 -0.0905899352009 0)
(-0.000832312739578 -0.0888157611874 0)
(-0.00085518599638 -0.0869891984078 0)
(-0.00087567328756 -0.0851157841242 0)
(-0.000893659887157 -0.0832008030931 0)
(-0.000909488755092 -0.0812492932845 0)
(-0.000923040831877 -0.0792660521578 0)
(-0.000934652486421 -0.0772556372235 0)
(-0.000944199571401 -0.0752223827856 0)
(-0.000952009254346 -0.0731703949365 0)
(-0.000957952259553 -0.071103576621 0)
(-0.000962344719415 -0.0690256151552 0)
(-0.000965053684583 -0.0669400151895 0)
(-0.000966383872444 -0.0648500784133 0)
(-0.000966200726613 -0.0627589422775 0)
(-0.000964797755257 -0.0606695504288 0)
(-0.000962041929857 -0.0585846970095 0)
(-0.000958216684077 -0.0565069880892 0)
(-0.000953193658655 -0.0544388900394 0)
(-0.00094724727493 -0.0523826814327 0)
(-0.00094025724034 -0.0503405060076 0)
(-0.00093249013537 -0.0483143161535 0)
(-0.000923836389579 -0.0463059298367 0)
(-0.00091455515977 -0.0443169660603 0)
(-0.000904549809759 -0.0423489068627 0)
(-0.000894072010692 -0.0404030264123 0)
(-0.000883039145097 -0.038480457976 0)
(-0.000871694341646 -0.0365821174556 0)
(-0.000859969440541 -0.0347087764958 0)
(-0.000848097418302 -0.0328609820523 0)
(-0.000836024022272 -0.0310391355346 0)
(-0.000823969705709 -0.0292434090897 0)
(-0.000811893124272 -0.027473831589 0)
(-0.000799999494944 -0.025730202764 0)
(-0.000788258701557 -0.024012185814 0)
(-0.000776857429795 -0.0223192198896 0)
(-0.000765774530921 -0.0206506201489 0)
(-0.000755173856344 -0.0190054900396 0)
(-0.000745038725319 -0.0173828301711 0)
(-0.00073550148338 -0.0157814548602 0)
(-0.000726535670319 -0.0142001181482 0)
(-0.000718211117999 -0.0126374553898 0)
(-0.00071042241957 -0.0110921706025 0)
(-0.000703007382128 -0.00956311783045 0)
(-0.00069535034068 -0.00804982835619 0)
(-0.00068594741684 -0.00655360113905 0)
(-0.000669585299166 -0.00508389349548 0)
(-0.00063211067913 -0.00362580465988 0)
(-0.000632699145371 -0.00216039897104 0)
(-0.0010784270734 -0.00107810941293 0)
(0.00878465090738 -0.00289128702281 0)
(0.00971363254347 -0.00978436704619 0)
(0.00969147227556 -0.0166647739847 -1.22975503613e-27)
(0.00956223980107 -0.023550815377 0)
(0.00938340593656 -0.0303125034616 0)
(0.00916228382309 -0.0369281526589 0)
(0.00890332875608 -0.0433703808498 0)
(0.00861069078984 -0.0496140000502 0)
(0.00828874559065 -0.0556366431461 0)
(0.00794173531851 -0.0614190197277 0)
(0.00757403191763 -0.0669449178776 0)
(0.00718966216951 -0.0722011732359 0)
(0.00679264681833 -0.0771775026552 0)
(0.00638648911749 -0.0818663446527 0)
(0.00597462086507 -0.086262602382 0)
(0.00555986249624 -0.0903634274199 0)
(0.00514497321093 -0.0941679350248 0)
(0.00473207296144 -0.0976769851277 0)
(0.0043232840128 -0.100892914113 0)
(0.00392010181214 -0.103819346491 0)
(0.00352411482359 -0.106460966865 0)
(0.00313631301117 -0.108823376465 0)
(0.00275787506765 -0.110912911971 0)
(0.00238940791286 -0.112736546778 0)
(0.00203179462797 -0.114301752086 0)
(0.00168536237081 -0.115616434703 0)
(0.0013507870346 -0.116688830689 0)
(0.00102819108323 -0.117527468579 0)
(0.000718103748106 -0.118141084613 0)
(0.000420492674884 -0.118538599687 0)
(0.000135780487345 -0.118729052314 0)
(-0.000136199150446 -0.118721544588 0)
(-0.000395138799073 -0.118525261337 0)
(-0.000641316543143 -0.118149459636 0)
(-0.000874483295256 -0.117603326947 0)
(-0.00109501556485 -0.116896015311 0)
(-0.00130274469143 -0.116036585262 0)
(-0.00149814220124 -0.1150339987 0)
(-0.00168110702758 -0.113897072796 0)
(-0.0018521929485 -0.112634472299 0)
(-0.00201135592531 -0.111254669143 0)
(-0.00215921808033 -0.109765936542 0)
(-0.00229578069136 -0.108176315864 0)
(-0.00242171886223 -0.106493613191 0)
(-0.00253706581122 -0.104725374087 0)
(-0.00264253279956 -0.102878882812 0)
(-0.00273817146541 -0.100961145531 0)
(-0.00282471262937 -0.0989788920906 0)
(-0.00290221310365 -0.0969385674424 0)
(-0.00297140734266 -0.0948463354257 0)
(-0.00303234604612 -0.0927080781175 0)
(-0.00308575373467 -0.0905294008407 0)
(-0.00313166597293 -0.0883156384097 0)
(-0.00317078639244 -0.0860718601771 0)
(-0.00320313004046 -0.0838028822015 0)
(-0.00322937260095 -0.0815132710793 0)
(-0.0032495067019 -0.0792073604659 0)
(-0.00326417660829 -0.0768892522274 0)
(-0.00327335476032 -0.0745628360707 0)
(-0.00327765456625 -0.0722317867827 0)
(-0.00327703362945 -0.0698995854539 0)
(-0.00327207787821 -0.0675695116868 0)
(-0.00326273821448 -0.0652446655867 0)
(-0.00324957875567 -0.0629279543984 0)
(-0.00323255282626 -0.0606221144921 0)
(-0.00321220882959 -0.0583296922328 0)
(-0.00318851174564 -0.0560530660725 0)
(-0.00316199992454 -0.0537944221419 0)
(-0.00313265756563 -0.0515557766485 0)
(-0.00310101658507 -0.04933894693 0)
(-0.00306708579607 -0.0471455750716 0)
(-0.00303139196027 -0.0449770956116 0)
(-0.00299397080571 -0.0428347611026 0)
(-0.00295534222987 -0.040719607563 0)
(-0.00291556845511 -0.0386324830541 0)
(-0.00287515836118 -0.0365740120769 0)
(-0.00283419751628 -0.0345446277592 0)
(-0.00279317732755 -0.0325445360229 0)
(-0.00275220168279 -0.030573752092 0)
(-0.00271173654842 -0.0286320652135 0)
(-0.00267189735721 -0.0267190797003 0)
(-0.00263311502825 -0.0248341806239 0)
(-0.00259550788725 -0.022976579859 0)
(-0.00255945935461 -0.0211452834538 0)
(-0.00252507653212 -0.0193391431356 0)
(-0.00249267247509 -0.0175568265882 0)
(-0.00246230726392 -0.0157968753837 0)
(-0.00243415500598 -0.0140576783036 0)
(-0.00240809075834 -0.0123375259202 0)
(-0.00238385049037 -0.0106345478143 0)
(-0.00236044646477 -0.00894661527767 0)
(-0.00233558932544 -0.0072707278895 0)
(-0.00230343927077 -0.00560141013956 0)
(-0.00224661419616 -0.00391493727482 0)
(-0.00216895384094 -0.00216432806792 0)
(-0.0021579458942 -0.000630305233625 0)
(0.0150385111397 -0.00293715322345 0)
(0.0166517583563 -0.00994512780571 0)
(0.0165914354186 -0.0169157379713 -1.22771370031e-27)
(0.0163608161711 -0.0239023924138 0)
(0.0160495966911 -0.0307610324968 0)
(0.0156675368995 -0.037468458678 0)
(0.0152211626759 -0.0439962549162 0)
(0.0147173847374 -0.0503186777246 0)
(0.0141635539597 -0.0564130415077 0)
(0.0135670941526 -0.0622599153535 0)
(0.0129354299836 -0.0678431223722 0)
(0.0122756493781 -0.0731496643499 0)
(0.0115945288441 -0.078169548427 0)
(0.0108982455082 -0.0828955766405 0)
(0.0101925070728 -0.0873230812395 0)
(0.00948230942315 -0.0914496611419 0)
(0.00877215774359 -0.0952748965341 0)
(0.00806584939346 -0.0988000910886 0)
(0.00736676243039 -0.102028012501 0)
(0.00667763939717 -0.104962674555 0)
(0.00600091994654 -0.107609125854 0)
(0.00533850518743 -0.109973283769 0)
(0.00469211702356 -0.112061775416 0)
(0.00406303012688 -0.113881820835 0)
(0.00345244791352 -0.115441118584 0)
(0.00286119637528 -0.116747767425 0)
(0.00229011275244 -0.11781018467 0)
(0.00173970110177 -0.118637053868 0)
(0.0012105338561 -0.119237263547 0)
(0.000702871927103 -0.119619869549 0)
(0.000217079657662 -0.119794046567 0)
(-0.000246778426673 -0.119769058546 0)
(-0.000688503314875 -0.11955421214 0)
(-0.00110820457361 -0.119158835492 0)
(-0.00150584653428 -0.118592232772 0)
(-0.00188169900865 -0.117863661577 0)
(-0.00223586561824 -0.116982293425 0)
(-0.00256876017477 -0.115957191097 0)
(-0.00288061413522 -0.114797274532 0)
(-0.00317196876318 -0.113511300637 0)
(-0.00344316519522 -0.112107833471 0)
(-0.00369485082363 -0.11059522758 0)
(-0.00392745442842 -0.108981603948 0)
(-0.00414170480161 -0.107274837832 0)
(-0.00433809358366 -0.105482540864 0)
(-0.00451740424935 -0.103612053577 0)
(-0.00468016563998 -0.1016704343 0)
(-0.0048271891664 -0.0996644565349 0)
(-0.00495901606031 -0.0976006041485 0)
(-0.00507646066546 -0.0954850729571 0)
(-0.00518005463319 -0.0933237720204 0)
(-0.00527059386859 -0.0911223288257 0)
(-0.00534858279874 -0.0888860953896 0)
(-0.0054147825542 -0.0866201557047 0)
(-0.00546965851423 -0.0843293357809 0)
(-0.00551392698218 -0.0820182121652 0)
(-0.00554800895793 -0.0796911241096 0)
(-0.00557257254569 -0.0773521814817 0)
(-0.00558799581786 -0.0750052779174 0)
(-0.00559490184546 -0.0726540968663 0)
(-0.00559363313619 -0.0703021240131 0)
(-0.00558477617408 -0.0679526501081 0)
(-0.00556864978126 -0.0656087819789 0)
(-0.00554581580983 -0.0632734415701 0)
(-0.00551658345645 -0.0609493746777 0)
(-0.0054815029237 -0.0586391458465 0)
(-0.00544088773081 -0.0563451451727 0)
(-0.00539528816276 -0.0540695795619 0)
(-0.0053450335012 -0.0518144778272 0)
(-0.00529068247941 -0.0495816789824 0)
(-0.00523258754327 -0.0473728368373 0)
(-0.00517131971617 -0.0451894065467 0)
(-0.00510725699188 -0.0430326495104 0)
(-0.00504098147592 -0.0409036192358 0)
(-0.00497289419291 -0.0388031678663 0)
(-0.00490358253355 -0.0367319325271 0)
(-0.00483346366869 -0.0346903441299 0)
(-0.00476312065319 -0.032678614957 0)
(-0.00469297664879 -0.0306967505904 0)
(-0.00462359801566 -0.0287445393674 0)
(-0.00455540124731 -0.0268215675719 0)
(-0.00448892137466 -0.0249272109581 0)
(-0.004424553153 -0.0230606533914 0)
(-0.00436278244836 -0.0212208803743 0)
(-0.00430396194876 -0.01940670033 0)
(-0.004248501418 -0.0176167386963 0)
(-0.0041966745726 -0.0158494581859 0)
(-0.00414875851534 -0.0141031435676 0)
(-0.00410485906939 -0.0123758967968 0)
(-0.00406498159262 -0.0106655550771 0)
(-0.00402886932336 -0.00896952036376 0)
(-0.00399608876241 -0.00728427886708 0)
(-0.00396626959078 -0.00560442051546 0)
(-0.00393974322526 -0.00391783178291 0)
(-0.00391530985279 -0.00222943600179 0)
(-0.00361619912525 -0.00062645489929 0)
(0.0214401785764 -0.00298243741488 0)
(0.0237584102926 -0.010095353978 0)
(0.0236692376931 -0.0171613582434 1.22714292094e-27)
(0.0233351830013 -0.0242441214648 0)
(0.0228852265182 -0.0311935233013 0)
(0.022333824808 -0.0379848672642 0)
(0.0216904289056 -0.0445885618921 0)
(0.0209651206258 -0.0509781573927 0)
(0.0201685660417 -0.0571306179607 0)
(0.0193116082428 -0.0630264584265 0)
(0.0184049819869 -0.0686497027987 0)
(0.0174589909088 -0.0739877539728 0)
(0.0164833494842 -0.0790311774059 0)
(0.0154869758228 -0.0837734349632 0)
(0.0144779628667 -0.0882105815961 0)
(0.0134634730566 -0.0923409555668 0)
(0.012449812877 -0.0961648676504 0)
(0.0114423952416 -0.0996843122168 0)
(0.0104458796023 -0.102902697519 0)
(0.00946416438372 -0.105824610899 0)
(0.00850055777616 -0.108455609925 0)
(0.00755776989808 -0.110802050091 0)
(0.00663808943266 -0.112870936094 0)
(0.00574335673842 -0.11466980458 0)
(0.00487513290963 -0.11620662377 0)
(0.00403464555422 -0.117489716882 0)
(0.00322294606714 -0.118527694666 0)
(0.00244082785371 -0.119329404212 0)
(0.00168897381396 -0.119903880414 0)
(0.00096785107097 -0.120260308191 0)
(0.000277852957556 -0.120407981239 0)
(-0.000380819885586 -0.120356281701 0)
(-0.00100801656199 -0.120114617954 0)
(-0.00160377461114 -0.119692411918 0)
(-0.00216817229912 -0.11909906529 0)
(-0.00270146790176 -0.118343925508 0)
(-0.00320394613596 -0.117436252734 0)
(-0.00367606609761 -0.116385191737 0)
(-0.00411829982528 -0.115199741197 0)
(-0.00453128419361 -0.113888728716 0)
(-0.00491565228266 -0.112460784222 0)
(-0.00527218894296 -0.110924319318 0)
(-0.00560165607308 -0.109287505945 0)
(-0.0059049515454 -0.107558260913 0)
(-0.00618292964786 -0.105744230567 0)
(-0.00643656340847 -0.103852781039 0)
(-0.00666676174062 -0.1018909892 0)
(-0.00687453492322 -0.0998656385727 0)
(-0.00706080990009 -0.0977832163622 0)
(-0.0072265988577 -0.0956499146601 0)
(-0.00737281426194 -0.0934716329753 0)
(-0.00750044010807 -0.0912539838356 0)
(-0.00761034809374 -0.0890022998012 0)
(-0.00770347124466 -0.0867216423394 0)
(-0.00778062264163 -0.0844168120279 0)
(-0.00784267067199 -0.0820923591788 0)
(-0.00789036139448 -0.0797525956429 0)
(-0.00792449466227 -0.0774016056138 0)
(-0.00794575104668 -0.0750432574406 0)
(-0.00795486751067 -0.0726812129846 0)
(-0.00795246935306 -0.0703189379204 0)
(-0.00793924405384 -0.0679597083774 0)
(-0.00791577851239 -0.0656066186626 0)
(-0.00788272922032 -0.0632625843173 0)
(-0.00784066475157 -0.0609303466647 0)
(-0.00779023057748 -0.058612472092 0)
(-0.00773199683277 -0.0563113535422 0)
(-0.0076666159646 -0.0540292063901 0)
(-0.00759467582001 -0.051768067484 0)
(-0.00751684879216 -0.0495297885392 0)
(-0.00743375061618 -0.0473160338392 0)
(-0.00734607982168 -0.045128272333 0)
(-0.00725448282873 -0.04296777519 0)
(-0.00715968306124 -0.0408356078791 0)
(-0.0070623532722 -0.0387326288208 0)
(-0.00696323378179 -0.0366594825623 0)
(-0.00686301304758 -0.034616600449 0)
(-0.0067624348229 -0.0326041957324 0)
(-0.00666218807814 -0.0306222669596 0)
(-0.00656300275337 -0.0286705955009 0)
(-0.00646554996526 -0.0267487518668 0)
(-0.00637052602015 -0.0248560957154 0)
(-0.00627856359252 -0.0229917849122 0)
(-0.00619030317005 -0.0211547774624 0)
(-0.00610631527022 -0.0193438419993 0)
(-0.00602715794632 -0.0175575592634 0)
(-0.00595330948327 -0.0157943294573 0)
(-0.00588521118971 -0.0140523641659 0)
(-0.00582321444774 -0.0123296729154 0)
(-0.00576762591394 -0.0106240143338 0)
(-0.00571872467159 -0.00893281854887 0)
(-0.00567696423601 -0.00725303290985 0)
(-0.00564340410027 -0.00558101205234 0)
(-0.0056195753004 -0.00391110317499 0)
(-0.00558583312067 -0.00226665918566 0)
(-0.00505577237181 -0.000658112171486 0)
(0.0279485132364 -0.00304189885297 0)
(0.0309735821258 -0.0102928578321 0)
(0.0308529523902 -0.0174912016223 0)
(0.0304101246739 -0.0247031424433 0)
(0.0298141529981 -0.0317737046623 0)
(0.0290846311008 -0.0386764822701 0)
(0.0282344376503 -0.0453804513283 0)
(0.0272772472099 -0.0518582479369 0)
(0.0262274371368 -0.0580863946047 0)
(0.025099580798 -0.0640453834949 0)
(0.023908010326 -0.0697195714542 0)
(0.0226664339894 -0.0750969760092 0)
(0.0213876723339 -0.080168986497 0)
(0.0200834513214 -0.0849300241057 0)
(0.0187643116153 -0.0893771753984 0)
(0.0174395523122 -0.0935098251342 0)
(0.0161172712012 -0.0973293032287 0)
(0.014804407026 -0.10083856112 0)
(0.0135068552815 -0.104041882347 0)
(0.012229555241 -0.106944633659 0)
(0.0109766328388 -0.109553054125 0)
(0.00975149144907 -0.111874082994 0)
(0.00855694919321 -0.113915219835 0)
(0.00739530913959 -0.115684415082 0)
(0.00626847443515 -0.11718998308 0)
(0.00517798824654 -0.118440535369 0)
(0.00412512280387 -0.119444926704 0)
(0.00311088984321 -0.120212212366 0)
(0.00213610768381 -0.120751610512 0)
(0.00120138871375 -0.121072469798 0)
(0.000307192049226 -0.121184233692 0)
(-0.000546202896731 -0.121096429988 0)
(-0.00135864724158 -0.120818596228 0)
(-0.00213016312792 -0.120360286424 0)
(-0.00286089515013 -0.119731027881 0)
(-0.00355114789183 -0.118940287805 0)
(-0.00420133742045 -0.117997441689 0)
(-0.0048120292947 -0.116911742781 0)
(-0.00538388608812 -0.115692291859 0)
(-0.00591770479032 -0.114348009911 0)
(-0.00641436025417 -0.112887611905 0)
(-0.00687484207206 -0.111319584106 0)
(-0.00730019465605 -0.10965216329 0)
(-0.0076915541226 -0.107893319848 0)
(-0.00805008608587 -0.106050743157 0)
(-0.00837702326574 -0.104131830938 0)
(-0.00867360213686 -0.102143681167 0)
(-0.00894110194329 -0.10009308775 0)
(-0.00918078137476 -0.0979865386592 0)
(-0.0093939196319 -0.0958302174105 0)
(-0.00958175421268 -0.0936300068722 0)
(-0.00974552454579 -0.0913914957501 0)
(-0.0098864119163 -0.0891199868987 0)
(-0.010005586079 -0.0868205074967 0)
(-0.0101041481607 -0.0844978205421 0)
(-0.010183180403 -0.0821564371894 0)
(-0.0102436926321 -0.079800629615 0)
(-0.0102866749721 -0.0774344436682 0)
(-0.0103130480555 -0.0750617113991 0)
(-0.0103237180755 -0.0726860623056 0)
(-0.0103195304801 -0.0703109337525 0)
(-0.010301326329 -0.0679395792733 0)
(-0.0102698987814 -0.0655750757388 0)
(-0.0102260493445 -0.0632203278201 0)
(-0.0101705462276 -0.0608780711994 0)
(-0.0101041789724 -0.0585508729068 0)
(-0.0100277177025 -0.0562411307982 0)
(-0.00994196469456 -0.0539510702886 0)
(-0.00984771377564 -0.0516827407971 0)
(-0.00974579775944 -0.0494380098923 0)
(-0.0096370476205 -0.0472185580532 0)
(-0.00952233512755 -0.0450258716504 0)
(-0.00940253188002 -0.0428612373786 0)
(-0.00927854696581 -0.0407257354682 0)
(-0.00915128633915 -0.0386202352221 0)
(-0.00902168564503 -0.0365453897147 0)
(-0.00889067067551 -0.0345016334138 0)
(-0.00875918573659 -0.0324891792112 0)
(-0.00862815601081 -0.030508018857 0)
(-0.00849851182871 -0.0285579227846 0)
(-0.00837115369268 -0.0266384434867 0)
(-0.00824697274549 -0.0247489180823 0)
(-0.00812681905521 -0.022888474329 0)
(-0.00801151838036 -0.0210560352459 0)
(-0.00790184421828 -0.0192503264133 0)
(-0.00779853125843 -0.0174698805945 0)
(-0.00770225272545 -0.0157130432545 0)
(-0.00761363400221 -0.0139779717414 0)
(-0.00753324460951 -0.0122626328447 0)
(-0.00746163300119 -0.0105647913082 0)
(-0.00739937794575 -0.00888200101993 0)
(-0.00734722761207 -0.00721162261782 0)
(-0.00730624873408 -0.00555096984757 0)
(-0.00727631404143 -0.00389613106478 0)
(-0.00722308248548 -0.00227250032003 0)
(-0.00649265596984 -0.000666682826662 0)
(0.0346013758838 -0.0031172378892 0)
(0.0383442153149 -0.0105456903613 0)
(0.0381875181953 -0.0179158348258 0)
(0.0376278960955 -0.025294250238 0)
(0.0368755384249 -0.032520270716 0)
(0.0359556695701 -0.0395653933016 0)
(0.0348851625435 -0.0463968563337 0)
(0.0336818379259 -0.0529861946842 0)
(0.032364304665 -0.0593094440051 0)
(0.030951308959 -0.0653471622986 0)
(0.0294611535178 -0.0710842382814 0)
(0.0279112235694 -0.0765095861805 0)
(0.0263176447635 -0.0816157535979 0)
(0.0246950537621 -0.0863984821543 0)
(0.0230564876161 -0.0908562536197 0)
(0.0214133560287 -0.0949898491072 0)
(0.0197754970556 -0.0988019397896 0)
(0.0181512746791 -0.102296722389 0)
(0.016547722575 -0.10547960474 0)
(0.0149706936263 -0.108356943862 0)
(0.0134250276424 -0.110935833381 0)
(0.0119147000813 -0.113223936758 0)
(0.0104429730084 -0.115229359184 0)
(0.00901251381834 -0.116960552457 0)
(0.00762551055277 -0.118426244905 0)
(0.00628375058591 -0.119635390855 0)
(0.00498869760971 -0.120597132698 0)
(0.00374153341449 -0.121320771633 0)
(0.00254320387681 -0.121815742103 0)
(0.00139443384437 -0.122091588228 0)
(0.000295753329538 -0.122157933967 0)
(-0.000752505162073 -0.122024485876 0)
(-0.00175018067633 -0.121700938474 0)
(-0.00269730319277 -0.121197012484 0)
(-0.00359407055459 -0.120522391751 0)
(-0.00444085789872 -0.119686695335 0)
(-0.00523819965614 -0.118699444549 0)
(-0.0059867947643 -0.117570030849 0)
(-0.00668748502376 -0.116307684516 0)
(-0.00734125745994 -0.114921445606 0)
(-0.00794921888388 -0.113420136811 0)
(-0.00851259588435 -0.111812339464 0)
(-0.00903270650233 -0.110106372179 0)
(-0.00951095881634 -0.108310273132 0)
(-0.0099488209304 -0.106431785408 0)
(-0.0103478193434 -0.104478346155 0)
(-0.0107095085467 -0.102457078894 0)
(-0.0110354702575 -0.100374789506 0)
(-0.0113272838179 -0.098237965268 0)
(-0.0115865273591 -0.0960527772119 0)
(-0.0118147501529 -0.0938250851785 0)
(-0.0120134765964 -0.0915604456049 0)
(-0.0121841815204 -0.0892641214698 0)
(-0.0123282978207 -0.0869410941945 0)
(-0.0124471955848 -0.0845960769251 0)
(-0.0125421938515 -0.0822335287761 0)
(-0.0126145440336 -0.0798576695528 0)
(-0.0126654459343 -0.0774724943492 0)
(-0.0126960354741 -0.0750817876468 0)
(-0.0127074044392 -0.0726891362085 0)
(-0.0127005918785 -0.0702979406304 0)
(-0.0126766065406 -0.0679114248314 0)
(-0.0126364207897 -0.0655326436144 0)
(-0.0125809941436 -0.0631644876412 0)
(-0.0125112681788 -0.0608096863113 0)
(-0.0124281894628 -0.058470807989 0)
(-0.0123327039199 -0.0561502583878 0)
(-0.0122257775201 -0.0538502766412 0)
(-0.0121083888404 -0.0515729301636 0)
(-0.0119815463784 -0.049320107865 0)
(-0.0118462786046 -0.0470935130065 0)
(-0.0117036473017 -0.0448946552008 0)
(-0.0115547349925 -0.0427248429523 0)
(-0.0114006543725 -0.0405851761147 0)
(-0.0112425335575 -0.0384765396742 0)
(-0.0110815220753 -0.0363995980368 0)
(-0.0109187747037 -0.0343547912102 0)
(-0.0107554547827 -0.0323423318481 0)
(-0.0105927175581 -0.030362204516 0)
(-0.0104317115567 -0.0284141659066 0)
(-0.0102735622905 -0.0264977473291 0)
(-0.0101193723958 -0.0246122580008 0)
(-0.00997020647062 -0.0227567903827 0)
(-0.00982709060568 -0.0209302258945 0)
(-0.00969099925652 -0.0191312420736 0)
(-0.00956285538585 -0.0173583193659 0)
(-0.00944352161113 -0.0156097486365 0)
(-0.00933380503013 -0.0138836377408 0)
(-0.00923446041351 -0.0121779192691 0)
(-0.00914621346868 -0.0104903614792 0)
(-0.00906979689162 -0.00881860120219 0)
(-0.00900600855726 -0.00716019584525 0)
(-0.00895565509408 -0.00551275802639 0)
(-0.00891723157806 -0.00387257971569 0)
(-0.00884583377032 -0.00226431945257 0)
(-0.00793705970119 -0.000666337293722 0)
(0.0414357789146 -0.00321056519442 0)
(0.0459122474053 -0.0108595642139 0)
(0.0457130413033 -0.0184435716947 1.21756192444e-27)
(0.0450257660788 -0.0260285664824 0)
(0.0441032227392 -0.0334467381315 0)
(0.0429769368491 -0.0406669549923 0)
(0.0416684935478 -0.0476543465672 0)
(0.040200579784 -0.0543791742364 0)
(0.0385967084121 -0.0608169986597 0)
(0.0368803775631 -0.066948616189 0)
(0.0350743306456 -0.0727597445299 0)
(0.0331999744086 -0.0782405782537 0)
(0.0312769692122 -0.0833852552561 0)
(0.0293229790122 -0.0881912853076 0)
(0.0273535667619 -0.0926589819201 0)
(0.0253822041754 -0.0967909288339 0)
(0.0234203732477 -0.100591501682 0)
(0.0214777261036 -0.104066456276 0)
(0.0195622848141 -0.10722258726 0)
(0.0176806539159 -0.110067455249 0)
(0.0158382363661 -0.112609176752 0)
(0.0140394336534 -0.114856268768 0)
(0.0122878296026 -0.116817538947 0)
(0.0105863450307 -0.118502011759 0)
(0.00893736955921 -0.119918881586 0)
(0.00734286201078 -0.121077484333 0)
(0.00580443036036 -0.121987280357 0)
(0.00432338488543 -0.122657842769 0)
(0.00290077819909 -0.123098846663 0)
(0.0015374260469 -0.123320056243 0)
(0.000233924379211 -0.123331302471 0)
(-0.00100935391887 -0.123142501875 0)
(-0.00219223460453 -0.122763531696 0)
(-0.00331476471406 -0.122204313433 0)
(-0.00437719472849 -0.121474719244 0)
(-0.00537998169035 -0.12058455291 0)
(-0.00632378000859 -0.11954351373 0)
(-0.00720943671131 -0.118361162333 0)
(-0.0080379775334 -0.117046887593 0)
(-0.00881059763228 -0.115609875518 0)
(-0.00952864318001 -0.114059080646 0)
(-0.0101935984453 -0.112403200484 0)
(-0.0108070641607 -0.110650653304 0)
(-0.0113707424232 -0.108809559568 0)
(-0.0118864134083 -0.10688772708 0)
(-0.0123559196254 -0.10489263996 0)
(-0.0127811424997 -0.102831451406 0)
(-0.013163987418 -0.100710980186 0)
(-0.0135063615913 -0.0985377106878 0)
(-0.0138101611926 -0.0963177963685 0)
(-0.0140772517817 -0.0940570663646 0)
(-0.0143094587396 -0.0917610349508 0)
(-0.0145085514581 -0.0894349134822 0)
(-0.014676238146 -0.0870836244036 0)
(-0.0148141547737 -0.0847118168573 0)
(-0.0149238650367 -0.0823238833322 0)
(-0.0150068546599 -0.0799239767701 0)
(-0.0150645367729 -0.0775160275363 0)
(-0.0150982515163 -0.0751037596647 0)
(-0.0151092763421 -0.0726907057898 0)
(-0.0150988300877 -0.0702802202387 0)
(-0.0150680869263 -0.0678754898684 0)
(-0.0150181833235 -0.065479542319 0)
(-0.0149502337319 -0.0630952514812 0)
(-0.0148653383951 -0.0607253400871 0)
(-0.0147645986224 -0.0583723795214 0)
(-0.0146491233519 -0.0560387870425 0)
(-0.0145200420217 -0.0537268207247 0)
(-0.0143785082149 -0.0514385725147 0)
(-0.014225708727 -0.0491759598801 0)
(-0.0140628633228 -0.0469407165851 0)
(-0.0138912293897 -0.0447343830576 0)
(-0.0137120976607 -0.0425582969045 0)
(-0.0135267926391 -0.040413583954 0)
(-0.0133366648391 -0.0383011503401 0)
(-0.0131430877415 -0.0362216758031 0)
(-0.0129474475473 -0.0341756086216 0)
(-0.0127511377224 -0.0321631621583 0)
(-0.0125555474016 -0.0301843133487 0)
(-0.0123620545987 -0.028238802894 0)
(-0.0121720143345 -0.0263261373947 0)
(-0.011986751493 -0.0244455930568 0)
(-0.0118075496436 -0.02259622109 0)
(-0.0116356444824 -0.0207768543713 0)
(-0.0114722144421 -0.0189861153504 0)
(-0.011318376108 -0.0172224249524 0)
(-0.0111751786274 -0.0154840127749 0)
(-0.0110436040916 -0.0137689283208 0)
(-0.0109245703439 -0.0120750570161 0)
(-0.010818941822 -0.0104001420223 0)
(-0.0107275445742 -0.00874181796436 0)
(-0.0106511754137 -0.00709766879414 0)
(-0.0105904382997 -0.00546531544979 0)
(-0.0105429117537 -0.00384082443782 0)
(-0.0104547503642 -0.0022479018835 0)
(-0.00937527908334 -0.000662235826053 0)
(0.0484927964875 -0.00332398713912 0)
(0.0537228250973 -0.0112411140721 0)
(0.0534727495422 -0.0190849273499 -1.21691311835e-27)
(0.052643739027 -0.0269201321511 0)
(0.0515331962908 -0.034570023527 0)
(0.0501798914237 -0.0420001866409 0)
(0.0486110805706 -0.0491732287227 0)
(0.0468552628772 -0.0560579922513 0)
(0.0449417218781 -0.0626296583664 0)
(0.0428994439431 -0.0688695520973 0)
(0.04075619254 -0.074764653426 0)
(0.0385378077926 -0.0803069596224 0)
(0.0362677381253 -0.0854927610722 0)
(0.0339667856771 -0.0903218967838 0)
(0.0316530349393 -0.0947970407491 0)
(0.029341924986 -0.0989230550184 0)
(0.0270464265674 -0.102706430337 0)
(0.0247772856475 -0.106154823338 0)
(0.0225433029428 -0.109276689436 0)
(0.02035162235 -0.112081004757 0)
(0.0182080107704 -0.114577065976 0)
(0.0161171140605 -0.116774355684 0)
(0.0140826826047 -0.11868245975 0)
(0.0121077599042 -0.120311024178 0)
(0.0101948352597 -0.121669739294 0)
(0.00834595949284 -0.122768341077 0)
(0.00656282966023 -0.123616620471 0)
(0.00484684481629 -0.124224434037 0)
(0.00319914119513 -0.124601710731 0)
(0.0016206093135 -0.124758450916 0)
(0.000111908515626 -0.12470471456 0)
(-0.0013265563836 -0.124450655975 0)
(-0.00269460014377 -0.124006360771 0)
(-0.00399228767463 -0.12338198423 0)
(-0.00521992490937 -0.122587620451 0)
(-0.00637805838029 -0.12163329243 0)
(-0.00746746889013 -0.120528911464 0)
(-0.00848916375163 -0.119284240335 0)
(-0.00944436360132 -0.117908857453 0)
(-0.010334488304 -0.11641212331 0)
(-0.0111611380285 -0.114803149712 0)
(-0.0119260744145 -0.113090772548 0)
(-0.0126311977851 -0.111283528264 0)
(-0.0132785255513 -0.109389634477 0)
(-0.0138701675613 -0.107416974686 0)
(-0.0144083036927 -0.105373087288 0)
(-0.0148951591918 -0.10326515868 0)
(-0.0153329831656 -0.101100020532 0)
(-0.015724025528 -0.0988841509033 0)
(-0.0160705179306 -0.0966236791781 0)
(-0.0163746538138 -0.0943243944034 0)
(-0.0166385732119 -0.0919917568497 0)
(-0.0168643473296 -0.0896309123221 0)
(-0.0170539685879 -0.0872467088221 0)
(-0.0172093409942 -0.0848437149813 0)
(-0.0173322764794 -0.0824262396698 0)
(-0.0174244918598 -0.0799983521266 0)
(-0.0174876118972 -0.0775639018622 0)
(-0.017523172857 -0.07512653768 0)
(-0.0175326317582 -0.0726897250408 0)
(-0.0175173754922 -0.0702567612614 0)
(-0.0174787347078 -0.0678307878904 0)
(-0.0174179964911 -0.0654148000098 0)
(-0.0173364204771 -0.0630116520609 0)
(-0.0172352524597 -0.0606240602995 0)
(-0.0171157399868 -0.0582546017864 0)
(-0.0169791442229 -0.0559057103636 0)
(-0.0168267525149 -0.0535796698115 0)
(-0.016659886351 -0.0512786049021 0)
(-0.0164799091741 -0.0490044707287 0)
(-0.0162882292352 -0.0467590411445 0)
(-0.0160863019682 -0.0445438967321 0)
(-0.0158756276015 -0.0423604131117 0)
(-0.0156577484473 -0.0402097499201 0)
(-0.0154342420449 -0.0380928411211 0)
(-0.0152067144383 -0.0360103868084 0)
(-0.0149767901519 -0.0339628469749 0)
(-0.0147461028799 -0.0319504372092 0)
(-0.0145162837421 -0.0299731266246 0)
(-0.0142889507799 -0.0280306378005 0)
(-0.0140656968146 -0.0261224489161 0)
(-0.0138480789788 -0.0242477977378 0)
(-0.0136376073263 -0.0224056875383 0)
(-0.0134357354851 -0.0205948946008 0)
(-0.0132438511427 -0.0188139773517 0)
(-0.0130632690579 -0.017061286952 0)
(-0.0128952248886 -0.0153349797725 0)
(-0.01274087225 -0.0136330323668 0)
(-0.0126012815854 -0.0119532597056 0)
(-0.0124774421517 -0.0102933388338 0)
(-0.0123702625895 -0.00865084907309 0)
(-0.012280554557 -0.00702330219637 0)