/*--------------------------------*- C++ -*----------------------------------*\
| =========                 |                                                 |
| \\      /  F ield         | OpenFOAM: The Open Source CFD Toolbox           |
|  \\    /   O peration     | Version:  v1906                                 |
|   \\  /    A nd           | Web:      www.OpenFOAM.com                      |
|    \\/     M anipulation  |                                                 |
\*---------------------------------------------------------------------------*/
FoamFile
{
    version     2.0;
    format      ascii;
    class       volScalarField;
    location    "232";
    object      pa;
}
// * * * * * * * * * * * * * * * * * * * * * * * * * * * * * * * * * * * * * //

dimensions      [0 2 -2 0 0 0 0];


internalField   nonuniform List<scalar> 
9216
(
936.320329392
936.010101675
935.368187761
934.388950763
933.077629309
931.440226634
929.484011589
927.217816595
924.651426563
921.796002804
918.663336452
915.266409168
911.618496104
907.733880455
903.626804088
899.312353202
894.805254605
890.120945655
885.274215447
880.280464944
875.154192702
869.910445264
864.563150749
859.126751817
853.614393068
848.039724296
842.414953356
836.752801231
831.064435415
825.361555967
819.654229412
813.953081824
808.267056313
802.605684017
796.976786786
791.388806571
785.848477799
780.363184208
774.938624209
769.58117259
764.295558274
759.087210272
753.95996614
748.918383109
743.965491506
739.10505654
734.339389173
729.671545621
725.103204469
720.636794936
716.273447754
712.015044266
707.862245793
703.816458724
699.877946629
696.047706831
692.325667695
688.712474438
685.20777419
681.811908639
678.524288321
675.344991342
672.273228796
669.308848391
666.450892058
663.699004537
661.052084648
658.509598358
656.070324434
653.733572426
651.498023637
649.36285394
647.326670217
645.38853864
643.547016789
641.801087529
640.149286338
638.590541443
637.123395887
635.746754145
634.459197996
633.259640114
632.14673291
631.119429023
630.176481932
629.316913027
628.539601724
627.843656665
627.22808771
626.692070032
626.2346628
625.854899492
625.551297848
625.318854074
625.174297073
625.123417127
936.629213915
936.317277094
935.673807852
934.690297281
933.372899692
931.727847461
929.762638776
927.486169931
924.908446878
922.040673244
918.894887853
915.484094259
911.821837823
907.922393176
903.800287667
899.470559335
894.948230913
890.248646728
885.386899399
880.378249684
875.237506849
869.979531313
864.618569204
859.168833978
853.643796392
848.05683872
842.420502815
836.747208628
831.048465006
825.335643297
819.61915745
813.9092821
808.215308537
802.546398927
796.910727383
791.316355965
785.770369175
780.279764342
774.850586325
769.488821662
764.199540573
758.987786453
753.857731118
748.813552104
743.858605965
738.996287329
734.229224105
729.56011317
724.990940326
720.523788782
716.160086007
711.901381843
707.748623725
703.702902255
699.764755945
695.934882489
692.213473888
688.600892403
685.097036891
681.701982663
678.415379771
675.237056541
672.166450654
669.2031762
666.346488344
663.595814117
660.950251512
658.409064163
655.971215566
653.635828035
651.401752645
649.267992696
647.233309745
645.296611891
643.456596099
641.712101456
640.061787678
638.504453527
637.038751281
635.663470289
634.377286961
633.179013447
632.067382663
631.04126185
630.099471959
629.240965741
628.464680481
627.769679824
627.155038194
626.619947969
626.163640481
625.785484056
625.485046247
625.262170965
625.123272822
625.072460971
937.271766778
936.955133328
936.306045617
935.314034875
933.985367303
932.3263795
930.344781884
928.049648451
925.45124735
922.560979322
919.391172329
915.955025551
912.266382247
908.339692799
904.189776244
899.831812678
895.281100063
890.553082639
885.663106768
880.626488032
875.458267097
870.173315285
864.786089945
859.310775554
853.761037117
848.150193004
842.490965515
836.795680861
831.076016652
825.343225109
819.607878449
813.880111154
808.169364264
802.484642843
796.834260724
791.226109439
785.667405323
780.164965948
774.724960533
769.353190231
764.054842799
758.834773838
753.697266716
748.646311687
743.685371615
738.8176568
734.045897116
729.372610226
724.799880319
720.329618226
715.963347046
711.702452517
707.547975522
703.500851816
699.561711631
695.731107732
692.009322183
688.396582415
684.892875543
681.498152007
678.212147762
675.034575698
671.964956331
669.002797024
666.147431757
663.398188647
660.754239536
658.214756077
655.778769724
653.445316915
651.213310079
649.081672138
647.049218872
645.114783105
643.277108707
641.534964462
639.887049726
638.332098064
636.868794476
635.495868595
634.212023209
633.016016885
631.906603485
630.882603896
629.942856206
629.086276434
628.311819257
627.618528146
627.005508583
626.471973207
626.017241641
625.640818465
625.342514924
625.122686826
624.984145213
624.928057083
938.259469836
937.937479322
937.279607103
936.274324299
934.928086825
933.247441888
931.240387577
928.916307884
926.285832828
923.360719609
920.153691286
916.678313531
912.948825684
908.980025551
904.787104188
900.385548884
895.790989156
891.019123998
886.085582777
881.00587917
875.79528761
870.468823176
865.041131753
859.526493098
853.938721937
848.291190622
842.596738426
836.867710549
831.115873947
825.352470141
819.588136688
813.83297222
808.096463273
802.387557752
796.714596556
791.085396525
785.507186873
779.98669723
774.530098247
769.143093481
763.83086365
758.598160622
753.449254773
748.388029514
743.417931287
738.542063319
733.763137698
729.083567184
724.50541887
720.030503082
715.660328074
711.396185166
707.239104053
703.189933535
699.249297083
695.41766867
691.695328461
688.082433517
684.578973631
681.184836864
677.899765799
674.723418124
671.655323728
668.694940674
665.841613725
663.094626218
660.453160639
657.916346899
655.483225607
653.152793258
650.923968747
648.795635844
646.766613365
644.835695218
643.001624471
641.263131053
639.618909785
638.067655707
636.608045978
635.23877265
633.958528209
632.766035564
631.660036989
630.639321069
629.702714842
628.84910773
628.077447127
627.386760115
626.776154442
626.244842829
625.792158636
625.417594193
625.120858066
624.901926592
624.761496473
624.696514943
939.596228418
939.267365983
938.597491995
937.57404248
936.20375951
934.493506426
932.451671581
930.088078862
927.413844502
924.441232122
921.183492401
917.654713178
913.86965704
909.843618977
905.59227423
901.131553558
896.477509198
891.646213515
886.653646872
881.515621333
876.247690473
870.865096522
865.382699482
859.814943831
854.175803005
848.478761419
842.736770855
836.962244392
831.167022425
825.362376568
819.558984192
813.766941828
807.995747403
802.254318892
796.550983588
790.893505704
785.289081058
779.744368994
774.265491448
768.858068763
763.5272218
758.277610561
753.113438311
748.038491886
743.056146857
738.169408617
733.380917843
728.69299135
724.107627117
719.626544081
715.251186166
710.982760125
706.82223803
702.770392553
698.827797577
694.994860363
691.271820067
687.658776613
684.155687165
680.762391661
677.478607474
674.303951913
671.237935541
668.279982061
665.429420858
662.685504894
660.04740317
657.514217215
655.084974093
652.75864212
650.534124997
648.410277188
646.38589957
644.459754818
642.630564824
640.897026169
639.257809342
637.711574284
636.256971294
634.892656423
633.617293829
632.429570781
631.328201198
630.311940005
629.379587684
628.530003993
627.762113717
627.074920171
626.467513574
625.939085638
625.488942539
625.116524659
624.821413969
624.603320615
624.462329778
624.395051543
941.288529307
940.950984363
940.26574764
939.219006724
937.817893256
936.069699739
933.983327075
931.569177646
928.838998735
925.805715144
922.483257775
918.886392666
915.030552081
910.93167363
906.606046823
902.070172875
897.340634627
892.433982768
887.366632317
882.154776536
876.814309005
871.360762594
865.80925287
860.174437099
854.470473471
848.710994849
842.909079184
837.077234416
831.227377641
825.370829477
819.518301107
813.679898579
807.865117124
802.082849712
796.341389197
790.648446728
785.011158693
779.436109302
773.929342006
768.496385635
763.142269103
757.871549812
752.688330606
747.596289372
742.598697336
737.698448943
732.898080623
728.199800118
723.605504906
719.116810215
714.73506629
710.461384398
706.296652261
702.241557465
698.296600494
694.462115152
690.738278884
687.125130043
683.62257544
680.230404547
676.948294508
673.775821636
670.712464339
667.757612469
664.910568816
662.170557004
659.536722281
657.008138678
654.583809839
652.262676104
650.043615997
647.925453765
645.906961971
643.986869821
642.163867115
640.436613471
638.803743655
637.263877646
635.815627191
634.457606468
633.188439599
632.00677161
630.911276587
629.900668655
628.973710522
628.129224362
627.36610071
626.683309272
626.07990809
625.555054392
625.108013523
624.73816146
624.444985988
624.228069119
624.087320931
624.01950391
943.344599991
942.996364595
942.292178892
941.216693973
939.777543053
937.982570528
935.841329296
933.364955591
930.565990435
927.45819032
924.056334439
920.376035572
916.433554009
912.245623592
907.829286404
903.201744751
898.380224708
893.381859396
888.223584338
882.92205231
877.493558573
871.953982979
866.318739252
860.60273708
854.820348104
848.985380896
843.111058064
837.209999811
831.294209818
825.37506618
819.46331589
813.569074799
807.701830202
801.870442798
796.083159473
790.347625457
784.670901081
779.059478248
773.519301466
768.055788022
762.673851646
757.37792539
752.171986686
747.059582033
742.043852424
737.127559022
732.313108148
727.602577029
722.997737624
718.50008153
714.110841972
709.831016966
705.661388838
701.602544891
697.654893981
693.818684106
690.094015765
686.480856226
682.979049674
679.588328216
676.308319099
673.13855286
670.07846816
667.127417727
664.284671535
661.549421353
658.920783117
656.397800921
653.979449388
651.664637893
649.452213628
647.340966661
645.329634165
643.416906701
641.601433865
639.881831904
638.256690774
636.724583002
635.284071949
633.933721636
632.672105876
631.497818695
630.409483953
629.405765994
628.485379406
627.64709962
626.889772515
626.212324491
625.61377168
625.093227581
624.649908982
624.283140953
623.992346066
623.777034058
623.637092298
623.569478283
945.774557401
945.413432878
944.686421576
943.576317576
942.09137984
940.240144568
938.032977607
935.48192498
932.600507806
929.403503198
925.906727821
922.126823352
918.081053172
913.787109051
909.262935626
904.526569503
899.595999339
894.489042596
889.223243418
883.815786681
878.283430159
872.642449871
866.908597986
861.0970697
855.222476541
849.298825528
843.339500501
837.357248851
831.364168747
825.371703233
819.390634396
813.431087961
807.50253444
801.613795226
795.773055608
789.987882405
784.265239212
778.611508791
773.032512643
767.533536484
762.119352807
756.79424812
751.562047468
746.426142464
741.389516887
736.454774701
731.624165876
726.899613653
722.282739704
717.77488986
713.377157698
709.090407955
704.915297681
700.852296633
696.901705286
693.063671708
689.338206003
685.725193462
682.224405354
678.835508504
675.55807273
672.391577334
669.335415804
666.388899994
663.551262959
660.821661748
658.199179368
655.682827159
653.271546843
650.964213372
648.759637866
646.656571605
644.653710414
642.749700205
640.943143067
639.232604468
637.616621018
636.093709174
634.662374424
633.321121142
632.068462772
630.902932378
629.823093354
628.827550206
627.914959311
627.084039497
626.333582351
625.662461988
625.069643724
624.554191964
624.115275871
623.752167013
623.464242628
623.250987579
623.11227449
623.045233968
948.590581334
948.214144597
947.460072692
946.308944317
944.769791593
942.852006532
940.566955498
937.927799404
934.949251812
931.647326588
928.039087976
924.142410608
919.975750246
915.557933799
910.907965895
906.044859682
900.987486894
895.754454093
890.363998136
884.833906418
879.181452969
873.423354068
867.575733454
861.654099382
855.673324923
849.647633577
843.590585424
837.515065733
831.433275872
825.356726336
819.296235778
813.261933761
807.263267532
801.309004988
795.407257226
789.56549255
783.790560221
778.088709755
772.46561846
766.926414045
761.475704057
756.117600905
750.855751938
745.693366138
740.633243973
735.67780502
730.829116916
726.088922995
721.458669695
716.939533143
712.532444294
708.238113362
704.057051929
699.989594214
696.035915518
692.196049585
688.46990299
684.857268261
681.357834187
677.971194824
674.696856091
671.534241229
668.482694437
665.541483684
662.709802393
659.986770737
657.371436502
654.862776044
652.45969542
650.161032063
647.965557095
645.871978514
643.878945292
641.985052539
640.188847648
638.488837524
636.883496693
635.371276401
633.950614332
632.619945122
631.377711185
630.222374084
629.152425858
628.166400672
627.262886066
626.440534312
625.698072938
625.034314917
624.448167883
623.938640871
623.504849786
623.1460241
622.861500688
622.650729566
622.513590918
622.447368577
951.807110279
951.412668919
950.626856218
949.427641692
947.82500684
945.829396137
943.453400379
940.71153486
937.619953897
934.196153366
930.458685069
926.426881451
922.120602025
917.559998283
912.765306461
907.756662659
902.553948644
897.176661689
891.643814847
885.973859768
880.184634899
874.293330147
868.316466838
862.269885144
856.168735669
850.027472132
843.85984199
837.678878606
831.496891413
825.32546224
819.175443071
813.05696278
806.979431294
800.951552035
794.981341116
789.07615085
783.242690651
777.487055273
771.814749579
766.230718957
760.739376504
755.344634347
750.049932341
744.858269562
739.772233814
734.794032733
729.925523355
725.168242209
720.523434035
715.992080042
711.574924682
707.272501116
703.085154913
699.013065763
695.056267126
691.214663486
687.488045337
683.876101668
680.378430182
676.994545194
673.723883508
670.565808411
667.519612089
664.584516784
661.759674977
659.04416902
656.437010457
653.937139486
651.54342475
649.254663833
647.06958461
644.986847681
643.005049979
641.122729636
639.338372135
637.650417643
636.057269589
634.557304167
633.148880879
631.830353649
630.600082693
629.456446555
628.397854577
627.422759157
626.5296681
625.717156406
624.983877773
624.328575119
623.750089904
623.247370692
622.819480017
622.465593885
622.18501179
621.977168894
621.841918503
621.776691318
955.441084591
955.025611103
954.202828797
952.947656135
951.27124076
949.185320508
946.703979492
943.843373845
940.621387271
937.05728293
933.171370085
928.984693861
924.518747879
919.795217946
914.835752618
909.661768389
904.294283821
898.753790361
893.060152181
887.232540868
881.289393666
875.248397429
869.126483691
862.93983459
856.70388629
850.433331438
844.142114341
837.84342355
831.549683269
825.272546167
819.022896136
812.810850167
806.645770137
800.536274081
794.490265449
788.514953597
782.616885663
776.801971377
771.075517684
765.442256036
759.906377575
754.471562295
749.141013726
743.917489623
738.80333565
733.800517045
728.910650989
724.135038323
719.474694112
714.93037813
710.502622815
706.191761026
701.997950374
697.921196843
693.961374516
690.118244016
686.391467003
682.780618963
679.285198386
675.904634102
672.638289638
669.485465922
666.445401861
663.517273718
660.700193343
657.99320583
655.395286992
652.905340967
650.522198465
648.244615793
646.071275123
644.000786005
642.031688444
640.162457452
638.391509197
636.717208621
635.137878431
633.651809377
632.257271497
630.952526345
629.735839704
628.605494908
627.559806157
626.597132095
625.715888866
624.914563165
624.191724228
623.546035355
622.97626439
622.481291655
622.06011712
621.711870561
621.435808389
621.231324578
621.098264346
621.034205274
959.512239042
959.072291875
958.206631219
956.886628579
955.124869054
952.934681958
950.331974905
947.334886816
943.963373493
940.238793037
936.183522604
931.820602559
927.173418878
922.265416799
917.119855007
911.759592305
906.20691711
900.483411993
894.609862353
888.606199384
882.491480514
876.283893333
870.000778265
863.658655034
857.273245243
850.859484489
844.431520906
838.002707439
831.585587389
825.191887352
818.832515463
812.517568995
806.256340847
800.057345794
793.928345907
787.876383829
781.907811495
776.028326551
770.243003657
764.556331267
758.972244173
753.494159794
748.125011551
742.867284534
737.723049427
732.693997494
727.781474567
722.986514979
718.309874678
713.752063221
709.313374625
704.993916091
700.793634983
696.712342842
692.74973705
688.905419009
685.178909567
681.569660869
678.077065366
674.700461578
671.439137301
668.292330233
665.259226662
662.3389585
659.530599206
656.833159098
654.245580491
651.766733221
649.395410885
647.130328272
644.970120219
642.913342174
640.958472602
639.103917246
637.348015356
635.689047605
634.125245798
632.654803881
631.275890375
629.986661583
628.785275775
627.669907561
626.638762779
625.690093034
624.822210295
624.033500688
623.32243792
622.687595487
622.127657603
621.641429537
621.227846446
620.885974546
620.615025085
620.414369183
620.283806451
620.221068146
964.043472737
963.575091078
962.659796241
961.264853907
959.404630168
957.094423364
954.352370976
951.199010934
947.656774345
943.749497223
939.501974538
934.939561692
930.087818275
924.972198185
919.617778743
914.049035567
908.28965824
902.362416514
896.289071553
890.090339266
883.785892987
877.3944037
870.933595065
864.420304642
857.870528004
851.299443944
844.721413299
838.1499637
831.597767835
825.07662615
818.597467561
812.170352026
805.804485309
799.508248432
793.289236414
787.154288765
781.109532808
775.160416126
769.311749942
763.567742158
757.93203891
752.407758584
746.997531216
741.703533943
736.527528562
731.470898297
726.534683867
721.71962067
717.026173189
712.454570932
708.004840173
703.676836526
699.470272431
695.384744236
691.419753817
687.574728615
683.849036298
680.24199709
676.75289125
673.380963989
670.125426467
666.98545449
663.960184531
661.048708119
658.250064927
655.56323519
652.987132172
650.520594999
648.162382712
645.9111696
643.765542599
641.724000604
639.784956231
637.946739779
636.207605576
634.56574045
633.019274161
631.566291617
630.204846424
628.932975728
627.748715672
626.650117611
625.635264237
624.702285964
623.849376576
623.074808756
622.376948272
621.754267594
621.205358289
620.728940717
620.323873014
619.989163981
619.723970717
619.527610441
619.399861944
619.338616771
969.06130175
968.55986971
967.587124246
966.105589246
964.131860206
961.683685649
958.781943405
955.450074797
951.713467435
947.598875082
943.133910073
938.346594748
933.264975012
927.916780077
922.329134276
916.528309979
910.539535635
904.386853466
898.09304273
891.679600119
885.166782281
878.573689099
871.918373526
865.217946432
858.488655266
851.745920793
845.004330341
838.277606914
831.578566176
824.919090003
818.310117749
811.761656235
805.282792189
798.881744635
792.565900569
786.341863325
780.21549275
774.19195217
768.275747716
762.470772121
756.780343182
751.207244989
745.753766274
740.421740144
735.212582902
730.127333174
725.166691203
720.331057459
715.620571531
711.035149168
706.574518853
702.238255236
698.025810884
693.936543742
689.969741751
686.124642484
682.400449196
678.796341809
675.311484105
671.945026392
668.696104743
665.563836723
662.547314563
659.645596176
656.857694832
654.182568199
651.619107385
649.166126807
646.822355351
644.586429505
642.456888792
640.43217387
638.510627456
636.690498089
634.969946738
633.347055907
631.819841234
630.386264917
629.044251043
627.791701936
626.626515733
625.546604143
624.549910775
623.634428909
622.79821923
622.03942642
621.356295228
620.747184973
620.210582578
619.74511493
619.349559589
619.022846991
618.764076876
618.572533527
618.447935401
618.388344349
974.596437138
974.056503517
973.01714224
971.435422584
969.330757992
966.723976056
963.63933677
960.10380458
956.146290078
951.796973275
947.086727492
942.04663261
936.707556617
931.099796671
925.252765638
919.194728641
912.952589778
906.551745514
900.016010007
893.36762595
886.627351725
879.814615744
872.947698968
866.043912231
859.119718539
852.190784104
845.27195243
838.377177705
831.519448125
824.710736036
817.961984214
811.283114116
804.683063492
798.169842121
791.750590187
785.431624969
779.218500006
773.116047063
767.128429441
761.259180905
755.511253454
749.887056028
744.388497955
739.017029329
733.773681872
728.659111633
723.673638872
718.817292241
714.089848097
709.490873947
705.019765704
700.675787141
696.458102273
692.365807453
688.397956028
684.553580659
680.831708409
677.23137229
673.75161638
670.391497094
667.150079319
664.026429194
661.019603475
658.128636605
655.352526314
652.69021839
650.140591896
647.702445129
645.374483685
643.15531065
641.043420038
639.03719328
637.134899427
635.334698704
633.634649548
632.032718718
630.526794162
629.114700314
627.794215171
626.563089028
625.419063959
624.359894157
623.383366061
622.487318623
621.669662528
620.928399032
620.26163706
619.667609454
619.14468764
618.691393263
618.306408813
617.988592732
617.736977043
617.550778991
617.429686086
617.371937842
980.684509839
980.099538617
978.982668717
977.28470506
975.028681818
972.239332917
968.945121798
965.177291497
960.96894475
956.354259879
951.367862038
946.044305429
940.417643581
934.521051658
928.386497078
922.044445584
915.523625564
908.850857954
902.050986346
895.146912988
888.159755309
881.109093603
874.013272978
866.889684476
859.754959143
852.625027462
845.515050049
838.439282875
831.410934838
824.442089646
817.543673654
810.725488099
803.996268095
797.363765703
790.834813977
784.415397662
778.110708576
771.925204493
765.862656642
759.926199603
754.118375199
748.441177266
742.896094409
737.484152635
732.205958954
727.061744354
722.051409208
717.174567525
712.430593516
707.818665762
703.337812093
698.986950146
694.764926296
690.670548434
686.702615079
682.859937294
679.14135568
675.545750152
672.072044459
668.719204318
665.486230812
662.372148961
659.375992787
656.496787558
653.733530317
651.085169795
648.550586613
646.128574995
643.817826681
641.616918044
639.524300853
637.538297225
635.657098908
633.878770834
632.201258867
630.622401128
629.139942779
627.751553277
626.454846118
625.247399847
624.126780555
623.090564483
622.136361164
621.261835652
620.464730475
619.742885917
619.094259443
618.516942983
618.009178388
617.569371877
617.196106482
616.888144971
616.644448158
616.464189926
616.346984423
616.291258809
987.367016021
986.72904569
985.521508302
983.688061818
981.256464386
978.256472945
974.721804299
970.688905191
966.195842076
961.281426544
955.984553663
950.343690431
944.396451699
938.179225535
931.726821033
925.072142111
918.245902548
911.276420183
904.189527748
897.008640659
889.754994592
882.448039162
875.105915374
867.745912951
860.384770912
853.038742033
845.72342856
838.453515831
831.242520731
824.102658892
817.044816192
810.078608808
803.212503558
796.453917651
789.809317548
783.284287418
776.883607521
770.611304702
764.470714276
758.464522632
752.594819614
746.863140145
741.270509701
735.817488567
730.504214445
725.330451316
720.295632988
715.398916049
710.639225892
706.015310718
701.525787478
697.169191489
692.944016827
688.848755828
684.881928773
681.042109451
677.327941125
673.738146818
670.271531061
666.92697572
663.703429061
660.599889796
657.615386734
654.748955117
651.999611292
649.366326314
646.848000635
644.443440122
642.15133556
639.970245603
637.898584858
635.934616783
634.076452274
632.322053348
630.669241909
629.115712927
627.659051356
626.296752324
625.026243541
623.844909793
622.75011823
621.739244574
620.809698825
619.958950837
619.184554289
618.484169825
617.855585736
617.296737332
616.805724104
616.380823324
616.02050216
615.723434667
615.488499119
615.314789127
615.201878302
615.148387783
994.692545687
993.991689961
992.67731719
990.684976209
988.048731729
984.804882706
980.993756387
976.658116234
971.841865884
966.589117447
960.943560529
954.948004544
948.644008566
942.071523856
935.268527433
928.270637406
921.11075418
913.818772488
906.421447512
898.942472974
891.402828511
883.821376731
876.215629339
868.60248943
860.998741629
853.421101287
845.885856231
838.408353001
831.002554832
823.680837459
816.453981177
809.331320777
802.320945403
795.429852768
788.664054465
782.028671493
775.528004158
769.165599235
762.944301273
756.866304269
750.933199307
745.146019294
739.505284006
734.011042641
728.662920912
723.460166656
718.401701775
713.486173434
708.712011154
704.077481802
699.580747214
695.219916219
690.993094827
686.898427466
682.934132957
679.098530007
675.390055543
671.807272812
668.348871823
665.013660884
661.80055134
658.708535687
655.736660739
652.883997027
650.149605946
647.532506323
645.031641739
642.645850398
640.373838617
638.214159455
636.165197132
634.225158043
632.392068495
630.663778923
629.037974258
627.512189372
626.083829155
624.750191808
623.50849522
622.355904835
621.289563201
620.306619447
619.404259102
618.579732412
617.830381875
617.153667219
616.547188925
616.00870869
615.536167466
615.127701915
614.781658369
614.496596204
614.271307606
614.104831962
613.99665691
613.945606519
1002.71843998
1001.94217326
1000.50067904
998.32045386
995.444176326
991.916802129
987.787007659
983.105190426
977.922025162
972.287578538
966.250807388
959.859252528
953.158778844
946.193273584
939.004256663
931.630413634
924.107101216
916.465916673
908.734447339
900.93632666
893.091698484
885.21811769
877.3317707
869.44872442
861.585755545
853.760354028
845.989962843
838.290997658
830.678087566
823.163771498
815.758586822
808.471411556
801.309813245
794.280243734
787.388175994
780.63818077
774.034020941
767.578701126
761.274528459
755.123153582
749.125625226
743.282431039
737.59354049
732.058449953
726.6762236
721.445547513
716.364776119
711.431995962
706.645081855
702.001766596
697.499701711
693.136523137
688.909904958
684.817610217
680.85752877
677.027707465
673.326367495
669.751912617
666.302925909
662.978157494
659.77650323
656.696975926
653.738670746
650.900725833
648.182280961
645.582434791
643.100204156
640.734485548
638.484022232
636.347376904
634.322912452
632.40878044
630.602918417
628.903055108
627.306723008
625.811277212
624.413919068
623.111724001
621.901671891
620.780679908
619.745636112
618.79343393
617.921005626
617.125355099
616.403588127
615.752940914
615.170805071
614.654750433
614.202544741
613.812169012
613.481830779
613.209982481
612.995318172
612.836783689
612.733816333
612.685447879
1011.51304655
1010.64511019
1009.05046322
1006.64572176
1003.48570808
999.626994829
995.128817466
990.050688152
984.450966919
978.386210104
971.910982365
965.077836056
957.937259197
950.537464607
942.923976293
935.139023313
927.220828126
919.202914634
911.113628045
902.976073357
894.808689078
886.626563538
878.443405954
870.273695571
862.134190702
854.043817514
846.022066259
838.087133224
830.254630421
822.537182945
814.944786874
807.485561615
800.166330555
792.992873664
785.970014346
779.101701258
772.391086696
765.840585859
759.451914078
753.226133073
747.163704519
741.264528624
735.527985168
729.95297065
724.537944719
719.280975829
714.179798655
709.231874292
704.434462501
699.784694962
695.279653966
690.916444158
686.692260884
682.604445247
678.65053027
674.828271671
671.135667818
667.570965104
664.132652179
660.819441762
657.630242624
654.564122339
651.620262985
648.797911782
646.096328582
643.514732898
641.052252239
638.707874587
636.480406681
634.368440371
632.370328331
630.484170245
628.707809765
627.038841489
625.47462702
624.012317963
622.648884824
621.381149622
620.205821989
619.119536873
618.11889407
617.200497404
616.360993866
615.59711023
614.905687937
614.283713946
613.728349017
613.236951528
612.807097949
612.436600836
612.123523738
611.866184483
611.663175696
611.513377909
611.416130103
611.370679353
1021.15889479
1020.17766432
1018.39553309
1015.71889705
1012.22030835
1007.97214487
1003.04689134
997.514695035
991.442308876
984.893029956
977.927097187
970.602163005
962.973564713
955.094260415
947.014369607
938.780354824
930.43395576
922.011061101
913.540791601
905.045133381
896.53952629
888.034730012
879.539997812
871.06689662
862.632261065
854.257835012
845.966846353
837.78049482
829.715786454
821.785141536
813.997374964
806.359298308
798.876724895
791.554623954
784.397095234
777.407371684
770.587944039
763.940589472
757.466386633
751.165757861
745.038536831
739.084000821
733.30089844
727.687489496
722.241577385
716.960564487
711.841499371
706.881153065
702.076092375
697.422775324
692.917639052
688.557193151
684.338096205
680.257224131
676.311719763
672.499029406
668.816921581
665.263491766
661.837151428
658.536603871
655.360807534
652.308928455
649.380284783
646.574284475
643.890360389
641.327903577
638.886199727
636.564369245
634.361315952
632.275684702
630.30583182
628.449808239
626.705356888
625.069922683
623.540673374
622.114528824
620.788195851
619.558207623
618.420965432
617.372783246
616.409932954
615.528690552
614.725380563
613.996418734
613.33835059
612.747886616
612.221932104
611.757613364
611.352299411
611.003618388
610.709471009
610.468049413
610.277832562
610.137594705
610.046614611
610.00435775
1031.75723743
1030.63319132
1028.61693145
1025.60539662
1021.69828244
1016.98959514
1011.5680608
1005.51567993
998.90777174
991.814063283
984.30006851
976.428310869
968.25906866
959.850507312
951.258145807
942.533709618
933.723526937
924.866696946
915.993397558
907.123844191
898.2686207
889.431134055
880.612688722
871.819426514
863.068579074
854.387619878
845.806706645
837.352106621
829.042684143
820.889794358
812.899725035
805.077033792
797.426244132
789.951510796
782.656148986
775.542604912
768.61265293
761.867417049
755.30728931
748.931998344
742.740714638
736.732062138
730.904130876
725.254501485
719.780282919
714.478150481
709.344405079
704.375043758
699.56585604
694.912530728
690.410774691
686.056421377
681.845528415
677.774453578
673.839915052
670.039028973
666.36933018
662.828773073
659.41571614
656.128889506
652.967347996
649.930411613
647.017595646
644.228533941
641.562897539
639.020312986
636.600282516
634.302110615
632.124839384
630.067196554
628.127558431
626.303930231
624.593944512
622.994876043
621.503670197
620.116980193
618.831210502
617.642563226
616.54708755