/*--------------------------------*- C++ -*----------------------------------*\
| =========                 |                                                 |
| \\      /  F ield         | OpenFOAM: The Open Source CFD Toolbox           |
|  \\    /   O peration     | Version:  v1906                                 |
|   \\  /    A nd           | Web:      www.OpenFOAM.com                      |
|    \\/     M anipulation  |                                                 |
\*---------------------------------------------------------------------------*/
FoamFile
{
    version     2.0;
    format      ascii;
    class       surfaceScalarField;
    location    "341";
    object      phia;
}
// * * * * * * * * * * * * * * * * * * * * * * * * * * * * * * * * * * * * * //

dimensions      [0 3 -1 0 0 0 0];
oriented        oriented;


internalField   nonuniform List<scalar> 
18240
(
0.00134714793631
-0.00134705134838
0.00282203728072
-0.00147477504692
0.00429597982755
-0.00147384320647
0.0057513730261
-0.00145527513986
0.00718023268832
-0.00142876381086
0.00857589880761
-0.00139554449433
0.0099323223568
-0.00135633141885
0.0112441354735
-0.00131168783853
0.012506435273
-0.00126221163097
0.0137150306787
-0.00120846653233
0.0148661917614
-0.00115107730824
0.0159569382051
-0.00109061416849
0.0169847176461
-0.00102770044952
0.0179477283447
-0.000962875365012
0.0188445262584
-0.000896724250356
0.0196743873205
-0.000829723147062
0.0204368486463
-0.000762393415176
0.0211321169941
-0.00069512845943
0.0217605510556
-0.000628372449224
0.0223231213319
-0.000562429102828
0.0228208398545
-0.000497663548066
0.023255274346
-0.000434292781957
0.0236279311234
-0.000372608866467
0.023940823663
-0.000312751040992
0.0241958127365
-0.000254948384282
0.0243952270446
-0.000199273753126
0.0245411641228
-0.00014590384811
0.0246361590816
-9.48560109764e-05
0.0246824490974
-4.6264194303e-05
0.0246826860582
-1.00223011523e-07
0.0246391697321
4.35346848883e-05
0.024554594228
8.47095223059e-05
0.0244312430086
0.000123362335168
0.0242717806731
0.00015959317612
0.0240784316833
0.00019335293396
0.0238537931489
0.000224765822953
0.023599986034
0.000253804209488
0.0233194959258
0.000280613508176
0.0230143057656
0.000305180541332
0.0226867587121
0.000327666280243
0.0223386749955
0.00034806774584
0.0219722329175
0.000366556850712
0.0215890734222
0.000383137322404
0.0211911954886
0.000397987993694
0.0207800514762
0.00041111600066
0.0203574533071
0.000422703238363
0.019924662245
0.00043275735795
0.0194833021974
0.000441459855634
0.019034447034
0.000448816127702
0.018579537306
0.000455003977574
0.0181194688192
0.000460024274965
0.0176555088399
0.000464048381946
0.0171883891045
0.000467070722398
0.0167192174526
0.000469253898972
0.0162485790718
0.000470584755632
0.0157774392318
0.000471215642201
0.0153062560877
0.000471125317558
0.0148358701012
0.000470455047552
0.0143666323778
0.00046917594122
0.0138992761846
0.000467418249326
0.0134340644108
0.00046514649648
0.012971638642
0.000462480563095
0.0125121899938
0.000459380188108
0.0120562811742
0.00045595613876
0.0116040445933
0.000452165445464
0.0111559730471
0.000448111195944
0.0107121495693
0.000443750039781
0.0102730024706
0.000439178938404
0.00983857099213
0.000434356279012
0.00940922074365
0.000429374173364
0.00898494956669
0.000424194643924
0.00856605960296
0.000418905945253
0.00815250722965
0.000413475087262
0.0077445283753
0.000407986937623
0.00734203645538
0.000402414394038
0.00694519781801
0.000396838987
0.00655388091994
0.000391239799635
0.00616817924098
0.000385694578851
0.00578791476122
0.000380188458543
0.00541310602779
0.000374794607372
0.00504352827799
0.000369503579437
0.00467912486622
0.000364382768466
0.00431962618839
0.000359427064548
0.00396490318134
0.000354696328763
0.00361464704377
0.000350187645244
0.00326866485032
0.000345949720428
0.00292662387894
0.000341975741854
0.00258829475697
0.000338290873478
0.00225337545605
0.000334857393408
0.00192171957037
0.000331612871596
0.00159333411306
0.000328328317481
0.00126884652013
0.000324441961082
0.000950505605897
0.00031829158332
0.000646074743611
0.000304385517224
0.000358648701372
0.000287368804164
0.000358615644657
0.00148926750689
-0.00283621334432
0.00315176711402
-0.00313715902424
0.00480530230399
-0.00312726649479
0.00643525171699
-0.00308510757732
0.00803424723303
-0.0030276483282
0.00959542040714
-0.00295659978762
0.0111122192005
-0.00287302017828
0.0125786545546
-0.00277800442423
0.0139893002017
-0.00267274840064
0.0153394333393
-0.00255848018234
0.0166249493882
-0.00243648590863
0.0178424832536
-0.00230802812174
0.0189892723487
-0.00217438395769
0.0200632741079
-0.00203675720817
0.0210629864231
-0.00189633329951
0.0219875700983
-0.0017541874219
0.0228366346623
-0.00161135761636
0.0236103737268
-0.00146874924622
0.0243093239037
-0.00132722571342
0.0249345196807
-0.00118750836732
0.0254872320941
-0.00105028310417
0.0259691475746
-0.000916094171512
0.0263820911739
-0.000785464160112
0.02672823113
-0.000658779944025
0.0270097893634
-0.000536423360687
0.0272292711067
-0.000418648046573
0.0273891637893
-0.000305718663109
0.0274921894758
-0.000197778325827
0.0275409924632
-9.49950202839e-05
0.0275384113805
2.57975663304e-06
0.0274871537692
9.4858596258e-05
0.0273900906397
0.000181866775555
0.0272499317461
0.000263581518341
0.0270695248045
0.000340089228444
0.0268515097615
0.000411422246508
0.0265986416182
0.000477717905265
0.026313443465
0.000539050583924
0.0259985385351
0.000595597082991
0.0256562967755
0.000647464549352
0.0252891768346
0.000694859490141
0.0248993679565
0.000737912922192
0.0244891403858
0.000776852236237
0.024060483867
0.000811824286504
0.0236154648541
0.000843069301718
0.0231558628393
0.000870742635262
0.0226835328494
0.000895089923416
0.0222000409009
0.000916268189323
0.02170703022
0.000934521554172
0.0212058570632
0.000950002451111
0.0206979590815
0.000962947205428
0.0201844927789
0.000973498109561
0.0196667022822
0.00098187826722
0.0191455595997
0.000988215330401
0.0186221319685
0.000992714967985
0.0180972261051
0.000995487033182
0.0175717521249
0.000996717036382
0.0170463728928
0.000996495513398
0.0165218624677
0.000994986796653
0.015998761767
0.000992262287929
0.0154777294138
0.000988465802141
0.0149592049331
0.000983651421124
0.014443749962
0.000977944593443
0.0139317203948
0.000971385183067
0.0134235959711
0.000964083503869
0.0129196628481
0.000956069160241
0.0124203297653
0.000947441150226
0.0119258227358
0.000938223067143
0.0114364861167
0.000928506449483
0.0109524911288
0.000918312918421
0.0104741203706
0.000907729969822
0.0100014920038
0.000896780622938
0.00953482637987
0.000885550938133
0.009074187622
0.000874067757821
0.00861973121676
0.00086241729372
0.00817146470697
0.000850631537385
0.00772947521145
0.000838797363789
0.00729371070463
0.000826952160346
0.00686418658567
0.000815182965061
0.00644078889284
0.000803531824506
0.00602345915513
0.000792084568887
0.00561202059196
0.000780886319782
0.00520634064597
0.000770019536435
0.00480618110283
0.000759529974448
0.00441133787207
0.000749493567252
0.0040215157942
0.000739952799852
0.00363644548146
0.000730971526673
0.00325578344265
0.00072258066733
0.00287920517635
0.000714818150667
0.00250632664283
0.00070767872429
0.00213675738056
0.000701129303075
0.00176998457907
0.000695046207385
0.00140519087214
0.000689183947311
0.00104034346631
0.000683086387745
0.000668657042952
0.00067602190738
0.000286480389158
0.000669496815797
0.000645071401659
0.00151545484439
-0.004351561581
0.00319910290211
-0.00482069248945
0.00487625419332
-0.00480430378785
0.00652971045935
-0.00473844853357
0.00815137397053
-0.00464919798948
0.00973404415857
-0.00453915443984
0.0112710076778
-0.00440987006155
0.0127561394024
-0.00426302040599
0.0141839400517
-0.00410043573139
0.0155496102552
-0.00392403462227
0.0168490346831
-0.00373579762467
0.0180788241451
-0.00353770212211
0.0192362604713
-0.00333170854721
0.0203193188982
-0.003119700923
0.0213265839089
-0.00290348806908
0.0222572614699
-0.00268475156008
0.0231110748595
-0.00246506280659
0.0238882754465
-0.00224583831652
0.0245895268495
-0.00202837160611
0.0252159215892
-0.00181379413414
0.0257688602501
-0.00160311953411
0.0262500791596
-0.00139720729141
0.026661528991
-0.00119681566297
0.0270054158063
-0.00100256473522
0.0272840807686
-0.000814994387195
0.0275000543419
-0.000634523884145
0.0276559369582
-0.000461512213924
0.0277544646463
-0.000296212984702
0.0277983896173
-0.000138836103165
0.0277905554472
1.0501910235e-05
0.0277337772963
0.000151715166833
0.0276309249284
0.000284801848354
0.0274848029991
0.000409776267524
0.0272982412717
0.00052672820363
0.0270739733243
0.000635757275881
0.0268147333409
0.000737029591103
0.026523134819
0.000830710451074
0.0262017732716
0.000917024724883
0.0258531049438
0.000996188436815
0.0254795542507
0.00106847065091
0.025083392638
0.00113412436181
0.0246668500654
0.0011934496228
0.0242319943885
0.00124672402948
0.0237808462075
0.00129426663433
0.0233152590031
0.001336368198
0.0228370367862
0.0013733555956
0.0223478154425
0.00140552214421
0.0218491825719
0.00143319216105
0.0213425602858
0.00145665163966
0.0208293266382
0.00147621282184
0.0203107002526
0.00149214564074
0.0197878625921
0.00150474209935
0.0192618445086
0.00151424883891
0.0187336485495
0.00152093125685
0.018204137621
0.00152500763168
0.0176741563628
0.0015267127697
0.0171444218675
0.00152623398361
0.01661564316
0.00152377411054
0.0160884140922
0.0015194896422
0.0155633299007
0.00151355276119
0.015040882269
0.00150609175724
0.0145215720716
0.00149725175855
0.0140058068791
0.00148713756512
0.0134940090532
0.00147587258663
0.0129865159459
0.00146354410667
0.0124836827306
0.00145026001519
0.0119857858582
0.00143609656378
0.0114931201106
0.00142115239562
0.0110059058571
0.0014054988095
0.0105243800271
0.0013892307267
0.0100487079465
0.00137241957223
0.00957906798438
0.0013551608017
0.00911556865315
0.00133752951041
0.00865832682145
0.00131962430099
0.00820739086882
0.00130152581833
0.00776281234259
0.00128333674237
0.00732457578088
0.00126514344327
0.00689266375971
0.00124705201024
0.0064669939989
0.00122915325849
0.0060474776905
0.00121155468577
0.00563396429494
0.00119434901677
0.00522629306745
0.00117764202764
0.00482424588366
0.00116152475722
0.00442759177096
0.00114609701879
0.00403604776448
0.00113144321218
0.00364931588236
0.00111765113081
0.00326705096696
0.0011047909096
0.00288888689765
0.00109292828817
0.00251440387489
0.00108210619698
0.00214312506617
0.00107235346674
0.00177443902941
0.00106367719887
0.00140747042222
0.00105609983435
0.00104075333137
0.00104975231409
0.000671742086452
0.00104498060795
0.000301935077482
0.00103925306358
0.00094698283679
0.00153860051044
-0.00589005536085
0.00324506673651
-0.00652704467014
0.00494516809293
-0.00650429073855
0.00662090743575
-0.00641407314911
0.00826372426889
-0.00629190037372
0.00986609354195
-0.00614140885531
0.0114210848543
-0.00596474687615
0.0129224130111
-0.00576423358619
0.0143644828155
-0.00554239109385
0.0157424347006
-0.00530187159058
0.0170521489954
-0.00504539778165
0.0182902563222
-0.0047756949197
0.0194541067895
-0.00449544559783
0.0205417548613
-0.00420723531226
0.0215519037085
-0.00391352472115
0.0224838748445
-0.00361661042038
0.0233375376388
-0.00331861524802
0.0241132733033
-0.00302146374677
0.0248118985523
-0.00272688897671
0.0254346320704
-0.00243642011864
0.0259830195132
-0.00215140224701
0.0264589081747
-0.00187299177042
0.0268643776427
-0.00160218414983
0.0272017251061
-0.00133981196133
0.0274734027529
-0.00108657537219
0.0276820131351
-0.000843038494181
0.0278302519903
-0.000609659166542
0.0279209114954
-0.00038678159867
0.0279568266325
-0.000174664474395
0.0279408843973
2.65298318838e-05
0.0278759727062
0.000216708246454
0.0277649935854
0.000395861230834
0.027610814862
0.000564030802941
0.0274162877967
0.00072132995238
0.0271842005501
0.000867914680815
0.0269173003036
0.0010039988736
0.0266182479735
0.0011298272239
0.0262896441904
0.00124569186282
0.0259339859185
0.00135190544698
0.0255536955147
0.00144881872462
0.025151079042
0.00153679385213
0.0247283579766
0.00161622266947
0.0242876291335
0.00168750019488
0.0238308986871
0.00175104337312
0.0233600437459
0.00180726474462
0.0228768484602
0.00185659146806
0.0223829673053
0.00189943919529
0.0218799630366
0.00193623129136
0.0213692717385
0.00196737308511
0.0208522423698
0.00199327129278
0.0203301035399
0.00201430886227
0.0198040042528
0.00203086470046
0.0192749822716
0.00204328941521
0.0187440055724
0.00205192545066
0.0182119420251
0.00205708397987
0.0176796009254
0.002059065533
0.0171477036427
0.00205813825924
0.0166169245676
0.00205455901884
0.0160878623453
0.00204855308877
0.0155610795546
0.00204033558745
0.0150370742018
0.00203009260424
0.0145163175592
0.00201800269426
0.0139992257068
0.00200421927733
0.0134861950687
0.001988891869
0.0129775739517
0.0019721495535
0.0124736955183
0.00195412156514
0.0119748494428
0.00193492159908
0.0114813122087
0.00191466738065
0.0109933191573
0.00189346562932
0.0105110921682
0.00187143029889
0.0100348124979
0.00184866805912
0.00956464598515
0.00182529498377
0.00910071713044
0.00180142251531
0.00864313204071
0.00177717246507
0.00819195421855
0.001752663499
0.00774722544599
0.00172802440686
0.00730894369752
0.00170338122332
0.00687708214831
0.00167886878319
0.00645156956432
0.00165461862446
0.0060323075442
0.00163076888509
0.00561915361865
0.0016074531429
0.00521193675963
0.00158480871003
0.00481044328509
0.00156296653407
0.00441443048806
0.00154205791314
0.00402361508913
0.00152220552799
0.00363768432259
0.0015035285852
0.00325628569349
0.00148613515768
0.00287903301192
0.00147012627987
0.00250549256158
0.00145559112704
0.00213517576513
0.00144261477189
0.00176751124367
0.0014312875998
0.00140181771145
0.00142174033496
0.00103731301955
0.00141420334108
0.000673442712599
0.00140879910875
0.000313271509863
0.00139937374733
0.00126022926506
0.00156829690561
-0.00745824573348
0.00330633844658
-0.00826497234367
0.00503743217049
-0.00823527020868
0.00674295678945
-0.00811948328078
0.00841391415173
-0.00796274329613
0.0100424117635
-0.00776979180146
0.0116212357591
-0.00754345624607
0.0131438919926
-0.00728677494518
0.014604651762
-0.00700303611845
0.0159985849303
-0.006695689842
0.0173215655286
-0.00636826377911
0.0185702667674
-0.00602428154074
0.0197421315815
-0.00566719635608
0.020835339465
-0.00530032935924
0.0218487531751
-0.00492682546766
0.0227818687271
-0.00454961351307
0.0236347493541
-0.00417138462599
0.0244079692495
-0.00379457322762
0.0251025448105
-0.00342135569857
0.0257198812221
-0.00305364885598
0.0262617089486
-0.0026931242209
0.0267300395233
-0.00234121808635
0.0271271118411
-0.00199915446311
0.027455359502
-0.00166795939471
0.0277173672226
-0.0013484853975
0.0279158482241
-0.00104142382565
0.028053608143
-0.00074732618737
0.0281335292249
-0.000466611985744
0.0281585387032
-0.000199586202464
0.028131597343
5.35565995567e-05
0.0280556707901
0.000292717126304
0.0279337204665
0.000517891463598
0.0277686795685
0.000729148445395
0.0275634466993
0.000926637098478
0.0273208632908
0.0011105691486
0.0270437122163
0.00128121853997
0.0267346971045
0.00143890769561
0.0263964440485
0.00158400781131
0.0260314833166
0.00171692582407
0.0256422536365
0.00183810560323
0.0252310859283
0.0019480155165
0.024800209801
0.00204715030798
0.0243517391613
0.00213601909328
0.0238876807125
0.00221514764605
0.0234099213716
0.00228506665814
0.0229202386772
0.00234631428524
0.0224202900674
0.00239942465912
0.021911625111
0.00244493064421
0.0213956766184
0.00248335269943
0.0208737745668
0.00251520197861
0.0203471389761
0.00254096979262
0.0198168952608
0.00256113125175
0.0192840685972
0.00257613561684
0.0187496002989
0.00258641075314
0.0182143433012
0.0025923546747
0.0176790790015
0.00259434098709
0.017144513322
0.00259271180016
0.016611293395
0.00258778424981
0.016080003682
0.00257984482912
0.0155511818778
0.00256915687354
0.0150253145638
0.0025559561673
0.0145028518178
0.0025404591557
0.0139842020643
0.00252285956456
0.0134697450219
0.00250333695175
0.012959825546
0.00248205396778
0.0124547647586
0.00245916484049
0.0119548529281
0.00243481290595
0.0114603588038
0.00240913860332
0.0109715217081
0.00238227693178
0.0104885592788
0.00235436463885
0.0100116591259
0.00232553737007
0.00954098527349
0.00229593581823
0.00907666976106
0.00226570243625
0.0086188181395
0.0022349864674
0.00816750144195
0.00220394022155
0.00772276105767
0.00217272299368
0.00728460141609
0.00214149698598
0.00685299452441
0.00211043022612
0.00642787365953
0.0020796922856
0.00600913774882
0.00204945633323
0.00559664622714
0.00201989481835
0.00519022333881
0.00199118082412
0.00478965418489
0.00196348389221
0.00439468882622
0.0019369708304
0.004005039244
0.00191180188022
0.00362038278166
0.00188813125838
0.00324035925221
0.00186610414836
0.00286457246488
0.00184585787826
0.00249258626586
0.00182752175774
0.00212392319997
0.00181122239182
0.00175806251966
0.00179709286411
0.00139445674476
0.00178529286349
0.00103259745251
0.00177601132731
0.000672306727969
0.00176903603481
0.00031598958306
0.00175563838809
0.00157619475854
0.00160583913732
-0.00906397857
0.0033846965651
-0.0100437164446
0.00515566719658
-0.0100061267673
0.00689936615388
-0.00986306807573
0.00860627928641
-0.00966954209111
0.0102680746915
-0.00943147273285
0.011877188597
-0.00915245547019
0.0134268692868
-0.00883634080912
0.0149112237624
-0.00848727561521
0.0163252427326
-0.00810959378878
0.0176648011741
-0.00770770719514
0.0189266406165
-0.00728600610631
0.0201083325897
-0.00684877369649
0.0212082308079
-0.00640011335155
0.0222254106753
-0.0059438916644
0.0231596043325
-0.00548369422381
0.0240111286377
-0.00502279690739
0.0247808149301
-0.00456414856168
0.0254699366851
-0.00411036779947
0.02608014438
-0.003663748316
0.0266134019782
-0.00322627527173
0.0270719342288
-0.00279964553809
0.0274581769354
-0.002385294403
0.0277747388446
-0.00198442058505
0.0280243650813
-0.00159801325106
0.0282099105745
-0.00122687322529
0.0283343121042
-0.000871634192948
0.0284005682053
-0.000532777042815
0.0284117153672
-0.000210645067945
0.0283708111177
9.45465321379e-05
0.0282809126442
0.000382698424468
0.028145061018
0.000653823211703
0.0279662652955
0.000908021353219
0.0277474886068
0.00114548822905
0.0274916331
0.00136649614149
0.02720153177
0.00157138859856
0.0268799355007
0.00176056973208
0.0265295077851
0.00193449854499
0.0261528142734
0.00209367940537
0.0257523198417
0.00223865736151
0.0253303802056
0.00237000953438
0.02488924098
0.00248834118296
0.0244310311357
0.00259427764857
0.0239577639153
0.00268846084168
0.0234713321153
0.00277154148337
0.0229735108671
0.00284417581836
0.0224659547907
0.00290701805894
0.0219502026688
0.00296071733063
0.0214276765084
0.0030059104361
0.0208996880698
0.00304321921804
0.0203674397387
0.00307324391534
0.019832032707
0.00309656127573
0.0192944693888
0.0031137188907
0.0187556628579
0.00312523442557
0.0182164403338
0.00313159129048
0.0176775532955
0.00313323928987
0.0171396814264
0.00313059187332
0.0166034427343
0.00312402832154
0.0160693972882
0.00311389260471
0.0155380566682
0.00310049701005
0.0150098868995
0.00308412242186
0.0144853166794
0.00306502308018
0.0139647390606
0.00304342789981
0.0134485180871
0.00301954590374
0.0129369890034
0.00299356809783
0.0124304631659
0.00296567305063
0.0119292267839
0.00293602880844
0.0114335441924
0.00290479812142
0.0109436553397
0.00287213995647
0.010459777697
0.00283821396434
0.00998210285628
0.00280318126784
0.00951079745735
0.00276720791592
0.00904599933748
0.00273046479106
0.00858781789919
0.00269312995361
0.00813633025393
0.00265538766247
0.00769158141847
0.00261742965637
0.0072535808347
0.00257945340997
0.00682230271142
0.0025416624956
0.00639768320834
0.00250426427237
0.00597962112722
0.00246746952943
0.00556797592468
0.00243148984158
0.0051625688332
0.00239653671858
0.00476318171994
0.00236281887419
0.00436955856588
0.00233054113124
0.00398140499428
0.00229990190025
0.00359838987109
0.00227109220427
0.00322014522339
0.00224429392062
0.00284626787955
0.00221967978723
0.00247632005016
0.00219741358761
0.00210983298746
0.00217765335402
0.00174631548328
0.00216055601102
0.00138527321954
0.00214628169653
0.001026261005
0.0021349691626
0.000669073280371
0.00212617143251
0.000315572192536
0.00210908829633
0.00189174153257
0.00165204841339
-0.0107159211195
0.00348140906018
-0.0118729639301
0.00530166580756
-0.011826269928
0.00709244543957
-0.0116537338102
0.00884358773163
-0.0114205703475
0.0105462242797
-0.011133994938
0.0121923673129
-0.0107984839406
0.0137749590067
-0.0104188176034
0.0152879166696
-0.0100001182106
0.0167261503747
-0.00954771217778
0.0180855531663
-0.0090669946698
0.0193629702983
-0.0085633078699
0.020556149246
-0.00804183752641
0.0216636772158
-0.00750752644471
0.0226849070131
-0.00696500715887
0.0236198776598
-0.00641855116821
0.0244692299943
-0.00587203647606
0.0252341235257
-0.00532893032922
0.0259161544639
-0.00479228829373
0.0265172808368
-0.00426476565298
0.0270397538366
-0.00374864092385
0.0274860600029
-0.00324584615235
0.0278588716718
-0.00275800254643
0.0281610081927
-0.00228645571434
0.028395403464
-0.00183230943909
0.0285650807791
-0.00139645386948
0.028673129981
-0.000979589256462
0.0287226881232
-0.000582243660031
0.0287169196305
-0.000204787740413
0.0286589984015
0.000152553840743
0.0285520894322
0.000489690677055
0.0283993308718
0.000806662221709
0.0282038204652
0.00110360935197
0.027968599869
0.00138078355175
0.027696642015
0.00163852584665
0.0273908411001
0.0018772585065
0.0270540024769
0.00209747448073
0.0266888355825
0.00229972872271
0.0262979463141
0.00248462909901
0.0258838321704
0.00265282910894
0.025448876535
0.0028050199286
0.024995345626
0.00294192403712
0.0245253844922
0.00306428788311
0.0240410156961
0.00317287592512
0.0235441370689
0.00326846354988
0.0230365222246
0.0033518312713
0.0225198202342
0.00342375779206
0.0219955580981
0.0034850143561
0.0214651424472
0.00353635809094
0.0209298640136
0.00357852676875
0.0203909013322
0.00361223280125
0.0198493270503
0.00363815884532
0.0193061133486
0.00365695294641
0.0187621396795
0.00366922550164
0.0182181993847
0.00367554603864
0.0176750082205
0.00367644194316
0.017133211444
0.00367239718
0.0165933923532
0.0036638529691
0.0160560790659
0.00365120849343
0.0155217523065
0.00363482340797
0.0149908511574
0.00361502027688
0.014463779466
0.00359208853772
0.0139409100553
0.00356628818012
0.0134225893497
0.0035378545837
0.0129091397788
0.00350700280393
0.0124008624991
0.00347393262933
0.0118980380167
0.00343883282416
0.0114009271424
0.00340188577562
0.0109097700881
0.00336327112301
0.0104247860082
0.00332316950706
0.00994617100648
0.00328176518772
0.00947409673765
0.00323924859278
0.00900870782566
0.00319581772723
0.00855012003703
0.00315167943609
0.00809841760857
0.00310704960658
0.00765365145247
0.0030621532341
0.00721583680014
0.00301722356753
0.00678495180459
0.00297250119649
0.00636093579803
0.00292823238533
0.00594368852601
0.00288466745913
0.00553306917612
0.00284205861167
0.00512889634731
0.00280065789574
0.00473094787614
0.00276071480903
0.00433896151824
0.00272247420403
0.00395263547414
0.00268617398955
0.00357162974491
0.00265204335695
0.00319556738907
0.00262030105782
0.00282403677697
0.00259115449455
0.00245659480225
0.00256479942474
0.00209277193916
0.00254142027751
0.00173208093813
0.00252119098288
0.00137403463993
0.00250427427544
0.00101817408393
0.00249077824625
0.000664195793649
0.00248009533231
0.000313667600957
0.0024595634571
0.00220538503148
0.00170773005193
-0.0124235457654
0.00359800167353
-0.0137631233316
0.00547764083754
-0.0137057958951
0.0073250305318
-0.0135010101501
0.00912920797465
-0.0132246340417
0.0108806525068
-0.0128853254371
0.0125708717621
-0.0124885887006
0.0141924536209
-0.0120402846359
0.0157391076625
-0.0115466569906
0.0172056713268
-0.0110141603492
0.0185880861325
-0.0104492937042
0.0198833491901
-0.00985845514291
0.021089446253
-0.0092478188006
0.0222052704486
-0.00862323514613
0.0232305313758
-0.00799015294956
0.0241656577828
-0.00735356310717
0.0250116977231
-0.00671796272719
0.025770219514
-0.00608733950476
0.0264432172143
-0.00546517459802
0.027033024115
-0.00485446264076
0.0275422369839
-0.00425774552939
0.0279736533087
-0.00367715607653
0.0283302215885
-0.00311446645977
0.0286150042331
-0.00257113618705
0.0288311499526
-0.00204835534361
0.0289818732728
-0.00154707983214
0.0290704370501
-0.00106805827402
0.0291001364796
-0.000611850979144
0.0290742820955
-0.00017884400819
0.0289961823813
0.000230740125626
0.0288691262594
0.000616830512591
0.0286963668963
0.000979502448036
0.0284811028949
0.0013189513117
0.0282264676469
0.00163549388899
0.0279355153052
0.0019295503801
0.0276112110251
0.00220163212008
0.027256422145
0.0024523298196
0.0268739112744
0.00268230321727
0.0264663298791
0.00289227127119
0.0260362133426
0.00308300360689
0.0255859762325
0.00325531216878
0.025117908902
0.00341004369463
0.0246341742605
0.00354807202479
0.0241368059471
0.00367029093254
0.0236277067703
0.00377760657998
0.0231086486935
0.00387093038183
0.0225812732078
0.00395117144632
0.0220470933956
0.00401922949146
0.0215074964639
0.00407598744401
0.0209637480392
0.00412230473997
0.0204169968978
0.00415901055019
0.0198682813879
0.00418689805517
0.0193185360963
0.00420671896092
0.0187685999607
0.00421917942629
0.0182192242702
0.00422493651293
0.0176710817261
0.00422459631773
0.017124774934
0.00421871277848
0.0165808454975
0.00420778825361
0.0160397820701
0.00419227474251
0.0155020285745
0.00417257677559
0.0149679909755
0.00414905473399
0.0144380438878
0.00412202956057
0.0139125354653
0.00409178755564
0.0133917919425
0.00405858617943
0.012876120355
0.0040226595307
0.012365810894
0.00398422441178
0.0118611375058
0.00394348567016
0.0113623582532
0.00390064174976
0.0108697141308
0.00385588919498
0.0103834278755
0.00380942708294
0.00990370152879
0.00376146020643
0.00943071427054
0.00371220203278
0.00896461934454
0.00366187634912
0.00850554151244
0.00361071865655
0.00805357392471
0.00355897631259
0.00760877571687
0.00350690848874
0.00717116930194
0.00345478503531
0.00674073850084
0.00340288527476
0.00631742658744
0.00335149592031
0.00590113519505
0.00330090904743
0.00549172329386
0.00325141943766
0.00508900697569
0.00320332208983
0.00469275940455
0.00315690936051
0.00430271148082
0.00311246837733
0.00391855272777
0.00307027834362
0.00353993285718
0.00303060821454
0.00316646370666
0.00299371455443
0.0027977221791
0.00295983986507
0.00243325384534
0.00292921108481
0.00207257854851
0.00290203883821
0.00171519885773
0.00287851592134
0.00136060841227
0.00285881079638
0.00100830940657
0.0028430221405
0.00065792054843
0.00283043161155
0.000310846657334
0.00280658608036
0.00251620618901
0.00177382314889
-0.0141972642607
0.00373636504633
-0.0157255532863
0.00568636161056
-0.0156556801158
0.00760066579474
-0.0154152014628
0.00946733094919
-0.015091186012
0.0112760537236
-0.014693934467
0.0130177511872
-0.0142301719506
0.0146846129568
-0.0137070315651
0.0162701325929
-0.0131320613453
0.0177690976422
-0.0125130095727
0.0191775445956
-0.0118576245701
0.0204926885951
-0.0111734827398
0.0217128333176
-0.0104678471533
0.0228372682021
-0.00974755369575
0.0238661556339
-0.00901892446032
0.0248004134712
-0.00828770549129
0.0256415948868
-0.00755902953427
0.0263917710603
-0.00683740201403
0.0270534196113
-0.00612671077651
0.0276293246294
-0.00543025670856
0.0281224910856
-0.00475080275288
0.0285360774059
-0.00409063503084
0.0288733459534
-0.00345162973694
0.0291376304305
-0.0028353176411
0.0293323157084
-0.00224294000116
0.0294608254129
-0.00167549146146
0.0295266119664
-0.0011337493826
0.029533145578
-0.000618291892807
0.0294839003773
-0.000129508887389
0.0293823377496
0.000332389802396
0.029231885269
0.000767367179109
0.0290359268866
0.00117554208944
0.0287977783872
0.00155717817463
0.028520676352
0.00191267136591
0.0282077661768
0.0022425331159
0.0278620926157
0.00254737535668
0.0274865921686
0.00282789709238
0.0270840868578
0.00308487250908
0.0266572788781
0.00331914041066
0.0262087460409
0.00353159479099
0.0257409376903
0.0037231760647
0.025256171329
0.00389486280078
0.024756629741
0.00404766355899
0.0242443589793
0.00418260883299
0.0237212670441
0.00430074284361
0.0231891236332
0.00440311528736
0.0226495608207
0.00449077291653
0.0221040749893
0.00456475110781
0.0215540298951
0.00462606545243
0.0210006610658
0.00467570356334
0.0204450814098
0.00471461729066
0.0198882880472
0.00474371553597
0.0193311702139
0.00476385796736
0.018774518055
0.00477584975064
0.0182190321347
0.00478043762428
0.0176653333199
0.00477830728713
0.0171139728759
0.00477008238592
0.0165654423478
0.00475632489363
0.0160201831171
0.0047375370908
0.0154785951942
0.00471416476728
0.0149410452283
0.00468660178842
0.0144078733406
0.00465519550757
0.0138793988766
0.00462025312862
0.0133559247623
0.00458204841162
0.0128377406786
0.00454082883129
0.0123251248271
0.00449682254459
0.0118183446177
0.00445024532779
0.011317656113
0.00440130684455
0.0108233026598
0.00435021649759
0.0103355125717
0.00429718826534
0.00985449636579
0.00424244488854
0.00938044339567
0.00418622086419
0.00891351842801
0.00412876472399
0.00845385794986
0.00407034011575
0.00800156676242
0.00401122624309
0.00755671457897
0.00395171723979
0.00711933315982
0.00389212106135
0.00668941365216
0.00383275753066
0.00626690460985
0.00377395608815
0.00585171034632
0.00371605295464
0.00544369000999
0.00365938817838
0.00504265706338
0.0036043023636
0.00464837944652
0.00355113343975
0.00426058018856
0.00350021336762
0.0038789386135
0.00345186501687
0.00350309212971
0.00340639921728
0.00313263857383
0.00336411204468
0.00276713933247
0.00332528240578
0.00240612360352
0.00329016998766
0.00204909312095
0.0032590127948
0.00169552776781
0.0032320245529
0.0013448942991
0.00320938998763
0.000996654523445
0.00319121016478
0.000650360608396
0.00317667069877
0.000307320796315
0.00314957267298
0.00282350298087
0.00185147209243
-0.0160486324866
0.00389883771079
-0.0177728085214
0.00593126241685
-0.0176879931518
0.0079237353706
-0.0174075624583
0.00986311799473
-0.0170304559888
0.0117381786278
-0.0165688819125