/*--------------------------------*- C++ -*----------------------------------*\
| =========                 |                                                 |
| \\      /  F ield         | OpenFOAM: The Open Source CFD Toolbox           |
|  \\    /   O peration     | Version:  v1906                                 |
|   \\  /    A nd           | Web:      www.OpenFOAM.com                      |
|    \\/     M anipulation  |                                                 |
\*---------------------------------------------------------------------------*/
FoamFile
{
    version     2.0;
    format      ascii;
    class       surfaceScalarField;
    location    "92";
    object      phi;
}
// * * * * * * * * * * * * * * * * * * * * * * * * * * * * * * * * * * * * * //

dimensions      [0 3 -1 0 0 0 0];
oriented        oriented;


internalField   nonuniform List<scalar> 
18240
(
-0.000353251985594
0.000353436787049
-0.00074018915085
0.000387076510205
-0.0011267354889
0.00038675953949
-0.00150838116438
0.000381775490422
-0.00188287216539
0.00037472676158
-0.00224863943104
0.000365891806484
-0.00260394464556
0.0003555668443
-0.0029476631508
0.00034384305813
-0.00327835189172
0.00033097923391
-0.00359526625706
0.000317044656756
-0.00389726210654
0.000302318200386
-0.00418395078267
0.000286830791512
-0.00445443560041
0.000270841272397
-0.00470863934267
0.000254364512429
-0.00494596165462
0.000237715197785
-0.0051666334324
0.00022085886572
-0.00537022090499
0.000204018485821
-0.00555711185261
0.000187113315969
-0.00572701040684
0.000170369392433
-0.00588046528416
0.000153722706633
-0.00601731577731
0.000137362077312
-0.00613819124854
0.000121200451132
-0.00624305017107
0.000105411673389
-0.00633253750959
8.98822635395e-05
-0.00640669682936
7.47524010138e-05
-0.00646616056658
5.9942580936e-05
-0.00651104733491
4.5517836222e-05
-0.00654191502764
3.14449177441e-05
-0.006559079467
1.78293084623e-05
-0.0065630195005
4.63022685455e-06
-0.00655424474856
-8.08306539862e-06
-0.00653297315185
-2.04547729029e-05
-0.00649969852396
-3.25654377294e-05
-0.00645465295623
-4.40904649077e-05
-0.00639880221555
-5.51375128345e-05
-0.00633210502679
-6.55954674942e-05
-0.0062557076277
-7.56958037033e-05
-0.00616932185935
-8.51341598549e-05
-0.00607443958598
-9.42130169533e-05
-0.00597055500039
-0.000102486638558
-0.00585959571841
-0.000110344533808
-0.00574074353047
-0.000117320195625
-0.00561624791395
-0.000123962463193
-0.00548505073065
-0.000129553068065
-0.00534981992668
-0.000134805441134
-0.00520918344344
-0.000138911963327
-0.00506616947154
-0.000142725154505
-0.00491902556769
-0.000145378240337
-0.00477107764571
-0.000147818736101
-0.00462022860507
-0.00014908628869
-0.00446998480753
-0.000150295030739
-0.00431791957055
-0.000150349303868
-0.00416768190645
-0.000150479185267
-0.00401650606758
-0.000149547134707
-0.00386810527474
-0.00014883698723
-0.0037194549447
-0.00014714194413
-0.00357426103659
-0.000145817062105
-0.0034293203333
-0.000143577877405
-0.00328835970214
-0.000141759107871
-0.00314806678815
-0.000139092310338
-0.00301206401431
-0.000136956422443
-0.00287700059412
-0.000134035216907
-0.00274642937685
-0.000131659919877
-0.00261704798366
-0.000128529705259
-0.00249225775333
-0.000125989286418
-0.00236880725556
-0.000122775725973
-0.0022500216722
-0.000120073180061
-0.00213283078228
-0.000116689766148
-0.00202036464535
-0.000113818602629
-0.00190968199011
-0.000110350011473
-0.00180365270273
-0.000107426877482
-0.00169951826562
-0.000103963150357
-0.00159995904181
-0.000100981716111
-0.001502406353
-9.75337819354e-05
-0.00140925575249
-9.45808096694e-05
-0.00131817778367
-9.1199857481e-05
-0.00123133755946
-8.82598281581e-05
-0.0011466329814
-8.49534422037e-05
-0.00106596966895
-8.20549043378e-05
-0.000987445010754
-7.88828901152e-05
-0.00091270952479
-7.60800138855e-05
-0.000840140677308
-7.30156813682e-05
-0.000771153026284
-7.02678710136e-05
-0.000704432754807
-6.72339984752e-05
-0.000641281794154
-6.43546560103e-05
-0.000580779543252
-6.10668335022e-05
-0.000524484959195
-5.74164318013e-05
-0.000472757807298
-5.23324191899e-05
-0.00042839046411
-4.5413765863e-05
-0.000389097057329
-3.99689179894e-05
-0.0003494868298
-4.06480364006e-05
-0.00030327089122
-4.71651169135e-05
-0.000248096667121
-5.6434413926e-05
-0.000177978309636
-7.16209371543e-05
-9.05603365392e-05
-8.92689430679e-05
-9.15273905724e-05
-0.000390565193491
0.000744179666144
-0.000826792542261
0.000823473250153
-0.00126052385971
0.000820683463081
-0.00168796479934
0.000809388717882
-0.00210711337506
0.000794079951954
-0.00251626115475
0.000775218419023
-0.00291364619636
0.000753172471946
-0.00329784854323
0.000728235383647
-0.00366743733057
0.000700808861986
-0.00402138596592
0.000671199337182
-0.00435862918978
0.000639826623202
-0.00467853502148
0.000606963809414
-0.004980391157
0.00057299119515
-0.00526393836182
0.000538165486703
-0.00552869454461
0.000502798038769
-0.00577459375353
0.000467044383065
-0.00600141904377
0.000431207908216
-0.00620942390376
0.000395443694008
-0.00639863956774
0.000359991570443
-0.00656938641511
0.000324841666065
-0.00672176150226
0.000290191191229
-0.00685617057166
0.000256036356057
-0.00697277430995
0.000222522247437
-0.00707206844434
0.000189666500904
-0.00715433911613
0.000157587529631
-0.00722008657938
0.000126252174576
-0.00726970567937
9.57635170274e-05
-0.00730371604755
6.60979104309e-05
-0.00732244407819
3.72489556329e-05
-0.0073263671488
9.28398435066e-06
-0.00731588648926
-1.78054013972e-05
-0.00729147377864
-4.40429027968e-05
-0.0072537681563
-6.94475475437e-05
-0.00720304127809
-9.38955634479e-05
-0.0071399728587
-0.000117321051066
-0.00706490472282
-0.000139644861387
-0.00697866560684
-0.000160997416141
-0.00688153746979
-0.000181151710273
-0.00677457784839
-0.000200194948807
-0.00665796606934
-0.000217906999346
-0.00653283784899
-0.000234473887659
-0.00639933967157
-0.000249564463986
-0.00625893558775
-0.000263370221527
-0.00611171436558
-0.000275483752304
-0.00595931377613
-0.000286242417723
-0.00580167102004
-0.000295260538392
-0.00564048348452
-0.000303014295869
-0.00547560270689
-0.000308998886808
-0.00530892403901
-0.000313698734526
-0.00514008423818
-0.000316739033563
-0.00497094074261
-0.000318770137194
-0.00480095479267
-0.000319257133957
-0.00463197918567
-0.000318942183766
-0.00446322405878
-0.000317362758198
-0.00429648839489
-0.000315231721357
-0.00413081201739
-0.000312038261032
-0.00396791533927
-0.00030855214769
-0.00380668382827
-0.000304200797023
-0.00364869507825
-0.00029976414757
-0.00349272587463
-0.000294628414796
-0.00334035918801
-0.000289510274541
-0.00319034117512
-0.000283793599955
-0.0030441545987
-0.000278192134516
-0.00290049445622
-0.000272096830749
-0.00276084962064
-0.000266123558223
-0.00262401302459
-0.000259676372716
-0.00249131233723
-0.000253390886934
-0.00236154841955
-0.000246663309361
-0.00223596384059
-0.000240131825128
-0.00211344015498
-0.000233216609171
-0.00199514714447
-0.000226543886569
-0.00187996264898
-0.000219610893455
-0.00176897356533
-0.000212874413184
-0.00166113797156
-0.000205939288718
-0.00155736481551
-0.000199320769755
-0.00145672500943
-0.000192501553705
-0.00136005760068
-0.000185940894028
-0.00126647629332
-0.00017927212406
-0.00117673964383
-0.00017283431432
-0.00109005979542
-0.000166356460065
-0.00100694198935
-0.000160249561285
-0.000926753751735
-0.000154033554858
-0.0008500174708
-0.00014804467517
-0.000776191469084
-0.000141905633283
-0.00070579037692
-0.000135770759175
-0.000638399869692
-0.000129310081795
-0.000574582815638
-0.000122216145807
-0.000514128294883
-0.000113644469283
-0.00045728663384
-0.00010320466055
-0.000403744770596
-9.43731831901e-05
-0.000352008189841
-9.33305031675e-05
-0.000298968037371
-0.000101235280155
-0.000241154535296
-0.000115485307928
-0.000173206347488
-0.000141015352771
-8.83058019472e-05
-0.000175836619905
-0.00018068967473
-0.000397562924871
0.00114191478936
-0.00083945545738
0.0012655410916
-0.00127949860243
0.00126090920406
-0.00171316264419
0.00124323330568
-0.00213828270154
0.00121939205405
-0.0025530047004
0.00119013047805
-0.00295559174058
0.00115596500141
-0.00334453936649
0.00111738694044
-0.00371847125282
0.00107496393143
-0.00407629259713
0.00102924310319
-0.00441701148016
0.000980790908566
-0.00473991025055
0.000930108206418
-0.00504438324092
0.000877736326797
-0.00533007017716
0.000824126296065
-0.0055966858584
0.000769717557332
-0.00584415012737
0.000714816190955
-0.00607238454387
0.000659783122352
-0.00628148423981
0.000604890675893
-0.00647150563438
0.000550396602201
-0.00664273777644
0.000496467428482
-0.00679540480418
0.000443290947427
-0.00692986941603
0.0003909481413
-0.00704644465183
0.000339585903188
-0.00714555402564
0.000289283977987
-0.0072275746257
0.00024015881531
-0.00729303317259
0.000192287228692
-0.00734228552985
0.00014563500325
-0.00737569667492
0.000100160833237
-0.00739373062238
5.5975793931e-05
-0.00739678508333
1.30713399781e-05
-0.00738532863395
-2.84916755277e-05
-0.00735986404061
-6.86896247349e-05
-0.00732090239755
-0.000107560246747
-0.00726895522535
-0.000144938483582
-0.00720451319713
-0.000180837245708
-0.007127970884
-0.000215198705888
-0.00704000936371
-0.000247961656439
-0.0069411269326
-0.000278968287243
-0.00683210149085
-0.000308162770963
-0.00671342917433
-0.000335448753241
-0.00658599443283
-0.000360807203959
-0.00645033170703
-0.000384051830948
-0.00630744161839
-0.000405139431036
-0.00615798565236
-0.000423746854874
-0.00600296864975
-0.00044014918302
-0.00584293495016
-0.000454117976374
-0.00567917106798
-0.000465714880212
-0.00551216422378
-0.000474884098439
-0.00534298800878
-0.000481895493012
-0.00517209821286
-0.000486600487608
-0.00500066154509
-0.000489347009754
-0.00482884684135
-0.000490170840277
-0.00465762953435
-0.000489447569072
-0.00448716693786
-0.000487078414163
-0.00431839737417
-0.000483457816371
-0.00415127087162
-0.000478588527501
-0.0039865442583
-0.000472913218415
-0.00382401907377
-0.000466328301084
-0.0036643808778
-0.00045921700022
-0.00350736477072
-0.000451425103977
-0.00335356321066
-0.000443300874454
-0.00320265357912
-0.000434656115015
-0.00305518985843
-0.000425809710418
-0.00291084407499
-0.000416557353408
-0.0027701407699
-0.000407131948514
-0.00263272119671
-0.000397360186108
-0.0024990566017
-0.000387498351609
-0.00236875790754
-0.000377362541798
-0.00224226045863
-0.000367194858892
-0.00211914958942
-0.000356850797413
-0.00199986554853
-0.00034650162901
-0.00188413881386
-0.000335969171416
-0.00177222826877
-0.000325551390671
-0.00166385081521
-0.000315041639729
-0.0015593840677
-0.000304631302339
-0.00145843918093
-0.000294249254383
-0.00136121815545
-0.00028406670975
-0.00126738547341
-0.000273969103794
-0.0011770090856
-0.000264158843561
-0.00108991004312
-0.000254362161914
-0.00100632782342
-0.000244803546048
-0.000925913915322
-0.000235376083484
-0.000848772158282
-0.000226162813539
-0.000774604846937
-0.000217004399141
-0.000703478394658
-0.000207864284862
-0.000635155204384
-0.000198562031338
-0.000569729582121
-0.000188596978616
-0.000506739415416
-0.000177561772641
-0.000445660106389
-0.000165224978384
-0.000389556697307
-0.000151392896367
-0.000337092785973
-0.000146775278069
-0.000277713186049
-0.000161685085295
-0.00020854382875
-0.000185818796855
-0.000138222901485
-0.000212641911321
-7.06763160297e-05
-0.000244787232095
-0.000252061225568
-0.000403785486369
0.00154586966664
-0.000851816290167
0.00171374632633
-0.00129798628893
0.00170725851251
-0.00173752853851
0.0016829569851
-0.00216816728017
0.00165021884499
-0.00258794577529
0.0016101008115
-0.00299507132668
0.00156329128712
-0.00338799646461
0.0015105184001
-0.00376536231344
0.00145254756343
-0.00412603029953
0.00139013634902
-0.0044690700068
0.00132406990597
-0.00479378367186
0.00125507069157
-0.00509964672551
0.00118386490453
-0.00538631864153
0.00111107551386
-0.00565352693905
0.0010372226252
-0.00590118845683
0.00096278883585
-0.00612932572988
0.000888253959717
-0.00633806304895
0.000813978880988
-0.00652757850214
0.000740288515941
-0.00669813029874
0.000667416385802
-0.00685001492848
0.000595601576024
-0.00698361479283
0.000524998472501
-0.00709924792073
0.000455701596044
-0.00719735020671
0.000387897284822
-0.00727837006181
0.000321724828385
-0.00734267772584
0.000257173695791
-0.00739065454646
0.000194228420905
-0.00742275656316
0.000132916059214
-0.00743942838257
7.33404281794e-05
-0.00744115966954
1.55357510542e-05
-0.00742835727474
-4.05204980896e-05
-0.00740145329393
-9.4776956333e-05
-0.00736098654759
-0.000147170644653
-0.00730742388151
-0.000197599745739
-0.00724130321058
-0.000246019165499
-0.00716312377391
-0.000292394120126
-0.00707349974874
-0.000336569322551
-0.00697290191377
-0.000378506140046
-0.00686195002266
-0.000418030148039
-0.00674130609042
-0.000454969374711
-0.0066117626892
-0.000489214771824
-0.00647415192661
-0.000520496075126
-0.00632920273592
-0.000548925562099
-0.00617748839412
-0.000574279624967
-0.00602004466074
-0.000596435258857
-0.00585768503222
-0.000615316584334
-0.00569130316051
-0.000630982222137
-0.00552176620158
-0.00064332057531
-0.00535011380983
-0.000652517279423
-0.00517702351169
-0.000658690925608
-0.00500338004805
-0.00066208105342
-0.00482978228607
-0.000662904219005
-0.00465701286634
-0.00066145924777
-0.00448534900252
-0.000658039487944
-0.00431532197533
-0.000652898556186
-0.00414726062751
-0.000646124052592
-0.00398159227099
-0.000638176922112
-0.003818409306
-0.000629168268344
-0.00365806254937
-0.000619341600388
-0.00350059171946
-0.000608733425141
-0.00334625086096
-0.000597596242308
-0.00319502237247
-0.000585894459847
-0.00304712950575
-0.00057382289268
-0.00290251137509
-0.000561345691999
-0.00276147818444
-0.000548438750149
-0.00262397153174
-0.000535184666079
-0.00249010671343
-0.000521776245232
-0.00235973685038
-0.000508184276873
-0.00223307046614
-0.00049440017228
-0.00210999574332
-0.000480497439766
-0.0019905875708
-0.000466559576768
-0.00187477306937
-0.000452460993556
-0.00176280233464
-0.000438267627723
-0.00165455749117
-0.000424054042569
-0.00155005023083
-0.000409964271542
-0.00144917809362
-0.000395963472521
-0.00135199914321
-0.000382135375209
-0.0012583972735
-0.00036847097553
-0.00116839386969
-0.00035509840346
-0.00108176533001
-0.000341930067535
-0.000998478762478
-0.000329053661221
-0.00091825331528
-0.000316560824814
-0.00084104748661
-0.00030433972573
-0.000766684177194
-0.000292329048935
-0.000695149777573
-0.000280364768107
-0.000626257863294
-0.000268412231759
-0.000559433556051
-0.000256385400639
-0.00049462438335
-0.000243327942702
-0.000431145049045
-0.000229672301721
-0.000367792597153
-0.000215707051783
-0.000306460805663
-0.000209091764956
-0.000246390528438
-0.000222808678931
-0.00017944029214
-0.000253907552533
-0.000112395119291
-0.000280830765104
-5.71999494196e-05
-0.000301154613103
-0.000309877552813
-0.000411801254986
0.00195783934232
-0.000868339558413
0.00217045976119
-0.00132279913363
0.0021618957698
-0.00177021946157
0.00213055869166
-0.00220819330781
0.00208837919024
-0.00263465211535
0.0020367513815
-0.0030477601542
0.00197659839329
-0.0034458979405
0.0019088624304
-0.0038276897055
0.00183455514356
-0.00419202667057
0.00175469842852
-0.00453801427666
0.00167029456139
-0.0048650009161
0.00158230590086
-0.00517252692656
0.00149165387794
-0.00546024741424
0.00139907293022
-0.0057279931671
0.00130526235543
-0.00597577275263
0.00121087904669
-0.00620366271172
0.00111647450246
-0.00641183864496
0.00102250509793
-0.0066005561978
0.000929379513818
-0.00677013586573
0.000837392553563
-0.00692087630627
0.00074676512174
-0.00705312116252
0.000657693117438
-0.00716732202016
0.000570382381475
-0.00726394995911
0.000485035589925
-0.00734343285191
0.000401751787973
-0.00740609793414
0.000320416999165
-0.00745238253554
0.00024112816318
-0.00748277570776
0.000163961950413
-0.00749766652494
8.892363407e-05
-0.00749751537426
1.61174310741e-05
-0.00748279706829
-5.44645385092e-05
-0.00745402743552
-0.000122729857263
-0.00741172470142
-0.000188614430861
-0.00735627069944
-0.000252151360247
-0.00728808921191
-0.000313256951643
-0.0072077181259
-0.000371778609482
-0.00711572966865
-0.000427532782224
-0.00701275412944
-0.000480416633976
-0.00689939511384
-0.000530291784931
-0.00677634175761
-0.000576891279304
-0.0066441728302
-0.000620229814516
-0.00650352889744
-0.000659962491648
-0.00635527113556
-0.000695998045726
-0.00620020815316
-0.000728148670585
-0.00603931474062
-0.000756145501448
-0.00587358154093
-0.000779877187301
-0.00570403681722
-0.000799386706991
-0.00553150969552
-0.000814739501199
-0.00535686141513
-0.000826111267866
-0.00518098170253
-0.000833569641516
-0.00500474834723
-0.000837386269603
-0.00482884265808
-0.000837952192665
-0.00465393149377
-0.00083559957316
-0.00448053686188
-0.000830745232506
-0.00430906341497
-0.000823778582405
-0.00413978554714
-0.000814895785744
-0.00397304615272
-0.000804508973743
-0.00380901127912
-0.000792883804162
-0.00364789431455
-0.000780236799921
-0.00348984978897
-0.000766640604077
-0.00333496225783
-0.000752439591068
-0.00318333689092
-0.000737554134247
-0.00303510566176
-0.000722176174076
-0.00289030446488
-0.000706341374136
-0.00274931829546
-0.000689700237478
-0.00261190827743
-0.000672936423607
-0.00247793249717
-0.000656167382032
-0.0023474089706
-0.000639183200303
-0.00222052932081
-0.000621821485087
-0.00209724649254
-0.000604375178603
-0.00197759279468
-0.000586866672193
-0.00186168122083
-0.000569071696391
-0.00174962350134
-0.000551075539141
-0.00164131202113
-0.000533153801597
-0.0015366843628
-0.000515423060424
-0.00143574512723
-0.000497764146034
-0.00133858226331
-0.000480194295655
-0.00124511474054
-0.000462855936107
-0.00115520218286
-0.000445954091868
-0.00106870080491
-0.00042938690538
-0.000985558178386
-0.000413167530654
-0.000905660025327
-0.000397433306227
-0.000828856961461
-0.000382123843704
-0.000754953006791
-0.000367209891599
-0.00068359097086
-0.000352704817027
-0.000614481087666
-0.000338498881926
-0.00054737032913
-0.000324474878765
-0.000481538604129
-0.000310144100522
-0.000416754201727
-0.000295448560136
-0.000347182923184
-0.000286277241796
-0.000276012508767
-0.000281276370659
-0.000211408891805
-0.000288416527001
-0.000154505569273
-0.000311823052415
-9.49635755258e-05
-0.000341431930977
-4.62387650728e-05
-0.000350922862946
-0.000356629314731
-0.000421987460355
0.00237999459283
-0.000889574342919
0.00263822042992
-0.00135474009583
0.00262723903851
-0.0018122863747
0.00258828601925
-0.0022596456362
0.00253592444676
-0.0026946349224
0.00247193219891
-0.0031153052982
0.0023974670546
-0.00351998935685
0.00231375239016
-0.00390734072182
0.00222212129382
-0.00427623531842
0.00212381761372
-0.00462583469774
0.00202012965019
-0.00495558458012
0.00191230361899
-0.00526503825165
0.00180136890731
-0.00555394411259
0.00168825476097
-0.00582227463821
0.00157388497747
-0.00607009680435
0.00145901069148
-0.00629757830104
0.00134428452219
-0.00650500345639
0.0012302792555
-0.00669264825768
0.00111739560176
-0.00686082540919
0.00100596487677
-0.00700994720593
0.000896307863448
-0.00714044849562
0.000788642869498
-0.00725285120389
0.000683262985719
-0.00734760707281
0.000580300625512
-0.00742502040655
0.000479707378601
-0.00748557248543
0.000381546223458
-0.0075297096851
0.000285879056485
-0.00755784784852
0.00019275195024
-0.00757050945499
0.000102276604446
-0.00756813243418
1.4472629428e-05
-0.00755122735997
-7.0595533106e-05
-0.00752020210366
-0.00015293841633
-0.00747541471086
-0.000232541798721
-0.00741739347515
-0.000309269137878
-0.00734663373215
-0.000383069511862
-0.00726366070303
-0.000453761804878
-0.0071689658067
-0.000521195660836
-0.00706314573107
-0.00058516509194
-0.00694672686011
-0.000645601287711
-0.00682021565497
-0.000702260217649
-0.00668434461807
-0.000754929923008
-0.00653978753135
-0.000803326985031
-0.0063874698988
-0.000847108731582
-0.00622841646113
-0.000885989743291
-0.00606346149864
-0.000919893482683
-0.00589351217449
-0.000948634707527
-0.0057196520454
-0.000972083867364
-0.0055429987025
-0.000990268017128
-0.00536460990672
-0.00100342846104
-0.0051852977451
-0.00101186976307
-0.00500583360578
-0.0010159125093
-0.00482701963975
-0.00101590490314
-0.00464956977886
-0.00101227715166
-0.00447399705945
-0.00100563324384
-0.00430068415442
-0.000996503574433
-0.00412988983374
-0.000985194737748
-0.00396190156962
-0.000972100501001
-0.00379694784664
-0.000957532756813
-0.00363508898876
-0.000941886533652
-0.00347652784443
-0.00092508010957
-0.00332125652005
-0.000907679177223
-0.00316928278646
-0.000889578618484
-0.00302139697166
-0.000870195998745
-0.00287716316109
-0.000850786118428
-0.00273613188103
-0.000831019646554
-0.00259842143002
-0.000811004930338
-0.00246415198559
-0.00079086493994
-0.00233344970745
-0.000770377175371
-0.00220638076897
-0.000749445148217
-0.002082943938
-0.000728423247459
-0.00196317919136
-0.000707297668921
-0.00184704833755
-0.000685918413697
-0.00173456650206
-0.000664320407778
-0.00162596638604
-0.00064255862607
-0.00152134347403
-0.000620889963198
-0.00142037402672
-0.000599611538946
-0.00132301523142
-0.000578461181399
-0.0012293920379
-0.000557413042684
-0.00113953659187
-0.000536763996883
-0.00105316673485
-0.000516728123487
-0.000970266552449
-0.000497050425304
-0.000890587979005
-0.000478102169657
-0.000813865826686
-0.000459839262329
-0.000739987589597
-0.000442080301253
-0.000668686944693
-0.00042499750026
-0.000599532362581
-0.000408645044432
-0.000532179518217
-0.000392822738698
-0.000466145597672
-0.000377178596397
-0.000400723218217
-0.000361886160423
-0.000333549761318
-0.000354480649945
-0.000261184742985
-0.000354648023378
-0.0001925055774
-0.000358084803501
-0.000136712212559
-0.000368607482499
-8.62425338859e-05
-0.000392852186437
-3.78122404164e-05
-0.000400282054359
-0.000394922641662
-0.000434612213048
0.00281477478696
-0.000915947692012
0.00311973095635
-0.00139441271708
0.00310588127214
-0.00186449573525
0.00305855023455
-0.00232343189316
0.0029950463953
-0.00276886956793
0.0029175612295
-0.00319874955898
0.002827545011
-0.00361137727474
0.00272658557679
-0.00400538106654
0.00261633930319
-0.00437968196918
0.00249834239302
-0.00473354573996
0.00237422830132
-0.00506642750036
0.0022454322157
-0.00537798261814
0.00211318426098
-0.00566816225967
0.00197870909486
-0.00593701987567
0.00184303332825
-0.00618472669017
0.00170702548525
-0.00641158756706
0.00157147237897
-0.00661790774493
0.00143694680013
-0.00680404352327
0.00130390103363
-0.00697045374298
0.00117276856735
-0.00711759245078
0.00104386588312
-0.00724597529038
0.000917472490154
-0.00735618918762
0.000793953239847
-0.00744857407568
0.000673193085711
-0.00752347424278
0.000555148395323
-0.00758139956477
0.000440047187998
-0.00762285716865
0.000327949033004
-0.00764834408477
0.00021888928442
-0.00765834788309
0.000112970645894
-0.00765335755216
1.02133365486e-05
-0.00763371773248
-8.9462096037e-05
-0.00759981935478
-0.000186020693195
-0.00755215517902
-0.000279345860299
-0.00749120212436
-0.000369317808601
-0.00741748320051
-0.00045583928152
-0.00733142790961
-0.000538823389161
-0.00723348548483
-0.000618100613003
-0.00712411485353
-0.000693455622513
-0.00700379569512
-0.000764800913858
-0.00687307125053
-0.000831828251193
-0.00673275295005
-0.000894061460463
-0.00658372683524
-0.000951140532829
-0.00642670175813
-0.0010029058476
-0.00626249441113
-0.00104896062705
-0.00609225700373
-0.00108889976798
-0.00591720066571
-0.00112247444293
-0.00573830997006
-0.00114978821164
-0.00555663537035
-0.0011707971648
-0.00537334851525
-0.00118562481825
-0.00518952311847
-0.00119467079647
-0.00500618001451
-0.00119830641667
-0.00482397920996
-0.0011972418158
-0.00464351303487
-0.00119196850922
-0.00446537114881
-0.0011830968851
-0.0042899573882
-0.0011713352869
-0.00411751632311
-0.00115715314054
-0.00394823196186
-0.00114099909737
-0.00378213813243
-0.00112333784378
-0.00361936400847
-0.00110446451596
-0.00346015058768
-0.001084188832
-0.00330527697666
-0.00106253497792
-0.00315436332517
-0.00104055969321
-0.00300647127519
-0.00101823672921
-0.00286172642545
-0.00099575919223
-0.00272004738115
-0.00097300114446
-0.00258191662388
-0.000949510804667
-0.00244745415595
-0.000925770040863
-0.00231632345455
-0.000902016144042
-0.00218883323117
-0.00087750477165
-0.00206507122838
-0.000852812778518
-0.00194501634596
-0.000828033933045
-0.00182888577887
-0.000802781141628
-0.00171649271358
-0.000777491767181
-0.00160770578009
-0.000752166842468
-0.00150277649979
-0.000726678576413
-0.00140186262766
-0.000701418957828
-0.001304811519
-0.000676436449233
-0.0012114301665
-0.000651743089319
-0.00112162458672
-0.00062753981079
-0.00103547235766
-0.000603866423719
-0.000952781923462
-0.000580738992536
-0.000873387450161
-0.00055850178519
-0.000797043285992
-0.000537191617816
-0.000723387225787
-0.000516744376139
-0.000652145924534
-0.000497245526501
-0.00058308425605
-0.000478713624577
-0.000515546860336
-0.000461370837979
-0.000448936376883
-0.000444805262179
-0.000381956275104
-0.000429888042938
-0.00031723630485
-0.000420223135892
-0.000252815358216
-0.000420099235296
-0.000187409769745
-0.000424472846074
-0.000129359159279
-0.000427581584567
-8.38240667061e-05
-0.000439335121504
-3.51434087965e-05
-0.000449883283205
-0.00043049973507
-0.000449942329145
0.00326488515467
-0.000947986101459
0.00361794894419
-0.0014425755394
0.00360064845548
-0.00192780004664
0.0035439559831
-0.00240065019536
0.0034680824372
-0.0028585578718
0.00337566025629
-0.00329936651233
0.00326855138567
-0.00372131999185
0.00314874428411
-0.00412305312259
0.00301828610448
-0.00450355984792
0.00287907246205
-0.00486216707896
0.00273306953282
-0.00519844048914
0.00258195163061
-0.00551224859867
0.00242725142197
-0.00580366696022
0.00227040105221
-0.0060728905642
0.00211254622819
-0.00632024939997
0.00195469101
-0.00654610839818
0.00179765676233
-0.00675088958643
0.00164207395577
-0.00693512248454
0.00148850191297
-0.00709931814222
0.00133735628429
-0.00724400266481
0.00118896804707
-0.00736988691686
0.00104380217689
-0.00747731842453
0.000901859503197
-0.00756668365267
0.000763064595908
-0.00763860383159
0.000627607816323
-0.00769351710778
0.000495534796193
-0.007731943946
0.000366986579032
-0.00775444404688
0.000242038409272
-0.00776141560838
0.000120630694177
-0.00775320214505
2.72941904888e-06
-0.00773029346249
-0.000111599162638
-0.00769316179036
-0.000222337545276
-0.00764229430746
-0.000329354021921
-0.00757804748946
-0.000432660342686
-0.00750081050393
-0.000532125568105
-0.00741107307787
-0.00062756447215
-0.00730922569013
-0.000718904765626
-0.00719562821695
-0.000805965848502
-0.00707079873697
-0.000888499036016
-0.00693545203838
-0.000966005282793
-0.00679017505066
-0.00103813276984
-0.00663560817847
-0.00110447491424
-0.00647272955971
-0.00116453123757
-0.00630259732835
-0.00121783110029
-0.0061262345645
-0.001264002795
-0.00594471549856
-0.00130275004149
-0.00575941223857
-0.00133387827902
-0.00557162526127
-0.00135741484045
-0.00538272271584
-0.0013734172072
-0.00519374852932
-0.00138260363374
-0.00500566710819
-0.00138542911321
-0.00481937673064
-0.00138266112939
-0.00463547531996
-0.00137509649506
-0.00445442395775
-0.00136347297531
-0.00427657969796
-0.00134860696221
-0.00410217150879
-0.00133108902078
-0.00393123926846
-0.00131156002561
-0.00376402111981
-0.00129028098968
-0.00360093508674
-0.00126737112911
-0.00344247452404
-0.0012425599085
-0.00328735561386
-0.00121765390052
-0.00313540483191
-0.00119259401432
-0.00298670099129
-0.00116710750456
-0.00284144169687
-0.00114126182941
-0.00269974897397
-0.00111501451393
-0.0025613598883
-0.00108828998356
-0.00242623757067
-0.00106135209553
-0.00229475809079
-0.00103401919907
-0.00216692320386
-0.00100592597687
-0.00204299770212
-0.00097738153971
-0.00192267449054
-0.000949056002621
-0.00180620585261
-0.000919997840759
-0.00169368503706
-0.000890808522284
-0.00158512726742
-0.000861562212559
-0.00148042371187
-0.000832258417212
-0.00137959917443
-0.000803154002432
-0.00128252694062
-0.000774448470429
-0.00118932888758
-0.000745906185657
-0.00109995709449
-0.000717897634953
-0.00101424228939
-0.00069058311363
-0.000931935570457
-0.000664059201965
-0.000853018848264
-0.000638438905427
-0.000777268725262
-0.000613965007648
-0.000704468612892
-0.000590567724074
-0.000634190185803
-0.000568545606121
-0.000565994139911
-0.000547932857756
-0.000499142459059
-0.000529247174566
-0.000432909627085
-0.000512065624139
-0.00036685706444
-0.000496972811744
-0.000302600010239
-0.000485508752721
-0.000242844851074
-0.00048085042473
-0.000185374273229
-0.00048292250945
-0.000127394094337
-0.000486530621394
-8.15182529765e-05
-0.000486111521899
-3.63677013298e-05
-0.000495915639495
-0.000467314759182
-0.000468314657918
0.0037333684957
-0.000986363796627
0.00413617391921
-0.00150020909895
0.00411467166105
-0.00200344086809
0.00404736945831
-0.00249272259516
0.00395755023512
-0.00296525033134
0.00384837938893
-0.00341874656081
0.0037222453167
-0.00385140002678
0.0035816026773
-0.004261871443
0.00342897084894
-0.00464925291987
0.00326667663208
-0.0050129969819
0.00309704693375
-0.00535286519826
0.00292206487514
-0.00566894541733
0.00274358974347
-0.00596144407022
0.00256317206511
-0.00623071161763
0.00238210191863
-0.00647724659719
0.00220153127608
-0.00670160109651
0.00202233538286
-0.00690438774617
0.00184520510567
-0.00708621532318
0.00167069620586
-0.00724769235598
0.0014992239271
-0.00738953755182
0.001331229693
-0.00751226261749
0.00116697130936
-0.00761631760678
0.00100638811541
-0.0077022936718
0.000849545553535
-0.00777069176012
0.000696543954615
-0.00782210010943
0.00054751589881
-0.00785707797132
0.000402573701411
-0.00787603108708
0.000261638601033
-0.00787935603309
0.00012464225539
-0.00786755115406
-8.34828975752e-06
-0.00784104913217
-0.000137331808931
-0.00780035013093
-0.000262224061559
-0.00774577821496
-0.000383068464571
-0.00767772940862
-0.000499805945751
-0.00759663714544
-0.000612267115279
-0.00750279000628
-0.000720413018104
-0.0073964735472