/*--------------------------------*- C++ -*----------------------------------*\
| =========                 |                                                 |
| \\      /  F ield         | OpenFOAM: The Open Source CFD Toolbox           |
|  \\    /   O peration     | Version:  v1906                                 |
|   \\  /    A nd           | Web:      www.OpenFOAM.com                      |
|    \\/     M anipulation  |                                                 |
\*---------------------------------------------------------------------------*/
FoamFile
{
    version     2.0;
    format      ascii;
    class       surfaceScalarField;
    location    "92";
    object      phia;
}
// * * * * * * * * * * * * * * * * * * * * * * * * * * * * * * * * * * * * * //

dimensions      [0 3 -1 0 0 0 0];
oriented        oriented;


internalField   nonuniform List<scalar> 
18240
(
0.00114373688746
-0.00114509134059
0.00239430865439
-0.00125347589166
0.00364834902078
-0.0012550211974
0.00488921183636
-0.00124399265888
0.00611578039677
-0.0012269865284
0.00731892916485
-0.00120635727373
0.0085001076751
-0.00118097269533
0.00964994155487
-0.00115296829907
0.0107714917979
-0.0011206817305
0.0118551031028
-0.00108652128305
0.0129052497251
-0.0010485933044
0.0139121780794
-0.00100947781425
0.0148814321879
-0.000967027308976
0.0158033560256
-0.000923992617167
0.016684571066
-0.000878342049674
0.0175158909423
-0.000832808913433
0.018304435941
-0.000785080666534
0.019041377201
-0.000737771625941
0.0197340697028
-0.000688703062518
0.0203744341181
-0.000640480435351
0.0209698785086
-0.00059101550955
0.0215131670661
-0.000542655602031
0.0220115151548
-0.000493569831218
0.0224586337164
-0.000445722988757
0.0228612210314
-0.000397558509546
0.0232141398569
-0.000350762948609
0.0235233142765
-0.00030399192928
0.0237848003208
-0.000258585836042
0.0240039417885
-0.000213900584175
0.0241782214438
-0.000170659411326
0.0243121659663
-0.000128734790515
0.0244042316522
-8.77544396948e-05
0.0244570390373
-4.77109118654e-05
0.0244711773289
-9.16815063772e-06
0.0244489450065
2.71354747268e-05
0.0243922134409
6.232679488e-05
0.0243015571629
9.52938052448e-05
0.0241803323412
0.000127408966646
0.0240277322231
0.000156894888509
0.0238488289628
0.000185635508126
0.0236415502384
0.000211159364212
0.023412388542
0.000236391819631
0.0231573493921
0.000258422948847
0.022884685543
0.000280326946405
0.0225887877491
0.000298709449239
0.0222793815591
0.000317414739436
0.0219490665058
0.000332465452373
0.0216087459728
0.000348560615765
0.021249222201
0.00036093794668
0.020882625883
0.000374924460225
0.0204978638747
0.00038535844367
0.020108245045
0.000397869846278
0.0197011496715
0.000406821803734
0.0192907276264
0.000418416870273
0.0188630861521
0.000426452949686
0.0184332089615
0.000437440836282
0.0179861763431
0.000444928749501
0.0175376655516
0.00045548221557
0.0170724663194
0.000462195590376
0.0166067420105
0.000471970987584
0.016124874751
0.000478025293837
0.0156432566994
0.000487036587554
0.0151465376364
0.000492111256122
0.0146512343553
0.000499826423663
0.0141422739259
0.000503695404892
0.0136357529685
0.000510113071262
0.0131176919041
0.000512247983549
0.0126040038144
0.000516346117226
0.0120814991484
0.000516272092926
0.0115651956832
0.000518047581345
0.011042556923
0.000516103609494
0.0105276783055
0.000515750203859
0.0100093255207
0.000511637077532
0.00950039014311
0.000508993637758
0.00899047253304
0.000503129009205
0.00849141267318
0.000498381074966
0.00799407012513
0.000490589767604
0.00750897374537
0.000483765668018
0.00702809314163
0.000474259165255
0.00656038636274
0.000465821129967
0.00609891254983
0.000455079942768
0.00565160536391
0.00044498440018
0.00521267223203
0.000432859654759
0.00478929810528
0.000420748244758
0.00437751362975
0.000406101449639
0.00398445658713
0.000390220294317
0.00361039126982
0.00036879519501
0.00326875483143
0.000338617950331
0.00297111214646
0.00029273977813
0.00270957428506
0.000258148810091
0.0024396081734
0.000265063834775
0.00212318360498
0.000311716722865
0.00173996379859
0.000377131336787
0.00124767560098
0.000485286831275
0.000628295325301
0.000611131653147
0.000623964794785
0.00126104476221
-0.0024080189282
0.00266699961598
-0.00266188954405
0.00406919270303
-0.00265910034983
0.00545580153907
-0.00263299612514
0.00682392266436
-0.00259667567567
0.00816734495083
-0.0025519768118
0.00948400023818
-0.00249878113222
0.0107676266774
-0.00243847459725
0.0120171198401
-0.00237082392879
0.0132265383768
-0.00229739091088
0.0143957694525
-0.00221790124468
0.0155193344231
-0.00213397318629
0.0165980544862
-0.00204520503116
0.0176270553068
-0.00195333215259
0.0186077067062
-0.00185780944176
0.0195353721579
-0.00176017290257
0.0204121059568
-0.00165998729435
0.0212341856824
-0.00155888294925
0.0220043322204
-0.00145639879228
0.0227191186059
-0.00135362661455
0.0233813071299
-0.00125016694351
0.0239880296841
-0.00114708006993
0.024542055362
-0.00104402398413
0.0250412670912
-0.000942009059667
0.0254886190094
-0.000840867763526
0.0258826063085
-0.000741239180161
0.0262262517783
-0.000643191755082
0.0265188471342
-0.000547134677443
0.0267627507469
-0.00045302757728
0.0269579099157
-0.000361290520115
0.0271064270102
-0.00027221303179
0.0272090873464
-0.000185459965143
0.0272682157866
-0.000101607415169
0.027284786158
-2.04109185169e-05
0.0272604463965
5.68374439222e-05
0.0271973594532
0.000131060894688
0.0270967531442
0.000201327272379
0.0269615086506
0.00026856619399
0.0267925729917
0.000331261607666
0.0265933536448
0.000390976924678
0.0263637550446
0.000446123905481
0.026107933059
0.000498481634794
0.0258256238895
0.000545962445232
0.0255216375235
0.000590653067579
0.0251948572579
0.000630499230721
0.0248503513783
0.000668241653574
0.0244856976881
0.000701815983703
0.0241065314989
0.000733919185097
0.0237099172614
0.000761826844164
0.023301561309
0.000789215667025
0.0228773038164
0.000813357427231
0.022443195384
0.000837517443648
0.0219943252999
0.000858785568026
0.0215367610818
0.000880983234375
0.0210650123482
0.000900551502307
0.0205854431958
0.000921347960503
0.0200921445517
0.000939756676802
0.0195916920302
0.000959504417264
0.0190776749536
0.000976879737225
0.0185568303822
0.000995544489393
0.0180231731531
0.00101147428487
0.0174837483227
0.00102830939864
0.0169326242873
0.00104217395849
0.0163767467166
0.00105666534646
0.0158109646307
0.0010676112726
0.0152427087396
0.00107846699466
0.0146667684724
0.00108558825833
0.0140902729496
0.00109212449679
0.0135084736524
0.0010948208798
0.0129284231861
0.0010966305673
0.0123459736779
0.00109474633623
0.0117674697977
0.0010921141568
0.0111893372687
0.00108550452716
0.0106174776653
0.0010781282265
0.0100483503741
0.00106763616653
0.0094875554434
0.00105596008526
0.00893220308515
0.00104106790318
0.00838705078675
0.00102530983118
0.00784977944579
0.00100650149834
0.00732461036001
0.000987093423641
0.00680864615101
0.000965966281348
0.00630590008165
0.000943657919825
0.00581459591953
0.000919150060793
0.0053381706951
0.000893043929111
0.00487572097748
0.000863687187055
0.00443033596275
0.000831474154494
0.00400251615937
0.000791935454834
0.00359562938155
0.000741376361513
0.00320899463535
0.000674870859747
0.00284416618991
0.000618845346555
0.00248908789898
0.000615596430586
0.00212196696751
0.000673846086704
0.0017155217267
0.000777737611497
0.00123011870587
0.000963932342238
0.000618868802527
0.00121483634432
0.00123907105966
0.00127978822222
-0.00368983424911
0.00270038542633
-0.00408482046559
0.00411894747032
-0.00407981542154
0.00552256996199
-0.00403881777677
0.00690663770867
-0.00398264100449
0.00826602940109
-0.00391329329311
0.0095971517467
-0.00383143637052
0.0108953140891
-0.00373817776662
0.012157624575
-0.00363420460219
0.0133800060435
-0.00352082922058
0.0145603295007
-0.00339874798811
0.0156951112056
-0.00326924846043
0.0167830545118
-0.00313306560414
0.0178213611776
-0.00299151133911
0.0188094569352
-0.00284517748212
0.0197451558253
-0.0026950894745
0.0206283445021
-0.00254178952204
0.0214572767835
-0.00238636552388
0.0222321479692
-0.00222923029668
0.0229518692201
-0.00207124044174
0.0236171464647
-0.00191277832198
0.0242272809796
-0.00175447667449
0.0247832733311
-0.0015967657093
0.0252848801068
-0.00144029054342
0.0257333357573
-0.00128554272628
0.0261290920122
-0.0011331356049
0.0264733264444
-0.000983176699429
0.0267662817015
-0.00083575529359
0.0270095034803
-0.000691596316295
0.0272037489101
-0.000550788207479
0.0273505256912
-0.00041399906813
0.0274513699821
-0.00028120572572
0.0275078074015
-0.000152779997987
0.0275217993567
-2.90133615845e-05
0.0274945692765
8.95443440346e-05
0.0274279524099
0.000203300051193
0.0273235463599
0.000311362935074
0.027183856664
0.000414053639667
0.0270103937335
0.000510445770161
0.0268058291757
0.000601456329878
0.0265715054799
0.00068619918955
0.0263103490984
0.00076560638511
0.0260234734891
0.000838548875014
0.0257143659452
0.00090571006551
0.0253833443495
0.00096711280483
0.0250334457808
0.0010239820431
0.0246654096844
0.00107522609824
0.0242821312045
0.00112282432931
0.0238828234494
0.00116618024465
0.0234704503999
0.00120687332845
0.023044297256
0.00124409964352
0.0226064787298
0.00128014307625
0.0221553417858
0.00131392961557
0.0216935651452
0.00134695440134
0.0212195505984
0.00137786985767
0.0207356937926
0.00140867064278
0.0202399122258
0.00143804692654
0.0197345510307
0.00146751229169
0.0192176447711
0.00149543293355
0.018691805198
0.00152315674999
0.0181550852399
0.00154895397131
0.0176102662599
0.00157400604353
0.0170557037182
0.00159661299742
0.0164944928282
0.00161787360788
0.0159254009102
0.00163573612899
0.0153515412912
0.00165148469175
0.0147718286901
0.00166354643571
0.0141892548214
0.00167307829334
0.0136030556883
0.00167855638202
0.0130159952413
0.00168136792754
0.0124278374369
0.00167981771687
0.0118421457852
0.00167486888245
0.0112580247218
0.00166601297777
0.0106787047545
0.00165399259027
0.0101044972027
0.00163780390016
0.00953764427667
0.00161893783776
0.0089777231817
0.00159662348977
0.00842691572919
0.00157192179881
0.00788423828802
0.0015445879611
0.0073524702243
0.00151444983541
0.00683209222685
0.00148163366907
0.00632426851452
0.00144696514984
0.005828827696
0.00140986909043
0.00534681712891
0.00137054379241
0.00487793205234
0.0013279223337
0.00442313423597
0.00128180782652
0.00398259705504
0.00122791782908
0.00355520355255
0.00116435549904
0.00313669891848
0.0010889329473
0.00275058031029
0.00100063257768
0.0023878014325
0.000973761581422
0.00197308484867
0.00108345511523
0.00148427159996
0.00126095317332
0.000981891974424
0.00146031734355
0.000494765658833
0.00169570542095
0.00173068731945
0.00129461655483
-0.00498655702806
0.00272948181941
-0.00552202882633
0.0041623972314
-0.0055149849492
0.0055802542386
-0.00545885793708
0.00697779547159
-0.00538218636932
0.0083501461332
-0.00528752985758
0.00969306488651
-0.00517599883348
0.0110023293723
-0.00504892311468
0.0122744744453
-0.00490752962046
0.0135059064361
-0.00475323894758
0.0146939375407
-0.00458740939214
0.0158357975737
-0.0044115053872
0.0169296159837
-0.00422689981179
0.0179733303539
-0.00403498690336
0.0189655263315
-0.00383673450296
0.0199046900661
-0.00363334769274
0.0207901636251
-0.00342595163264
0.0216209867782
-0.0032156081331
0.0223969233514
-0.00300318807644
0.0231174576676
-0.00278953263604
0.0237827550238
-0.00257545439105
0.0243928303035
-0.00236168012935
0.0249479915134
-0.00214870472072
0.0254486311867
-0.00193747551587
0.0258956374635
-0.00172877987795
0.026289411661
-0.00152292899399
0.0266307339912
-0.0013202443486
0.0269205818449
-0.00112115922361
0.0271601125365
-0.00092645262506
0.0273506936807
-0.000736527494044
0.0274934686716
-0.000551745555419
0.0275898343472
-0.000372397018779
0.0276414653511
-0.000199094191462
0.0276501064776
-3.22103048987e-05
0.0276174042586
0.000127790924546
0.0275453512701
0.000281006433574
0.0274357953117
0.00042663020587
0.0272906500412
0.000565003293537
0.0271115625483
0.000695355223612
0.0269010980858
0.000817818245789
0.0266612548967
0.000931914989731
0.026395117344
0.00103767351201
0.0261039630486
0.00113556397398
0.0257895427724
0.00122602371067
0.0254537786183
0.00130864813705
0.0250991211493
0.00138441148334
0.0247263553276
0.00145357955147
0.0243379183475
0.00151680530861
0.0239348033703
0.00157457973077
0.0235186170484
0.00162824843632
0.0230895613551
0.0016780039864
0.0226490999654
0.00172529891993
0.022197202362
0.00177009891015
0.0217343280574
0.0018138898307
0.0212597043001
0.00185606087086
0.0207746105121
0.00189707194193
0.0202782898582
0.00193712490851
0.0197715401502
0.00197672521456
0.0192538071958
0.00201504533891
0.0187261963689
0.00205233460717
0.018188150976
0.0020879709862
0.0176410003947
0.00212181412719
0.0170844756064
0.0021532098847
0.0165201058388
0.00218201371284
0.0159486266353
0.00220642292472
0.0153717966353
0.00222724287603
0.0147895114273
0.00224423477703
0.01420329291
0.00225744907528
0.0136139856514
0.00226553597013
0.0130233444242
0.0022694661908
0.0124317716752
0.00226842264585
0.0118413950158
0.00226209985204
0.0112538822683
0.00225001476644
0.0106710815586
0.00223314325768
0.0100933862764
0.0022115460024
0.00952265088796
0.00218562019244
0.00895973917154
0.00215524185451
0.00840626166047
0.00212104423311
0.00786287364222
0.00208344336153
0.00733034128157
0.00204242760924
0.00680896940643
0.00199833756464
0.00629882028197
0.001952467033
0.00580019672609
0.00190379984109
0.00531355403412
0.00185254904652
0.00483926771286
0.00179756661564
0.00437752395424
0.00173896484027
0.0039247302035
0.00167612620023
0.00348162600056
0.0016029367845
0.0030435312107
0.00152250530973
0.00260419772473
0.00143548955729
0.00217618558681
0.00139713378162
0.00175202157217
0.00150265836687
0.00127628310009
0.00173142191151
0.000796722830103
0.00193456883407
0.000399734581398
0.0020873573604
0.00212770999224
0.00131329383392
-0.00630199623974
0.00276782685494
-0.00697894067719
0.00422008673074
-0.00696955699653
0.00565671934231
-0.00689770303818
0.00707210352916
-0.00679963062271
0.00846128002352
-0.00667860800149
0.00981979646921
-0.00653620901762
0.0111434014505
-0.00637401034321
0.0124283760345
-0.00619372711009
0.0136713614386
-0.00599718864501
0.0148694915692
-0.00578620213279
0.0160202442039
-0.00556262628577
0.0171216128203
-0.00532830511987
0.0181715987647
-0.00508469070588
0.0191687606021
-0.00483326485258
0.020111981045
-0.00457560590162
0.0210004262814
-0.00431308004928
0.0218334099649
-0.00404694327111
0.022610633804
-0.00377841476797
0.0233319074349
-0.00350848742196
0.0239971198697
-0.00323801569932
0.0246062632308
-0.00296786909643
0.0251598723653
-0.0026990516039
0.025658586153
-0.0024326491195
0.0261030429145
-0.0021694185755
0.0264935752924
-0.00190939482915
0.0268310724065
-0.00165343092955
0.0271167020514
-0.00140226169002
0.0273513925265
-0.00115640721442
0.0275364550137
-0.000916670082764
0.0276733103023
-0.000683508238217
0.0277637051522
-0.000457547894278
0.0278093602625
-0.00023936683879
0.0278116758976
-2.90230909672e-05
0.0277720777479
0.000172997172489
0.0276926215352
0.000366161714979
0.0275752834157
0.000549741930391
0.0274224358438
0.000723688099134
0.0272360659699
0.000887607234214
0.0270186308878
0.00104117428679
0.0267717193248
0.0011847625375
0.0264973097563
0.00131803338648
0.0261976273331
0.00144117681529
0.0258749365818
0.00155463291198
0.0255314547289
0.00165798637232
0.0251696777543
0.00175199662404
0.0247915105156
0.00183743642682
0.0243983968825
0.00191551020449
0.0239910812353
0.00198730078364
0.0235711314294
0.00205343862404
0.0231392801893
0.00211483500528
0.0226963465217
0.00217297213266
0.0222424651651
0.00222838528736
0.0217781869564
0.00228225755288
0.0213030655955
0.00233487099072
0.0208170805419
0.00238636831833
0.0203200765045
0.00243698922507
0.0198121964052
0.00248704461349
0.0192933283811
0.0025358727098
0.0187641223532
0.00258306128862
0.0182242649871
0.00262886081683
0.0176747766502
0.00267189888969
0.0171160002783
0.00271210051146
0.0165491947633
0.00274851222932
0.0159764722909
0.00277838029511
0.0153974988973
0.00280505532853
0.0148118022635
0.00282834710047
0.0142210068027
0.00284630010266
0.0136267916318
0.00285742555663
0.013030388024
0.00286322686762
0.012432974129
0.00286286164322
0.0118369973874
0.00285483333228
0.011244152113
0.00283933436661
0.0106555757141
0.00281797598507
0.0100720568057
0.00279109232649
0.00949545658433
0.00275808043101
0.00892758399629
0.00271879703769
0.00836968009657
0.00267451635695
0.00782204389852
0.00262652100651
0.00728540336904
0.00257444570865
0.00676046662773
0.00251857913811
0.00624801131744
0.00246021433473
0.00574805092273
0.00239903102369
0.00526048817278
0.00233541140948
0.00478376981106
0.00226959745236
0.004316892721
0.00220118154614
0.00385869340861
0.00212968880548
0.00340503822536
0.0020519751446
0.00295478140808
0.00196814741884
0.00246821216971
0.00191742559732
0.00196641956062
0.00189426645212
0.00150748061363
0.00195691288396
0.00109937328516
0.00213474247931
0.000673819880042
0.00235532051168
0.000323747064934
0.00243278468519
0.00244912504405
0.00133674396626
-0.00764094475447
0.00281667759263
-0.0084612991103
0.00429380946811
-0.00844905552621
0.00575440844605
-0.00836055464237
0.00719254616134
-0.00823987336375
0.00860311106257
-0.00809110684735
0.00998135006876
-0.00791617579128
0.0113229338874
-0.00771709793646
0.0126241657964
-0.00749620232355
0.0138815981893
-0.00725559375422
0.0150923689719
-0.0069976413496
0.0162541662958
-0.00672478550493
0.0173647886867
-0.00643895369852
0.0184224070428
-0.00614200520224
0.0194258132567
-0.00583601344599
0.0203739515068
-0.00552274513912
0.0212660762368
-0.00520384661559
0.022101763261
-0.00488093125279
0.0228805974952
-0.00455519752075
0.0236022789355
-0.00422778769513
0.024266932899
-0.00389995328754
0.0248748139304
-0.00357272407764
0.0254266101832
-0.00324751219312
0.0259228519373
-0.00292527178859
0.026363672539
-0.00260634185648
0.0267499360865
-0.00229150858274
0.02708254991
-0.00198165169665
0.0273624283513
-0.00167752774153
0.0275910070399
-0.00138016738912
0.0277695468677
-0.00109020585138
0.0278996902769
-0.000808479170503
0.0279828106723
-0.000535344420873
0.0280201436624
-0.000271244527022
0.0280136642867
-1.6969297617e-05
0.0279652303087
0.000227102544431
0.0278769217204
0.000460229999034
0.0277505890467
0.000681899921034
0.0275885449428
0.000891618425882
0.027392652478
0.00108942521028
0.0271646832107
0.00127510419665
0.0269070106878
0.00144841128347
0.0266217396869
0.00160929090684
0.0263116007102
0.0017572954967
0.0259796028336
0.00189259296417
0.0256275320211
0.0020159817433
0.0252572694088
0.00212812721651
0.0248710063544
0.00222948256455
0.0244709153956
0.00232127101988
0.0240586223629
0.00240511127317
0.0236347922304
0.0024826030817
0.0231996583769
0.00255506882653
0.0227540789066
0.00262338992031
0.0222984088091
0.00268857211324
0.0218327686334
0.00275207561373
0.0213567463258
0.00281467256266
0.0208699642995
0.00287652630816
0.0203723367932
0.0029375378264
0.0198640397209
0.00299781960615
0.0193446032441
0.00305730380415
0.0188147001866
0.00311450030157
0.0182739067215
0.0031707012465
0.017722785937
0.00322360611607
0.0171655024078
0.00326949364736
0.0166003882612
0.00331328924658
0.0160251995367
0.00335277737715
0.015441261939
0.00338778616549
0.0148501969876
0.00341778862903
0.0142539813875
0.00344051445068
0.0136538149656
0.00345521752891
0.0130510588087
0.00346327645676
0.0124473508547
0.0034635417385
0.0118439294349
0.00345494251152
0.0112421437545
0.00343753886196
0.0106451699846
0.00341113686732
0.0100550727574
0.00337716051085
0.00947156243792
0.00333738050368
0.0088958321433
0.00329015743063
0.00833031630521
0.00323553095103
0.00777671407132
0.00317551698859
0.00723473257024
0.00311173983282
0.00670555361569
0.00304301697976
0.006188938843
0.00297205810263
0.0056842175449
0.00289897526807
0.00519175909152
0.00282311031889
0.00471072783782
0.00274588751073
0.00423901607969
0.00266817877135
0.00377501905476
0.00258899212511
0.00331605612601
0.00250625838413
0.00285805362067
0.00242145203934
0.00238363607834
0.00238711514478
0.00186930820807
0.00240391695021
0.00137858081741
0.00244307858034
0.000977100639468
0.00253174676587
0.000614006082071
0.00271403052703
0.00026677665577
0.00277580209222
0.00271380168915
0.00136551018445
-0.00900869331999
0.00287676607496
-0.00997503779609
0.00438455729354
-0.00995926113887
0.00587461005822
-0.0098529093385
0.00734067157231
-0.00970808357508
0.0087773197015
-0.00952972550572
0.0101795606146
-0.00932017872686
0.0115430249416
-0.00908208799733
0.0128638619395
-0.00881830423427
0.0141386629336
-0.00853137278418
0.0153647077314
-0.00822436043258
0.0165395132272
-0.00789994007542
0.0176609471602
-0.00756040272356
0.0187276275909
-0.00720835051956
0.0197383500219
-0.00684604951065
0.020692198749
-0.00647554597728
0.0215886622736
-0.00609890664612
0.0224272119629
-0.00571771725776
0.0232075115789
-0.00533338533899
0.023929633058
-0.00494745030784
0.024593701601
-0.00456123255636
0.0252001581396
-0.00417606666458
0.0257498328426
-0.00379376799523
0.0262427641754
-0.00341448878952
0.0266791787409
-0.00303876846241
0.0270600292602
-0.00266810971018
0.0273864037966
-0.00230353802168
0.0276595395366
-0.0019459505452
0.0278807810305
-0.00159649343034
0.028051619473
-0.00125594247397
0.0281731553032
-0.000924748135159
0.0282467568073
-0.000603532141595
0.0282742797947
-0.000293224845853
0.0282576195883
5.34264026343e-06
0.0281988764145
0.000291592448079
0.0280998822092
0.000565044602832
0.0279625013825
0.000825167253803
0.0277886434855
0.00107140598237
0.0275801279442
0.00130391321452
0.0273390282218
0.00152219511677
0.0270682484695
0.00172520625109
0.0267708234001
0.00191273303331
0.0264487683308
0.00208537294787
0.0261042434509
0.00224312676354
0.0257403540588
0.00238585707096
0.0253601248017
0.00251430153271
0.024965155003
0.00263032340457
0.0245570438023
0.00273516144731
0.0241375482402
0.00283023898361
0.0237079937595
0.00291762036875
0.0232694523144
0.00299884177388
0.022821689129
0.00307611957234
0.0223643289208
0.00315057999404
0.0218975889882
0.00322310095305
0.0214210830554
0.0032950671054
0.0209343656927
0.00336669666929
0.0204369030397
0.00343800315475
0.0199278858581
0.00350935978691
0.019407521674
0.00357971513312
0.0188768265632
0.00364674636631
0.0183399398692
0.00370865679602
0.0177948867681
0.00376923523153
0.0172368076532
0.00382767476649
0.0166666302847
0.00388309312671
0.0160846119768
0.00393397663578
0.0154943294093
0.00397681039979
0.0148974534665
0.00401299847791
0.0142932439426
0.00404266280736
0.0136844828245
0.00406155218054
0.0130731152929
0.00407187231444
0.0124606741792
0.00407289656266
0.0118497306107
0.00406250504559
0.0112407404118
0.00404288632585
0.0106345575542
0.0040134350833
0.0100344219953
0.00397320387666
0.0094431191082
0.00392440499179
0.00886132746557
0.00386751233888
0.00828941719923
0.00380287598317
0.0077284416773
0.00373182158058
0.00718042362619
0.00365500887978
0.00664551327804
0.00357312496392
0.00612400539132
0.00348873531691
0.00561540698014
0.00340273890701
0.00511838891821
0.00331530748671
0.00463204656674
0.00322743384954
0.00415556221545
0.00313989243231
0.00368523215912
0.00305456944571
0.00321749154321
0.00296926597846
0.00274413497094
0.00289008210559
0.00228285965761
0.00284368236499
0.00182055680439
0.00286154466436
0.00134988612923
0.00290924372317
0.000930975042877
0.0029463411418
0.000600017040137
0.0030407603849
0.000249788028964
0.00312198111581
0.00296163963146
0.00140001997629
-0.010411017213
0.0029489383923
-0.0115264833409
0.00449353075067
-0.0115063284876
0.00601884776477
-0.0113805750961
0.0075182444557
-0.0112096761497
0.00898588261315
-0.0109993740097
0.010416599747
-0.0107526901555
0.0118058489494
-0.0104728902263
0.0131497086151
-0.0101634436678
0.0144448221583
-0.00982747540965
0.015688420191
-0.00946862824773
0.016878076405
-0.00908993776247
0.0180120523933
-0.00869436860793
0.0190890550781
-0.00828499076679
0.0201080487482
-0.00786431135404
0.0210683642851
-0.00743476694502
0.0219694398338
-0.00699851429819
0.0228109056041
-0.00655735500244
0.0235928260138
-0.00611311337834
0.0243152703808
-0.00566735610784
0.0249784650366
-0.00522154408087
0.0255834255462
-0.00477782082598
0.0261299992488
-0.00433681865804
0.0266183116504
-0.0038989848146
0.0270494968889
-0.00346585468882
0.0274242374962
-0.00303849218368
0.0277436679419
-0.00261836560705
0.0280092687281
-0.00220672592876
0.028222090461
-0.0018042855257
0.0283831546158
-0.00141179306368
0.0284941487726
-0.0010303673801
0.0285568637037
-0.000660728136977
0.0285732651364
-0.000303988075858
0.0285449108491
3.9440974672e-05
0.0284735758137
0.000368750932593
0.0283614439696
0.000683070508802
0.0282103509982
0.000982200232975
0.0280219698629
0.00126576936907
0.0277985140121
0.00153337351302
0.0275429679039
0.00178376735208
0.0272575482116
0.0020166628899
0.0269444775219
0.00223184968442
0.0266069669061
0.00242893711655
0.0262483130563
0.00260783401809
0.0258710847233
0.00276913478835
0.0254775963134
0.0029138124354
0.0250707983041
0.00304310037431
0.0246530560891
0.00315879711399
0.0242265036115
0.00326256827817
0.0237917346245
0.00335799855989
0.0233491209559
0.00344684741401
0.0228988389681
0.00353152681581
0.022440409749
0.0036138050461
0.0219730755476
0.0036948642514
0.0214962828726
0.00377586699161
0.021009380025
0.00385716446951
0.0205112781301
0.00393918826351
0.0200024869628
0.00402074924413
0.0194854941368
0.0040987958331
0.0189620499064
0.00417177943579
0.0184253416429
0.00424643638248
0.0178741750978
0.00432097863296
0.0173097538017
0.00439216894687
0.0167337014613
0.00445875059495
0.0161477142884
0.00451909575936
0.0155509484777
0.00457227932586
0.0149444365049
0.00461778758345
0.0143314690877
0.0046535185654
0.0137132587374
0.00467727279415
0.0130929507041
0.00468935144441
0.012470325371
0.00469236548234
0.0118481946608
0.00468119377113
0.0112289922504
0.00465837286831
0.0106146137069
0.00462386444843
0.0100062415605
0.00457741195823
0.00940574465123
0.00452055486398
0.0088140676136
0.0044546857963
0.00823383106948
0.00437848082825
0.00766653863344
0.0042943763283
0.00711249793005
0.00420423738238
0.00657171447094
0.004109043718
0.00604541178774
0.00401014845432
0.00553336874571
0.00390988890891
0.00503524526348
0.00380855341878
0.00454907468281
0.00370875219728
0.00407262904019
0.00361150790147
0.00360140513973
0.00352099081582
0.00313093237879
0.00343495856376
0.00265859086476
0.00335767234104
0.00219625685535
0.00330131882401
0.00176354193572
0.00328966350818
0.00134565935952
0.00332265861242
0.000924760085784
0.00336293214072
0.00058857685665
0.00337285607332
0.000259785735262
0.00344683501704
0.00321951689993
0.00144083002712
-0.0118541853506
0.00303424848724
-0.0131225053664
0.00462228069158
-0.0130968836617
0.00618911205577
-0.0129498127057
0.00772756283882
-0.0127503682504
0.00923136890051
-0.0125052315691
0.0106951387852
-0.0122182890741
0.0121141459514
-0.0118934739287
0.0134843987341
-0.0115349951205
0.0148025989551
-0.0111466678573
0.0160660274908
-0.0107327259836
0.0172725166453
-0.0102967491631
0.0184206327785
-0.00984245263026
0.019509117775
-0.00937307130162
0.0205370734941
-0.00889149132547
0.0215040594468
-0.00840059458622
0.0224098253981
-0.00790274788563
0.0232544033997
-0.00740002198387
0.0240378925254
-0.00689432734765
0.024760504342
-0.00638733016731
0.0254229731147
-0.00588103152225
0.026025472425
-0.0053770013813
0.0265680469434
-0.00487575956429
0.0270514761092
-0.0043784754875
0.0274763918588
-0.00388655148558
0.0278439714304
-0.00340158522445
0.0281555021719
-0.00292516726722
0.0284119118343
-0.00245817932718
0.0286142823706
-0.00200149828399
0.0287642809745
-0.00155645069932
0.0288634988233
-0.00112408666388
0.0289139533866
-0.000705547130923
0.028917115403
-0.000301400267675
0.0288748531877
8.7544225768e-05
0.0287892935595
0.00046022500258
0.0286620411267
0.00081628668162
0.0284947131649
0.00115553278119
0.0282895648863
0.00147693819354
0.0280495989278
0.00177938169317
0.0277766025749
0.00206280310588
0.0274729062593
0.00232641561036
0.027141843566
0.00256896657989
0.0267869570095
0.00278990264062
0.0264108457011
0.00299003285755
0.0260165127982
0.00316957690889
0.025607780079
0.0033286565691
0.0251881664738
0.00346880040526
0.0247596818751
0.00359332622789
0.0243237552353
0.00370442740077
0.0238824193735
0.00380513262187
0.0234354376039
0.00389940838035
0.0229826439975
0.00398963477603
0.0225229681162
0.00407846271368
0.0220555063725
0.00416691597354
0.0215790592697
0.00425647534311
0.0210932022886
0.0043467052154
0.0205976349481
0.00443794668209
0.0200963869634
0.00452466378102
0.0195861317675
0.00461119831368
0.0190588292003
0.00470068827696
0.018517000535
0.00478934938009
0.0179618005935
0.00487673354378
0.0173933114433
0.00496071667154
0.0168117715513
0.00503984687573
0.016216777754
0.00511318940954
0.015612409502
0.00517529209972
0.0149992645826
0.00522916183646
0.01437742316
0.00527318367502
0.0137474783266
0.00530467167786
0.0131152291598
0.0053186997269
0.0124814264063
0.00532295109263
0.0118468273834
0.00531227318861
0.0112149226213
0.00528649643015
0.0105879779169
0.00524678572252
0.00996834124476
0.00519281419327
0.00935786166211
0.00512661541502
0.00875849036631
0.00504948268603
0.00817060473195
0.00496166012151
0.00759481250753
0.00486536380557
0.00703329572357
0.00476087317369
0.00648716933058
0.00465024176085
0.00595567066534
0.00453669584422
0.00544019756005
0.00442041048387
0.0049389707986
0.00430484843316
0.00445274218008
0.00419007600324
0.00397810243591
0.00408127648346
0.00351348774933
0.00398076247662
0.0030539584614
0.00388967353042
0.00259628223847
0.00381057350501
0.00214384439719
0.00374906192156
0.00171211017985
0.00371681159923
0.00131780847834
0.00371255555746
0.00093624034591
0.00374027214117
0.000575620735446
0.00372940674722
0.000260985490227
0.00375758833717
0.00347865428139
0.00148856656751
-0.0133451630798
0.0031340252247
-0.0147706013294
0.00477270859457
-0.0147381596198
0.00638778665342
-0.014567344596
0.00797139350227
-0.0143362677705
0.00951686167352