/*--------------------------------*- C++ -*----------------------------------*\
| =========                 |                                                 |
| \\      /  F ield         | OpenFOAM: The Open Source CFD Toolbox           |
|  \\    /   O peration     | Version:  v1906                                 |
|   \\  /    A nd           | Web:      www.OpenFOAM.com                      |
|    \\/     M anipulation  |                                                 |
\*---------------------------------------------------------------------------*/
FoamFile
{
    version     2.0;
    format      ascii;
    class       volVectorField;
    location    "856";
    object      Ua;
}
// * * * * * * * * * * * * * * * * * * * * * * * * * * * * * * * * * * * * * //

dimensions      [0 1 -1 0 0 0 0];


internalField   nonuniform List<vector> 
9216
(
(-0.00667016363691 0.00667264219799 0)
(-0.00685708857119 0.0208094140927 2.37676976252e-27)
(-0.00684297920036 0.0350260972096 -4.61586242911e-31)
(-0.0067948081872 0.0492339275736 0)
(-0.00672738640014 0.0632958637579 0)
(-0.0066423068818 0.0771766716721 0)
(-0.0065409346063 0.0908370024491 0)
(-0.00642436698114 0.104240328506 0)
(-0.00629345332863 0.117352545644 0)
(-0.00614925061544 0.130141918563 0)
(-0.00599262006486 0.142579247924 0)
(-0.00582466747981 0.154637821857 0)
(-0.00564624467576 0.16629351823 0)
(-0.00545844010001 0.177524676442 0)
(-0.00526202035136 0.188312089697 0)
(-0.0050579749983 0.198638791003 0)
(-0.00484691100933 0.208489944553 0)
(-0.00462964865449 0.217852564876 0)
(-0.00440657971708 0.226715331151 0)
(-0.00417830923003 0.235068268799 0)
(-0.00394498652315 0.242902521733 0)
(-0.0037069869871 0.250210033464 0)
(-0.00346422405822 0.256983314676 0)
(-0.00321686318767 0.263215159791 0)
(-0.00296462035977 0.268898446407 0)
(-0.00270750040086 0.274025919044 0)
(-0.00244508727103 0.27859004837 0)
(-0.00217729863633 0.282582904583 0)
(-0.00190367268276 0.285996099755 0)
(-0.00162413420514 0.288820763227 0)
(-0.00133827843142 0.291047607706 0)
(-0.00104612651524 0.292666999755 0)
(-0.000747434499115 0.293669070421 0)
(-0.000442466630069 0.294044017694 0)
(-0.000131275140179 0.293782340818 0)
(0.000185541657802 0.2928751906 0)
(0.000507542339616 0.291314735521 0)
(0.000833706044417 0.289094594537 0)
(0.00116314022458 0.286210262028 0)
(0.00149437198341 0.282659568636 0)
(0.00182606390552 0.278443096506 0)
(0.00215633414336 0.273564592796 0)
(0.00248347576523 0.268031303672 0)
(0.00280529575088 0.261854283429 0)
(0.00311982097986 0.255048620782 0)
(0.00342463241118 0.247633660743 0)
(0.003717529773 0.239633191304 0)
(0.00399583511375 0.231075707861 0)
(0.004256996355 0.221994735719 0)
(0.00449786155515 0.212429344459 0)
(0.00471524467929 0.202424772843 0)
(0.00490524789191 0.192033280298 0)
(0.00506389297255 0.181314944186 0)
(0.00518666289199 0.170338458002 0)
(0.00526934065759 0.15918133394 0)
(0.00530789908145 0.147929599829 0)
(0.0052994636246 0.136676268817 0)
(0.00524228089635 0.12551916384 0)
(0.00513623588403 0.114557788357 0)
(0.00498244922073 0.103890622609 0)
(0.00478343034587 0.0936121754472 0)
(0.0045428851113 0.0838106862428 0)
(0.00426622591488 0.0745648580849 0)
(0.00396028103317 0.0659409385305 0)
(0.00363400615372 0.0579891842152 0)
(0.00329918004705 0.0507384231455 0)
(0.00296762717834 0.0441921724771 0)
(0.00264879122439 0.0383314722322 0)
(0.00234806927811 0.0331217371066 0)
(0.00206767741016 0.0285210890162 0)
(0.00180801131034 0.0244855208881 0)
(0.0015699913474 0.0209702618795 0)
(0.00135475798547 0.0179284609543 0)
(0.00116328149049 0.0153109968222 0)
(0.000995013323734 0.0130683897538 0)
(0.00084854681059 0.0111533243331 0)
(0.000721612930258 0.00952263005663 0)
(0.000612140859934 0.0081377075705 0)
(0.000518084357477 0.00696437583432 0)
(0.000437713893967 0.00597222544294 0)
(0.00036906336657 0.00513478349962 0)
(0.000310275245406 0.0044294754023 0)
(0.000259269175145 0.00383765141362 0)
(0.000212706541518 0.00334859492073 0)
(0.000164045322819 0.00291151886388 0)
(0.000142820867042 0.0026277554009 0)
(0.00013385929079 0.00234213612604 0)
(0.000115847959547 0.00209114046022 0)
(0.000111696910678 0.00187883251354 0)
(0.000114217531852 0.00165133325116 0)
(0.000110117942364 0.00143128412545 0)
(0.000107044071633 0.00120793885759 0)
(0.000115361838161 0.0009774597803 0)
(0.000126264821273 0.000735436400071 0)
(0.000139736628934 0.000452144189767 0)
(0.000148888147629 0.000144817444169 0)
(-0.0208416193105 0.00689644188929 0)
(-0.0220036276766 0.0221030319644 0)
(-0.0219301026439 0.0372219225334 -2.44307290603e-27)
(-0.0217442124636 0.0523442768054 0)
(-0.0214911076619 0.0672994037961 0)
(-0.0211760511344 0.0820578705667 0)
(-0.0208025739546 0.0965794930464 0)
(-0.0203743297089 0.110825964787 0)
(-0.019894849204 0.124761133622 0)
(-0.0193681202177 0.138351313411 0)
(-0.0187979412994 0.151565482109 0)
(-0.0181885051206 0.164375328954 0)
(-0.0175436223482 0.176755309519 0)
(-0.0168673810266 0.188682570368 0)
(-0.0161632898359 0.200136882591 0)
(-0.0154350238723 0.211100461911 0)
(-0.0146855111761 0.22155779849 0)
(-0.0139177649457 0.231495395086 0)
(-0.0131339330778 0.240901520917 0)
(-0.0123362127003 0.249765901017 0)
(-0.0115258783769 0.258079431934 0)
(-0.0107042714162 0.265833862695 0)
(-0.00987181774643 0.273021514104 0)
(-0.00902907902542 0.279634991972 0)
(-0.00817576541518 0.285666948752 0)
(-0.00731183305931 0.291109863021 0)
(-0.00643649503741 0.295955873121 0)
(-0.00554935006691 0.300196647177 0)
(-0.00464939536507 0.303823309652 0)
(-0.00373617626882 0.306826420513 0)
(-0.00280880797877 0.309195998432 0)
(-0.00186711616183 0.310921652556 0)
(-0.00091067697266 0.311992765586 0)
(6.00105576545e-05 0.312398665484 0)
(0.00104450911521 0.312128954405 0)
(0.00204130756415 0.311173868496 0)
(0.00304879919105 0.309524690472 0)
(0.00406419485462 0.307174213038 0)
(0.00508453307629 0.304117219066 0)
(0.00610566320052 0.300350977786 0)
(0.00712330034351 0.295875715115 0)
(0.00813208214727 0.290695054278 0)
(0.00912665498502 0.284816388829 0)
(0.0101007711595 0.27825119431 0)
(0.0110483501494 0.271015261552 0)
(0.0119625383767 0.263128886395 0)
(0.0128366526106 0.254617033856 0)
(0.0136631122408 0.245509552841 0)
(0.014434194587 0.235841486653 0)
(0.0151408317964 0.225653579062 0)
(0.0157732530246 0.214992988373 0)
(0.016319875027 0.203914262163 0)
(0.0167681928992 0.192480415448 0)
(0.0171043153843 0.180763999499 0)
(0.0173146622739 0.168847683104 0)
(0.0173865940157 0.156824063275 0)
(0.0173107816466 0.144794119707 0)
(0.0170819387604 0.132864437684 0)
(0.0166998929697 0.121143497377 0)
(0.0161684317527 0.109738427745 0)
(0.0154955661748 0.0987521068125 0)
(0.0146926879975 0.0882810951207 0)
(0.0137769339908 0.0784120806681 0)
(0.0127691275205 0.0692190222528 0)
(0.0116974809884 0.0607604048425 0)
(0.0106013289075 0.0530698196963 0)
(0.00952064792462 0.0461485461201 0)
(0.00848639079995 0.0399696879517 0)
(0.00751522815517 0.0344889170516 0)
(0.00661210806063 0.0296565194243 0)
(0.00577660065122 0.0254244317543 0)
(0.00501086677328 0.0217459470276 0)
(0.00431934292741 0.0185714460046 0)
(0.00370535800323 0.0158470861107 0)
(0.00316722528707 0.0135179216432 0)
(0.00269961591938 0.011531992505 0)
(0.00229489846459 0.00984285074825 0)
(0.00194593448983 0.00840982729813 0)
(0.0016463786434 0.00719705843208 0)
(0.00139069184114 0.00617239940727 0)
(0.00117272122611 0.00530765580072 0)
(0.000986647323309 0.00457873478949 0)
(0.000826827946472 0.00396485175911 0)
(0.000687434498204 0.00344828391506 0)
(0.000559053473675 0.00299639866147 0)
(0.000466933086351 0.00257359067397 0)
(0.000406231324521 0.00228171836803 0)
(0.000350811278433 0.0020327721955 0)
(0.000330786347008 0.0017930554026 0)
(0.00033438989134 0.00159941263411 0)
(0.000330093733678 0.00140427312304 0)
(0.00033082517855 0.00117309438339 0)
(0.000345782121699 0.000939297367694 0)
(0.000408188667502 0.000732823515402 0)
(0.000485675787227 0.000463749323992 0)
(0.000435616086741 0.000126811416118 0)
(-0.0352199272424 0.00695174569506 0)
(-0.0372051769629 0.022285772289 0)
(-0.037054367973 0.0374966913396 -2.44644757654e-27)
(-0.0367344717055 0.0527284854981 0)
(-0.0363078255799 0.0677909436838 0)
(-0.0357796299512 0.0826532568708 0)
(-0.0351545939013 0.0972742452531 0)
(-0.0344381913908 0.111615093023 0)
(-0.033636325638 0.125639247638 0)
(-0.0327554041398 0.139312738648 0)
(-0.0318019605961 0.152604350171 0)
(-0.0307827714024 0.165485701799 0)
(-0.0297044380086 0.177931279604 0)
(-0.028573539075 0.189918382445 0)
(-0.0273961913326 0.201427025808 0)
(-0.0261782496769 0.212439772783 0)
(-0.0249248668112 0.222941530855 0)
(-0.0236407524822 0.232919291873 0)
(-0.0223297503604 0.242361851219 0)
(-0.0209951643468 0.251259491989 0)
(-0.0196393661308 0.259603667236 0)
(-0.0182641896653 0.267386672389 0)
(-0.0168705741332 0.274601335673 0)
(-0.0154590182787 0.281240722826 0)
(-0.0140292543429 0.287297876951 0)
(-0.0125807475915 0.292765591174 0)
(-0.0111123932072 0.297636227285 0)
(-0.00962304684403 0.301901579784 0)
(-0.00811123944991 0.305552793278 0)
(-0.00657572943307 0.308580332225 0)
(-0.00501524501094 0.310974021375 0)
(-0.00342904294632 0.312723139293 0)
(-0.00181665187839 0.313816568453 0)
(-0.000178459162908 0.314243043273 0)
(0.00148454446997 0.313991456711 0)
(0.00317021398545 0.313051235061 0)
(0.00487553559209 0.311412776355 0)
(0.00659613739849 0.309067941717 0)
(0.00832664845565 0.306010577251 0)
(0.0100603125389 0.302237048343 0)
(0.0117894503971 0.2977467547 0)
(0.0135051879299 0.292542600889 0)
(0.0151980045788 0.286631391627 0)
(0.0168575217271 0.280024135186 0)
(0.0184730403832 0.272736245889 0)
(0.020033250173 0.264787661757 0)
(0.0215265843007 0.256202914302 0)
(0.0229406691124 0.24701122101 0)
(0.0242623454834 0.237246691316 0)
(0.0254767986391 0.226948760014 0)
(0.0265673407023 0.2161629445 0)
(0.0275145679831 0.204941999572 0)
(0.0282965574063 0.193347411416 0)
(0.0288890664313 0.181451056216 0)
(0.0292673593444 0.169336514443 0)
(0.029408554952 0.157099424703 0)
(0.0292952068798 0.14484596195 0)
(0.0289180540845 0.132689222587 0)
(0.0282770252011 0.120744008187 0)
(0.027378932547 0.10912313813 0)
(0.026237337274 0.0979346293833 0)
(0.0248701344416 0.0872813561184 0)
(0.0233068550283 0.0772563647079 0)
(0.0215795221998 0.0679411169842 0)
(0.0197341715337 0.0594075535157 0)
(0.0178463535754 0.0516981033232 0)
(0.0159934013185 0.0448081106394 0)
(0.0142324107287 0.0386940628271 0)
(0.0125898693375 0.0332931273605 0)
(0.0110671713431 0.0285436396251 0)
(0.00965711553046 0.0243960229658 0)
(0.00836233630138 0.020807571215 0)
(0.00719428290182 0.0177296759844 0)
(0.00616118828713 0.0151040205733 0)
(0.00526018362009 0.012869375255 0)
(0.00447999193718 0.0109695362496 0)
(0.00380592914412 0.00935685050789 0)
(0.00322477478136 0.00799162495604 0)
(0.00272639796483 0.00683916883168 0)
(0.00230207449994 0.00586738441268 0)
(0.00194131655964 0.00504787665846 0)
(0.0016342037847 0.00435717944938 0)
(0.00137243495681 0.00377546226155 0)
(0.00114917010616 0.00328707954243 0)
(0.000962525892278 0.00285963236024 0)
(0.00081317500468 0.00246888668868 0)
(0.000712905229159 0.00222614112498 0)
(0.000606960648811 0.00190556468583 0)
(0.000534907771592 0.00163640121063 0)
(0.000527671455106 0.00146104927799 0)
(0.000563609677093 0.00131664274553 0)
(0.000547439399153 0.00103159018235 0)
(0.000591122273445 0.000831112033081 0)
(0.000659255157028 0.000594030281724 0)
(0.000719680303574 0.000352186276814 0)
(0.000692073401875 0.000108285255009 0)
(-0.0497957660707 0.00700902246324 0)
(-0.0526262995513 0.0224892284796 0)
(-0.0524105749881 0.0378237394254 2.44612228463e-27)
(-0.0519538430073 0.0531843917265 0)
(-0.0513454474096 0.0683720457851 0)
(-0.0505931226816 0.0833546848791 0)
(-0.0497035594153 0.0980899560236 0)
(-0.0486844716782 0.112538235588 0)
(-0.0475443626688 0.126662372359 0)
(-0.0462923657437 0.140427989639 0)
(-0.0449379552373 0.15380364067 0)
(-0.0434908088972 0.166760895488 0)
(-0.041960514353 0.179274360601 0)
(-0.0403564516073 0.19132162509 0)
(-0.038687508809 0.202883146263 0)
(-0.0369620012163 0.213942070685 0)
(-0.0351874175753 0.224484004669 0)
(-0.0333703952849 0.234496734674 0)
(-0.0315165191786 0.243969913786 0)
(-0.0296303698326 0.252894719734 0)
(-0.0277153902006 0.261263502011 0)
(-0.0257740141027 0.269069426742 0)
(-0.0238076027883 0.276306135733 0)
(-0.0218166453881 0.282967428096 0)
(-0.0198007529344 0.289046976372 0)
(-0.017758911923 0.294538082546 0)
(-0.0156895180155 0.299433480491 0)
(-0.0135906650067 0.303725187702 0)
(-0.011460207229 0.307404410369 0)
(-0.00929607653532 0.310461499185 0)
(-0.00709638155286 0.312885985646 0)
(-0.00485973365261 0.314666662262 0)
(-0.00258536267465 0.315791722271 0)
(-0.000273487838003 0.316249018209 0)
(0.00207457400727 0.316026376393 0)
(0.00445607373285 0.315111993137 0)
(0.00686676347905 0.313494908949 0)
(0.00930064476459 0.311165547112 0)
(0.0117500165859 0.308116296856 0)
(0.0142053722582 0.304342114612 0)
(0.0166556159381 0.299841108488 0)
(0.0190881361936 0.294615066939 0)
(0.0214891781254 0.288669891549 0)
(0.0238440237115 0.282015899812 0)
(0.0261373806917 0.274667978296 0)
(0.0283534568719 0.266645591384 0)
(0.030476089939 0.257972685099 0)
(0.0324884064475 0.248677570032 0)
(0.0343724039052 0.238792911265 0)
(0.0361080120061 0.228355997716 0)
(0.037672159392 0.217409483209 0)
(0.0390376413838 0.206002777733 0)
(0.0401726049711 0.194194168178 0)
(0.0410408388863 0.182053519853 0)
(0.0416039672877 0.169665005104 0)
(0.0418256154292 0.1571286697 0)
(0.0416776619142 0.144559287389 0)
(0.041145976709 0.132081004931 0)
(0.040232335383 0.11981856681 0)
(0.0389470586703 0.107892923879 0)
(0.0373105604415 0.0964182174623 0)
(0.0353429430672 0.0855071439804 0)
(0.0330906644784 0.0752606709762 0)
(0.0305872449229 0.0657693828494 0)
(0.027888497872 0.0571353791493 0)
(0.02512763114 0.0494236076182 0)
(0.0224398079613 0.0426169077315 0)
(0.019917964146 0.0366375082597 0)
(0.0175937958105 0.031385313714 0)
(0.0154500671878 0.0267768361366 0)
(0.013457282659 0.0227651606121 0)
(0.011618708109 0.0193221410192 0)
(0.00996265419908 0.0164036680886 0)
(0.00850913212596 0.0139414906347 0)
(0.00725245142356 0.0118610609621 0)
(0.00617070558235 0.010098514747 0)
(0.00523780950839 0.00860537911333 0)
(0.0044327238547 0.00734546595305 0)
(0.00374282965489 0.00628734442143 0)
(0.00315839727234 0.00539845708177 0)
(0.00266324489432 0.00464936460477 0)
(0.00224218058977 0.00401811800961 0)
(0.00188389774532 0.00348695658611 0)
(0.00157892567792 0.00304386533357 0)
(0.00132453288822 0.00264194840315 0)
(0.00114180531939 0.00232339756711 0)
(0.000998837124342 0.00204340801293 0)
(0.000866596615028 0.0017334234549 0)
(0.000793445417628 0.0015145433108 0)
(0.00073109583226 0.00125765843366 0)
(0.00073200882689 0.00104742915636 0)
(0.000802703597568 0.000898195784337 0)
(0.000798477577273 0.000634531667329 0)
(0.000859552555 0.000430334538268 0)
(0.000926410487991 0.000256495019384 0)
(0.000908461307556 8.35899225662e-05 0)
(-0.0645182084273 0.00708297029906 0)
(-0.0681903002823 0.022758054006 0)
(-0.0679082083268 0.0382641039284 0)
(-0.0673113655078 0.0537987441714 0)
(-0.066516374851 0.0691547221682 0)
(-0.065533757195 0.0842988019465 0)
(-0.0643724753587 0.0991872407743 0)
(-0.0630427596725 0.113779329913 0)
(-0.0615559097974 0.128037092692 0)
(-0.0599240253388 0.141925584284 0)
(-0.0581596980409 0.155413040745 0)
(-0.0562757438311 0.168470964427 0)
(-0.0542848982214 0.181074135165 0)
(-0.0521995649812 0.193200547456 0)
(-0.0500315340084 0.204831278 0)
(-0.0477917689757 0.21595028614 0)
(-0.0454901737831 0.226544154526 0)
(-0.0431354467416 0.236601776658 0)
(-0.0407349243331 0.246114002916 0)
(-0.0382945279392 0.255073256804 0)
(-0.0358187063018 0.263473136983 0)
(-0.0333104869015 0.271308019659 0)
(-0.0307715187114 0.278572677026 0)
(-0.0282022172577 0.285261924419 0)
(-0.0256018868423 0.291370307067 0)
(-0.0229689311579 0.296891832987 0)
(-0.0203010260204 0.301819756246 0)
(-0.0175953704065 0.306146412256 0)
(-0.0148488937199 0.309863107325 0)
(-0.0120585407523 0.312960056189 0)
(-0.00922152544425 0.315426408331 0)
(-0.00633563277471 0.317250309237 0)
(-0.0033995078268 0.318419028362 0)
(-0.000413020015077 0.318919219479 0)
(0.00262245192006 0.318737245603 0)
(0.00570368608743 0.317859601856 0)
(0.00882538205676 0.316273436785 0)
(0.0119799315055 0.313967158338 0)
(0.0151573386003 0.310931104419 0)
(0.0183451972862 0.307158245708 0)
(0.021528858541 0.302644877355 0)
(0.0246916747418 0.297391245265 0)
(0.0278154201492 0.291402048107 0)
(0.0308807281308 0.284686757694 0)
(0.0338675868886 0.277259715393 0)
(0.0367556728796 0.269139990969 0)
(0.0395245113449 0.260351036955 0)
(0.0421532119475 0.250920233616 0)
(0.0446197846778 0.240878496866 0)
(0.0468998570619 0.230260196338 0)
(0.0489649736223 0.219103718491 0)
(0.0507805951375 0.207453039361 0)
(0.0523044702288 0.195360640102 0)
(0.0534862266011 0.182891874254 0)
(0.0542696676812 0.170130157684 0)
(0.0545991929849 0.157181382647 0)
(0.0544307282644 0.144173970495 0)
(0.0537440797512 0.131250921987 0)
(0.0525478337635 0.118551499978 0)
(0.0508566010803 0.106207171742 0)
(0.048702620945 0.0943357449105 0)
(0.0460939238941 0.0830661367394 0)
(0.0431153353609 0.0725048302567 0)
(0.0397719833749 0.062742638466 0)
(0.036097444904 0.0539511665155 0)
(0.0323368342725 0.0462522021165 0)
(0.0287253367299 0.0396008334238 0)
(0.0254097178287 0.0338500955682 0)
(0.022416053677 0.0288269881492 0)
(0.019674583468 0.0244086463825 0)
(0.0170964288893 0.0205659776733 0)
(0.0146909112405 0.0173140709559 0)
(0.0125297627779 0.0146210625665 0)
(0.010660730273 0.0123946386357 0)
(0.0090687866717 0.0105316517673 0)
(0.00771037110247 0.008955499573 0)
(0.00653948057624 0.00761939110033 0)
(0.00552420743658 0.0064970952307 0)
(0.00465393767049 0.00556522868263 0)
(0.00392453185787 0.0047881309551 0)
(0.00330988076619 0.00413194490257 0)
(0.00278651041119 0.00357807656358 0)
(0.00234111915704 0.00311235509204 0)
(0.00196143381311 0.00272575352417 0)
(0.00163626760696 0.00235260296664 0)
(0.00146367283099 0.00211949693117 0)
(0.00131463299384 0.0018477245715 0)
(0.00115640867418 0.00155914028961 0)
(0.00100526371373 0.0012517469995 0)
(0.000957317565793 0.00103912903895 0)
(0.000916474302908 0.000802722585227 0)
(0.000976173205382 0.000658792288118 0)
(0.00104669087672 0.000496797216031 0)
(0.00102979703005 0.000302948553691 0)
(0.0010486323399 0.000171394248776 0)
(0.00102641800459 5.66081413804e-05 0)
(-0.0794371805354 0.00717518819343 0)
(-0.0839576783816 0.023097667011 0)
(-0.083605915903 0.0388232156579 0)
(-0.082863573386 0.0545793563106 0)
(-0.0818748064253 0.0701490949888 0)
(-0.0806530876611 0.0854978120341 0)
(-0.0792099098279 0.100580099621 0)
(-0.0775583113118 0.115353895652 0)
(-0.0757126669144 0.129780175612 0)
(-0.0736883407914 0.143823268545 0)
(-0.0715013188641 0.157451008439 0)
(-0.0691678489515 0.170634818103 0)
(-0.0667040755172 0.183349712538 0)
(-0.0641256963071 0.195574222825 0)
(-0.061447625903 0.207290243024 0)
(-0.0586836972667 0.218482802746 0)
(-0.0558463866458 0.229139771191 0)
(-0.0529465965101 0.239251500236 0)
(-0.0499934808067 0.248810418358 0)
(-0.0469943466952 0.257810589884 0)
(-0.0439546112441 0.266247257397 0)
(-0.0408778408949 0.274116386234 0)
(-0.0377658421996 0.281414229796 0)
(-0.0346188230623 0.288136931635 0)
(-0.0314355852356 0.294280176001 0)
(-0.0282137642827 0.299838893302 0)
(-0.0249500790045 0.304807022124 0)
(-0.0216406128428 0.309177326421 0)
(-0.0182810983109 0.312941266829 0)
(-0.0148672356461 0.31608891516 0)
(-0.0113950343467 0.318608965076 0)
(-0.00786115989989 0.320488763541 0)
(-0.00426333579111 0.321714419995 0)
(-0.000600779242925 0.322271060192 0)
(0.00312538586776 0.322143158609 0)
(0.0069117085543 0.321314990345 0)
(0.0107520472914 0.319771209954 0)
(0.014637272167 0.317497545794 0)
(0.0185550992866 0.314481589796 0)
(0.0224900686539 0.310713645585 0)
(0.026423724057 0.306187580011 0)
(0.0303349828667 0.300901605082 0)
(0.0342007119718 0.294858903632 0)
(0.0379964334963 0.28806800747 0)
(0.0416970922249 0.280542846826 0)
(0.0452777113729 0.272302424084 0)
(0.0487137729519 0.263370119894 0)
(0.0519810792163 0.253772731576 0)
(0.0550549032982 0.243539444443 0)
(0.0579082437251 0.232701084428 0)
(0.0605091328985 0.221290140528 0)
(0.062817167969 0.20934222735 0)
(0.0647798466355 0.196899796694 0)
(0.0663300981027 0.184018763273 0)
(0.0673875011677 0.170778062308 0)
(0.0678668741337 0.157289851414 0)
(0.0676974230084 0.143704303485 0)
(0.0668501377653 0.130198230461 0)
(0.0653556344694 0.116931192246 0)
(0.0632306808771 0.104047798852 0)
(0.0605396167197 0.091655622403 0)
(0.057225150199 0.0799199156375 0)
(0.0535017061332 0.0689388016423 0)
(0.0492544019878 0.0587516022476 0)
(0.0443886012502 0.0497003184559 0)
(0.0394091332734 0.0420515271007 0)
(0.0347337134274 0.0356897489634 0)
(0.030595141987 0.0303281411999 0)
(0.0269912059014 0.0256501014434 0)
(0.0237256812132 0.0214571833935 0)
(0.0205555720465 0.0177815004048 0)
(0.0175235989277 0.0147554908012 0)
(0.014814053744 0.0123734826107 0)
(0.0125397897587 0.0104804978193 0)
(0.0106517989323 0.00891068616984 0)
(0.00905983627202 0.00756920195156 0)
(0.00768195354044 0.00641921872608 0)
(0.00646988431236 0.00545993191788 0)
(0.00542735550403 0.00468767636817 0)
(0.00457539618336 0.00405440425097 0)
(0.00386381749962 0.00351134577498 0)
(0.00325273099566 0.00304935422356 0)
(0.00273289424978 0.00266173017218 0)
(0.00229094384565 0.00233443579089 0)
(0.00191734640801 0.00200844056015 0)
(0.0017319798459 0.00179382936731 0)
(0.00153619863425 0.00150795997828 0)
(0.00140641107606 0.00128412707243 0)
(0.00130444184148 0.0010538912049 0)
(0.00123448203696 0.000836844260416 0)
(0.00110022742511 0.000584261112023 0)
(0.00109031204195 0.000418361323494 0)
(0.00117811854682 0.000324299909815 0)
(0.00117125234108 0.000210169987768 0)
(0.00114634816449 0.000112473938468 0)
(0.00112347194575 3.69685448684e-05 0)
(-0.0945987343561 0.00728724232897 0)
(-0.0999785279253 0.023512259299 0)
(-0.0995524964965 0.0395065427588 2.46407025326e-27)
(-0.0986574458662 0.0555335743931 0)
(-0.0974655595551 0.0713643477665 0)
(-0.0959934530103 0.0869625424753 0)
(-0.0942554277204 0.102280729999 0)
(-0.0922676595882 0.117275194259 0)
(-0.090047946645 0.131905627628 0)
(-0.087615281037 0.146135471161 0)
(-0.0849894030417 0.159932073267 0)
(-0.082190353824 0.173266773127 0)
(-0.079238031079 0.186114895802 0)
(-0.0761517590714 0.198455660955 0)
(-0.0729498764863 0.210272005755 0)
(-0.0696493564649 0.221550324133 0)
(-0.066265465819 0.232280126133 0)
(-0.0628114820319 0.242453625114 0)
(-0.0592984768302 0.252065264926 0)
(-0.055735183788 0.261111204633 0)
(-0.0521279525347 0.269588782716 0)
(-0.0484807966735 0.277495985316 0)
(-0.0447955239999 0.284830942812 0)
(-0.0410719417858 0.291591475146 0)
(-0.0373081138495 0.297774699798 0)
(-0.033500656599 0.303376707722 0)
(-0.0296450532763 0.308392305143 0)
(-0.0257359841924 0.312814813855 0)
(-0.0217676678743 0.316635923699 0)
(-0.0177342264009 0.319845579003 0)
(-0.0136300941733 0.32243196608 0)
(-0.00945042672973 0.324381499317 0)
(-0.0051916058732 0.325678899706 0)
(-0.000851777880521 0.3263074273 0)
(0.00356860059738 0.326249212096 0)
(0.00806620873648 0.32548573217 0)
(0.0126343518574 0.323998457762 0)
(0.0172625395432 0.321769655058 0)
(0.0219362137237 0.318783332427 0)
(0.0266366807209 0.315026288699 0)
(0.0313413071446 0.310489196749 0)
(0.0360240117236 0.305167625854 0)
(0.0406560637513 0.299062879673 0)
(0.0452071366016 0.292182508253 0)
(0.0496465087612 0.284540354657 0)
(0.0539442113491 0.27615602699 0)
(0.0580718601028 0.26705375864 0)
(0.0620028256469 0.257260723662 0)
(0.0657114035665 0.246805037693 0)
(0.06917060417 0.235713833516 0)
(0.0723483131384 0.224012099701 0)
(0.0752016421185 0.211723279372 0)
(0.0776698624351 0.198873183939 0)
(0.0796673509201 0.18549924057 0)
(0.0810804516729 0.171666739577 0)
(0.0817759668743 0.157491180363 0)
(0.0816325220481 0.14315713728 0)
(0.0806033830071 0.128909032995 0)
(0.0787877267006 0.114931933834 0)
(0.0761822047173 0.101391036802 0)
(0.0729630445716 0.0883301371222 0)
(0.0688069951436 0.0760280970656 0)
(0.0644218898847 0.0645340736315 0)
(0.0592780163469 0.0536298297087 0)
(0.0528080906331 0.0441062682444 0)
(0.0462171212055 0.0365976443309 0)
(0.0402510055232 0.0307870927312 0)
(0.0352796619201 0.0261078893585 0)
(0.0312348860094 0.0219581810016 0)
(0.027640940672 0.0179744365049 0)
(0.0238452842996 0.0143656579419 0)
(0.0200375289855 0.0115740101231 0)
(0.0166814397435 0.00963805704296 0)
(0.0140395130238 0.00823282591264 0)
(0.0119396982864 0.00705198556209 0)
(0.0101922658475 0.00598587057469 0)
(0.00865366064208 0.00502961323665 0)
(0.00724719229128 0.00424262629226 0)
(0.00602192117875 0.00367079459802 0)
(0.00508382361763 0.00322460006302 0)
(0.00431287356918 0.00280927611168 0)
(0.00362824322339 0.00244712657015 0)
(0.00304814965063 0.00214983887635 0)
(0.00255939909757 0.0018872679205 0)
(0.00218771577393 0.00163998445744 0)
(0.00198179260545 0.00142901514503 0)
(0.00179138113587 0.00119372271199 0)
(0.00161927523347 0.000956940860196 0)
(0.00152106922422 0.000756996783865 0)
(0.0013938976682 0.000553597482083 0)
(0.0013345568203 0.000401992260352 0)
(0.00121930480333 0.000239082742137 0)
(0.00121288523314 0.000157590223809 0)
(0.00124834121142 0.000112692701513 0)
(0.00120611804366 5.85752840483e-05 0)
(0.0011815251337 1.90451252774e-05 0)
(-0.110052321525 0.00742037991387 0)
(-0.116305268636 0.0240063626421 0)
(-0.115799304107 0.0403209225199 -2.46369028191e-27)
(-0.114742513622 0.0566706658537 0)
(-0.113335821875 0.0728119905764 0)
(-0.111599273574 0.0887064850763 0)
(-0.109550327371 0.104304272874 0)
(-0.107208695918 0.119559645784 0)
(-0.104596027642 0.134430756382 0)
(-0.10173538575 0.148879987275 0)
(-0.0986507101771 0.162874117997 0)
(-0.0953662778877 0.176384407754 0)
(-0.0919061684473 0.189386582072 0)
(-0.0882937429155 0.201860724938 0)
(-0.0845511424029 0.213791076036 0)
(-0.0806988186885 0.225165732159 0)
(-0.0767551102638 0.235976254359 0)
(-0.0727358840027 0.246217186677 0)
(-0.0686542610084 0.255885499365 0)
(-0.064520446852 0.26497997738 0)
(-0.0603416774099 0.273500582334 0)
(-0.0561222854972 0.281447820837 0)
(-0.0518638785062 0.288822152329 0)
(-0.0475656091938 0.295623464213 0)
(-0.0432245104928 0.301850631586 0)
(-0.0388358666239 0.307501165473 0)
(-0.0343935952929 0.312570940648 0)
(-0.0298906309299 0.317053985916 0)
(-0.0253193107998 0.320942320548 0)
(-0.0206717810605 0.324225808192 0)
(-0.0159404595059 0.326892110783 0)
(-0.0111185063579 0.328926607686 0)
(-0.00620043485475 0.330312423777 0)
(-0.00118277205542 0.331030616301 0)
(0.0039352387476 0.331060486021 0)
(0.00915090757376 0.330380070725 0)
(0.0144573976058 0.328966856115 0)
(0.0198431190785 0.326798707884 0)
(0.0252912975298 0.323855015355 0)
(0.0307798033854 0.320118007371 0)
(0.0362813336626 0.31557416356 0)
(0.0417640196301 0.31021559885 0)
(0.0471925007563 0.304041250867 0)
(0.0525294380935 0.297057660848 0)
(0.0577373449579 0.289279117329 0)
(0.0627804934784 0.28072696118 0)
(0.0676265219774 0.271427914824 0)
(0.0722472742987 0.261411459024 0)
(0.0766183113986 0.250706423782 0)
(0.0807165299286 0.239337231246 0)
(0.0845152075014 0.227320478071 0)
(0.0879757449285 0.214663169261 0)
(0.0910354624614 0.201365022026 0)
(0.0935919687636 0.18742901519 0)
(0.095488079712 0.172886486557 0)
(0.0965108803437 0.157841836788 0)
(0.0964324555124 0.142531651221 0)
(0.0951531982021 0.127353326998 0)
(0.0929885597372 0.112509883753 0)
(0.089802365799 0.0982229777405 0)
(0.0862055743895 0.0842806585788 0)
(0.0807719224115 0.0713790153068 0)
(0.0761108949574 0.0594122525345 0)
(0.0702770660227 0.0471457454421 0)
(0.0612810912783 0.0366497843468 0)
(0.0523799365249 0.0295062011929 0)
(0.0448083426556 0.0247653212636 0)
(0.03919064215 0.0213295531381 0)
(0.0353596757442 0.0180414544145 0)
(0.0322235815229 0.0141226690908 0)
(0.0276807104471 0.0102421731164 0)
(0.0225219200734 0.00764400386516 0)
(0.0180740248696 0.00640492008674 0)
(0.0150748220544 0.00575603480571 0)
(0.012883699074 0.00507528869638 0)
(0.0110908335552 0.00429196739858 0)
(0.00945239966379 0.00348075566313 0)
(0.00781989971032 0.00283275584136 0)
(0.00635465917198 0.00252620977082 0)
(0.0054164806747 0.00234579887233 0)
(0.00466483536015 0.00205592841659 0)
(0.00390534818321 0.00178462600623 0)
(0.00327626330985 0.00159054771071 0)
(0.00276626081103 0.0013964121892 0)
(0.0024155774303 0.00121894193664 0)
(0.00219589631664 0.00102719987783 0)
(0.00202636659251 0.00083895559573 0)
(0.00185566644801 0.000636172160737 0)
(0.0016998265881 0.000451548329456 0)
(0.001537811446 0.000287604753285 0)
(0.00142404631404 0.000169469665191 0)
(0.00135757962217 8.89396600523e-05 0)
(0.00125351521582 2.79466748981e-05 0)
(0.0012870115952 1.18141412864e-05 0)
(0.00122975421286 7.82513045401e-06 0)
(0.00120023577238 1.29408644673e-06 0)
(-0.125850619014 0.00757591307787 0)
(-0.13299320752 0.0245852982407 0)
(-0.132400439959 0.0412747465265 0)
(-0.131170867563 0.0580020599412 0)
(-0.12953507543 0.074506207236 0)
(-0.127516924888 0.0907462236946 0)
(-0.125137472709 0.10666930026 0)
(-0.122420458291 0.122227356513 0)
(-0.119391900605 0.137376725749 0)
(-0.116079468701 0.15207855165 0)
(-0.112511839825 0.166298961487 0)
(-0.108718059276 0.180009146587 0)
(-0.104726908401 0.193185339596 0)
(-0.100566284452 0.205808690799 0)
(-0.0962625983382 0.217865039719 0)
(-0.0918402012583 0.229344577113 0)
(-0.0873208589076 0.240241393352 0)
(-0.0827232985769 0.250552915768 0)
(-0.0780628589628 0.260279247127 0)
(-0.0733512712926 0.269422430173 0)
(-0.0685965931631 0.277985675242 0)
(-0.0638033024965 0.28597259651 0)
(-0.0589725409061 0.293386504259 0)
(-0.0541024769952 0.300229792902 0)
(-0.049188746278 0.306503448558 0)
(-0.0442249205336 0.31220667755 0)
(-0.0392029683621 0.317336636062 0)
(-0.0341136892366 0.321888226521 0)
(-0.028947129045 0.325853927533 0)
(-0.0236930067615 0.329223611994 0)