/*--------------------------------*- C++ -*----------------------------------*\
| =========                 |                                                 |
| \\      /  F ield         | OpenFOAM: The Open Source CFD Toolbox           |
|  \\    /   O peration     | Version:  v1906                                 |
|   \\  /    A nd           | Web:      www.OpenFOAM.com                      |
|    \\/     M anipulation  |                                                 |
\*---------------------------------------------------------------------------*/
FoamFile
{
    version     2.0;
    format      ascii;
    class       volScalarField;
    location    "541";
    object      pa;
}
// * * * * * * * * * * * * * * * * * * * * * * * * * * * * * * * * * * * * * //

dimensions      [0 2 -2 0 0 0 0];


internalField   nonuniform List<scalar> 
9216
(
916.313463251
916.007625029
915.374927055
914.409865664
913.117856295
911.504954458
909.578712676
907.34803437
904.823063033
902.015025276
898.93612454
895.599374411
892.018494306
888.207739727
884.181808606
879.955677188
875.544524181
870.96357839
866.228064862
861.353067427
856.353498186
851.243975505
846.03881589
840.751926197
835.396815603
829.986499852
824.533530479
819.049908847
813.547129901
808.036103981
802.527212415
797.030237411
791.55442785
786.108430359
780.700364885
775.337762857
770.027648194
764.776477977
759.590228863
754.47434049
749.433805666
744.473115886
739.596353938
734.807141142
730.108731128
725.503958429
720.995332244
716.584986122
712.274770604
708.066203746
703.96056159
699.958829368
696.061788881
692.26997028
688.583735539
685.003230843
681.528465559
678.159265338
674.895346157
671.736268417
668.681505849
665.730400967
662.882228793
660.136154147
657.491290312
654.946658651
652.501242417
650.153949204
647.903660192
645.749195829
643.689360815
641.722913335
639.848606063
638.065159139
636.371297404
634.765727193
633.247169983
631.814342916
630.465988979
629.200861067
628.017748778
626.91546572
625.892872936
624.948869099
624.08241052
623.292503756
622.578221949
621.938699024
621.373141271
620.880820303
620.461073793
620.113282986
619.836824421
619.630880723
619.492217508
619.436057355
916.618326307
916.310759599
915.676413573
914.706994814
913.408777788
911.788105662
909.852696295
907.611600068
905.075097818
902.254564223
899.162344016
895.811602
892.21619607
888.390526847
884.349418916
880.107979589
875.68149601
871.08530916
866.334731119
861.444937233
856.430904824
851.307323716
846.08855539
840.788560214
835.420874665
829.998552748
824.534158462
819.039718869
813.526729204
808.006115481
802.488250352
796.982922249
791.499360244
786.046211927
780.631573937
775.26297347
769.947405587
764.691319219
759.500658711
754.380852977
749.336860292
744.373159842
739.493798721
734.702385189
730.002136915
725.395875333
720.886074216
716.47485459
712.164032791
707.955115432
703.849346163
699.84770026
695.950929407
692.159555555
688.47391316
684.894142107
681.420227
678.051989071
674.789122304
671.631184412
668.577629751
665.627799601
662.780951979
660.036251565
657.392796673
654.849609213
652.405659147
650.059854913
647.811065712
645.658112788
643.599789861
641.634855591
639.762052434
637.980100486
636.287714978
634.683601595
633.166472728
631.735044261
630.388050612
629.124242891
627.942402699
626.841341473
625.819912956
624.877013487
624.011593012
623.22265602
622.509270906
621.870571226
621.305763283
620.814127814
620.395027583
620.047916995
619.772373484
619.568212079
619.435909206
619.379847808
917.252527275
916.940229754
916.300121454
915.32199887
914.01223434
912.37730883
910.425133046
908.164978919
905.607363237
902.763911752
899.647222767
896.270719978
892.648512214
888.795248029
884.725983673
880.456049377
876.000933503
871.37616663
866.597226148
861.679440797
856.637916755
851.487462393
846.242534478
840.917181003
835.525004753
830.079121247
824.592136626
819.07611788
813.542582433
808.002478383
802.466183771
796.943494664
791.443632836
785.975241086
780.546396797
775.16461275
769.836856179
764.569554036
759.368616087
754.239443535
749.186955139
744.215598304
739.329377298
734.531866028
729.826237514
725.215277637
720.701415076
716.286735367
711.973010575
707.761713037
703.654044084
699.650946916
695.753133782
691.961097529
688.27513675
684.69536569
681.221737051
677.854050081
674.591970891
671.435038749
668.382683946
665.434232469
662.588921612
659.845903332
657.20425793
654.662996474
652.221072928
649.877386064
647.630790428
645.480098136
643.424089029
641.461512671
639.591097991
637.811555699
636.121587596
634.519889544
633.005160532
631.576106204
630.231447688
628.969925611
627.790308611
626.69139769
625.672034287
624.73110478
623.867547956
623.080359477
622.368598635
621.731392732
621.16794338
620.677531667
620.259526442
619.913395942
619.63873016
619.435297538
619.303330685
619.241274259
918.227507221
917.909762782
917.260651049
916.268930896
914.941169429
913.284079351
911.30586515
909.016136581
906.425778016
903.546803881
900.392210389
896.97582222
893.312141831
889.416200262
885.303416514
880.989462739
876.490141814
871.821272993
866.998591765
862.037658237
856.953779854
851.761941656
846.476749806
841.112380822
835.682542495
830.200438512
824.678743259
819.12957867
813.564500146
807.994483303
802.429919041
796.880608482
791.355766151
785.864021005
780.413425811
775.011464625
769.665066854
764.380619076
759.163983032
754.020510781
748.955065593
743.972039532
739.075376372
734.268590804
729.554792587
724.93670665
720.416697724
715.996790643
711.678694757
707.463823756
703.3533192
699.348069264
695.448730793
691.655746451
687.969364827
684.389655625
680.916527514
677.549741151
674.288924664
671.133584514
668.083118671
665.136825499
662.293914875
659.553515412
656.914683888
654.376411223
651.937630647
649.597222878
647.354023461
645.206827554
643.154396832
641.195464223
639.328740663
637.552920033
635.866685944
634.268716999
632.757693701
631.332304042
629.991250512
628.73325595
627.557070548
626.461477823
625.445301464
624.507411247
623.646729571
622.862237153
622.152979161
621.518070721
620.956702906
620.468148711
620.051770308
619.70702767
619.43348954
619.230851106
619.099189912
619.035912989
919.547300037
919.222550226
918.561131869
917.550790208
916.198391094
914.510984465
912.497184077
910.167066376
907.532023984
904.60460703
901.398360693
897.92766038
894.207549436
890.253581581
886.081671835
881.707956798
877.14866704
872.420011201
867.538073617
862.51872398
857.377540078
852.129741272
846.790133292
841.373061572
835.892373674
830.361387993
824.792869635
819.199010905
813.59141769
807.981099418
802.378464149
796.793316583
791.234861225
785.711705524
780.231869387
774.802795409
769.431362401
764.123899898
758.886205452
753.723562385
748.640759849
743.642112924
738.731484605
733.91230746
729.187606802
724.560023173
720.031835979
715.604986098
711.281099265
707.061508112
702.94727463
698.939210982
695.037900425
691.243716348
687.556841151
683.977283096
680.504892831
677.139377837
673.880316478
670.727170049
667.679294458
664.735950082
661.896311355
659.159474802
656.524466969
653.990251077
651.555733788
649.219770978
646.981173809
644.838714089
642.791130055
640.837131693
638.975406561
637.204625302
635.523447701
633.930528528
632.424523887
631.004097396
629.667926793
628.414710362
627.243173671
626.152076087
625.140217477
624.206444623
623.3496577
622.568816432
621.862946233
621.231144057
620.672584273
620.186524442
619.772311262
619.429385984
619.157288832
618.95566293
618.824518117
618.761082562
921.218554552
920.88494204
920.207761303
919.173530149
917.789524253
916.063247784
914.003855033
911.622033645
908.929839404
905.940518812
902.668328872
899.128356464
895.336341865
891.308509521
887.061409157
882.611768931
877.976362445
873.171890049
868.21487509
863.12157441
857.907902751
852.589369504
847.18102684
841.697427266
836.152589604
830.559971638
824.93244886
819.282298064
813.621185777
807.960160639
802.309650038
796.679460227
791.078781009
785.516190052
779.999664255
774.53659164
769.133785916
763.797502655
758.533457447
753.346845149
748.242360654
743.224220356
738.296184753
733.461581376
728.723328521
724.08395895
719.545644032
715.110217516
710.779199373
706.553818911
702.435037607
698.423570869
694.519909192
690.724337964
687.036956395
683.457694924
679.986331571
676.622506703
673.365736712
670.215426145
667.170878836
664.231307651
661.395843411
658.663542681
656.033394972
653.504329108
651.075219264
648.744890467
646.512124015
644.375662621
642.334215678
640.386464449
638.53106751
636.766666265
635.091890755
633.505365613
632.005716308
630.591575525
629.261589775
628.014426095
626.84877887
625.763376665
624.756989064
623.828433414
622.976581467
622.200365841
621.498786287
620.870915724
620.315906026
619.832993507
619.421503955
619.080856535
618.810565741
618.610243156
618.479871124
618.416706107
923.249711821
922.905178505
922.208539689
921.144804887
919.721776541
917.947542808
915.83194689
913.386450926
910.623947127
907.55855656
904.205426616
900.580530439
896.700472939
892.582307064
888.243363134
883.701093289
878.972932429
874.076176289
869.027876734
863.844753638
858.543122241
853.13883433
847.647231359
842.083107449
836.460680405
830.793569099
825.094776081
819.376674588
813.650999609
807.928842732
802.22065087
796.536228499
790.884744029
785.274735888
779.714126077
774.210233806
768.769791602
763.398963222
758.103363097
752.888077107
747.757684446
742.71628045
737.767500175
732.914542603
728.160195274
723.506859214
718.956573938
714.511042394
710.171655608
705.939516888
701.815465353
697.800098639
693.893794582
690.096731749
686.408908663
682.83016166
679.36018127
675.998527133
672.744641422
669.597860855
666.557427323
663.622497298
660.792150079
658.06539509
655.441178338
652.918388222
650.495860837
648.17238495
645.946706769
643.817534664
641.783543921
639.843381649
637.995671887
636.239020988
634.572023272
632.993266994
631.501340596
630.094839219
628.772371453
627.532566256
626.374080013
625.295603639
624.295869702
623.373659463
622.527809801
621.757219942
621.060857955
620.437766934
619.887070828
619.407979795
618.999794909
618.661911472
618.393820987
618.195114127
618.065758885
618.003092647
925.651161769
925.293448665
924.57335078
923.474050924
922.004011025
920.172051406
917.988874967
915.466905224
912.620067468
909.463557493
906.013611512
902.287281035
898.302217848
894.076472848
889.628311641
884.976048815
880.1379022
875.13186756
869.975613586
864.686396169
859.280990376
853.775637817
848.186006826
842.527162647
836.813545174
831.058952139
825.276526478
819.47874707
813.677422776
807.883689706
802.108012727
796.360189008
790.649356852
784.984004407
779.371985037
773.82053321
768.336282616
762.925285877
757.593035722
752.344487266
747.184081371
742.115768787
737.14303509
732.268926105
727.496073842
722.826722593
718.262755209
713.805719184
709.456852513
705.217108955
701.087182664
697.067531791
693.158401058
689.359842936
685.671737468
682.093810443
678.62565002
675.266721609
672.016381179
668.873886892
665.838409311
662.909040159
660.084799917
657.364644322
654.747470055
652.232119702
649.817386293
647.502017489
645.284719687
643.164162095
641.138980983
639.20778415
637.369155723
635.621661312
633.963853557
632.394278069
630.911479748
629.514009441
628.200430895
626.969327944
625.81931186
624.749028805
623.757167282
622.842465553
622.003718889
621.239786644
620.549599014
619.932163477
619.386570755
618.912000256
618.507724784
618.173114133
617.907637384
617.710867342
617.582759764
617.520748538
928.435422842
928.062037639
927.314098569
926.172611149
924.646852096
922.746548623
920.483463209
917.871197924
914.924937123
911.661178806
908.097470737
904.252155885
900.144132475
895.792632594
891.217021976
886.436622894
881.470561158
876.337637657
871.056223922
865.644180435
860.118795376
854.49674077
848.794042353
843.026059439
837.207471316
831.352267646
825.473741258
819.584482905
813.696378171
807.820607124
801.96764831
796.147284251
790.368612439
784.640057195
778.969387398
773.363734952
767.829615147
762.372948545
756.999083986
751.712822667
746.518443029
741.419726488
736.419983738
731.522081686
726.728470709
722.041212247
717.4620064
712.992219482
708.632911173
704.384861187
700.248595066
696.224409019
692.312393418
688.51245491
684.824336809
681.247637799
677.7818287
674.426267428
671.180212009
668.042831868
665.013217369
662.090387891
659.273298498
656.560845548
653.951871328
651.445168068
649.039481454
646.733513935
644.525927946
642.415349274
640.400370659
638.479555784
636.651443681
634.914553661
633.267390733
631.708451542
630.236230789
628.849228073
627.545955119
626.324943285
625.184751297
624.123973096
623.141245738
622.235257212
621.404754142
620.648549226
619.965528396
619.354657539
618.814988763
618.345666067
617.945930346
617.615123197
617.352690109
617.158185941
617.031551379
616.970325671
931.617351666
931.225516886
930.444883524
929.253889633
927.662814918
925.682503324
923.326015184
920.608386724
917.546324099
914.157888357
910.462190863
906.479103901
902.22899198
897.732467364
893.010172251
888.082589089
882.969880022
877.691755653
872.267372558
866.715257789
861.053257447
855.298505078
849.467404944
843.575624798
837.638093555
831.669000346
825.681793383
819.689178477
813.703118381
807.734834231
801.794811745
795.892809094
790.037869473
784.238337333
778.501878795
772.835503013
767.245585274
761.737891181
756.317601827
750.989339663
745.757195183
740.62475418
735.595125718
730.670970532
725.854529941
721.147654934
716.551835454
712.068229473
707.697691831
703.440802376
699.297893332
695.269075424
691.354262676
687.553195453
683.865461728
680.290516224
676.827697524
673.476242931
670.235301271
667.103943579
664.081171956
661.165926642
658.357091681
655.653499293
653.053933351
650.557132115
648.161790605
645.866562755
643.670063654
641.570872013
639.567533046
637.658561864
635.842447483
634.11765747
632.482643261
630.93584612
629.475703698
628.100657137
626.809158624
625.599679326
624.47071757
623.42080721
622.448526015
621.552504038
620.73143179
619.984068203
619.309248192
618.705889834
618.173000978
617.709685276
617.315147514
616.988698052
616.729756283
616.537856667
616.41292174
616.352604757
935.214397522
934.800984212
933.982219559
932.733540105
931.066459128
928.993194683
926.52839276
923.688828319
920.493037432
916.960945495
913.113514105
908.972411492
904.55971132
899.897622756
895.008253342
889.913405877
884.634409993
879.191988838
873.606160204
867.896170214
862.080455729
856.176629959
850.201484143
844.170997862
838.100351201
832.003934253
825.895352104
819.787426283
813.692195139
807.620916058
801.584073016
795.591387436
789.65183165
783.77365124
777.964388324
772.230906525
766.579417077
761.015505704
755.544159936
750.16979701
744.896292224
739.727007977
734.664823302
729.712164031
724.871033326
720.143042618
715.529442596
711.031154223
706.648799332
702.382730696
698.233061062
694.199691012
690.282335123
686.480546331
682.79373804
679.221203987
675.762135559
672.415636682
669.180736182
666.056397865
663.041528362
660.134983113
657.335570635
654.642055526
652.053160382
649.567567114
647.183917819
644.900815652
642.716825826
640.630477073
638.640263642
636.74464806
634.942064651
633.230923922
631.609617772
630.076525523
628.630020682
627.268478378
625.990283351
624.793838387
623.677573086
622.639952806
621.679487706
620.794741701
619.98434128
619.246984003
618.581446652
617.986592858
617.46138021
617.004866694
616.616216502
616.294704717
616.039721507
615.850778461
615.727775848
615.668490169
939.246916667
938.808357486
937.945301292
936.629693677
934.874571243
932.693845956
930.104102103
927.124219682
923.774928682
920.078368254
916.057677056
911.736618378
907.139243552
902.289594695
897.21144716
891.928092103
886.462160006
880.835485853
875.069015943
869.182754435
863.195745157
857.126081163
850.990932141
844.806578598
838.588443044
832.35111164
826.10834471
819.873078747
813.657425248
807.47267161
801.329288937
795.236946175
789.20452471
783.240148529
777.351211117
771.544404652
765.825749714
760.2006249
754.673796486
749.249448146
743.93121114
738.722194937
733.625018553
728.641842382
723.77440067
719.024034282
714.39172382
709.878122627
705.483589634
701.208221482
697.05188375
693.014240677
689.094783176
685.292854576
681.607673956
678.038356663
674.58393205
671.243358199
668.015533877
664.899307682
661.893484791
658.996831425
656.208077566
653.525918117
650.949013082
648.475987004
646.105428184
643.83588789
641.665879995
639.593881173
637.618331959
635.737638727
633.950176729
632.254294185
630.648317438
629.130557103
627.69931512
626.352892629
625.089598493
623.907758382
622.805724212
621.781883852
620.834670871
619.962574278
619.164148013
618.438020168
617.782901724
617.197594812
616.68100031
616.2321248
615.850086763
615.534121933
615.283587524
615.097968657
614.977140297
614.919011698
943.738561928
943.270741413
942.356330412
940.963233191
939.10637793
936.801774983
934.068383601
930.927633203
927.40287947
923.518881181
919.301326191
914.776407683
909.970450672
904.90958693
899.619476382
894.125074678
888.450447933
882.618636708
876.651570445
870.570031464
864.393663444
858.141014624
851.829601387
845.475975775
839.095781779
832.703790966
826.313916072
819.93920894
813.591852706
807.283158236
801.023570807
794.822686424
788.689271194
782.631300258
776.655989582
770.769830551
764.97862357
759.287510648
753.701007074
748.223032951
742.856944855
737.605568179
732.471230069
727.455793199
722.560690107
717.786958175
713.135274885
708.605993313
704.199177358
699.914636493
695.751959392
691.710546109
687.789638121
683.988345944
680.305673742
676.740540828
673.29179968
669.95825063
666.738653091
663.631733717
660.636191594
657.75070101
654.973912071
652.304449789
649.740911979
647.281866585
644.925848765
642.671358259
640.516857299
638.460769448
636.501479485
634.6373346
632.866646858
631.187697048
629.598739811
628.098010005
626.683730157
625.354118891
624.107400153
622.941813049
621.855622158
620.847128084
619.914678135
619.056676887
618.271596571
617.557987028
616.914485243
616.339824208
615.832841169
615.392485094
615.017823409
614.708047552
614.462477856
614.280570029
614.1621697
614.105328324
948.71676958
948.214878145
947.240915456
945.758120556
943.783792679
941.336558804
938.438300379
935.113538418
931.388767528
927.291836288
922.851403337
918.096463951
913.055941207
907.758334462
902.231420093
896.502002934
890.595720635
884.536905326
878.348507074
872.052080374
865.667829087
859.214696982
852.710483309
846.171957776
839.614951006
833.054405462
826.504386681
819.978067853
813.487706508
807.044632527
800.659248835
794.341051806
788.098663247
781.939875772
775.871693837
769.900374599
764.031465921
758.269841478
752.619734177
747.084768818
741.667995135
736.371921472
731.198549521
726.149409885
721.225598601
716.427814294
711.756396029
707.211361393
702.792444706
698.499134665
694.330711061
690.286279725
686.364805252
682.565140693
678.886053923
675.326250103
671.884390224
668.559105487
665.349007816
662.252696554
659.268761912
656.395785439
653.632338246
650.976977377
648.428241094
645.984643506
643.644669229
641.406768449
639.269352913
637.230793093
635.289416847
633.443509658
631.691316579
630.031045831
628.460874013
626.978952778
625.583416838
624.27239311
623.044010783
621.896412141
620.827763866
619.836268677
618.920177029
618.07779875
617.307514356
616.607785984
615.977167696
615.414315157
614.917994504
614.487090414
614.120613275
613.817705428
613.577645973
613.399857213
613.284152534
613.228734721
954.213371991
953.671713621
952.628561073
951.041787107
948.931696073
946.320207145
943.232815981
939.69779972
935.74540054
931.407097723
926.714992891
921.70129212
916.397868048
910.835886669
905.045488677
899.055522903
892.893336167
886.584628912
880.153386828
873.621895004
867.010831887
860.339427232
853.625653736
846.886412034
840.137669038
833.394524743
826.671209356
819.981037464
813.336353909
806.748504352
800.227829512
793.783693237
787.424533509
781.157918847
774.990601795
768.928567579
762.977076283
757.140699858
751.42335599
745.828341259
740.358364813
735.015583412
729.80163771
724.717689905
719.764462354
714.942277278
710.251097226
705.690566317
701.260051675
696.958684746
692.785401532
688.738981142
684.818081592
681.021272277
677.347062255
673.793924089
670.360312774
667.044679908
663.845483043
660.761190751
657.790283684
654.931252392
652.182592406
649.542797467
647.010351465
644.583719967
642.261341838
640.041621689
637.922923517
635.903566046
633.981819911
632.155906964
630.424001634
628.784234394
627.234697128
625.773450315
624.398531737
623.107966548
621.899778418
620.772001501
619.722693006
618.749946059
617.851902689
617.026766629
616.272815822
615.588414342
614.972023717
614.422213376
613.937670303
613.517207694
613.159772722
612.864452945
612.630481787
612.457244948
612.344519427
612.290668003
960.265378438
959.677105444
958.553270658
956.845594912
954.578247652
951.777333637
948.472846327
944.697633998
940.486403535
935.874878237
930.899121604
925.594989968
919.997680055
914.141343332
908.058750545
901.781002974
895.337299331
888.754775984
882.058441456
875.271221619
868.414118798
861.506466313
854.566234387
847.610322028
840.654766017
833.714821933
826.804923783
819.938575731
813.128241302
806.385281935
799.719950228
793.141431244
786.657925299
780.276724039
774.004280054
767.846264358
761.807612089
755.892559188
750.104674892
744.446893741
738.921549438
733.530410858
728.274720195
723.155232599
718.172257228
713.325699407
708.61510415
704.039700686
699.598447914
695.29007986
691.113150474
687.066076401
683.147176846
679.354709245
675.686900151
672.141970501
668.718155189
665.413716674
662.226953064
659.156200883
656.199833346
653.35625468
650.623891537
648.00118218
645.486564539
643.078463821
640.775280648
638.575380274
636.477083604
634.47866033
632.578324594
630.774233217
629.064486586
627.447132046
625.92016965
624.48156
623.12923393
621.86110373
620.675075597
619.569063058
618.541000981
617.588859986
616.710660856
615.9044888
615.168507215
614.500970879
613.900238259
613.364782973
612.89320416
612.484235838
612.136755115
611.849789329
611.622521361
611.454295972
611.344850776
611.29271664
966.915983113
966.272728464
965.054290547
963.205379099
960.75521974
957.73530495
954.181261327
950.131505036
945.626040408
940.705513358
935.410501127
929.780967393
923.855821668
917.672537252
911.266802233
904.672200352
897.919938296
891.038651294
884.054325832
876.990374502
869.867879341
862.705986045
855.522385604
848.333776454
841.156183817
834.005049395
826.895106279
819.840149062
812.852821788
805.944507291
799.125326384
792.404215764
785.789063201
779.286815139
772.903566884
766.644629278
760.514574965
754.517270833
748.65590521
742.933016814
737.350527914
731.909781636
726.611582101
721.456236563
716.443598754
711.57311377
706.843864539
702.254620236
697.803886153
693.489954464
689.310954415
685.264900658
681.349737967
677.563381171
673.903748994
670.368791288
666.956509074
663.664967603
660.492302533
657.436720004
654.496491197
651.669942517
648.955442269
646.351385089
643.856175086
641.468208901
639.185859505
637.007461744
634.931300171
632.955599808
631.078520017
629.298151746
627.612517953
626.019577163
624.517229782
623.103326913
621.775681263
620.532079838
619.370298021
618.288114695
617.283328072
616.35377184
615.497331361
614.711959517
613.995692061
613.346662093
612.763113649
612.243414089
611.786065392
611.389714141
611.053160372
610.775364821
610.555454919
610.392731046
610.286887029
610.236629272
974.215890357
973.507237806
972.177035958
970.162074376
967.498332166
964.224331669
960.382797735
956.018920665
951.178944532
945.909157009
940.255204653
934.26160808
927.971377438
921.42565838
914.663373036
907.720854599
900.631505014
893.425529372
886.129815175
878.768023613
871.360937154
863.927055889
856.483355978
849.046034295
841.631013213
834.254025094
826.930307517
819.674140565
812.498460122
805.41467387
798.432688986
791.56108457
784.807327076
778.177928438
771.678559801
765.314124331
759.088798254
753.006050831
747.068660138
741.278735896
735.637752049
730.146586027
724.805562059
719.614496092
714.572741677
709.67923711
704.932555023
700.330954733
695.872437552
691.554803815
687.375710168
683.332724732
679.423378257
675.645209163
671.995801294
668.472813259
665.073999184
661.797220704
658.640450891
655.60177064
652.679358794
649.871476944
647.176450469
644.592646946
642.118453484
639.752254104
637.492408519
635.337233163
633.284985474
631.333851834
629.481939658
627.727273564
626.067795615
624.501369229
623.025786432
621.638777958
620.338025768
619.121177563
617.985862825
616.92971005
615.950364656
615.0455073
614.212872045
613.450264203
612.755577342
612.126809398
611.56207749
611.059631516
610.617866245
610.235332059
609.910744214
609.64299081
609.431138524
609.274438679
609.172538176
609.124325723
982.225090593
981.437800038
979.974247822
977.762421587
974.847541638
971.277438956
967.103822375
962.380084792
957.159726532
951.495382281
945.438272537
939.037874972
932.341663659
925.39481802
918.239855293
910.916190719
903.459674014
895.902188062
888.271422382
880.590942884
872.880656621
865.157698293
857.437632389
849.735685987
842.06758989
834.449629008
826.897961265
819.427713645
812.05229494
804.783115551
797.629713847
790.600125293
783.701234987
776.93900604
770.3186109
763.844501905
757.520435644
751.349465835
745.333936792
739.475497324
733.775134345
728.233216956
722.849544732
717.623396545
712.553578369
707.638472167
702.87608784
698.264119888
693.800008855
689.481006524
685.304242103
681.266786541
677.3657117
673.598142136
669.961297443
666.452524331
663.069317821
659.809331961
656.670380513
653.650428882
650.747578379
647.960044576
645.286131148
642.724201101
640.272646845
637.929860885
635.69420839
633.564003073
631.537487171
629.612816395
627.788049997
626.061146138
624.429962105
622.89225907
621.445710639
620.087914738
618.816408148
617.628683267
616.52220655
615.494438202
614.542852665
613.664959368
612.858323368
612.120585338
611.449480668
610.84285722
610.298691711
609.815104374
609.390372072
609.022939653
608.711429805
608.45465102
608.251603931
608.101487193
608.003896136
607.957907808
991.015296073
990.132136264
988.507448377
986.059721396
982.847195957
978.930210176
974.371852835
969.235337666
963.582421859
957.47267408
950.963250754
944.108871543
936.961779452
929.571558277
921.984753125
914.244308855
906.388902027
898.452295546
890.462892279
882.443695331
874.412875848
866.385063558
858.373267064
850.390979894
842.453682455
834.578800237
826.784226773
819.086584832
811.500023642
804.035858373
796.702946768
789.508451087
782.458445513
775.558206877
768.812334974
762.224803377
755.798950257
749.537416285
743.442098042
737.514151416
731.754033763
726.161558391
720.735951909
715.475907941
710.379635745
705.44490862
700.669117162
696.049329769
691.582361665
687.264850425
683.093334265
679.064328192
675.174393902
671.42019985
667.798569494
664.306516297
660.941265431
657.700262333
654.581169372
651.581851766
648.70035473
645.934873525
643.283718665
640.745278102
638.317978665
636.000248432
633.790482057
631.687010322
629.688075344
627.791812011
625.996236179
624.299239351
622.698589467
621.191936953
619.776825258
618.450705023
617.21095119
616.054882484
614.979782698
613.982923377
613.061587252
612.213092014
611.434813703
610.724209381
610.078838428
609.496382368
608.974662723
608.511657047
608.10551285
607.754559659
607.457319164
607.212513777
607.019072507
606.876136469
606.783246223
606.739672465
1000.67336112
999.671328556
997.848780313
995.114548667
991.545877358
987.2201249
982.214695404
976.6042969
970.459738574
963.847811279
956.831682908
949.471390044
941.824146671
933.944324288
925.883046473
917.687431497
909.399592311
901.055575275
892.684495668
884.308205668
875.941875995
867.595809708
859.278519417
851.000438441
842.776822663
834.627505781
826.573688433
818.63462372
810.825573185
803.157436733
795.637743443
788.272212432
781.065796719
774.022947566
767.147636524
760.443364384
753.913100798
747.55911312
741.382848115
735.384931483
729.565238932
723.922972275
718.456731767
713.164576483
708.044069514
703.092321817
698.306043877
693.681609455
689.215133623
684.902562551
680.73976811
676.722640295
672.847170927
669.109524485
665.506093232
662.033535717
658.688798366
655.469121178
652.372028733
649.395308644
646.536979459
643.795250628
641.168476798
638.655109171
636.253646157
633.962585907
631.780382663
629.705409029
627.735925406
625.870057779
624.10578396
622.440928217
620.873163207
619.400018264
618.018892624
616.727072644
615.521752042
614.400054637
613.359059005
612.395824627
611.507418912
610.690944423
609.943565674
609.262534747
608.645215342
608.089104654
607.591853101
607.151281488
606.765395939
606.432400412
606.150707264
605.918945521
605.735967165
605.600852215
605.513081729
605.472124602
1011.30620239
1010.15377472
1008.08334636
1004.99520875
1000.99560135
996.185195501
990.658998656
984.504592495
977.802074821
970.625159589
963.042607026
955.119508722
946.918095651
938.497936962
929.915476891
921.222972744
912.46698143
903.686625646
894.911985166
886.163117448
877.450384551
868.776830222
860.143069542
851.553993705
843.024853465
834.580604676
826.248763471
818.05316274
810.010583151
802.130660969
794.418265736
786.876686094
779.509408486
772.319988836
765.311763621
758.487824502
751.850916963
745.403039952
739.145197886
733.077427179
727.198949456
721.508284601
716.003346822
710.681513061
705.539654612
700.574167348
695.781017584
691.155806839
686.693861704
682.390343733
678.240367476
674.239115041
670.381938225
666.664442538
663.082550675
659.632544391
656.31108549
653.115217012
650.042346953
647.090216823
644.256858158
641.540539689
638.939708476
636.45292774
634.078814642
631.815980579
629.662976949
627.618248451
625.680096044
623.846650527
622.115857325
620.485471674
618.953062987
617.516026432
616.171600022
614.916885663
613.748873216
612.664467001
611.660514325
610.733835712