/*--------------------------------*- C++ -*----------------------------------*\
| =========                 |                                                 |
| \\      /  F ield         | OpenFOAM: The Open Source CFD Toolbox           |
|  \\    /   O peration     | Version:  v1906                                 |
|   \\  /    A nd           | Web:      www.OpenFOAM.com                      |
|    \\/     M anipulation  |                                                 |
\*---------------------------------------------------------------------------*/
FoamFile
{
    version     2.0;
    format      ascii;
    class       surfaceScalarField;
    location    "442";
    object      phi;
}
// * * * * * * * * * * * * * * * * * * * * * * * * * * * * * * * * * * * * * //

dimensions      [0 3 -1 0 0 0 0];
oriented        oriented;


internalField   nonuniform List<scalar> 
18240
(
-0.00035255440319
0.000352421641339
-0.000738616928702
0.000385898903709
-0.00112431065468
0.000385560896144
-0.00150507978687
0.000380598516725
-0.00187877358779
0.00037356881639
-0.00224374356862
0.000364792691813
-0.00259836857133
0.000354507787139
-0.00294141005817
0.000342857557952
-0.00327157326864
0.000330054022111
-0.00358799120295
0.000316227516975
-0.00388968663081
0.000301594844214
-0.00417615250455
0.000286269166585
-0.00444670535857
0.00027046128493
-0.00470116387756
0.000254255797094
-0.00493909416581
0.000237848399576
-0.00516059115001
0.000221288613696
-0.0053654167542
0.000204753831661
-0.00555388798706
0.000188257698102
-0.00572590950965
0.000171960588003
-0.00588197067289
0.000155843046486
-0.00602207290534
0.000140052546896
-0.00614683622522
0.000124541314467
-0.0062563226031
0.000109448648625
-0.00635125097992
9.47032502558e-05
-0.00643171719653
8.04407603619e-05
-0.00649851530178
6.65707146686e-05
-0.00655175618598
5.32283294087e-05
-0.00659229200414
4.03070650248e-05
-0.00662023553804
2.79440565436e-05
-0.00663648390907
1.6019224476e-05
-0.00664114312803
4.67333303335e-06
-0.00663514473222
-6.22693795588e-06
-0.0066185767773
-1.65402313828e-05
-0.00659239305798
-2.64105799691e-05
-0.00655666078003
-3.56905587505e-05
-0.00651235037365
-4.45345003828e-05
-0.00645950231483
-5.2792494506e-05
-0.00639909392395
-6.06285827198e-05
-0.00633113418506
-6.78900949397e-05
-0.0062565995971
-7.474974343e-05
-0.00617546407976
-8.10521165399e-05
-0.006088695744
-8.69772733891e-05
-0.0059962310844
-9.23674216233e-05
-0.00589902379
-9.74088410877e-05
-0.00579697179179
-0.000101941414284
-0.00569100862835
-0.000106156104711
-0.0055809939053
-0.000109890878827
-0.00546783695162
-0.00011334009702
-0.00535136053604
-0.000116339978551
-0.00523244599705
-0.000119086666385
-0.00511088201408
-0.000121415229297
-0.00498751965169
-0.000123522302698
-0.0048621172094
-0.000125242233462
-0.00473549317779
-0.000126770619156
-0.00460738002712
-0.00012794198536
-0.004478562447
-0.000128949736297
-0.00434875205008
-0.000129629350436
-0.00421869803887
-0.000130170711901
-0.00408809637915
-0.000130411480915
-0.00395765966657
-0.000130537075733
-0.00382707322915
-0.000130388421287
-0.00369701110568
-0.000130145382582
-0.00356715266671
-0.000129653583999
-0.00343813167125
-0.00012908658188
-0.00330962555303
-0.000128295901272
-0.00318222517827
-0.000127447887829
-0.00305560943534
-0.0001264013528
-0.00293032392248
-0.000125314784546
-0.00280605159747
-0.00012405532399
-0.00268328984959
-0.000122772809229
-0.00256172774166
-0.000121343776002
-0.00244181206091
-0.000119908817116
-0.00232323943645
-0.000118354527784
-0.00220640361698
-0.000116811550574
-0.00209100997095
-0.000115177134695
-0.00197739766464
-0.000113571439818
-0.0018652817564
-0.000111902594054
-0.00175494566962
-0.000110279690774
-0.0016461151653
-0.000108621884588
-0.00153901779887
-0.000107026768248
-0.0014333911668
-0.000105424400787
-0.00132940740096
-0.00010390042533
-0.00122681742048
-0.000102395625513
-0.00112573938919
-0.000100983299234
-0.00102593951648
-9.9614508847e-05
-0.000927484559627
-9.83495789285e-05
-0.000830159540921
-9.71487808237e-05
-0.00073398605879
-9.60575455996e-05
-0.000638777801678
-9.50409086497e-05
-0.000544533930293
-9.41193522898e-05
-0.000451142860839
-9.3235304097e-05
-0.000358696626866
-9.2317686526e-05
-0.000267460431619
-9.11009423516e-05
-0.00017862547685
-8.87105971711e-05
-9.65692204615e-05
-8.19005148072e-05
-9.6482033302e-05
-0.000389705504521
0.000741981129552
-0.000824817571096
0.000820847665079
-0.001257451794
0.000818041570632
-0.00168380061182
0.00080678317409
-0.00210190904376
0.000791525830127
-0.00251003249882
0.000772750838716
-0.00290647512711
0.000750801284849
-0.00328978977822
0.000726005710116
-0.00365862376005
0.000698741547189
-0.00401191911697
0.000669355434599
-0.00434869852482
0.000638230814027
-0.00466829208566
0.000605694668163
-0.00497007365724
0.000572102926816
-0.00525372145019
0.000537735307088
-0.00551890883022
0.000502899786394
-0.00576560358756
0.000467815326074
-0.00599371628132
0.000432735076537
-0.00620344176515
0.000397815930741
-0.00639486711755
0.000363259565624
-0.00656835742085
0.000329167505135
-0.00672412436011
0.000295698885139
-0.00686265686441
0.000262910067504
-0.00698425077372
0.00023092830864
-0.00708948378219
0.000199775313768
-0.00717870630062
0.000169556108061
-0.00725255945172
0.000140266486591
-0.00731142735134
0.000111996703954
-0.00735599638953
8.47230460022e-05
-0.00738666943187
5.85259180814e-05
-0.00740416429653
3.33661386228e-05
-0.00740889025603
9.316975756e-06
-0.00740158557428
-1.36736985522e-05
-0.0073826608236
-3.5537780923e-05
-0.0073528676802
-5.63391315161e-05
-0.00731260637496
-7.6014688104e-05
-0.0072626299252
-9.46389304913e-05
-0.00720332170985
-0.000112152983907
-0.00713542899604
-0.000128641083056
-0.00705931223576
-0.000144048208278
-0.0069757055858
-0.000158467259107
-0.00688494114665
-0.000171846498772
-0.00678773339616
-0.000184286236103
-0.00668438183554
-0.000195737229725
-0.00657557584748
-0.000206305698537
-0.00646157933953
-0.00021594407949
-0.00634305233711
-0.00022476294494
-0.00622022158595
-0.0002327155059
-0.00609371481252
-0.000239915041656
-0.00596372134065
-0.000246314765041
-0.00583083476925
-0.000252029123414
-0.00569520803677
-0.000257010642761
-0.0055573999116
-0.000261373482397
-0.00541752898745
-0.000265069076343
-0.00527611923766
-0.00026821009012
-0.00513325779029
-0.000270746676497
-0.00498943450368
-0.000272789012546
-0.00484470834951
-0.0002742861477
-0.00469953590689
-0.000275345096899
-0.00455395149229
-0.000275914238149
-0.00440837929794
-0.000276096992167
-0.00426283227277
-0.000275841821827
-0.00411770271986
-0.000275248389212
-0.00397298512221
-0.000274266148296
-0.00382904003408
-0.000272990980517
-0.00368584573413
-0.000271374379169
-0.00354373053829
-0.000269508525292
-0.0034026581538
-0.000267347942486
-0.00326292379403
-0.000264981168076
-0.00312447756755
-0.000262366660498
-0.00298758028159
-0.00025958930133
-0.00285216895298
-0.000256612148332
-0.00271846865193
-0.000253516279552
-0.00258640347202
-0.000250269787176
-0.00245616142274
-0.000246949656953
-0.00232765376891
-0.000243529154473
-0.00220103055448
-0.000240080749887
-0.00207619039247
-0.000236582788044
-0.00195324486837
-0.000233102691819
-0.0018320804207
-0.000229623563541
-0.00171277039321
-0.000226207186255
-0.00159518992547
-0.000222840947857
-0.00147937493365
-0.000219580344174
-0.00136519063881
-0.000216416435877
-0.001252637118
-0.000213397725664
-0.00114157159695
-0.000210518132506
-0.00103196063215
-0.000207818155809
-0.000923656163343
-0.000205293101409
-0.000816594721031
-0.000202973329907
-0.000710625649089
-0.000200851496324
-0.000605655596117
-0.000198941305092
-0.000501518301797
-0.00019722130059
-0.000398024686711
-0.000195668197479
-0.000294759733128
-0.000194221039562
-0.000190541185096
-0.000192791457904
-8.17385847167e-05
-0.00019056825673
-0.00017815189663
-0.000396668029314
0.00113850084065
-0.000837419376327
0.00126144028251
-0.00127631544913
0.00125677914649
-0.00170884539494
0.00123915290138
-0.00213287220162
0.00121539527692
-0.0025465389454
0.00118625727055
-0.00294813156816
0.00115223758345
-0.00333614602604
0.0011138600127
-0.00370924894318
0.00107168931324
-0.00406634232459
0.00102628912714
-0.00440649565765
0.000978230536609
-0.00472900963996
0.000928049785222
-0.00503332618372
0.000876267753829
-0.00531909740572
0.000823348913784
-0.00558607884125
0.000769731913817
-0.00583420861918
0.00071578922916
-0.00606348771011
0.0006618677507
-0.00627407270641
0.00060824736834
-0.00646614563252
0.000555189625052
-0.00664002211492
0.000502893368655
-0.00679601170513
0.000451549743715
-0.0069345419006
0.000401293270527
-0.00705600920512
0.000352261764995
-0.00716091851941
0.000304541960275
-0.00724972440706
0.000258233655262
-0.0073229849331
0.000213389404301
-0.00738119276942
0.000170082482434
-0.00742494235511
0.000128340796502
-0.00745475032375
8.82187217275e-05
-0.00747123496318
4.97254526412e-05
-0.00747492615782
1.29006609481e-05
-0.00746645624139
-2.22617298605e-05
-0.00744635938797
-5.57339080018e-05
-0.007415272976
-8.75357214955e-05
-0.00737372717185
-0.000117650803023
-0.0073223560513
-0.000146111634567
-0.00726167798342
-0.000172911890244
-0.00719231586699
-0.000198095520944
-0.00711476934803
-0.000221665427941
-0.00702964323005
-0.000243675829543
-0.00693741231226
-0.000264137536892
-0.00683865712992
-0.000283113385016
-0.00673382268301
-0.000300620614456
-0.00662346045017
-0.000316728862711
-0.00650798192051
-0.000331459994033
-0.00638790582896
-0.000344888376408
-0.00626360788477
-0.000357038757078
-0.00613557194986
-0.000367988248563
-0.00600413698542
-0.000377762676946
-0.00586975091581
-0.000386439925692
-0.00573271630123
-0.000394045426863
-0.00559344540429
-0.00040065620166
-0.00545220571748
-0.000406295996126
-0.00530937479564
-0.00041103958135
-0.00516518724664
-0.000414908258743
-0.00501998768436
-0.000417973679896
-0.00487398040868
-0.000420254275459
-0.00472747892329
-0.000421818075607
-0.00458065998532
-0.000422680806764
-0.00443380797066
-0.000422906910287
-0.00428707458991
-0.000422509874766
-0.00414071654127
-0.000421550876071
-0.0039948625914
-0.000420042061691
-0.00384974286847
-0.000418041997961
-0.00370546460964
-0.000415562446235
-0.00356223168033
-0.000412660048205
-0.00342013059816
-0.000409347239926
-0.00327933885648
-0.000405679438451
-0.00313992240402
-0.000401670567991
-0.00300203164208
-0.000397375276585
-0.00286571172297
-0.000392809609755
-0.00273108514178
-0.000388027687126
-0.00259817575554
-0.000383047893152
-0.00246707720044
-0.000377923705729
-0.00233779160815
-0.000372675791017
-0.00221038315278
-0.00036735662131
-0.0020848319973
-0.000361988710088
-0.00196117255722
-0.000356622881841
-0.00183936323474
-0.000351282871422
-0.00171940903593
-0.000346017067252
-0.00160124728858
-0.000340849580028
-0.00148485445956
-0.000335825439534
-0.00137014806461
-0.000330968209983
-0.00125707753998
-0.000326318565605
-0.00114554227276
-0.000321898435486
-0.00103546653238
-0.000317742949212
-0.000926733542605
-0.00031387100559
-0.000819244002267
-0.000310310454574
-0.000712865338588
-0.000307075181132
-0.000607471322047
-0.000304183472968
-0.000502897886847
-0.000301642163083
-0.000398953355129
-0.000299467007027
-0.000295355103002
-0.000297680412119
-0.000191699200574
-0.000296303235627
-8.80329678158e-05
-0.000294091413418
-0.000266118227643
-0.000402869160378
0.00154122150868
-0.000849733216913
0.00170814362231
-0.00129472770796
0.00170161464214
-0.0017331110504
0.00167737623024
-0.0021626159975
0.00164474144635
-0.00258128773825
0.00160476956142
-0.00298736343807
0.00155815497142
-0.00337929690209
0.00150563451803
-0.00375575323056
0.00144798809451
-0.0041156275401
0.00138600521619
-0.0044580214484
0.0013204679741
-0.00478225193002
0.00125212313162
-0.00508781448512
0.00118167534275
-0.00537438844663
0.00110976725333
-0.00564179271299
0.00103698315763
-0.00588999294587
0.000963835853592
-0.00611905435065
0.000890778658157
-0.00632915435427
0.000818196360236
-0.00652053491013
0.000746422787725
-0.00669352230515
0.000675732985968
-0.0068484798713
0.000606363725958
-0.00698583515491
0.000538504702426
-0.00710603274359
0.000472320240517
-0.00720956813268
0.000407938133852
-0.0072969399145
0.000345471555382
-0.00736868935986
0.000285005003698
-0.00742535103684
0.000226616189491
-0.00746749708193
0.000170359086221
-0.0074956855627
0.000116285901578
-0.00751050866316
6.44276189541e-05
-0.00751253840735
1.48164391695e-05
-0.00750237799732
-3.25355504177e-05
-0.00748060463432
-7.76131570454e-05
-0.00744782404921
-0.000120421482322
-0.00740461068274
-0.000160961357764
-0.00735156487505
-0.000199253733259
-0.00728925043094
-0.000235314148224
-0.0072182545109
-0.000269178208455
-0.00713912299415
-0.000300874829516
-0.00705242281731
-0.000330452653967
-0.00695867548607
-0.000357952204177
-0.0068584216977
-0.000383433117725
-0.00675215331247
-0.000406945291459
-0.0066403799907
-0.000428556888851
-0.00652355998785
-0.00044832468984
-0.00640216854842
-0.000466322761473
-0.00627662783232
-0.000482612141123
-0.00614737669357
-0.000497270111352
-0.00601480008758
-0.000510359455518
-0.00587929988018
-0.000521958203499
-0.00574122404454
-0.000532128607975
-0.00560093803649
-0.000540947268432
-0.00545875412467
-0.000548474077463
-0.00531500289356
-0.000554782556118
-0.00516996302532
-0.00055992892966
-0.0050239323942
-0.000563982539958
-0.00487715864601
-0.000566995293272
-0.00472990939066
-0.000569031937534
-0.00458240392192
-0.00057014003355
-0.00443488194628
-0.00057037990638
-0.00428753681323
-0.000569795351777
-0.00414058229287
-0.000568443000634
-0.00399418770766
-0.000566363887902
-0.00384854224392
-0.00056361199443
-0.00370379239517
-0.000560226856506
-0.00356010339568
-0.000556261006675
-0.00341759940977
-0.000551753740869
-0.00327642167877
-0.00054675722561
-0.00313667187528
-0.000541311588247
-0.00299846666604
-0.000535469451671
-0.00286188464932
-0.000529272473819
-0.00272701705024
-0.000522774133453
-0.002593918591
-0.000516017878984
-0.00246265413653
-0.00050905800775
-0.00233325381475
-0.000501939547906
-0.00220575544494
-0.000494717137088
-0.002080164118
-0.000487436765972
-0.00195649032326
-0.000480152590265
-0.00183471415944
-0.000472910622273
-0.00171481908224
-0.000465763460245
-0.00159676079815
-0.000458755990615
-0.00148049660802
-0.00045193804129
-0.00136595899711
-0.000445352117945
-0.00125308053891
-0.000439044010164
-0.00114177205896
-0.000433052547983
-0.00103194307496
-0.000427418193536
-0.000923484384692
-0.000422174813841
-0.000816283917777
-0.000417356439955
-0.000710212825767
-0.000412990939221
-0.000605135425975
-0.000409106315851
-0.000500899437977
-0.000405728526599
-0.000397334045448
-0.00040288616065
-0.000294247193398
-0.000400619209956
-0.000191506683116
-0.000398902667721
-8.96545753679e-05
-0.000395803213394
-0.00035570108237
-0.000410863872575
0.00195193588369
-0.000866210184566
0.00216333169422
-0.00131946444479
0.00215470842619
-0.00176568893122
0.00212344097338
-0.00220248464774
0.00208137743114
-0.0026277886759
0.00202991400973
-0.00303976791234
0.00196997501277
-0.00343683134916
0.0019025387833
-0.00381763309625
0.00182863126655
-0.00418107518054
0.00174928881957
-0.0045262929902
0.0016655281349
-0.00485264510837
0.00157831781987
-0.00515968747961
0.00148856136129
-0.00544715754898
0.00139708137769
-0.00571494434226
0.00130461538538
-0.00596307315278
0.00121181072602
-0.00619167659564
0.00111922985876
-0.00640098359198
0.00102735202209
-0.00659129396004
0.000936583887607
-0.00676297309873
0.000847264057607
-0.00691643060446
0.000759675597899
-0.00705212043769
0.000674050441476
-0.00717052291803
0.000590581466646
-0.00727214933191
0.000509425161213
-0.00735752608628
0.00043071214705
-0.00742720247735
0.000354547458649
-0.00748173584558
0.000281019256464
-0.0075217013709
0.000210196865008
-0.00754767725276
0.000142138048023
-0.00756025574253
7.68852873172e-05
-0.00756002788058
1.44721681864e-05
-0.00754759515443
-4.50814492299e-05
-0.0075235535948
-0.00010176311088
-0.00748850608798
-0.000155573802953
-0.00744304576883
-0.000206521343699
-0.0073877690467
-0.000254626252168
-0.00732325826972
-0.000299915255681
-0.00725009546373
-0.000342427162355
-0.00716884463013
-0.000382206007356
-0.00708006622483
-0.000419306954497
-0.00698429918772
-0.000453789046916
-0.00688207619495
-0.000485721176115
-0.00677390562197
-0.000515174538492
-0.00666028754446
-0.000542228657673
-0.00654169568834
-0.000566963598051
-0.00641859413699
-0.000589466115644
-0.00629141942145
-0.000609821761443
-0.00616059782868
-0.000628121145589
-0.00602652763758
-0.000644451990913
-0.00588959691823
-0.000658905571412
-0.00575016603033
-0.000671568846844
-0.00560858574261
-0.000682531039719
-0.00546517996636
-0.000691875908699
-0.00532026403022
-0.000699688502325
-0.00517412773587
-0.000706047690242
-0.00502705356615
-0.000711033029558
-0.00487930001494
-0.000714717591196
-0.00473111953056
-0.000717174937371
-0.00458274219759
-0.000718472320316
-0.00443439318203
-0.000718677657853
-0.00428627673181
-0.000717853093268
-0.00413859294995
-0.000716061912239
-0.00399152222352
-0.000713362480084
-0.00384524114657
-0.000709814947398
-0.0036999074009
-0.000705475507446
-0.00355567474052
-0.000700402812609
-0.0034126784844
-0.000694652532911
-0.00327104948289
-0.000688283347745
-0.00313090029638
-0.000681351745659
-0.00299233815321
-0.000673917553402
-0.00285545198756
-0.000666038967259
-0.00272032439218
-0.000657777553769
-0.0025870195866
-0.000649193485532
-0.00245559442861
-0.000640350039262
-0.00232608744484
-0.000631309055036
-0.00219852893202
-0.000622134931548
-0.0020729310789
-0.000612890318435
-0.00194929721664
-0.000603639668849
-0.00182761310597
-0.000594445207079
-0.00170785533948
-0.00058537005953
-0.00158998377996
-0.00057647453317
-0.0014739491208
-0.0005678188751
-0.0013596864791
-0.000559459913014
-0.0012471220562
-0.000551453450091
-0.0011361677891
-0.000543851316241
-0.00102672708398
-0.000536703446974
-0.000918690552687
-0.000530055429106
-0.000811940461723
-0.000523950306779
-0.000706348171148
-0.00051842728482
-0.000601776949
-0.000513523169102
-0.000498078639963
-0.000509272439753
-0.000395102268305
-0.000505714706335
-0.000292697886304
-0.000502884324938
-0.000190769157228
-0.000500683570914
-8.98350323648e-05
-0.000496589571998
-0.00044546832183
-0.000421027816382
0.0023728144626
-0.000887394561485
0.00262953688053
-0.00135132029875
0.00261847413387
-0.00180762884962
0.00257958884419
-0.00225375729182
0.00252734577895
-0.00268751479294
0.00246351138564
-0.00310697999466
0.00238928031696
-0.00351051188157
0.00230591093845
-0.00389675289471
0.00221471282347
-0.00426462349486
0.00211700028456
-0.00461330559903
0.00201405153019
-0.00494222159199
0.00190707561281
-0.00525100683742
0.00179718905536
-0.00553948287426
0.00168540058668
-0.00580762784121
0.00157260443517
-0.00605555137333
0.00145957933128
-0.00628346868187
0.00134699347607
-0.00649168114868
0.00123541207872
-0.00668055638275
0.00112530829599
-0.00685051552409
0.00101707398576
-0.00700201923188
0.000911032070254
-0.00713556090195
0.000807446824903
-0.00725165725703
0.000706534905916
-0.00735084589644
0.000608473194115
-0.00743367881632
0.000513407249365
-0.00750072262803
0.000421456109799
-0.00755255344358
0.00033271809844
-0.00758975840307
0.000247272865681
-0.00761293083309
0.000165185115272
-0.00762267222105
8.65046762577e-05
-0.00761958712209
1.1269053188e-05
-0.00760428494755
-6.04979247624e-05
-0.00757737456174
-0.000128783410136
-0.00753946614482
-0.000193588095006
-0.00749116518881
-0.000254923439239
-0.00743307463682
-0.000312813588275
-0.00736578854501
-0.000367293042874
-0.00728989451222
-0.000418408246324
-0.00720596727262
-0.000466214892419
-0.00711457153467
-0.000510779400549
-0.00701625567205
-0.000552175889193
-0.00691155506961
-0.000590487556997
-0.00680098599937
-0.000625803372926
-0.00668504951141
-0.000658219442251
-0.00656422557739
-0.000687835524527
-0.006438977538
-0.000714756444838
-0.00630974652396
-0.000739088510108
-0.00617695642257
-0.000760941046043
-0.00604100859227
-0.000780422815114
-0.00590228729872
-0.000797643726575
-0.00576115468328
-0.000812711313345
-0.00561795657782
-0.000825732679019
-0.00547301769526
-0.000836811121726
-0.00532664772336
-0.000846048349617
-0.00517913665854
-0.000853541292502
-0.00503076103972
-0.000859384623201
-0.00488177935607
-0.000863667812623
-0.00473243828422
-0.000866477944744
-0.00458296807812
-0.000867897008757
-0.00443358865472
-0.00086800497904
-0.00428450491051
-0.000866877332875
-0.00413591253353
-0.000864588309126
-0.00398799320928
-0.000861208580778
-0.00384092005345
-0.000856808591424
-0.00369485273236
-0.000851456321578
-0.00354994246623
-0.00084522056928
-0.00340632712792
-0.000838168729675
-0.00326413579254
-0.000830369902898
-0.00312348392897
-0.000821892650157
-0.00298447751651
-0.000812807817183
-0.00284720846222
-0.000803186250584
-0.00271175831167
-0.000793101263507
-0.00257819402836
-0.000782626348024
-0.00244657134545
-0.000771837231861
-0.00231693102898
-0.000760809642088
-0.00218930190424
-0.000749620938028
-0.00206369768667
-0.000738348006945
-0.00194011972226
-0.000727068480335
-0.00181855443941
-0.00071585883494
-0.00169897582182
-0.000704795227989
-0.00158134347904
-0.00069395186822
-0.00146560486354
-0.000683401523089
-0.00135169391421
-0.000673214200359
-0.00123953301074
-0.000663457397796
-0.00112903208697
-0.00065419512374
-0.00102009034261
-0.000645487969011
-0.000912595816808
-0.000637392528605
-0.000806427131542
-0.000629961528584
-0.000701453366993
-0.000623243390507
-0.000597535847921
-0.00061728350901
-0.000494532170551
-0.00061212509142
-0.000392293553884
-0.000607805169865
-0.000290673076945
-0.000604353630941
-0.000189578339527
-0.000601635433019
-8.94594227386e-05
-0.000596566174525
-0.000534854602333
-0.000433626984388
0.00280629094969
-0.000913715480545
0.00310946655279
-0.00139090609546
0.00309550318516
-0.00185970431752
0.0030482264205
-0.00231734147562
0.0029848220092
-0.00276146868816
0.00290747790568
-0.00319005927938
0.00281771028854
-0.00360141787637
0.00271710900911
-0.00399418054943
0.00260731520923
-0.0043673020185
0.00248996164379
-0.00472003135102
0.00236662117579
-0.00505188153946
0.00223876646033
-0.00536259397881
0.0021077427916
-0.00565210325962
0.00197475174701
-0.00592050185381
0.00184084581292
-0.00616800912256
0.00170693025576
-0.00639494272241
0.00157377193498
-0.00660169584054
0.00144201127085
-0.00678871729979
0.00131217737317
-0.00695649729667
0.0011847031887
-0.00710555531826
0.00105994119613
-0.00723643268398
0.000938177285951
-0.00734968617458
0.00081964376703
-0.00744588505911
0.000704529848476
-0.00752560812422
0.000592990730934
-0.00758944299952
0.000485154218302
-0.00763798465904
0.000381126016694
-0.00767183540639
0.000280993088298
-0.00769160352772
0.000184826101904
-0.0076979029838
9.26806267417e-05
-0.00769135189399
4.59822057456e-06
-0.00767257123454
-7.93943044125e-05
-0.00764218272931
-0.000159283515842
-0.00760080763705
-0.000235070386274
-0.0075490640512
-0.000306769769371
-0.00748756530462
-0.000374410334452
-0.00741691730426
-0.00043803427874
-0.00733771693855
-0.000497696764781
-0.00725054957197
-0.000553465338894
-0.00715598766422
-0.000605418991748
-0.007054588575
-0.000653647305448
-0.00694689352707
-0.00069824922651
-0.00683342583724
-0.000739332046134
-0.00671469029413
-0.000777009979467
-0.00659117184569
-0.000811403073695
-0.00646333541346
-0.000842635710097
-0.00633162505969
-0.00087083555274
-0.00619646422168
-0.000896132054301
-0.00605825531889
-0.00091865552328
-0.00591738036573
-0.00093853572486
-0.00577420099
-0.000955901159534
-0.00562905935379
-0.000970877818132
-0.00548227849655
-0.000983588736749
-0.00533416347025
-0.000994152980016
-0.00518500193006
-0.00100268554843
-0.00503506535836
-0.0010092966235
-0.00488460977049
-0.00101409185861
-0.00473387689002
-0.00101717191026
-0.00458309486388
-0.00101863312431
-0.00443247924568
-0.00101856731148
-0.00428223359374
-0.00101706276994
-0.00413255015103
-0.00101420424092
-0.00398361026628
-0.0010100741789
-0.00383558469858
-0.00100475276737
-0.00368863381828
-0.000998319296965
-0.00354290753413
-0.000990852135879
-0.00339854530815
-0.000982430081873
-0.00325567575537
-0.000973132179782
-0.00311441651526
-0.000963038913457
-0.00297487363629
-0.000952231827289
-0.00283714138479
-0.000940794466975
-0.00270130154611
-0.000928811794577
-0.00256742322248
-0.000916370815125
-0.00243556220147
-0.000903559838632
-0.00230576079763
-0.000890468774417
-0.00217804741523
-0.000877188310412
-0.00205243644514
-0.000863809883572
-0.00192892812594
-0.000850424870275
-0.0018075085131
-0.000837124275703
-0.00168814968618
-0.000823998012801
-0.00157080977478
-0.00081113437155
-0.0014554335133
-0.000798619455476
-0.00134195230695
-0.000786536512064
-0.00123028508769
-0.000774965563278
-0.00112033836705
-0.000763982684556
-0.00101200740148
-0.000753659877952
-0.000905176387507
-0.000744064392212
-0.000799719724393
-0.000735258789771
-0.000695503540357
-0.000727300906315
-0.000592387015971
-0.000720243307033
-0.000490221936552
-0.000714132902821
-0.000388861366633
-0.000709015545194
-0.00028815839062
-0.000704916391699
-0.0001879907357
-0.000701652717947
-8.87716121847e-05
-0.00069563507032
-0.000623558068268
-0.00044893752149
0.00325507845411
-0.000945711429157
0.00360607779658
-0.00143899347498
0.00358862428826
-0.00192288908176
0.0035319602607
-0.0023943667853
0.00345613843113
-0.00285088599027
0.00336383569657
-0.0032902968496
0.00325695976492
-0.00371084858118
0.00313749941815
-0.0041111833097
0.0030074886445
-0.00449031302989
0.00286893028737
-0.00484758429433
0.00272373152788
-0.00518263487619
0.00257365654149
-0.00549534763049
0.00242029542603
-0.00578580440457
0.00226504905392
-0.00605424351556
0.00210912611554
-0.00630102179613
0.00195355067413
-0.00652658279959
0.00179917607397
-0.00673143080312
0.00164670368619
-0.00691611082557
0.00149670318257
-0.00708119374583
0.00134963353612
-0.00722726597608
0.00120586264134
-0.00735492282382
0.00106568536663
-0.00746476460392
0.000929338991542
-0.00755739502052
0.000797016118575
-0.00763342065042
0.000668874861013
-0.00769345156285
0.000545046425501
-0.00773810175342
0.000425640572386
-0.0077679900314
0.000310748908788
-0.00778373991663
0.000200447019546
-0.00778597974872
9.47950528472e-05
-0.00777534175012
-6.16127832247e-06
-0.00775246108633
-0.000102392530708
-0.00771797339824
-0.000193884451073
-0.00767251395043
-0.000280638797569
-0.00761671460864
-0.000362673396674
-0.00755120220076
-0.000440022416334
-0.00747659555299
-0.000512735569999
-0.00739350390806
-0.000580878132211
-0.00730252403372
-0.000644529574507
-0.00720423896359
-0.000703783200091
-0.00709921538978
-0.000758744333367
-0.00698800287646
-0.000809529687876
-0.00687113164263
-0.00085626524265
-0.00674911231925
-0.000899085484887
-0.00662243417566
-0.000938131120424
-0.00649156543896
-0.000973548314689
-0.00635695195514
-0.00100548635363
-0.00621901805094
-0.00103409699615
-0.00607816560446
-0.00105953219384
-0.00593477540912
-0.00108194364345
-0.0057892065914
-0.00110148064887
-0.00564179841078
-0.00111828996512
-0.00549286994848
-0.00113251389359
-0.00534272225073
-0.00114429049689
-0.00519163816889
-0.00115375199738
-0.00503988471707
-0.00116102543419
-0.00488771292696
-0.00116623141913
-0.00473536026726
-0.00116948526154
-0.00458305035593
-0.00117089607623
-0.00443099528029
-0.00117056835043
-0.00427939503644
-0.00116860134775
-0.00412843961357
-0.00116509101951
-0.00397830807079
-0.00116012958206
-0.00382917029272
-0.00115380762788
-0.00368118569588
-0.00114621373125
-0.00353450462419
-0.00113743658139
-0.00338926674594
-0.00112756446888
-0.00324560211166
-0.00111668727615
-0.00310362937585
-0.00110489574574
-0.00296345658014
-0.00109228319004
-0.00282517936211
-0.00107894450506
-0.00268888154109
-0.00106497751104
-0.00255463348357
-0.00105048174614
-0.00242249257006
-0.00103555939118
-0.0022925018605
-0.00102031392964
-0.00216469050605
-0.00100485064933
-0.00203907281325
-0.000989275286287
-0.00191564865254
-0.000973694129654
-0.00179440297364
-0.000958212766575
-0.00167530624146
-0.000942935849076
-0.00155831439553
-0.000927966040651
-0.00144336932751
-0.000913403529939
-0.00133039922283
-0.000899345244916
-0.00121931908621
-0.000885884215801
-0.00111003137218
-0.000873109091028
-0.00100242661024
-0.000861103437871
-0.000896384340775
-0.000849945584329
-0.000791774262898
-0.000839708044612
-0.000688457232673
-0.000830457148639
-0.000586286798325
-0.000822253554013
-0.000485114165263
-0.000815152481705
-0.000384782323016
-0.000809196926538
-0.000285130379376
-0.000804413848452
-0.000186034748287
-0.000800604109136
-8.78710795365e-05
-0.000793655488868
-0.000711355113667
-0.000467300608359
0.00372222758045
-0.00098406217027
0.00412267986044
-0.00149657195931
0.00410097148343
-0.00199842547727
0.00403365209802
-0.0024862670347
0.00394381783744
-0.00295732358592
0.00383473019055
-0.00340930632545
0.00370878033371
-0.00384041386427
0.00356844467777
-0.00424931608004
0.00341622861703
-0.00463511693961
0.00325456885469
-0.00499730229199
0.00308575479956
-0.005335680586
0.00291187287875
-0.0056503210315
0.00273477435287
-0.00594149541772
0.00255606230198
-0.00620962509873
0.00237709538035
-0.0064552366253
0.00219900248935
-0.00667892502957
0.0020227058178
-0.0068813261863
0.00184894726757
-0.00706309600897
0.00167831684849
-0.00722489684725
0.00151127972034
-0.00736738865986
0.00134820160656
-0.00749122492017
0.00118937072528
-0.00759705121287
0.00103501659245
-0.00768550629166
0.000885324903532
-0.00775722414632
0.000740449034069
-0.0078128367154
0.000600518164222
-0.00785297648512
0.000465642524783
-0.0078782785278
0.000335916420563
-0.0078893819333
0.000211419295981
-0.00788693014508
9.22158653111e-05
-0.00787157054952
-2.16444752735e-05
-0.00784395393187
-0.000130128590537
-0.00780473231105
-0.00023322134319
-0.00775455675158
-0.00033092507656
-0.00769407541076
-0.000423260944649
-0.00762393060306
-0.000510268516421
-0.00754475666226
-0.000592005967753
-0.0074571769794