/*--------------------------------*- C++ -*----------------------------------*\
| =========                 |                                                 |
| \\      /  F ield         | OpenFOAM: The Open Source CFD Toolbox           |
|  \\    /   O peration     | Version:  v1906                                 |
|   \\  /    A nd           | Web:      www.OpenFOAM.com                      |
|    \\/     M anipulation  |                                                 |
\*---------------------------------------------------------------------------*/
FoamFile
{
    version     2.0;
    format      ascii;
    class       surfaceScalarField;
    location    "202";
    object      phi;
}
// * * * * * * * * * * * * * * * * * * * * * * * * * * * * * * * * * * * * * //

dimensions      [0 3 -1 0 0 0 0];
oriented        oriented;


internalField   nonuniform List<scalar> 
18240
(
0.0119448548711
-0.0119448565277
0.0244857025192
-0.0125408498693
0.0369774296847
-0.0124917286403
0.0493302384042
-0.0123528109838
0.061491498444
-0.0121612612901
0.0734144762945
-0.0119229801619
0.0850563500781
-0.011641874821
0.096377903862
-0.011321556126
0.10734362287
-0.0109657198422
0.117921831061
-0.0105782105488
0.128084814791
-0.0101629843694
0.137808862642
-0.00972405021041
0.147074259451
-0.00926539726899
0.155865191953
-0.00879093485298
0.164169622527
-0.00830443086513
0.171979089419
-0.00780946922602
0.179288496759
-0.0073094074798
0.186095848932
-0.00680735448159
0.192401995784
-0.00630614685308
0.198210338123
-0.00580834461456
0.203526561278
-0.00531622303282
0.208358340984
-0.00483178194218
0.212715089713
-0.00435674849563
0.216607683061
-0.00389259553965
0.220048234328
-0.00344055093636
0.223049853114
-0.00300162092723
0.225626456059
-0.00257660252535
0.227792562833
-0.00216610886054
0.229563145799
-0.00177058247078
0.230953465374
-0.0013903216024
0.231978961942
-0.00102549600369
0.232655142749
-0.000676182771906
0.232997557436
-0.000342414065281
0.233021952175
-2.43966351522e-05
0.232743430847
0.000278522007856
0.232176256515
0.000567172508072
0.231334643857
0.000841613379707
0.230232593292
0.00110204881103
0.228883774552
0.00134881949967
0.227301452683
0.00158232018773
0.225498474653
0.00180297881842
0.223487235178
0.00201123786788
0.221279683302
0.00220755268933
0.218887301425
0.00239238034581
0.216321120631
0.00256618162525
0.213591707019
0.00272941215702
0.210709182132
0.00288252573304
0.207683214103
0.0030259666518
0.204523041183
0.00316017377408
0.201237466131
0.00328557375341
0.197834881437
0.00340258555341
0.194323265846
0.00351161437033
0.190710210281
0.00361305642549
0.187002915702
0.00370729343607
0.183208219023
0.0037946975373
0.179332591761
0.00387562619699
0.175382165453
0.00395042715809
0.17136273075
0.00401943371622
0.167279761995
0.00408296959632
0.163138416547
0.00414134453761
0.158943558333
0.00419485904174
0.154699757275
0.00424380022342
0.150411311706
0.00428844638133
0.146082247858
0.00432906308897
0.141716341095
0.00436590755487
0.137317115475
0.00439922493541
0.132887863787
0.00442925245849
0.128431647227
0.0044562159505
0.123951314266
0.00448033370698
0.119449500501
0.00450181322897
0.114928646393
0.00452085482809
0.110390997357
0.00453764857371
0.105838620423
0.00455237762549
0.10127340464
0.00456521539348
0.0966970767093
0.00457632859264
0.0921112017692
0.00458587462146
0.0875171980631
0.0045940043358
0.0829163381637
0.00460085965077
0.0783097627275
0.00460657603056
0.0736984822277
0.00461128031873
0.0690833898432
0.00461509293943
0.0644652637723
0.00461812595473
0.0598447793231
0.0046204849614
0.0552225119174
0.00462226735298
0.0505989485367
0.00462356384878
0.0459744917182
0.00462445683151
0.0413494709502
0.00462502119528
0.0367241490186
0.00462532201571
0.0320987365944
0.00462541281517
0.0274734091901
0.0046253275555
0.0228483473002
0.00462506223385
0.0182238248775
0.00462452262621
0.0136004818252
0.00462334331711
0.00897998741999
0.00462049469541
0.00437520288065
0.00460478484973
0.00437520303579
0.0126155676326
-0.0245604260216
0.0260058099693
-0.0259310942993
0.03930180964
-0.0257877301349
0.0524371723506
-0.0254881756986
0.0653636559311
-0.0250877465768
0.0780342738549
-0.0245936000281
0.0904043483367
-0.0240119508897
0.102432460691
-0.0233496703573
0.114080955408
-0.0226142160245
0.125316227057
-0.021813484004
0.136108887975
-0.0209556466336
0.146433829824
-0.0200489937914
0.156270209992
-0.0191017786659
0.165601355909
-0.0181220824275
0.174414617096
-0.0171176931705
0.182701156441
-0.0160960101526
0.1904557125
-0.0150639645524
0.197676322337
-0.0140279658258
0.20436403687
-0.0129938623008
0.210522615098
-0.0119669242762
0.216158228116
-0.0109518368729
0.221279155704
-0.00995271089174
0.225895504859
-0.00897309838665
0.230018929732
-0.00801602170348
0.233662380829
-0.00708400268792
0.236839860215
-0.00617910153501
0.239566209369
-0.00530295225787
0.241856904359
-0.0044568050041
0.24372788396
-0.00364156257883
0.245195383307
-0.00285782203573
0.246275795681
-0.00210590881859
0.246985525301
-0.00138591341352
0.247340822707
-0.00069771184722
0.247357349673
-4.09245486989e-05
0.247051012036
0.000584859344462
0.246438084242
0.0011800994251
0.245534161235
0.00174553614204
0.244354278144
0.00228193108687
0.242913004712
0.00279009273766
0.241224445861
0.00327087828192
0.239302239589
0.00372518494397
0.237159541365
0.00415393539233
0.234809023637
0.00455807031515
0.232262866352
0.00493853698779
0.229532763101
0.00529628481632
0.226629918014
0.00563225665582
0.223565057102
0.00594738662228
0.220348429747
0.00624259347283
0.216989823467
0.00651878006806
0.213498568445
0.00677682829283
0.209883554341
0.0070175997054
0.206153236676
0.00724193160323
0.20231565468
0.00745063850182
0.198378438691
0.00764450904155
0.194348828317
0.00782430802007
0.190233680271
0.00799077390674
0.186039486348
0.00814462121666
0.181772381317
0.00828653845718
0.177438160389
0.00841719068379
0.173042286933
0.00853721774827
0.168589909238
0.00864723691805
0.164085867925
0.00874784133248
0.159534711907
0.00883960259969
0.154940705438
0.00892306939529
0.150307843235
0.00899876997612
0.14563985717
0.00906721087766
0.140940230559
0.00912887930338
0.136212204531
0.00918424189326
0.131458791524
0.0092337469619
0.126682781381
0.00927782332311
0.12188675411
0.00931688236041
0.11707308577
0.00935131690142
0.112243960555
0.00938150311221
0.10740137655
0.00940779942114
0.10254715719
0.00943054823396
0.0976829569565
0.00945007491073
0.09281027228
0.00946668930143
0.0879304472362
0.00948068478169
0.0830446839512
0.00949233960948
0.0781540483612
0.00950191602426
0.0732594801736
0.00950966142215
0.0683617987532
0.00951580751581
0.063461712697
0.0095205713108
0.0585598259185
0.0095241542954
0.0536566469122
0.00952674314581
0.0487525951254
0.00952850880754
0.04384800997
0.00952960664299
0.0389431573617
0.00953017484341
0.0340382375536
0.00953033292185
0.0291333878976
0.00953017746312
0.0242286746075
0.00952977580439
0.0193240400383
0.00952915744405
0.0144190884598
0.00952829518883
0.00951273410266
0.00952684934845
0.00460768239948
0.00950983688025
0.00898288564193
0.0127557627318
-0.0373161906913
0.026251812516
-0.0394271461141
0.0396671718129
-0.0392030913854
0.0529211131398
-0.0387421189761
0.0659615450538
-0.038128180341
0.0787398607089
-0.0373719175505
0.0912104443269
-0.0364825362551
0.103331200946
-0.0354704287543
0.115063976414
-0.034346993136
0.126374835562
-0.0331243448371
0.137234223532
-0.0318150361431
0.147617021544
-0.0304317933944
0.157502516073
-0.0289872746322
0.166874288265
-0.0274938561172
0.175720042394
-0.0259634486364
0.1840313797
-0.0244073488665
0.191803536587
-0.0228361226806
0.199035091967
-0.0212595225262
0.205727661394
-0.0196864328774
0.211885580029
-0.0181248441473
0.217515589768
-0.0165818476749
0.222626529435
-0.0150636517129
0.227229040866
-0.0135756107978
0.231335286906
-0.0121222688209
0.234958691948
-0.0107074086312
0.238113698712
-0.00933410930172
0.240815550249
-0.00800480462061
0.243080089147
-0.00672134483236
0.244923581734
-0.00548505592118
0.246362557998
-0.00429679916066
0.247413674052
-0.00315702555856
0.248093587564
-0.00206582772062
0.248418856414
-0.0010229813174
0.248405913619
-2.79824672739e-05
0.248070877634
0.000919894800221
0.247429541263
0.00182143515834
0.246497382101
0.00267769483294
0.245289470261
0.00348984234726
0.243820433601
0.00425912898152
0.242104435658
0.00498687569994
0.240155162816
0.00567445742175
0.237985812052
0.00632328568454
0.235609086899
0.00693479515345
0.233037193274
0.00751043019329
0.230281842499
0.00805163532367
0.227354253284
0.0085598455
0.224265159803
0.00903647988067
0.221024817922
0.00948293503097
0.21764301662
0.00990058118972
0.21412908694
0.0102907576958
0.210491915412
0.0106547710944
0.206739954596
0.0109938921861
0.202881237538
0.0113093554587
0.198923389091
0.0116023572972
0.194873640716
0.0118740563317
0.190738842016
0.0121255724552
0.186525475426
0.0123579877765
0.182239667594
0.0125723461757
0.177887203653
0.012769654628
0.173473538226
0.0129508830983
0.169003809114
0.0131169660632
0.164482847802
0.0132688026011
0.159915192476
0.0134072579869
0.155305097985
0.0135331638762
0.150656548161
0.0136473198879
0.145973265245
0.0137504938133
0.141258721534
0.0138434231272
0.136516148298
0.0139268151791
0.131748546798
0.0140013485974
0.126958696762
0.0140676734361
0.122149166829
0.0141264124513
0.117322322643
0.0141781611924
0.112480336792
0.0142234891414
0.107625196598
0.0142629397455
0.102758713612
0.0142970314176
0.0978825311635
0.0143262575138
0.0929981334811
0.0143510871989
0.0881068530636
0.0143719653754
0.0832098794851
0.0143893134178
0.0783082666446
0.0144035290598
0.0734029413067
0.0144149870011
0.0684947102805
0.0144240387526
0.0635842687347
0.0144310131058
0.0586722073367
0.0144362159175
0.0537590203406
0.0144399303989
0.0488451126215
0.0144424167663
0.0439308073039
0.0144439122295
0.0390163520585
0.0144446303501
0.034101924659
0.0144447606053
0.0291876346462
0.0144444677531
0.0242735178669
0.0144438928779
0.0193595155808
0.0144431600008
0.0144454307946
0.0144423802349
0.00953114915787
0.0144411313164
0.00462405101162
0.0144169353897
0.0136069368172
0.0129136013387
-0.050229793992
0.0265633955742
-0.0530769424335
0.0401323532923
-0.052772051083
0.0535354812971
-0.0521452489404
0.0667180518589
-0.0513107527932
0.0796295915269
-0.0502834590813
0.0922231066247
-0.0490760531476
0.104455478038
-0.0477028019342
0.116287829617
-0.0461793464099
0.127685784575
-0.0445223014627
0.138619607614
-0.0427488607757
0.149064239665
-0.0408764270157
0.158999239114
-0.0389222755739
0.168408641487
-0.0369032599621
0.177280753979
-0.0348355625246
0.185607897326
-0.0327344935912
0.193386110905
-0.0306143375611
0.200614831764
-0.0284882446724
0.207296561076
-0.0263681633994
0.213436525576
-0.0242648098475
0.219042344306
-0.0221876675293
0.224123704819
-0.0201450133423
0.228692056086
-0.0181439631066
0.23276031926
-0.0161905330312
0.236342621034
-0.0142897113677
0.239454048466
-0.0124455376939
0.242110428211
-0.0106611852536
0.244328127478
-0.00893904498439
0.246123878491
-0.00728080775053
0.247514622907
-0.0056875443919
0.248517377472
-0.00415978087019
0.249149117925
-0.00269756892165
0.249426682576
-0.00130054664655
0.249366734855
3.19645942915e-05
0.248985585782
0.00130104329821
0.248299175149
0.00250784521305
0.247323078842
0.00365379062474
0.246072452474
0.00474046819376
0.244561994194
0.00576958680134
0.242805921863
0.00674294756383
0.24081795945
0.00766241942707
0.238611327854
0.00852991686593
0.236198741449
0.00934738119987
0.233592407199
0.0101167640781
0.23080402807
0.0108400141429
0.227844807878
0.0115190653755
0.224725459414
0.0121558280805
0.221456213132
0.0127521810418
0.21804682829
0.0133099658116
0.214506604024
0.0138309817345
0.210844392256
0.0143169826843
0.20706861008
0.0147696741767
0.203187253521
0.0151907118792
0.199207910468
0.0155817002051
0.195137774663
0.0159441920368
0.190983658657
0.0162796883547
0.186752007604
0.0165896387644
0.182448911916
0.0168754417931
0.178080120592
0.0171384459217
0.173651053369
0.0173799502843
0.169166813454
0.0176012059794
0.164632199067
0.0178034169832
0.160051715506
0.0179877415794
0.155429586057
0.0181552933511
0.150769763385
0.0183071426192
0.14607593983
0.0184443174224
0.141351558154
0.0185678048896
0.136599821262
0.0186785521516
0.131823702369
0.0187774676017
0.127025954208
0.0188654217047
0.122209118672
0.0189432481223
0.117375535592
0.0190117444039
0.112527351927
0.0190716729649
0.107666530171
0.0191237616571
0.102794857167
0.0191687046009
0.0979139522193
0.0192071626382
0.0930252755913
0.0192397640256
0.0881301363838
0.0192671047797
0.083229700777
0.0192897492401
0.0783249997327
0.0193082303174
0.0734169370271
0.0193230499356
0.0685062968158
0.0193346791904
0.0635937514858
0.0193435586752
0.0586798690928
0.019350098548
0.0537651209987
0.0193546787423
0.0488498890726
0.0193576489432
0.0439344728668
0.0193593286996
0.0390190960562
0.0193600074297
0.0341039121495
0.0193599447952
0.0291890084688
0.0193593717232
0.0242744081444
0.0193584934771
0.0193600716293
0.0193574967884
0.0144459123371
0.0193565398382
0.00953209511582
0.0193549488425
0.00462666328478
0.0193223675543
0.0182336002947
0.0131210165568
-0.0633508125448
0.0269842966995
-0.066940224629
0.0407626135738
-0.0665503699854
0.0543676429274
-0.0657502802645
0.0677420295209
-0.0646851413136
0.0808330603433
-0.063374491782
0.0935919306813
-0.0618349253129
0.105974135169
-0.0600850082025
0.117939822359
-0.0581450353261
0.129454032824
-0.056036513607
0.140486815316
-0.0537816448925
0.151013228186
-0.0514028414636
0.161013239835
-0.0489222887469
0.170471543701
-0.0463615653063
0.179377305306
-0.0437413255555
0.187723857676
-0.0410810473422
0.195508361498
-0.0383988427132
0.202731443716
-0.03571132818
0.20939682747
-0.0330335483914
0.215510963043
-0.0303789466197
0.221082668703
-0.0277593743411
0.226122787065
-0.0251851328186
0.23064386219
-0.0226650392993
0.234659839821
-0.0202065116949
0.238185793164
-0.0178156656986
0.241237674292
-0.0154974197761
0.243832091735
-0.0132556036083
0.245986112891
-0.0110930670195
0.247717090761
-0.00901178645921
0.249042512921
-0.00701296736058
0.249979871896
-0.00509714061335
0.250546555045
-0.00326425280967
0.250759751826
-0.00151374412373
0.25063638102
0.000155334758152
0.250192999673
0.00174442406492
0.249445775137
0.00325506919237
0.248410444964
0.0046891202757
0.247102287505
0.00604862515346
0.245536094111
0.00733577972932
0.243726150841
0.00855289038705
0.241686227674
0.00970234218036
0.239429572745
0.0107865714006
0.236968911233
0.011808042348
0.234316447447
0.0127692275187
0.231483870105
0.0136725911692
0.228482359633
0.0145205755495
0.225322597643
0.0153155898011
0.222014777571
0.0160600008608
0.218568616744
0.0167561264126
0.214993368982
0.0174062292868
0.21129783808
0.0180125134028
0.207490391376
0.0185771207123
0.203578973826
0.0191021292858
0.199571121859
0.0195895520424
0.195473977457
0.0200413363335
0.191294301837
0.0204593638824
0.187038489192
0.0208454513402
0.182712579904
0.021201351024
0.178322273722
0.0215287520693
0.17387294235
0.0218292816323
0.169369641953
0.0221045063744
0.164817125049
0.0223559338949
0.160219852303
0.0225850143526
0.155582003724
0.0227931419675
0.150907489753
0.0229816566452
0.146199961802
0.0231518454391
0.141462822684
0.0233049440902
0.136699236547
0.0234421383804
0.131912138722
0.0235645655347
0.127104245116
0.0236733154272
0.122278061554
0.023769431817
0.11743589271
0.0238539133888
0.112579851018
0.0239277148133
0.107711865219
0.0239917476198
0.102833688914
0.0240468810826
0.0979469088044
0.024093942933
0.0930529529449
0.0241337200824
0.0881530987415
0.0241669591868
0.0832484809778
0.0241943672182
0.0783400996121
0.0242166119027
0.0734288276195
0.0242343221565
0.0685154186377
0.0242480884044
0.0636005146448
0.0242584629073
0.0586846534542
0.0242659599812
0.0537682762082
0.0242710562381
0.0488517346504
0.0242741907564
0.0439352982856
0.0242757653292
0.0390191612044
0.0242761447858
0.0341034486294
0.0242756576524
0.0291882232024
0.0242745974353
0.0242734918722
0.0242732251065
0.0193592162118
0.0242717727277
0.0144453392477
0.0242704170593
0.0095320601616
0.0242682282671
0.00462740518967
0.0242270228977
0.0228610056502
0.0133834905351
-0.0767343050998
0.0275208545226
-0.081077590761
0.0415671379526
-0.0805966554568
0.0554298668021
-0.0796130111251
0.069048538227
-0.0783038146905
0.082367704449
-0.0766936599121
0.0953363027733
-0.0748035254915
0.107908088709
-0.0726567959451
0.120041998912
-0.0702789472813
0.131702374438
-0.0676968908362
0.142859044205
-0.0649383163075
0.153487280206
-0.0620310790653
0.16356764189
-0.0590026519752
0.173085729513
-0.0558796544282
0.182031867407
-0.0526874648939
0.190400737023
-0.0494499183576
0.198190978325
-0.0461890853633
0.205404775391
-0.0429251265498
0.212047439879
-0.0396762141333
0.21812700297
-0.0364585109239
0.223653824259
-0.0332861967954
0.22864022336
-0.0301715330462
0.233100138433
-0.0271249554522
0.237048813725
-0.0241551880298
0.240502517331
-0.021269370304
0.243478288873
-0.0184731922807
0.245993716456
-0.0157710321124
0.248066741293
-0.0131660927438
0.249715488416
-0.0106605344296
0.250958121327
-0.00825560108561
0.251812718687
-0.00595173874977
0.252297170836
-0.00374870570303
0.252429091726
-0.00164566571257
0.252225730935
0.000358694913337
0.251703952922
0.00226620150425
0.250880175017
0.00407884655066
0.24977033068
0.00579896409727
0.248389847759
0.00742910758511
0.24675362912
0.00897199790836
0.244876040308
0.0104304787619
0.242770903295
0.0118074787862
0.240451494874
0.0131059794364
0.237930549037
0.0143289878265
0.235220262378
0.0154795138413
0.232332302103
0.016560551134
0.229277815936
0.0175750614264
0.226067443669
0.0185259618038
0.222711329786
0.0194161144989
0.219219137049
0.0202483189284
0.215600060581
0.0210253055524
0.211862842419
0.0217497313859
0.208015786165
0.0224241768045
0.204066771782
0.0230511435297
0.200023270204
0.0236330534979
0.195892357899
0.0241722485369
0.19168073106
0.0246709906355
0.187394719612
0.0251314627227
0.183040300778
0.0255557698077
0.178623112366
0.025945940449
0.17414846559
0.0263039283909
0.169621357572
0.0266316143921
0.165046483381
0.0269308080998
0.160428247752
0.0272032500119
0.15577077636
0.0274506134029
0.151077926796
0.0276745062668
0.146353299135
0.0278764731705
0.141600246231
0.0280579970789
0.136821883649
0.0282205010591
0.132021099366
0.0283653499283
0.127200563149
0.028493851766
0.122362735745
0.0286072593561
0.11750987779
0.0287067714884
0.112644058575
0.028793534186
0.107767164566
0.0288686417966
0.102880907822
0.0289331380066
0.0979868342036
0.0289880167399
0.0930863315124
0.0290342229728
0.0881806374605
0.0290726534463
0.0832708475807
0.0291041573144
0.0783579230152
0.0291295366914
0.0734426982515
0.0291495471505
0.0685258887565
0.029164898135
0.0636080985707
0.0291762533341
0.0586898278056
0.0291842309921
0.0537714800911
0.0291894042042
0.048853369916
0.0291923011899
0.0439357298993
0.0291934056133
0.0390187179673
0.0291931569936
0.0341024245723
0.0291919513348
0.0291868802173
0.0291901420866
0.0242720640669
0.0291880415324
0.0193579155217
0.0291859215503
0.0144443574861
0.0291839754188
0.00953154551026
0.0291810405482
0.00462739700789
0.0291311717328
0.0274884028568
0.0137055539445
-0.09043986111
0.0281803458064
-0.0955523847367
0.0425562929562
-0.0949726047068
0.0567355491494
-0.0937922693523
0.0706536816833
-0.0922219492176
0.0842518810928
-0.0902918612593
0.0974763261219
-0.0880279724097
0.110278668206
-0.0854591398635
0.122616408659
-0.082616689518
0.134453103559
-0.0795335874654
0.145758403131
-0.0762436175561
0.156507944042
-0.0727806215978
0.166683118281
-0.0691778277855
0.176270744509
-0.0654672821735
0.185262667849
-0.0616793897028
0.193655312368
-0.057842564292
0.201449207805
-0.0539829821692
0.208648508736
-0.0501244287983
0.21526052082
-0.0462882274907
0.22129524536
-0.0424932366892
0.226764950272
-0.0387559028896
0.231683772802
-0.0350903567119
0.236067357134
-0.0315085408799
0.239932528139
-0.0280203600853
0.243297001159
-0.0246338443371
0.246179126701
-0.0213553187927
0.248597668172
-0.0181895745164
0.250571610374
-0.015140035839
0.252119996212
-0.0122089211249
0.253261788976
-0.00939739466817
0.254015757584
-0.00670570814279
0.254400382104
-0.004133330971
0.254433774356
-0.00167905866524
0.254133565455
0.0006589031871
0.253516984088
0.00288278230496
0.252600727336
0.00499510276594
0.251400948224
0.00699874270119
0.249933242635
0.00889681269454
0.248212637198
0.0106926028923
0.246253583456
0.0123895320775
0.24406995716
0.0139911046803
0.241675061622
0.0155008745985
0.239081634383
0.0169224147142
0.236301856487
0.01825929141
0.233347363823
0.0195150434932
0.230229260009
0.0206931649595
0.226958130451
0.021797091102
0.223544057216
0.0228301874974
0.219996634455
0.0237957414737
0.216324984133
0.0246969556801
0.212537771894
0.02553694345
0.208643222888
0.0263187256565
0.204649137458
0.0270452288247
0.200562906574
0.0277192842664
0.196391526961
0.0283436280528
0.192141615842
0.0289209016757
0.187819425286
0.0294536532164
0.183430856111
0.0299443389384
0.178981471346
0.0303953251856
0.174476509236
0.0308088904888
0.169920895807
0.031187227825
0.165319256976
0.0315324469494
0.160675930256
0.031846576766
0.155994976027
0.0321315676791
0.151280188447
0.0323892939083
0.146535105969
0.0326215557241
0.141763021534
0.0328300816014
0.136966992438
0.0330165302564
0.132149849903
0.0331824925762
0.127314208381
0.0333294934143
0.122462474606
0.0334589932681
0.117596856433
0.033572389811
0.112719371459
0.0336710193203
0.107831855477
0.0337561579495
0.102935970765
0.0338290229014
0.0980332142259
0.0338907734707
0.0931249254176
0.0339425119828
0.0882122944533
0.0339852846213
0.0832963698228
0.0340200821636
0.0783780661189
0.0340478406215
0.0734581716982
0.0340694418038
0.0685373562704
0.034085713801
0.0636161784363
0.0340974314117
0.0586950931644
0.0341053165123
0.0537744592272
0.0341100383956
0.0488545465876
0.0341122140903
0.0439355437719
0.0341124086982
0.0390175652665
0.0341111357795
0.0341006590615
0.0341088578261
0.0291848145849
0.0341059868518
0.0242699714735
0.0341028849511
0.0193560299266
0.0340998633818
0.0144428693933
0.0340971362063
0.00953058479423
0.0340933254934
0.00462700154453
0.034034755362
0.0321154045674
0.0140919373385
-0.104531800545
0.0289717979263
-0.110432247556
0.0437432247436
-0.109744033642
0.0583016311364
-0.108350677833
0.0725777211146
-0.106498041221
0.086508587696
-0.104222729819
0.100037092082
-0.101556478718
0.113112400256
-0.0985344499085
0.125690371457
-0.0951946625321
0.137733733629
-0.0915769513992
0.149212060613
-0.087721946243
0.160101578492
-0.083670141128
0.170384833726
-0.0794610846138
0.180050257027
-0.0751327070178
0.189091655798
-0.0707207899615
0.1975076647
-0.0662585746331
0.205301179708
-0.0617764985622
0.212478796138
-0.0573020465672
0.219050266477
-0.0528596991168
0.225027989319
-0.048470960775
0.230426536988
-0.0441544517515
0.235262226109
-0.0399260469851
0.239552732955
-0.0357990488317
0.243316753339
-0.0317843815345
0.246573705546
-0.027890797564
0.249343473732
-0.0241250879619
0.251646188754
-0.0204922904781
0.253502042958
-0.0169958909455
0.254931135537
-0.0136380145667
0.255953345029
-0.0104196049878
0.256588225896
-0.00734058979887
0.256854926004
-0.00440003183356
0.256772121316
-0.00159625467389
0.256357864127
0.00107315975684
0.255629794406
0.00361085146966
0.254604913034
0.00601998361011
0.253299609684
0.00830404555304
0.251729659649
0.0104667622587
0.249910219162
0.0125120429353
0.24785582669
0.0144439241312
0.245580408621
0.0162665223575
0.243097288296
0.0179839945542
0.240419197697
0.019600504971
0.237558291121
0.0211201976649
0.234526160381
0.0225471739379
0.231333851027
0.0238854740386
0.227991879308
0.0251390625701
0.224510249515
0.0263118170595
0.220898471532
0.0274075192485
0.217165578351
0.0284298486722
0.213320143449
0.0293823781846
0.209370297866
0.0302685710917
0.205323746929
0.0310917796329
0.201187786535
0.0318552445499
0.196969318947
0.0325620955503
0.192674868082
0.0332153524667
0.188310594269
0.0338179269731
0.183882308459
0.034372624709
0.179395485908
0.0348821477132
0.174855279331
0.0353490970582
0.170266531546
0.0357759756193
0.16563378762
0.0361651908984
0.160961306562
0.0365190578615
0.156253072559
0.0368398017339
0.151512805804
0.0371295607289
0.146743972935
0.0373903886721
0.141949797118
0.0376242575112
0.137133267793
0.0378330596858
0.132297150129
0.0380186103569
0.127443994198
0.0381826494745
0.122576143897
0.0383268437103
0.11769574565
0.0384527882103
0.11280475692
0.0385620082142
0.107904954527
0.0386559605161
0.102997942827
0.0387360347864
0.0980851617393
0.0388035547539
0.0931678946654
0.0388597792614
0.0882472763018
0.0389059031983
0.0833243003642
0.0389430583229
0.078399827235
0.0389723139796
0.073474591549
0.0389946777251
0.0685492097217
0.0390110958691
0.0636241874341
0.0390224539453
0.0586999270768
0.0390295771205
0.0537767351719
0.0390332305569
0.0488548297746
0.0390341197508
0.0439343478965
0.0390328908483
0.0390153529857
0.0390301309706
0.0340978425609
0.0390263685433
0.0291817561235
0.0390220735913
0.0242669835062
0.039017657845
0.0193533740217
0.0390134731475
0.0144407522306
0.0390097583334
0.00952914898567
0.0390049290439
0.00462631394554
0.038937590734
0.036741718718
0.0145482050338
-0.119080007735
0.0299063238897
-0.12579036861
0.0451442566187
-0.124981968563
0.0601491377909
-0.123355561124
0.0748457317269
-0.121194637234
0.0891661914694
-0.118543191578
0.10304944209
-0.115439731304
0.116441769699
-0.111926779424
0.129297212167
-0.108050106852
0.141577686053
-0.103857427077
0.153252874576
-0.099397136504
0.164299916378
-0.0947171846073
0.174702939652
-0.0898641095129
0.184452486425
-0.0848822553564
0.193544868422
-0.0798131734731
0.201981490667
-0.0746951983357
0.20976817237
-0.0695631816734
0.216914488051
-0.0644483636032
0.223433145434
-0.0593783578077
0.229339411126
-0.0543772277219
0.234650590374
-0.0494656322117
0.239385563586
-0.0446610213597
0.243564379388
-0.039977865754
0.247207902136
-0.0354279053566
0.250337510362
-0.0310204068247
0.252974841934
-0.0267624205234
0.255141581246
-0.0226590307406
0.256859283765
-0.0187135943732
0.258149233333
-0.0149279650066
0.259032328023
-0.0113027005108
0.259528991082
-0.00783725365417
0.2596591033
-0.00453014480851
0.259441964071
-0.00137911613864
0.258896081403
0.00161904182071
0.258039535873
0.00446739645119
0.256889646108
0.00716987285873
0.255463048236
0.00973064293549
0.253775700947
0.0121541090878
0.251842888884
0.0144448545625
0.249679232016
0.0166075805905
0.24729869854
0.0186470554496
0.244714620335
0.0205680724012
0.241939710281
0.0223754146887
0.238986080891
0.0240738267447
0.235865263766
0.0256679907738
0.23258822955
0.0271625079887
0.229165408052
0.028561883824
0.225606708324
0.029870516565
0.221921538509
0.0310926888616
0.218118825311
0.0322325616892
0.214207032988
0.0332941703463
0.210194181786
0.034281422153
0.206087865758
0.0351980955374
0.201895269946
0.0360478402584
0.197623186884
0.036834178527
0.19327803244
0.0375605068426
0.188865860994
0.0382300983688
0.184392379954
0.0388461057143
0.179862963656
0.0394115639936
0.17528266664
0.0399293940723
0.170656236363
0.0404024059091
0.16598812536
0.0408333019296
0.161282502892
0.0412246803719
0.156543266119
0.0415790385631
0.15177405083
0.041898776088
0.146978241762
0.0421861978238
0.142158982547
0.0424435168216
0.137319185323
0.0426728570188
0.132461540026
0.0428762557743
0.127588523413
0.0430556662206
0.122702407835
0.0432129594331
0.117805269785
0.0433499264156
0.112898998258
0.0434682799085
0.107985302929
0.0435696560234
0.10306572219
0.043655615713
0.0981416310588
0.0437276460835
0.0932142489679
0.0437871615598
0.0882846474692
0.0438355049134
0.0833537578537
0.0438739481627
0.0784223787076
0.0439036933574
0.0734911834129
0.0439258732576
0.0685607276058
0.0439415519198
0.0636314566
0.0439517251996
0.058703712788
0.0439573211858
0.0537777430279
0.043959200576
0.0488537060381
0.0439581570062
0.0439316798147
0.0439549173456
0.0390116691134
0.0439501419574
0.0340936130322
0.043944424915
0.029177392767
0.0439382941484
0.0242628395685
0.0439322113585
0.0193497429376
0.0439265700682
0.0144378650789
0.043921636443
0.00952717060844
0.043915623868
0.00462533850818
0.0438394232214
0.0413670573926
0.0150810779692
-0.134161087899
0.0309975115158
-0.141706804499
0.0467794009242
-0.140763860188
0.0623038213273
-0.138879983714
0.0774883491069
-0.136379167131
0.0922592351294
-0.133314079668
0.106550787983
-0.129731286163
0.120306014893
-0.125682008284
0.133476998966
-0.121221092813
0.14602494807
-0.116405378013
0.157919954823
-0.111292145025
0.169140524336
-0.105937755833
0.179672930703
-0.100396517529
0.189510460884
-0.0947197871337
0.198652598415
-0.0889553125406
0.207104190572
-0.0831467919765
0.214874633234
-0.077333625762
0.221977098358
-0.0715508301039
0.228427820774
-0.0658290815465
0.234245453996
-0.0601948622196
0.239450499284
-0.0546706787226
0.244064807978
-0.0492753312332
0.248111154282
-0.0440242131883
0.251612873646
-0.0389296258094
0.2545935609
-0.0340010951199
0.257076821664
-0.0292456822893
0.2590860706
-0.0246682806339
0.260644370166
-0.0202718948571
0.261774304037
-0.0160578997545
0.262497879771
-0.0120262770859
0.262836456666
-0.0081758313494
0.26281069157
-0.00450438047551
0.262440562362
-0.00100898761304
0.261745082795
0.00231452079651
0.260742757972
0.00546972073853
0.259451228571
0.0084614017531
0.257887381043
0.011294489986
0.256067353591
0.0139741360881
0.254006550307
0.0165056574218
0.251719660085
0.0188944704133
0.249220677701
0.0211460374594
0.246522926425
0.0232658233271
0.243639081569
0.0252592592197
0.240581194505
0.0271317135051
0.237360716795
0.0288884682047
0.233988524126
0.0305347003987
0.230474939867
0.0320754678476
0.226829758041
0.0335156981761
0.223062265628
0.0348601810803
0.21918126409
0.0361135630534
0.215195090065
0.0372803442175
0.211111635205
0.0383648768778
0.206938365138
0.0393713654897
0.202682337549
0.0403038677495
0.198350219415
0.0411662965818
0.193948303387
0.041962422808
0.189482523378
0.0426958783341
0.184958469364
0.0433701596992