/*--------------------------------*- C++ -*----------------------------------*\
| =========                 |                                                 |
| \\      /  F ield         | OpenFOAM: The Open Source CFD Toolbox           |
|  \\    /   O peration     | Version:  v1906                                 |
|   \\  /    A nd           | Web:      www.OpenFOAM.com                      |
|    \\/     M anipulation  |                                                 |
\*---------------------------------------------------------------------------*/
FoamFile
{
    version     2.0;
    format      ascii;
    class       volScalarField;
    location    "608";
    object      p;
}
// * * * * * * * * * * * * * * * * * * * * * * * * * * * * * * * * * * * * * //

dimensions      [0 2 -2 0 0 0 0];


internalField   nonuniform List<scalar> 
9216
(
273.552338443
273.632109354
273.797172885
274.048933896
274.385972814
274.806702229
275.309155091
275.891020698
276.549688086
277.282281065
278.085701227
278.956661359
279.891727366
280.887347641
281.939891272
283.045671314
284.200977843
285.402094407
286.64532571
287.927007585
289.243529936
290.591341175
291.966967421
293.367012549
294.788174694
296.22724296
297.681112098
299.146776727
300.6213448
302.102029941
303.586164152
305.071188154
306.554663472
308.034262544
309.507779779
310.973119783
312.428308219
313.871479256
315.300885815
316.71488615
318.111953572
319.490662328
320.849696837
322.187837046
323.503967248
324.79706109
326.066190033
327.310508205
328.529260589
329.72176788
330.887434467
332.025733469
333.13621456
334.218489316
335.272238916
336.297199909
337.293171802
338.260003324
339.197599867
340.105910298
340.984934217
341.834709314
342.655318383
343.446877224
344.20954133
344.943494309
345.648954173
346.326162255
346.97538903
347.596923517
348.191078571
348.758180772
349.298575161
349.812615626
350.300669077
350.763106361
351.200305878
351.612645083
352.000503567
352.364255196
352.704270696
353.020910498
353.314526859
353.585457497
353.834027294
354.06054281
354.265293664
354.448548121
354.610554449
354.751538282
354.871705596
354.971245457
355.050344495
355.109234613
355.148760739
355.165056495
273.472616262
273.55274959
273.718156924
273.970919957
274.309394518
274.731918727
275.236480443
275.820732158
276.482026386
277.217452165
278.023875521
278.897976437
279.836288127
280.83523035
281.891144223
283.00031962
284.159024077
285.363523585
286.610105489
287.8950931
289.214863345
290.565856195
291.944588187
293.347657853
294.771756217
296.213669296
297.670286484
299.138600946
300.615716522
302.098846552
303.585319624
305.072577468
306.558179867
308.03980082
309.51523295
310.982383236
312.439276435
313.88404984
315.314956089
316.730357182
318.128726677
319.508643075
320.868791482
322.207956493
323.525023422
324.818970829
326.088871425
327.333884396
328.553256094
329.746312297
330.912458798
332.051173725
333.16200811
334.244578385
335.298566992
336.323715136
337.319823466
338.286745138
339.22438657
340.132700832
341.011688454
341.86139113
342.681892535
343.473312306
344.235806816
344.969563389
345.674800962
346.351764498
347.000725483
347.621976503
348.215831533
348.782620667
349.322690177
349.836397405
350.324110593
350.786203949
351.223057282
351.635051284
352.022566989
352.385981326
352.725666455
353.041985645
353.335292526
353.605927362
353.854216271
354.080467957
354.284972958
354.468000907
354.62979986
354.770594033
354.890582765
354.989936811
355.068790688
355.127212147
355.16508407
355.181354213
273.306803768
273.388085477
273.555025505
273.810093402
274.151612936
274.577877547
275.086813662
275.676006149
276.342735806
277.084019219
277.896650042
278.777238922
279.722252791
280.728050675
281.790917606
282.907094028
284.072802991
285.284272635
286.537756799
287.829551217
289.156008527
290.513549378
291.89867313
293.307965173
294.738104536
296.185868537
297.648138263
299.121901365
300.604256056
302.092412563
303.583696004
305.075546848
306.565522908
308.051298715
309.530666716
311.001535929
312.46193231
313.909996576
315.343983857
316.762260807
318.163304599
319.545699421
320.908134909
322.249402151
323.568391679
324.864089104
326.135572805
327.382009336
328.602650934
329.796830835
330.963960728
332.103526094
333.215083705
334.298257095
335.352734171
336.378262889
337.374649032
338.341752117
339.279483358
340.187801814
341.066712515
341.916262833
342.736540726
343.527671283
344.289815041
345.023164644
345.72794317
346.404400852
347.052813367
347.67347858
348.26671475
348.832857278
349.372256822
349.885276044
350.372287638
350.833671104
351.269810707
351.68109232
352.067901361
352.430619739
352.769623825
353.085281564
353.377950516
353.647975197
353.895685242
354.121393011
354.325391915
354.50795429
354.669329815
354.809743435
354.929393239
355.028446928
355.107036028
355.165240627
355.20300674
355.220827822
273.051873009
273.1344417
273.303779122
273.562451391
273.90872105
274.340805877
274.856538395
275.453398613
276.128555985
276.878913593
277.701152515
278.591774958
279.547145379
280.563528309
281.637122826
282.764092904
283.940594123
285.162796349
286.4269032
287.729168064
289.065907668
290.433512942
291.828458244
293.247308576
294.686725828
296.143473556
297.614421256
299.09654753
300.586943024
302.082812446
303.581476518
305.080372989
306.577057801
308.069205377
309.554608831
311.03117939
312.496945867
313.950053304
315.388761695
316.811443901
318.216583698
319.602773066
320.968709666
322.313193614
323.635124519
324.933497888
326.207401854
327.456013354
328.678594696
329.874489643
331.043119941
332.183981441
333.296640702
334.38073124
335.435950293
336.462055268
337.458860723
338.426235044
339.364097653
340.272415928
341.151202612
342.000512938
342.820442208
343.611123061
344.372723155
345.105442526
345.8095113
346.485187078
347.132752629
347.752513253
348.344794409
348.909939038
349.448305115
349.960262918
350.446192527
350.906481061
351.341520143
351.751703151
352.137422699
352.499067949
352.837022159
353.15166011
353.443345782
353.712429943
353.959247998
354.184117783
354.387337601
354.569184215
354.729911
354.869745961
354.98888962
355.087512533
355.165752207
355.223707983
355.261366568
355.279498511
272.706743058
272.790960589
272.963587376
273.227213345
273.580007605
274.020077173
274.545122502
275.152477035
275.839155257
276.601902572
277.437244458
278.341533676
279.310994372
280.341762143
281.429919678
282.571527731
283.762651615
284.999383398
286.277860329
287.594279843
288.944911759
290.326108059
291.734310775
293.166058296
294.617990516
296.086852994
297.569500421
299.062899461
300.564131141
302.070392769
303.578999519
305.087385427
306.593104317
308.093830323
309.587357741
311.071600604
312.544591898
314.004482337
315.449538808
316.878142402
318.288786155
319.680072427
321.050710061
322.399511234
323.72538816
325.02734957
326.304497112
327.556021597
328.781199254
329.979387893
331.150023144
332.292614671
333.406742512
334.492053453
335.548257554
336.575124752
337.572481639
338.540208319
339.478235454
340.386541376
341.265149369
342.114125004
342.933573605
343.72363773
344.484494759
345.216354446
345.919456543
346.594068364
347.240482372
347.859013698
348.449997659
349.013787195
349.550750307
350.061267412
350.545728711
351.004531492
351.438077461
351.846770037
352.231011696
352.591201316
352.927731593
353.240986489
353.531338782
353.799147671
354.044756505
354.268490587
354.470655104
354.651533135
354.811383754
354.950440187
355.068908001
355.166963428
355.244752076
355.302387425
355.339874057
355.358038669
272.269631341
272.355940422
272.532802837
272.802815509
273.164018508
273.614367953
274.151387702
274.772216831
275.473665614
276.252272815
277.104361244
278.026090201
279.013503474
280.06257205
281.169231182
282.329411815
283.539066672
284.794191492
286.090842027
287.425147451
288.793320825
290.191667203
291.616589942
293.064595618
294.53229796
296.016421033
297.513801907
299.021392908
300.536263553
302.055602186
303.576717318
305.09703848
306.61411707
308.125626931
309.629364008
311.123245915
312.60531107
314.073717408
315.52674071
316.962772537
318.380317829
319.777992159
321.154518711
322.508725004
323.839539395
325.145987418
326.427187997
327.68234955
328.910766066
330.111813152
331.284944109
332.42968606
333.545636161
334.632457916
335.689877622
336.71768095
337.71570968
338.683858579
339.622072445
340.530343272
341.408707568
342.257243765
343.076069734
343.865340369
344.625245216
345.356006128
346.057874924
346.731131033
347.376079104
347.993046572
348.582381174
349.144448411
349.679628948
350.188315971
350.670912494
351.12782864
351.559478898
351.966279376
352.348645067
352.706987142
353.041710284
353.35321008
353.641870499
353.908061437
354.152136382
354.374430172
354.575256872
354.754907773
354.913649511
355.051722318
355.16933844
355.266680962
355.343903021
355.401126831
355.438364677
355.456447947
271.738260789
271.827160594
272.009287144
272.287237685
272.658883334
273.121982984
273.6738317
274.311318593
275.030993173
275.829132239
276.701803656
277.64492534
278.654318007
279.725750895
280.854980282
282.037781067
283.269971996
284.547435316
285.866131739
287.222111584
288.611522931
290.030617526
291.475755058
292.943406328
294.430155687
295.932703038
297.447865578
298.972579378
300.503900843
302.039008034
303.575201782
305.109906451
306.640670748
308.16516831
309.68119721
311.186679537
312.679660435
314.158306749
315.620905219
317.065860297
318.491691565
319.897030834
321.280618916
322.641302153
323.97802871
325.289844713
326.57589024
327.835395244
329.067675419
330.272128085
331.448228086
332.595523782
333.71363313
334.802239905
335.861090056
336.889988252
337.888794578
338.857421429
339.795830564
340.704030335
341.582073058
342.430052513
343.248101547
344.036389753
344.795121199
345.524532173
346.224888925
346.896485385
347.539640822
348.154697456
348.742017988
349.301983065
349.834988666
350.341443425
350.821765891
351.276381755
351.705721034
352.110215252
352.490294626
352.846385274
353.17890647
353.488267954
353.774867322
354.039087511
354.281294379
354.501834414
354.701032566
354.879190213
355.036583287
355.173460589
355.29004231
355.38651893
355.463050597
355.519765852
355.556680998
355.574620776
271.109808992
271.201857139
271.39038352
271.67797815
272.062295888
272.540842949
273.110623247
273.768210101
274.509826228
275.331422982
276.228754478
277.19744457
278.233045131
279.331085004
280.487109738
281.696712754
282.95555895
284.259401919
285.604096005
286.98560436
288.400004058
289.843489156
291.312372448
292.803086473
294.312184188
295.836339592
297.372348447
298.917129137
300.467723667
302.021298722
303.575146484
305.126685607
306.673461944
308.213148974
309.743547459
311.262584912
312.7683146
314.258914072
315.732683239
317.188042011
318.623527539
320.037791081
321.429594561
322.797806835
324.14139975
325.459444011
326.751104939
328.015638133
329.252385121
330.460769012
331.640290207
332.790522211
333.911107565
335.001753936
336.062230402
337.092363911
338.092035973
339.061179546
339.999776133
340.907853071
341.785480989
342.632771415
343.449874497
344.236976806
344.994299186
345.722094622
346.420646085
347.090264336
347.731285664
348.344069534
348.928996149
349.48646391
350.016886784
350.520691584
350.998315171
351.450201605
351.876799248
352.278557848
352.655925632
353.00934641
353.339256726
353.646083078
353.930239206
354.192123492
354.432116459
354.65057841
354.847847198
355.024236158
355.180032216
355.315494186
355.430851307
355.526302197
355.602013972
355.658120553
355.694642099
355.712394873
270.380845865
270.476670365
270.672869181
270.972013243
271.371482704
271.868462971
272.459590743
273.141044303
273.908641343
274.757934014
275.684295908
276.682998563
277.749275949
278.878376572
280.065603816
281.306345732
282.596095865
283.930466839
285.30519834
286.716161055
288.159357837
289.630923199
291.127121962
292.644347686
294.179121303
295.728090207
297.288027883
298.855834079
300.428535396
302.00328618
303.577369166
305.148196701
306.713311539
308.270387184
309.81722764
311.351766876
312.87206776
314.376320486
315.862840496
317.330065932
318.776554634
320.200980768
321.602131083
322.978900902
324.330289868
325.655397517
326.953418727
328.223639101
329.465430332
330.678245602
331.861615054
333.015141399
334.138495658
335.231413122
336.293689508
337.325177372
338.325782752
339.295462078
340.23421931
341.142103315
342.019205434
342.86565723
343.681628352
344.467324503
345.222985445
345.948883015
346.645319105
347.312623576
347.951152079
348.561283768
349.14341888
349.697976203
350.225390406
350.72610927
351.200590816
351.649300361
352.072707518
352.471283171
352.845496437
353.195811659
353.522685438
353.826563725
354.107879007
354.367047599
354.604467051
354.820513696
355.015540359
355.189874223
355.343814887
355.477632648
355.591566989
355.685825385
355.760582395
355.815977729
355.852035815
355.869564229
269.547258015
269.647575098
269.852893569
270.165746058
270.583164315
271.101927313
271.718210196
272.427699358
273.225713625
274.107319402
275.067433443
276.100910457
277.202614184
278.367472126
279.590515321
280.866905215
282.191950049
283.561113144
284.970015322
286.414433405
287.890296371
289.393680421
290.920803905
292.468022738
294.031826749
295.608837113
297.195804927
298.789610765
300.387265024
301.985908803
303.582814549
305.175387635
306.761167468
308.337827682
309.903176114
311.455154264
312.991836193
314.511426824
316.012259696
317.49279417
318.951612172
320.38741449
321.799016723
323.185344902
324.545430891
325.878407596
327.183504067
328.460040533
329.70742345
330.925140586
332.112756227
333.269906518
334.396295016
335.491688456
336.555912798
337.588849545
338.590432366
339.560644016
340.499513549
341.407113792
342.28355907
343.129003108
343.94363711
344.727687906
345.481416171
346.205114616
346.899106145
347.563741898
348.199399182
348.806479249
349.385404911
349.936617997
350.460576647
350.957752474
351.428627597
351.873691582
352.293438315
352.688362836
353.058958162
353.405712134
353.729104299
354.029602876
354.307661806
354.563717918
354.798188232
355.011467407
355.203925358
355.375905049
355.527720497
355.659654969
355.771959411
355.864851248
355.938513207
355.993091174
356.028615114
356.045883595
268.604153544
268.709792015
268.925900149
269.254942965
269.693508839
270.237860998
270.883594191
271.625783071
272.459133876
273.378125012
274.377128932
275.45051229
276.592713478
277.798298712
279.06199924
280.37873298
281.74361408
283.151953714
284.599255005
286.081204499
287.593662042
289.132650487
290.694346219
292.275071161
293.871286613
295.479589029
297.096707621
298.719503537
300.344970199
301.970234444
303.59255742
305.209336687
306.818107911
308.416544887
310.002459836
311.573802927
313.128661114
314.665256321
316.181942962
317.677204894
319.149651811
320.598015194
322.021143843
323.417999104
324.787649837
326.129267216
327.442119409
328.725566228
329.979053782
331.202109225
332.39433562
333.555407006
334.685063682
335.783107793
336.849399206
337.883851755
338.886429816
339.857145269
340.796054781
341.703257438
342.578892634
343.423138215
344.236208775
345.018354084
345.769857531
346.491034569
347.18223106
347.843821503
348.476207083
349.079813533
349.655088778
350.202500388
350.722532809
351.215684443
351.682464557
352.123390086
352.538982345
352.929763701
353.296254219
353.638968339
353.958411592
354.255077405
354.529443997
354.781971409
355.013098672
355.223241147
355.412788038
355.582100098
355.731507539
355.861308188
355.971765832
356.06310884
356.135529057
356.189179617
356.224096671
356.241069174
267.545740692
267.657673911
267.886527675
268.234654927
268.698076632
269.272398484
269.952483266
270.732643968
271.60683534
272.568826468
273.612345386
274.73119279
275.919324998
277.170908949
278.480353668
279.842323245
281.251736308
282.70375643
284.193777179
285.717404653
287.270439674
288.848861099
290.448811303
292.066584383
293.698617388
295.341484525
296.991894076
298.646687525
300.302840332
301.957463686
303.607806063
305.251256052
306.885344945
308.507746546
310.116277974
311.708899233
313.283712017
314.83895771
316.373014676
317.884394851
319.371739765
320.833816031
322.269510432
323.677824643
325.05786972
326.408860405
327.730109337
329.021021231
330.281087109
331.509878621
332.707042546
333.872295502
335.005418961
336.106254571
337.174699881
338.210704459
339.214266447
340.185429552
341.124280452
342.03094659
342.905594319
343.7484273
344.55968513
345.339642063
346.088605788
346.80691615
347.49494376
348.153088421
348.781777343
349.381463082
349.952621238
350.495747862
351.011356636
351.499975822
351.962145027
352.398411828
352.809328298
353.195447463
353.557319758
353.895489494
354.210491382
354.502847145
354.773062249
355.021622765
355.248992398
355.455609689
355.641885417
355.808200203
355.95490234
356.082305841
356.190688714
356.280291623
356.351316513
356.403924358
356.438158809
356.454798313
266.365171903
266.484560839
266.728485454
267.099120662
267.5917551
268.201150681
268.921242586
269.745392938
270.666634399
271.677882649
272.772107391
273.942459688
275.182357736
276.485536585
277.846068945
279.258364626
280.717155516
282.217471943
283.754614924
285.324127634
286.921768351
288.543486381
290.185401847
291.843789842
293.515069047
295.195794653
296.882655028
298.572471409
300.262199692
301.948933309
303.629905997
305.302495862
306.964228702
308.61277797
310.24596609
311.86176413
313.458290509
315.033808812
316.586724731
318.115582276
319.619059295
321.095962463
322.54522179
323.965884796
325.35711041
326.718162725
328.048404651
329.347291579
330.614365097
331.849246852
333.051632598
334.221286532
335.358035939
336.461766262
337.532416594
338.569975687
339.574478459
340.546003045
341.484668344
342.390632043
343.264089045
344.105270242
344.914441507
345.691902836
346.437987501
347.153061145
347.837520704
348.491793091
349.116333581
349.711623876
350.278169816
350.81649876
351.327156661
351.810704864
352.26771668
352.698773796
353.104462561
353.485370207
353.842081059
354.175172764
354.48521259
354.772753826
355.03833231
355.28246311
355.505637392
355.708319476
355.890944102
356.053913935
356.197597282
356.322326083
356.428394117
356.516055468
356.585523301
356.636967641
356.670440172
356.686707784
265.054341996
265.182593199
265.444395547
265.841647514
266.36868315
267.019172589
267.785868355
268.660941148
269.636291319
270.703810495
271.855582088
273.084020437
274.381954277
275.74266427
277.159885851
278.627788292
280.14093942
281.694263357
283.282996646
284.902646298
286.548951981
288.217853591
289.905464875
291.608053373
293.322026653
295.043924403
296.770415632
298.498299778
300.224510486
301.946119825
303.660344027
305.364548702
307.056252161
308.733126896
310.393000978
312.033857813
313.653834759
315.251220629
316.824452256
318.372110166
319.892913549
321.385714601
322.84949239
324.283346351
325.686489537
327.058241711
328.39802239
329.7053439
330.979804535
332.22108186
333.428926276
334.603154874
335.743645699
336.850332462
337.923199804
338.962279136
339.967645119
340.939412771
341.877735202
342.782801923
343.654837653
344.494101528
345.300886595
346.075519441
346.818359859
347.52980038
348.210265594
348.860211136
349.480122297
350.070512198
350.631919533
351.164905888
351.670052673
352.147957724
352.599231639
353.024493911
353.42436893
353.799481916
354.15045484
354.477902377
354.782427948
355.064619868
355.325047656
355.564258511
355.782773992
355.981086919
356.159658499
356.318915703
356.459248903
356.581009743
356.684509279
356.770016512
356.83775691
356.88791013
356.920537216
356.936392278
263.603624159
263.742470035
264.025591904
264.454465363
265.02216523
265.720935699
266.542010907
267.476062582
268.513599576
269.645288883
270.862187072
272.155886067
273.518585096
274.94310519
276.422863372
277.951822073
279.524426169
281.135536725
282.780367318
284.454426391
286.153467341
287.873447033
289.610492956
291.360879024
293.121009795
294.887412572
296.656736198
298.425754929
300.191375422
301.950643476
303.700753402
305.439054964
307.163056705
308.870429161
310.559006257
312.226785142
313.871924574
315.492742054
317.087709837
318.655450004
320.194728716
321.704449816
323.183647911
324.631481094
326.047223422
327.430257285
328.780065729
330.096224858
331.378396331
332.626320075
333.839807246
335.01873357
336.163033104
337.272692568
338.347746289
339.388271868
340.394386594
341.366244649
342.304035061
343.207980381
344.078335958
344.915389717
345.71946226
346.490907149
347.230111177
347.937494471
348.613510292
349.258644404
349.873413931
350.458365671
351.014073844
351.541137311
352.040176323
352.511828856
352.95674664
353.375590956
353.76902829
354.137725916
354.482347481
354.803548644
355.10197281
355.378247013
355.632977964
355.866748304
356.080113084
356.273596486
356.447688801
356.602843685
356.739475673
356.857958002
356.95862068
357.041748833
357.10758142
357.156309014
357.188002481
357.203401831
262.001520712
262.153131787
262.461863363
262.928547646
263.544576466
264.300312224
265.185025188
266.187493439
267.296515701
268.501301912
269.791733281
271.158503708
272.593164645
274.088099894
275.636455976
277.232049482
278.86926737
280.542970621
282.248407189
283.981136781
285.736968036
287.511907709
289.302121362
291.103905242
292.913669131
294.727929532
296.543311745
298.356558354
300.164541271
301.964272823
303.752918941
305.527808878
307.286438598
309.026475278
310.745758876
312.442301859
314.114287254
315.760065201
317.378148306
318.967205917
320.526057554
322.053665592
323.549127445
325.011667358
326.440628023
327.835462098
329.19572377
330.521060387
331.811204265
333.065964693
334.285220247
335.468911478
336.617034128
337.729632948
338.806796285
339.848651502
340.855361326
341.827121149
342.764157277
343.66672604
344.535113684
345.369636848
346.170643458
346.938513811
347.673661623
348.376534848
349.047616069
349.687422321
350.296504258
350.875444592
351.424855834
351.945377361
352.437671899
352.902421516
353.340323258
353.752084521
354.138418282
354.500038269
354.837654158
355.15196684
355.443663819
355.713414786
355.961867383
356.18964321
356.397334079
356.585498548
356.754658741
356.905297468
357.037855648
357.152730021
357.250271158
357.330781912
357.394515854
357.441675029
357.472341512
357.487239749
260.234194424
260.401340627
260.741122305
261.253393308
261.927262983
262.750583201
263.71006516
264.792086253
265.983346261
267.271335291
268.644612813
270.092924016
271.60719217
273.179428836
274.802599231
276.470471613
278.177470133
279.918542277
281.68904556
283.484653959
285.301282374
287.135026936
288.982119552
290.8388962
292.701779072
294.567272406
296.431970119
298.292571819
300.14590242
301.988929929
303.818783474
305.632765809
307.428356649
309.203218195
310.955196669
312.682321798
314.382804264
316.055031498
317.697562124
319.309119335
320.888583269
322.434982649
323.947485854
325.425391664
326.868119851
328.275201791
329.646271143
330.981054703
332.279363406
333.541083585
334.766168503
335.954630318
337.106532588
338.221983506
339.30112999
340.344152817
341.351262849
342.322698467
343.258724152
344.159630177
345.025733239
345.857377853
346.654938234
347.418820407
348.149464241
348.847345156
349.51297525
350.146903683
350.749716183
351.322033634
351.864509748
352.377827913
352.862697301
353.319848418
353.750028219
354.153994962
354.532512924
354.886347081
355.216257851
355.522995945
355.80729739
356.069878752
356.311432597
356.532623217
356.734082645
356.916406993
357.080153092
357.22583549
357.353923755
357.464840148
357.558957582
357.636597879
357.698030456
357.743470174
357.773010729
357.787359442
258.284829677
258.471116269
258.84897485
259.416763315
260.160446845
261.064490493
262.112247555
263.287044711
264.573014931
265.955643626
267.422043633
268.96100994
270.562919329
272.219539515
273.923800872
275.669568139
277.451434328
279.264546752
281.104466557
282.967058125
284.848402801
286.744731782
288.652375163
290.567726676
292.487225609
294.407357088
296.324668716
298.235798413
300.137504982
302.026696888
303.900456163
305.756051197
307.590941437
309.402782438
311.189427197
312.948925178
314.679518893
316.379638552
318.047895438
319.683074147
321.284123784
322.850148297
324.380396264
325.874250367
327.331216856
328.750915111
330.133067432
331.477489023
332.784078192
334.052806735
335.283710626
336.476881074
337.632456202
338.7506135
339.831563326
340.875543608
341.882815935
342.853663098
343.788388107
344.687314579
345.550788338
346.37917995
347.172887881
347.932341902
348.658006388
349.35038313
350.010013394
350.637478963
351.233402053
351.798444019
352.333302913
352.838709976
353.315425252
353.764232521
354.185933768
354.581343371
354.951282199
355.296571719
355.618028223
355.916457211
356.192647999
356.447368558
356.681360642
356.895335208
357.08996818
357.265896557
357.423714898
357.563972162
357.68716895
357.793755061
357.884127425
357.958628506
358.017544705
358.0611042
358.089413775
358.1031619
256.132745279
256.342968305
256.768159888
257.404368098
258.233154458
259.234365917
260.386923899
261.670276804
263.065441117
264.555611365
266.1263848
267.765692583
269.463544398
271.211684356
273.003231571
274.832351367
276.69397947
278.583604469
280.49710312
282.430617786
284.380464174
286.343059801
288.31486809
290.292358585
292.271987926
294.250206704
296.223490003
298.188383958
300.141552983
302.07982539
304.000223023
305.899971566
307.776506369
309.627474942
311.450738021
313.244368163
315.006644929
316.736047926
318.431248823
320.09110241
321.714636359
323.301040025
324.849652641
326.359951328
327.83153921
329.264133904
330.657556356
332.011719998
333.326620085
334.602323192
335.838956872
337.036699689
338.195771803
339.316426482
340.398942768
341.443619649
342.450771884
343.420727692
344.353828256
345.250429008
346.11090243
346.93564207
347.725067316
348.479628481
349.199811689
349.886143109
350.539192148
351.15957332
351.747946604
352.305016256
352.831528124
353.328265645
353.796044749
354.235707983
354.648118119
355.034151536
355.394691558
355.730621905
356.042820338
356.332152536
356.599466246
356.845585716
357.07130645
357.277390306
357.464560976
357.633499869
357.784842409
357.91917476
358.037030951
358.138890435
358.225175994
358.296251971
358.352422987
358.393931918
358.420898985
358.433991978
253.752136454
253.992833484
254.477814829
255.199509223
256.133204909
257.252391846
258.530120086
259.940920457
261.462072667
263.074235587
264.761536566
266.511277273
268.313428616
270.160060704
272.044805552
273.962403996
275.908353497
277.878651233
279.86961497
281.877759597
283.899708035
285.932120145
287.971631769
290.014806556
292.058112259
294.097936145
296.130636961
298.152621219
300.160419019
302.150750034
304.120560567
306.067028054
307.987560959
309.879797813
311.741608667
313.571093765
315.3665765
317.126593822
318.849886799
320.535390588
322.182222581
323.789669241
325.357172414
326.884315478
328.370809966
329.816482893
331.221264735
332.585177807
333.908324829
335.190877435
336.433064706
337.635161871
338.797479585
339.920354135
341.004139058
342.049198516
343.055902779
344.024625988
344.955746284
345.849648179
346.706726911
347.527394329
348.312085781
349.061267337
349.775442727
350.455159365
351.101012979
351.713650458
352.293770724
352.842123575
353.359506609
353.846760479
354.304762818
354.734421258
355.13666594
355.51244186
355.862701325
356.18839665
356.490473172
356.769862594
357.02747665
357.264201102
357.480890095
357.678360896
357.85738908
358.018704157
358.162985701
358.290859937
358.402896825
358.499607544
358.581442413
358.648789336
358.701972251
358.741249136
358.766755179
358.779135449
251.110246485
251.390582446
251.952516134
252.782697136
253.847325684
255.111081572
256.539232971
258.10011861
259.766629117
261.516764023
263.333437959
265.203797046
267.118322542
269.069936954
271.053235016
273.063886967
275.098213211
277.152903918
279.224846304
281.311020701
283.408430244
285.514037787
287.624697648
289.737088915
291.847675625
293.952732574
296.04843044
298.130961144
300.196660618
302.242105254
304.264152949
306.259932685
308.226826506
310.162463359
312.06472443
313.931744225
315.761899073
317.553792815
319.306246138
321.018286369
322.689133629
324.318185115
325.904998993
327.449278254
328.95085551
330.409679264
331.825801179
333.199363955
334.530589234
335.819765162
337.067233538
338.273376924
339.438606136
340.563348802
341.648039489
342.693112028
343.698994409
344.666106608
345.59486141
346.485668163
347.338939088
348.155097615
348.934587962
349.677885167
350.385504647
351.058010525
351.696022043
352.300217611
352.87133622
353.410176231
353.91759166
354.394486352
354.841806533
355.260532333
355.651668843
356.016237189
356.355265941
356.669782983
356.960807884
357.229344699
357.476375142
357.702852124
357.909693675
358.097777286
358.267934765
358.420947606
358.557542928
358.678389969
358.784097091
358.875209331
358.952206358
359.015500786
359.065437038
359.102289556
359.126208738
359.13781477
248.164632534
248.497884631
249.161041055
250.13130811
251.361518404
252.804120626
254.414117239
256.152151768
257.986128593
259.89152499
261.850667948
263.851398981
265.885577467
267.947737432
270.034033898
272.141498391
274.267563613
276.409794606
278.565760146
280.732982319
282.908910365
285.090877128
287.276017132
289.461158194
291.6427358
293.816831596
295.979310954
298.126030771
300.253046899
302.356752772
304.433914164
306.481627398
308.497254352
310.478411741
312.422992304
314.32917478
316.195401611
318.020354636
319.802945074
321.542306031
323.237775818
324.888878336
326.495304064
328.05689069
329.573605737
331.045532011
332.472854619
333.8558488
335.194867598
336.490328419
337.742698601
338.952480374
340.120196067
341.246374363
342.331538468
343.376196899
344.38083754
345.34592539
346.271904221
347.159202027
348.008239867
348.819443341
349.593255731
350.33015165
351.030650034
351.695325406
352.324816539
352.919831939
353.481151863
354.009626851
354.506173053
354.971764821
355.407425326
355.814216021
356.193225798
356.545560472
356.872332984
357.174654426
357.453625807
357.710330351
357.945826213