/*--------------------------------*- C++ -*----------------------------------*\
| =========                 |                                                 |
| \\      /  F ield         | OpenFOAM: The Open Source CFD Toolbox           |
|  \\    /   O peration     | Version:  v1906                                 |
|   \\  /    A nd           | Web:      www.OpenFOAM.com                      |
|    \\/     M anipulation  |                                                 |
\*---------------------------------------------------------------------------*/
FoamFile
{
    version     2.0;
    format      ascii;
    class       surfaceScalarField;
    location    "525";
    object      phia;
}
// * * * * * * * * * * * * * * * * * * * * * * * * * * * * * * * * * * * * * //

dimensions      [0 3 -1 0 0 0 0];
oriented        oriented;


internalField   nonuniform List<scalar> 
18240
(
0.000846038309325
-0.00084621489159
0.00173392033729
-0.000888106468392
0.00261975763562
-0.000886007836894
0.0034983217969
-0.000878798490578
0.00436688176999
-0.000868716001874
0.00522273859236
-0.00085609879445
0.00606368301216
-0.000841085650639
0.00688731762161
-0.000823882246993
0.00769176930258
-0.000804577601406
0.00847490777959
-0.000783389686605
0.00923520259938
-0.000760404792144
0.00997080767416
-0.00073585788551
0.0106805404561
-0.000709826711047
0.0113628393163
-0.000682551409391
0.0120168518072
-0.000654090215353
0.0126412769939
-0.000624675746275
0.0132355517814
-0.000594336638327
0.0137985920987
-0.000563287250586
0.0143300657998
-0.000531519832587
0.0148290476526
-0.000499223665954
0.0152953684898
-0.000466351862713
0.0157281993393
-0.000433066151582
0.0161274656977
-0.00039928265803
0.0164923760395
-0.000365137897011
0.0168228908641
-0.000330517221884
0.0171182101095
-0.000295537923021
0.0173782853662
-0.000260064316234
0.0176022800147
-0.000224203470633
0.017790113786
-0.000187810490504
0.0179409089738
-0.000150993268442
0.0180545547984
-0.000113610932811
0.0181301498067
-7.57815902089e-05
0.0181675775548
-3.73823913709e-05
0.0181659610617
1.44209169725e-06
0.0181252333074
4.07826842105e-05
0.0180446122189
8.04594168076e-05
0.0179241557948
0.000120519635329
0.0177632676118
0.0001607397237
0.0175622222096
0.000201115843601
0.0173207097712
0.000241377588342
0.0170393182587
0.000281467815924
0.0167181261107
0.000321071377133
0.0163581279021
0.000360079327927
0.0159598863103
0.000398135534766
0.015524891198
0.000435079877478
0.0150542857362
0.000470515178629
0.0145501498027
0.000504223631709
0.0140143181493
0.000535758798798
0.0134495766975
0.000564831468792
0.0128585875187
0.000590935964109
0.0122449739428
0.00061370540329
0.011612354287
0.000632587966461
0.0109652717192
0.000647174720126
0.010308319365
0.000656942462187
0.00964685747089
0.000661551623785
0.00898620900744
0.000660658377407
0.00833213156789
0.000654161201514
0.00769009605656
0.000642060459673
0.00706554636739
0.000624623721782
0.00646330577137
0.000602272336427
0.00588770387976
0.000575661624144
0.00534215014702
0.000545582726082
0.00482922857388
0.000512963269486
0.00435050849473
0.000478740191823
0.00390675301452
0.000443779740024
0.00349796229531
0.000408799809461
0.00312361679858
0.000374356019972
0.00278273571857
0.000340878352701
0.00247402183955
0.000308714204707
0.00219584569314
0.00027816230628
0.00194637166182
0.000249467708414
0.00172354625333
0.000222803642013
0.00152527215752
0.000198265302791
0.00134938468393
0.00017586265478
0.00119382511842
0.000155552110132
0.00105656539186
0.000137236010938
0.000935758868641
0.000120802329258
0.000829630596077
0.000106107587996
0.000736617751621
9.30119145705e-05
0.000655248886945
8.13513373244e-05
0.000584286358217
7.09639231537e-05
0.000522639504847
6.1632050712e-05
0.000469615548518
5.30268001499e-05
0.000425365878788
4.42368253885e-05
0.000389460532522
3.59083617896e-05
0.000356523029793
3.29265823331e-05
0.000325583041219
3.09422483375e-05
0.000298350975163
2.72222998592e-05
0.000270978414586
2.7372929022e-05
0.000240818882149
3.01506553873e-05
0.000209658176042
3.11589200311e-05
0.000177486747127
3.21638585151e-05
0.000140857988719
3.66232059433e-05
9.72200298336e-05
4.36318518124e-05
4.71440592392e-05
5.0069069729e-05
4.71397637093e-05
0.000893264828822
-0.00173967471999
0.00184170547676
-0.00183676437266
0.00278492871987
-0.00182943184708
0.0037195434472
-0.0018136302329
0.00464309973973
-0.00179246756705
0.00555301782585
-0.00176623270648
0.00644689580137
-0.00173515217793
0.00732232164235
-0.00169952142816
0.00817717402688
-0.0016596104316
0.00900933499124
-0.00161575994411
0.00981702420315
-0.00156826525381
0.0105984516275
-0.00151748914475
0.0113521911658
-0.00146372732903
0.0120767804305
-0.00140733780281
0.0127711306199
-0.00134859065763
0.0134340789769
-0.0012878134494
0.0140648314812
-0.00122522795403
0.0146624742979
-0.00116111067907
0.0152264463417
-0.00109561889392
0.0157560168539
-0.00102896525437
0.0162507854126
-0.000961235306092
0.0167101331134
-0.000892574707192
0.0171337476771
-0.000822999874031
0.0175210556219
-0.000752595933833
0.0178717698966
-0.00068132182036
0.0181853097411
-0.000609216662759
0.018461367628
-0.00053620032196
0.0186993228006
-0.000462286040626
0.0188988238476
-0.000387377573809
0.0190592008256
-0.000311485936727
0.0191800612209
-0.000234525593285
0.0192607071376
-0.000156531388825
0.019300736211
-7.7454266028e-05
0.0192994671961
2.61905296918e-06
0.0192565457409
8.3672318384e-05
0.0191713825265
0.000165542314125
0.0190437561902
0.000248124634619
0.0188732660389
0.000331161126214
0.0186599254
0.000414444986796
0.0184036301788
0.00049761539342
0.0181047352492
0.000580360487959
0.0177635402246
0.000662220143305
0.0173808424578
0.000742783517613
0.0169574438898
0.000821498994491
0.0164946775307
0.000897861037967
0.0159939434892
0.000971225626467
0.015457209121
0.00104098127089
0.01488658567
0.00110637110058
0.0142848017464
0.00116664771692
0.013654828439
0.00122091194676
0.0130003143185
0.00126826152637
0.0123252503714
0.00130766927208
0.0116343308009
0.00133814553105
0.0109326223224
0.0013586822558
0.0102257929281
0.00136843937512
0.00951974190716
0.00136675197292
0.0088206612288
0.001353303821
0.00813463291764
0.00132813824223
0.00746756627954
0.00129175051059
0.00682482491599
0.00124506278798
0.00621111638986
0.00118942114014
0.00563020346004
0.00112653510496
0.00508481617078
0.00105838650793
0.00457656790023
0.000987013748068
0.00410610818887
0.000914260019306
0.00367329582866
0.000841624243705
0.00327743788051
0.000770221578603
0.00291742156289
0.000700894533083
0.00259180071624
0.000634331443276
0.00229880323877
0.00057114881339
0.00203639679551
0.00051186218655
0.0018023393388
0.000456843067562
0.00159431181741
0.000406277184073
0.00140997643836
0.000360178294697
0.00124708649625
0.000318427385149
0.00110348591756
0.000280819039467
0.000977177150288
0.000247099670278
0.000866289295176
0.000216981325046
0.000769132476113
0.000190160634561
0.000684149247355
0.000166323546854
0.000609947162382
0.000145160471863
0.000545212071346
0.000126358678262
0.000488625633788
0.000109609499788
0.000438272601453
9.45832009062e-05
0.000392334381545
8.18436305283e-05
0.000351524071385
7.37317119149e-05
0.000318244162804
6.42194322815e-05
0.000290233946348
5.52273410111e-05
0.000264104676329
5.34985806788e-05
0.00023728074484
5.69694369457e-05
0.000207320251775
6.11146725917e-05
0.00017509917085
6.43791305716e-05
0.000140289717758
7.1427529202e-05
9.92749196937e-05
8.46409249674e-05
4.87744651186e-05
0.000100562727992
9.59113503611e-05
0.000901481194515
-0.00264135536529
0.00185561258521
-0.00279110689855
0.00280555330751
-0.00277958223382
0.00374696944803
-0.00275525795058
0.00467713836822
-0.00272284208707
0.00559343426398
-0.00268273725453
0.00649337123967
-0.00263528966637
0.00737455739274
-0.00258091173842
0.00823479684698
-0.00252004407083
0.00907201358186
-0.00245317485719
0.00988435676249
-0.00238079496916
0.0106701002731
-0.00230342358218
0.0114277532437
-0.00222155815961
0.0121559383826
-0.00213570552405
0.0128535074917
-0.00204632799447
0.0135194010945
-0.00195388038828
0.0141527690531
-0.00185875383416
0.0147528145077
-0.00176131944804
0.0153189201095
-0.00166187145522
0.0158504800949
-0.00156067792407
0.0163470335164
-0.00145792433946
0.0168080886494
-0.00135377139507
0.0172332645009
-0.00124829960228
0.0176221116653
-0.00114157318305
0.0179742632348
-0.00103358540631
0.0182892554306
-0.000924327226732
0.0185666879614
-0.0008137328643
0.0188060470225
-0.000701751651462
0.0190068748296
-0.000588293487474
0.0191685971234
-0.000473302931238
0.0192907010712
-0.00035670579722
0.0193725688331
-0.000238482088738
0.0194136635184
-0.000118613634746
0.0194133710019
2.84024656548e-06
0.0193711919742
0.00012579799589
0.0192865925692
0.000250081736142
0.0191592003305
0.000375474396499
0.0189886626316
0.000501649847936
0.018774842093
0.000628233500864
0.0185176804364
0.000754738658725
0.0182173881781
0.000880630638538
0.0178743113016
0.00100526888599
0.0174891108194
0.0011279714975
0.0170626323853
0.00124795939346
0.0165960755869
0.00136441481145
0.0160908720676
0.00147642149003
0.0155488499942
0.00158301026923
0.01497213198
0.00168309271097
0.0143633030368
0.00177549454423
0.0137253378011
0.00185889332448
0.0130617703857
0.00193185879246
0.012376641254
0.00199282777299
0.0116746365359
0.00204019172287
0.010961005035
0.00207235530451
0.0102415941336
0.0020879012011
0.00952266346766
0.00208573396409
0.00881076068093
0.00206526382872
0.00811243273807
0.00202652289197
0.00743400845407
0.00197023323553
0.00678129194893
0.00189783272984
0.00615934202358
0.00181142126931
0.00557219344304
0.00171372379234
0.00502261872952
0.00160799498737
0.00451206439648
0.00149759281074
0.00404084539143
0.00138549734292
0.00360847107293
0.00127401115873
0.00321396989443
0.00116472915998
0.00285607812895
0.00105878695112
0.00253325058407
0.000957153962552
0.00224361640865
0.000860772346935
0.00198498774544
0.000770476636868
0.0017549490245
0.000686864164933
0.00155100112481
0.000610207160203
0.00137067840171
0.000540482483411
0.00121163477125
0.000477454628843
0.0010716664846
0.00042077165319
0.000948731453214
0.000370021849241
0.000840945410029
0.000324755174457
0.000746599332857
0.000284497096476
0.00066414162373
0.000248771889467
0.000592171951265
0.000217122949533
0.000529391328551
0.000189132233593
0.000474539973998
0.000164455657774
0.00042618179248
0.000142935751526
0.000383351606486
0.00012466973597
0.000345380947062
0.000111697974076
0.000309414349398
0.000100182390863
0.000275199178594
8.9438434705e-05
0.00024731553224
8.13782576526e-05
0.000224413375153
7.98669846323e-05
0.000194782194144
9.0741488301e-05
0.000159144423248
0.000100011753569
0.000122013657557
0.000108552709694
8.133868029e-05
0.000125311739709
4.14434457987e-05
0.000140453568494
0.000137351693489
0.000909930658581
-0.00355148756588
0.00187207939666
-0.00375347106629
0.00283012551832
-0.00373784036703
0.00377951788365
-0.00370486282505
0.0047173997995
-0.00366093308915
0.00564107149736
-0.0036066174516
0.00654797455159
-0.00354239728417
0.00743568807357
-0.00346882864065
0.00830196831136
-0.00338652280887
0.00914473633051
-0.0032961397465
0.00996211287441
-0.00319836263133
0.0107523932401
-0.0030938930588
0.0115140770407
-0.00298342452886
0.0122458310594
-0.00286763983107
0.0129465144055
-0.00274718445218
0.0136151307331
-0.00262266730332
0.0142508497134
-0.00249463566121
0.0148529507072
-0.00236358059899
0.0154208423612
-0.00222991510482
0.015954000758
-0.00209398547915
0.0164519896962
-0.00195605391487
0.0169143968839
-0.0018163163073
0.0173408577541
-0.0016748894513
0.0177309931182
-0.00153183455244
0.0180844387199
-0.00138714809492
0.0184007867637
-0.00124078938841
0.0186796223553
-0.00109267360282
0.0189204703055
-0.000942701790592
0.0191228387918
-0.000790755179002
0.019286172402
-0.000636726848655
0.0194099033249
-0.000480518124994
0.0194934113869
-0.000322068714455
0.019536083506
-0.000161355531614
0.0195372824101
1.57430230758e-06
0.0194964138905
0.000166608046417
0.0194129040389
0.00033353574347
0.0192862730597
0.000502057845029
0.0191161189963
0.000671758851451
0.0189021941964
0.000842121215064
0.0186443912745
0.00101250684436
0.0183428164913
0.00118217833945
0.0179977728319
0.00135028776833
0.0176098252095
0.00151590172518
0.0171797783743
0.00167799127532
0.0167087340018
0.00183545153803
0.0161980686863
0.00198708204021
0.0156494922649
0.00213158946943
0.0150650411262
0.00226755035528
0.0144471551683
0.00239339503186
0.0137987049252
0.00250736274482
0.0131230981864
0.00260749296031
0.0124243383309
0.00269161965053
0.0117071320078
0.00275743825017
0.0109769127548
0.00280261783989
0.0102398474701
0.00282501768095
0.00950269677214
0.00282293731096
0.00877261484306
0.00279540456482
0.00805683462954
0.00274236263664
0.00736238353454
0.00266474353975
0.00669573522885
0.00256453786415
0.00606255891962
0.00244464557265
0.00546737499802
0.00230894776152
0.00491304052212
0.00216235944565
0.00440065456787
0.00201000132383
0.00392989449022
0.00185627409428
0.00349961089817
0.0017043065588
0.00310838246176
0.0015559645395
0.00275476224812
0.00141240752198
0.00243714186525
0.00127476935304
0.00215353523522
0.00114436720598
0.00190152089609
0.00102247570156
0.00167837722903
0.000909989059399
0.00148131522062
0.000807250262413
0.00130766045573
0.00071411878305
0.00115494160496
0.00063015685252
0.0010208922859
0.000554806166288
0.000903428621276
0.000487472606638
0.000800645335097
0.000427527117093
0.000710829696252
0.000374302868589
0.000632451629312
0.00032714104293
0.000564149823481
0.000285417026102
0.000504705637878
0.000248569536128
0.000452993674239
0.000216161623193
0.000407558021247
0.000188366101622
0.000367830030455
0.000164392959213
0.000329641496637
0.000149882315999
0.000293503813283
0.000136316374514
0.000261241776388
0.000121696651667
0.000228748370945
0.000113868185665
0.000195424906473
0.000113186842784
0.000170291072591
0.000115871162258
0.000136372325316
0.000133925784893
9.69900740679e-05
0.000147931375599
6.37186213883e-05
0.000158579354362
3.28965086466e-05
0.000171271140424
0.000170246459538
0.00092085997142
-0.00447255189609
0.00189417595937
-0.00472700057797
0.00286323431546
-0.0047071147364
0.00382336742278
-0.00466520967766
0.00477160840331
-0.00460938626041
0.00570516779816
-0.0045403869054
0.00662140652146
-0.00445884337391
0.00751784819557
-0.00436547506399
0.00839220031176
-0.00426107616314
0.00924236059374
-0.0041464979936
0.0100664312557
-0.00402262704253
0.0108627154583
-0.00389036716804
0.0116297233065
-0.0037506175003
0.0123661585102
-0.00360425582153
0.0130709164221
-0.00345211787458
0.0137430618084
-0.00329498348199
0.0143818201165
-0.00313355910114
0.0149865481537
-0.00296846872842
0.0155567207935
-0.00280024184942
0.016091897551
-0.00262931108483
0.0165917081335
-0.00245600713293
0.0170558187444
-0.00228056413102
0.0174839201859
-0.0021031217194
0.0178756975122
-0.00192373721258
0.0182308236093
-0.00174239306073
0.0185489344346
-0.00155901355589
0.0188296293025
-0.00137347530874
0.0190724524721
-0.00118562631647
0.0192769004003
-0.000995297999612
0.0194424100283
-0.000802325945613
0.0195683734892
-0.000606564647017
0.0196541338065
-0.000407906787672
0.0196990084016
-0.000206301606282
0.0197022942587
-1.77786226736e-06
0.0196633007704
0.000205541337595
0.0195813645687
0.000415416716054
0.0194558910425
0.000627482010088
0.0192863764591
0.000841228826252
0.0190724538262
0.00105600485344
0.018813916495
0.00127100970512
0.0185107609736
0.00148530477541
0.0181632040704
0.00169781998679
0.0177717150041
0.0019073713986
0.0173370208293
0.00211267050234
0.0168601265094
0.00231233635447
0.0163423136214
0.00250489028767
0.0157851610282
0.00268874343736
0.0151905585689
0.00286215989651
0.014560757564
0.00302320976906
0.0138984340448
0.00316970658074
0.0132067997024
0.00329915397852
0.0124897323518
0.00340872133742
0.0117519260124
0.00349528260678
0.0109990154415
0.00355557542144
0.0102376073703
0.00358647358765
0.00947517801126
0.00358542400125
0.00871977161953
0.00355086881776
0.00797960454463
0.00348259242382
0.00726273133904
0.00338167905335
0.00657656571334
0.00325075865015
0.0059277580166
0.00309350253773
0.00532173106893
0.00291500875504
0.00476151872267
0.00272259891106
0.0042475535634
0.00252398505421
0.00377833068688
0.00232551133935
0.00335152895515
0.002131121166
0.00296504708733
0.00194245260345
0.00261735318546
0.0017601036443
0.00230694905799
0.0015851668403
0.00203178594606
0.00141951849265
0.00178908549267
0.00126515845251
0.00157561148054
0.00112344355408
0.00138810796062
0.00099473377851
0.00122360182864
0.000878606329044
0.00107948577572
0.00077425669949
0.000953445938056
0.000680831459195
0.000843363433048
0.00059754282774
0.00074730187366
0.000523577676181
0.000663554413391
0.000458040686629
0.00059062758713
0.00040005890562
0.00052723134408
0.000348805268523
0.000472302182881
0.00030349137529
0.000425060844596
0.000263396805504
0.000385145215198
0.000228276042367
0.000349146306745
0.000200386918629
0.000314201536545
0.000184822694296
0.000278931260801
0.000171582743387
0.000238980008482
0.000161644702849
0.000201882974573
0.00015096198177
0.000167475479883
0.000147590957055
0.000139123437642
0.000144219904624
0.000114342210583
0.000158703211245
8.05183031677e-05
0.000181750740137
4.94863635419e-05
0.000189608689561
2.49465008617e-05
0.000195808444977
0.00019519062657
0.00093457907907
-0.00540733746068
0.0019221876096
-0.00571482987916
0.00290529071049
-0.00569043536457
0.00387907621544
-0.00563921242328
0.00484045918984
-0.00557098386609
0.00578654030125
-0.00548668078892
0.00671458601488
-0.00538709904272
0.00762204520402
-0.00527314145668
0.00850656825602
-0.00514580288547
0.00936601764224
-0.00500614758781
0.0101984780518
-0.00485528343038
0.0110022571075
-0.00469433814458
0.0117758859498
-0.00452443342794
0.0125181098933
-0.00434666231485
0.0132278797369
-0.00416206494898
0.0139043330008
-0.00397160904104
0.0145467769625
-0.00377616964019
0.015154662183
-0.00357651528496
0.0157275596867
-0.00337329468233
0.0162651301236
-0.00316703137199
0.016767099118
-0.00295811975727
0.0172332267159
-0.00274682973109
0.0176632856185
-0.0025333122904
0.0180570353183
-0.00231761286511
0.0184142066711
-0.00209968398027
0.0187344830565
-0.00187940378058
0.0190174923318
-0.0016565920631
0.0192627950997
-0.00143103086636
0.0194698835618
-0.00120248194898
0.0196381765889
-0.00097070884376
0.0197670258941
-0.000735497637016
0.0198557187469
-0.000496677817638
0.0199034934602
-0.000254148456812
0.0199095528435
-7.90404267127e-06
0.0198730907817
0.000241942433634
0.019793317543
0.000495134119234
0.0196694975046
0.000751251798608
0.0195009839596
0.00100969700441
0.0192872631005
0.00126968566504
0.0190279908126
0.00153024662407
0.0187230328247
0.00179023251613
0.0183724918053
0.00204833534753
0.0179767316562
0.00230311096961
0.0175363849984
0.00255300131744
0.0170523565883
0.00279635430708
0.0165258145444
0.00303142719609
0.0159581879614
0.00325637108966
0.0153511710622
0.0034691838355
0.0147067601395
0.00366763501609
0.014027327551
0.00384915920286
0.0133157637425
0.00401074675385
0.0125756712302
0.00414884472969
0.0118116326812
0.00425936454518
0.0110294408234
0.00433780703807
0.0102362792118
0.00437969056961
0.00944059542087
0.00438115937977
0.0086517215798
0.0043398059868
0.00787918917849
0.00425518923547
0.00713250384389
0.00412842563285
0.00642024561839
0.00396307519697
0.00575055891628
0.00376323071518
0.00513071361254
0.00353488538308
0.00456409544823
0.00328923668817
0.00404987977498
0.00303821517016
0.00358434219319
0.00279106261771
0.00316304380767
0.0025524306479
0.00278290320836
0.0023226024629
0.00244271866859
0.00210028836548
0.00214161274242
0.00188626750089
0.00187762913593
0.00168348685551
0.00164741625686
0.00149535305346
0.00144682328677
0.00132401480142
0.00127184157479
0.00116969476776
0.00111910404981
0.00103132569079
0.000985918502022
0.000907425716578
0.000870008188056
0.000796728330588
0.000769236200926
0.000698302466367
0.000681604401261
0.000611199199831
0.000605418276404
0.000534217248562
0.000539226053777
0.000466242110261
0.000481777833127
0.000406245086499
0.000432069628501
0.000353191916599
0.000389330801926
0.00030612897675
0.000352899312687
0.000264701683421
0.000316697822728
0.000236583271644
0.000281120031796
0.000220395852185
0.000248462377232
0.000204236715619
0.000218140906433
0.000191962785116
0.000183155408587
0.000185944344249
0.000147213281904
0.000183530167251
0.000110702494081
0.000180727456876
8.6451472255e-05
0.000182950786779
6.61391592738e-05
0.000202060633012
4.04036150233e-05
0.000215341234776
2.00919589585e-05
0.000216116523563
0.000215281320346
0.000951294469649
-0.00635884230954
0.00195640459082
-0.0067201592165
0.00295669020118
-0.00669094345316
0.00394715853592
-0.00662990041657
0.00492457457855
-0.00654861824849
0.00588590683265
-0.00644822876999
0.00682830655637
-0.00632971196529
0.00774913072454
-0.00619417565469
0.00864596039815
-0.00604283923826
0.00951661435689
-0.00587700431671
0.0103591572271
-0.00569802504037
0.0111719023522
-0.00550727744132
0.0119534091425
-0.0053061298104
0.012702475293
-0.00509591293887
0.013418123437
-0.00487789253424
0.0140995830199
-0.00465324251278
0.0147462670045
-0.00442302212967
0.0153577448396
-0.00418815573755
0.0159337117495
-0.0039494185538
0.0164739565284
-0.00370742699852
0.016978328425
-0.00346263666756
0.017446705593
-0.00321534566104
0.0178789657266
-0.00296570524691
0.0182749607899
-0.00271373445516
0.0186344957863
-0.00245933954097
0.0189573122582
-0.00220233454144
0.019243075717
-0.00194246387683
0.0194913668576
-0.00167942417082
0.0197016759027
-0.00141288731063
0.0198734001207
-0.00114252330374
0.0200058450585
-0.000868027074799
0.0200982294369
-0.00058914078167
0.0201496963618
-0.000305688394934
0.0201593304044
-1.7605386304e-05
0.0201261822711
0.000275028625472
0.020049300819
0.0005719590886
0.0199277725521
0.000872728685341
0.019760766691
0.00117665668812
0.0195475840574
0.0014828269909
0.019287705773
0.0017900886001
0.0189808379982
0.00209706872122
0.0186269473386
0.00240219939291
0.018226282764
0.00270375375328
0.0177793802874
0.00299988722863
0.0172870500195
0.00328867337244
0.0167503486621
0.00356812336744
0.0161705464706
0.00383617402403
0.0155491048458
0.00409063348714
0.0148876838912
0.00432906940911
0.0141882172483
0.00454864869501
0.013453068475
0.00474591967449
0.0126853348003
0.00491661679028
0.0118892322933
0.00505549887668
0.0110706160212
0.00515647454338
0.0102373137371
0.00521303518221
0.00939917645719
0.00521935754866
0.00856736535404
0.00517167604244
0.00775309155768
0.0050695293593
0.0069679565405
0.00491362461644
0.00622151066047
0.00470957135242
0.00552413453729
0.00446064613591
0.00488718560349
0.00417185462726
0.00431480221272
0.00386163400686
0.00380371446487
0.00354931328974
0.00334595513242
0.00324883233616
0.00293311943659
0.00296528075451
0.00256071225836
0.00269501700465
0.0022291456926
0.00243185813412
0.00193935321182
0.00217605102755
0.00168981038076
0.00193301442781
0.00147609515616
0.00170904638004
0.00129231900451
0.00150776830882
0.00113322501802
0.00132876805844
0.000994989516125
0.00116954213119
0.000875052012992
0.00102734865528
0.000771403458413
0.000900362691245
0.000681919099372
0.000787775686135
0.000604417075501
0.000688691292156
0.00053724878918
0.000601376382911
0.000479035722677
0.000524445966927
0.000428542746944
0.000456729358161
0.00038483369483
0.000396892658371
0.00034719505581
0.00034376058968
0.000315170820369
0.000296720063471
0.000281492307323
0.000270256278636
0.000250278667666
0.000251605183631
0.000217148357962
0.000237363213852
0.000185055527401
0.000224052524724
0.000152310580317
0.000218686536074
0.000123711226907
0.000212126842702
9.25933126156e-05
0.000211843007553
6.42408223812e-05
0.000211300574177
5.01033317579e-05
0.000216194293647
3.19261124498e-05
0.000233516181647
1.57839785055e-05
0.000232256408332
0.000231062924291
0.000971201454996
-0.0073302569589
0.00199717081204
-0.00774635706556
0.00301793366674
-0.00771193098097
0.00402825927938
-0.00764045048749
0.00502473249903
-0.00754531311928
0.00600415879568
-0.00742787467751
0.00696355179163
-0.00728932159716
0.0079001570012
-0.00713099447142
0.0088114733471
-0.00695436547096
0.00969526693907
-0.00676100399121
0.0105495802635
-0.00655253998883
0.0113727340338
-0.00633062839728
0.012163324694
-0.00609691257301
0.0129202144397
-0.00585298983981
0.0136425169839
-0.00560037665456
0.0143295755563
-0.00534047730777
0.0149809369901
-0.00507455382377
0.0155963186835
-0.0048037020344
0.0161755733938
-0.00452883163998
0.0167186494604
-0.00425065557378
0.0172255524582
-0.00396968578328
0.0176963063895
-0.00368623972954
0.0181309204821
-0.00340045302518
0.0185293590346
-0.00311230067965
0.0188915190764
-0.00282162082093
0.0192172116886
-0.00252814241991
0.0195061501303
-0.00223151123742
0.0197579396775
-0.00193131675696
0.0199720721352
-0.00162711659366
0.0201479208591
-0.00131846310736
0.0202847407599
-0.00100493200264
0.0203816699342
-0.000686149409642
0.0204377399501
-0.000361832024023
0.0204518914739
-3.18251767545e-05
0.0204230010177
0.000303856399233
0.0203499159126
0.00064498660163
0.0202315010507
0.000991091274051
0.0200666924845
0.00134141783039
0.0198545586392
0.00169491851289
0.0195943612143
0.0020502484232
0.0192856130707
0.00240578429053
0.0189281226311
0.00275966204288
0.0185220201853
0.00310983367696
0.0180677566216
0.00345413353818
0.017566073937
0.00379034482457
0.017017946283
0.00411624548716
0.0164245054175
0.00442961664106
0.0157869623192
0.00472818334806
0.0151065692728
0.00500947874884
0.0143846424236
0.00527059322733
0.0136227482588
0.005507845424
0.0128230513092
0.00571633855043
0.0119889923521
0.00588960289004
0.0111261054239
0.00601939364029
0.0102429630809
0.00609623274828
0.00935140598609
0.00611096363359
0.00846548482762
0.00605766113172
0.00759818492511
0.00593689479958
0.00676465625832
0.00574721087404
0.00597357371074
0.00550070141921
0.00523836028922
0.0051958865544
0.00458035325467
0.00482987484948
0.00400507678163
0.00443691748576
0.003504404671
0.00404999230869
0.00306212907097
0.00369112051111
0.00266200475688
0.00336542010234
0.00229749310867
0.00305954036829
0.00197413147099
0.00275522207551
0.00169728665111
0.00245288858336
0.0014663628211
0.00216391975965
0.00127472835949
0.0019006586472
0.00111290356837
0.0016695703492
0.000973553075376
0.0014680967552
0.000852498257693
0.00129058108611
0.000747910492977
0.0011319206167
0.000658630571881
0.000989630559741
0.000582538882694
0.000863856294456
0.000516846048637
0.000754375151355
0.000460089749355
0.000658123609831
0.000411071292808
0.000573455262026
0.000368473848532
0.000499317418597
0.000331441859488
0.000433915919082
0.000299186590713
0.000376008643758
0.000270744068597
0.000325156490286
0.000241431583522
0.000299563839075
0.000213954011282
0.000279078684985
0.000185514117242
0.000265799838622
0.000153913360276
0.000255650712143
0.000124655737193
0.000247941984191
9.4989061591e-05
0.000241791447631
7.38238649641e-05
0.00023300570949
5.15814288583e-05
0.000233540035818
3.51274631467e-05
0.000232646242956
2.46921802531e-05
0.000243948162012
1.18102365771e-05
0.000245134407883
0.000242871893831
0.000994511078581
-0.00832498649233
0.00204491084664
-0.00879698406859
0.00308963549449
-0.0087568866869
0.00412317472285
-0.00867421760287
0.00514188906798
-0.00856425399821
0.0061423902001
-0.00842859947369
0.00712152616101
-0.00826867851123
0.00807641094229
-0.00808609673931
0.00900444623183
-0.00788261464236
0.00990333737143
-0.00766010474419
0.0107711015259
-0.00742050943079
0.0116060705462
-0.00716579772189
0.012406886385
-0.00689792381209
0.0131724914644
-0.0066187847544
0.0139021108611
-0.00633018052325
0.0145952290513
-0.00603377395801
0.0152515578008
-0.00573105532405
0.0158709991497
-0.00542330980279
0.0164536009808
-0.00511159393884
0.0169995109441
-0.00479671948029
0.017508927562
-0.00447925025525
0.0179820554335
-0.00415950884935
0.0184190635495
-0.00383759625554
0.0188200526811
-0.00351341833955
0.0191850289672
-0.00318671954087
0.019513886832
-0.00285711622871
0.0198063959255
-0.00252413028018
0.0200621933013
-0.00218721774756
0.0202807756247
-0.00184579669153
0.0204614938975
-0.00149927301338
0.0206035483792
-0.00114707245278
0.0207059878618
-0.000788668951744
0.0207677148659
-0.000423633659783
0.0207875007547
-5.16800584576e-05
0.0207640114273
0.000327281900383
0.020695847672
0.000713091893475
0.0205815982754
0.00110528712527
0.020419907188
0.0015030605239
0.0202095493112
0.0019052327676
0.0199495117181
0.00231024748423
0.0196390697255
0.00271619255458
0.0192778497304
0.00312085364969
0.0188658639697
0.00352179628419
0.018403508504
0.00391647187216
0.0178915124468
0.00430232934239
0.0173308412252
0.00467691216822
0.0167225547899
0.00503790346404
0.016067653832
0.00538309358778
0.0153669296829
0.00571021380255
0.0146209154967
0.00601663082181
0.0138299712209
0.00629880825574
0.0129947399735
0.00655160586632
0.0121170087062
0.00676735905827
0.0112012795575
0.00693516814916
0.0102566376743
0.00704091298354
0.0092981067612
0.00706954904295
0.00834483800707
0.00701098897617
0.00741044632516
0.00687135004787
0.00651836955916
0.00663934219093
0.0056685472312
0.00635056134747
0.00487762616512
0.00598682762086
0.00419313690845
0.00551436962744
0.00362222261646
0.00500783611048
0.00314686518877
0.00452535644221
0.0027347920542
0.0041032091374
0.00235333206723
0.00374689925299
0.00199283383772
0.00342005535661
0.00167350289214
0.00307455841734
0.00141031997897
0.00271606564645
0.00120404019617
0.00237018163687
0.0010432329165
0.00206144446119
0.000910518519326
0.00180226146143
0.000795226232757
0.00158337127631
0.000693453006023
0.00139233715946
0.000605607198699
0.00121975393919
0.000532732570124
0.00106249225625
0.000472575259585
0.000924003109176
0.000420284613501
0.000806656779293
0.000375191449783
0.000703207903171
0.000336613265158
0.000612022813107
0.000302811094082
0.000533109722241
0.000273187877467
0.00046352926811
0.000246999974141
0.000402188785329
0.000220706531366
0.000351444120746