/*--------------------------------*- C++ -*----------------------------------*\
| =========                 |                                                 |
| \\      /  F ield         | OpenFOAM: The Open Source CFD Toolbox           |
|  \\    /   O peration     | Version:  v1906                                 |
|   \\  /    A nd           | Web:      www.OpenFOAM.com                      |
|    \\/     M anipulation  |                                                 |
\*---------------------------------------------------------------------------*/
FoamFile
{
    version     2.0;
    format      ascii;
    class       volVectorField;
    location    "910";
    object      Ua;
}
// * * * * * * * * * * * * * * * * * * * * * * * * * * * * * * * * * * * * * //

dimensions      [0 1 -1 0 0 0 0];


internalField   nonuniform List<vector> 
9216
(
(-0.00666905964135 0.0066718585357 0)
(-0.00685593819425 0.0208070105983 2.37643933734e-27)
(-0.0068418633104 0.0350221229852 -4.61545591392e-31)
(-0.00679373459782 0.0492284565221 0)
(-0.0067263847397 0.0632889959418 0)
(-0.00664137783083 0.0771685492752 0)
(-0.00654011119534 0.0908277856527 0)
(-0.0064236453143 0.10423021726 0)
(-0.00629286924586 0.117341757232 0)
(-0.00614879584399 0.130130706546 0)
(-0.00599233257759 0.142567882134 0)
(-0.00582453476096 0.154626604398 0)
(-0.00564630616314 0.166282766202 0)
(-0.00545867942983 0.17751473459 0)
(-0.00526247781972 0.188303316201 0)
(-0.00505863079831 0.19863156704 0)
(-0.00484780580751 0.208484663411 0)
(-0.00463075993325 0.217849638247 0)
(-0.00440794818905 0.226715181863 0)
(-0.00417991045407 0.235071334334 0)
(-0.00394686113724 0.242909250746 0)
(-0.00370910977912 0.250220886541 0)
(-0.00346663571734 0.256998764844 0)
(-0.00321953898304 0.263235691215 0)
(-0.00296760145887 0.268924558969 0)
(-0.00271076423027 0.274058125256 0)
(-0.00244867629663 0.278628882128 0)
(-0.00218119432919 0.282628917315 0)
(-0.00190792010186 0.286049873331 0)
(-0.00162872123614 0.288882906335 0)
(-0.001343254803 0.291118770504 0)
(-0.00105149020316 0.29274787757 0)
(-0.000753242536717 0.293760420009 0)
(-0.000448729610962 0.294146658218 0)
(-0.000138061220831 0.293897180935 0)
(0.000178204442376 0.293003230934 0)
(0.000499570623717 0.291457100967 0)
(0.000825049804256 0.289252540637 0)
(0.00115369683948 0.286385212216 0)
(0.00148406577194 0.282853123771 0)
(0.0018147709599 0.278657075498 0)
(0.00214395287549 0.273801041281 0)
(0.00246986487125 0.268292532468 0)
(0.00279033661957 0.262142867353 0)
(0.00310337228121 0.255367420786 0)
(0.00340658705922 0.247985795445 0)
(0.0036977901693 0.240022012226 0)
(0.00397437146037 0.231504712772 0)
(0.00423384394965 0.222467441526 0)
(0.00447319130521 0.212949091275 0)
(0.00468937573178 0.202994415717 0)
(0.00487873985094 0.192654825497 0)
(0.00503754395438 0.181988996414 0)
(0.00516161888549 0.171063686662 0)
(0.00524700898446 0.159953725899 0)
(0.00529004505413 0.148741933424 0)
(0.00528794188061 0.137517457689 0)
(0.00523910955067 0.12637411866 0)
(0.00514317335193 0.115407307431 0)
(0.00500118290444 0.104711852741 0)
(0.00481522537585 0.094379035939 0)
(0.00458900529987 0.0844944884134 0)
(0.00432735343382 0.0751350213694 0)
(0.00403712167483 0.0663658642596 0)
(0.00372728497971 0.0582354115317 0)
(0.00340659648468 0.0507728079154 0)
(0.00308069462376 0.0439922623159 0)
(0.00275496741401 0.0378975174436 0)
(0.00243642721896 0.0324802718569 0)
(0.00213300430974 0.0277162339683 0)
(0.00185068738828 0.0235664594202 0)
(0.00159328057319 0.0199816150038 0)
(0.00136207318056 0.0169074940376 0)
(0.00115706852412 0.0142887415458 0)
(0.000977412721787 0.012071273403 0)
(0.00082215267909 0.0102028545202 0)
(0.000689816570716 0.00863378807624 0)
(0.000578153330383 0.00731824175853 0)
(0.000484194921745 0.00621610541887 0)
(0.000405156901593 0.00529342242481 0)
(0.000338636337918 0.00452170107438 0)
(0.000282516533063 0.00387703695399 0)
(0.000234518193862 0.00333990584037 0)
(0.000191385980524 0.00289847573232 0)
(0.00014722444152 0.00250829188897 0)
(0.000127280912868 0.00225180705101 0)
(0.000118515491353 0.00199931081647 0)
(0.000102166451492 0.00177722486133 0)
(9.76890603286e-05 0.00158989266252 0)
(9.88676206154e-05 0.00139150336251 0)
(9.45427827937e-05 0.00120094391791 0)
(9.09807583069e-05 0.00100927089433 0)
(9.68615568455e-05 0.000813558343284 0)
(0.000104917859857 0.000610078696686 0)
(0.000115251145125 0.000374076468638 0)
(0.00012245044131 0.000119785944963 0)
(-0.0208382440868 0.00689562806337 0)
(-0.0220000666955 0.0221004323715 0)
(-0.0219266406769 0.0372176228641 -2.44273275972e-27)
(-0.0217408907665 0.0523383524806 0)
(-0.0214879952693 0.0672919659994 0)
(-0.0211731746446 0.082049067318 0)
(-0.0208000056852 0.0965694986663 0)
(-0.0203720879867 0.11081498916 0)
(-0.0198930082417 0.124749411475 0)
(-0.0193666897026 0.138339112149 0)
(-0.0187969958176 0.151553092052 0)
(-0.018188045497 0.164363069619 0)
(-0.0175437221999 0.17674352096 0)
(-0.0168680325755 0.18867161785 0)
(-0.0161645647225 0.200127149277 0)
(-0.0154369063694 0.211092352066 0)
(-0.0146880704291 0.221551731718 0)
(-0.0139209786477 0.231491808173 0)
(-0.0131378679624 0.240900863887 0)
(-0.0123408418086 0.249768637917 0)
(-0.0115312668126 0.258086038898 0)
(-0.0107103903451 0.265844827897 0)
(-0.00987873221829 0.273037338076 0)
(-0.00903676180534 0.279656187169 0)
(-0.00818428401858 0.285694042306 0)
(-0.00732116639507 0.291143396286 0)
(-0.00644671677979 0.295996407138 0)
(-0.00556045088481 0.30024476288 0)
(-0.0046614602757 0.303879616321 0)
(-0.00374921486871 0.306891557195 0)
(-0.00282292352313 0.309270647222 0)
(-0.00188234715905 0.311006537697 0)
(-0.000927154877384 0.312088673936 0)
(4.22085968539e-05 0.31250645243 0)
(0.00102521172575 0.31224956307 0)
(0.00202038487658 0.311308342205 0)
(0.00302602629182 0.309674196803 0)
(0.00403937480843 0.307340061258 0)
(0.00505737406396 0.304300889485 0)
(0.00607588932126 0.300554143706 0)
(0.00709054531726 0.296100276177 0)
(0.00809598963151 0.290943159719 0)
(0.0090867943541 0.285090469704 0)
(0.0100567316543 0.278553979762 0)
(0.0109996879719 0.27134979693 0)
(0.0119088743124 0.263498524592 0)
(0.0127776636051 0.255025411267 0)
(0.013598651124 0.245960520445 0)
(0.0143643387119 0.236338989346 0)
(0.0150660507737 0.226201463875 0)
(0.0156945118187 0.215594702028 0)
(0.0162388612712 0.204572449994 0)
(0.0166874202358 0.193196354575 0)
(0.0170273540583 0.181536943156 0)
(0.01724607252 0.169674054247 0)
(0.0173319894762 0.157696702635 0)
(0.0172763123968 0.145701560884 0)
(0.0170740651219 0.133790591363 0)
(0.0167244619012 0.122067646772 0)
(0.016230683985 0.110635788132 0)
(0.0155996264433 0.0995945207252 0)
(0.0148424497405 0.0890374783093 0)
(0.0139745696646 0.0790494220052 0)
(0.013016917195 0.069703871741 0)
(0.012000792524 0.0610541018764 0)
(0.010954928998 0.0531274714418 0)
(0.00989580220392 0.0459354534112 0)
(0.00883785171645 0.0394834078158 0)
(0.0078045123864 0.033765221285 0)
(0.0068222488388 0.0287541222553 0)
(0.00591112581389 0.0244045069773 0)
(0.0050826861818 0.0206591172546 0)
(0.00434039482768 0.0174564704182 0)
(0.00368319527723 0.0147356159246 0)
(0.00310795342253 0.0124382028397 0)
(0.00261153250035 0.0105081861078 0)
(0.00218954671769 0.00889149775707 0)
(0.00183446625411 0.00753796853806 0)
(0.00153616479025 0.00640451689031 0)
(0.00128533436306 0.0054557440723 0)
(0.00107446590627 0.00466215764619 0)
(0.000897152880325 0.00399852341916 0)
(0.000746861865755 0.0034434026994 0)
(0.000617319045033 0.00297906721138 0)
(0.000499645702481 0.00257675606377 0)
(0.000414461279232 0.00220152744471 0)
(0.000359192389736 0.00194419782191 0)
(0.000309218763807 0.0017240349094 0)
(0.000289349894981 0.00151385921153 0)
(0.000289719906184 0.00134424869412 0)
(0.000283494903345 0.00117463523966 0)
(0.00028109603572 0.000976684556472 0)
(0.000290355656034 0.000778625586569 0)
(0.000338990563614 0.000605081042276 0)
(0.000400147573066 0.000381635382316 0)
(0.00035779191736 0.000104390887095 0)
(-0.0352142008856 0.00695090074381 0)
(-0.0371991431848 0.022283069255 0)
(-0.0370484933572 0.0374922202066 -2.44610675544e-27)
(-0.0367288444276 0.0527223196186 0)
(-0.0363025381301 0.0677831976264 0)
(-0.0357747542862 0.0826440784906 0)
(-0.035150221139 0.0972638127167 0)
(-0.0344343865118 0.111603617044 0)
(-0.0336331765968 0.125626967379 0)
(-0.0327529675035 0.139299923258 0)
(-0.0318003193088 0.152591294819 0)
(-0.030781972487 0.165472728504 0)
(-0.0297045579388 0.177918733458 0)
(-0.0285746147826 0.189906631719 0)
(-0.0273982919892 0.20141645855 0)
(-0.0261814023421 0.21243079642 0)
(-0.0249291333972 0.222934569329 0)
(-0.02364615141 0.232914784866 0)
(-0.022336337364 0.242360252087 0)
(-0.0210029515282 0.251261266928 0)
(-0.0196484053084 0.259609294218 0)
(-0.018274490207 0.267396640454 0)
(-0.0168821875123 0.274616145143 0)
(-0.0154719560585 0.28126088512 0)
(-0.0140435727556 0.28732391629 0)
(-0.0125964670076 0.292798045215 0)
(-0.0111295816119 0.297675650652 0)
(-0.00964174206886 0.301948546067 0)
(-0.00813153068268 0.30560790075 0)
(-0.00659768339655 0.308644207797 0)
(-0.00503898414495 0.311047328371 0)
(-0.0034546778377 0.312806585187 0)
(-0.00184435570126 0.313910916327 0)
(-0.000208404419914 0.314349121949 0)
(0.0014521140762 0.314110176915 0)
(0.00313504119386 0.313183604477 0)
(0.00483728212551 0.31155992089 0)
(0.00655443628159 0.309231126233 0)
(0.00828104249036 0.306191232786 0)
(0.0100103029579 0.302436798893 0)
(0.011734444642 0.297967450016 0)
(0.0134445486785 0.292786347685 0)
(0.015131013899 0.28690058866 0)
(0.0167834391656 0.280321503106 0)
(0.0183910968498 0.27306485497 0)
(0.0199427323239 0.265150945809 0)
(0.0214268807373 0.256604667705 0)
(0.0228314109782 0.247455563277 0)
(0.0241435357563 0.237737981992 0)
(0.0253490484748 0.227491444298 0)
(0.0264321010189 0.216761287996 0)
(0.0273744827113 0.205599700708 0)
(0.0281557376213 0.194067020357 0)
(0.0287534705325 0.182233234354 0)
(0.0291448432888 0.170179074897 0)
(0.0293088980801 0.15799631536 0)
(0.0292294245601 0.145786277175 0)
(0.0288975666465 0.133656638468 0)
(0.0283122401504 0.121716897951 0)
(0.0274785255894 0.110075471107 0)
(0.026408135933 0.098837309764 0)
(0.0251189887955 0.0881019134249 0)
(0.0236366703653 0.0779606831043 0)
(0.0219933068208 0.0684988479353 0)
(0.0202537227645 0.0597756427499 0)
(0.0184729443168 0.0518071410112 0)
(0.0166715645739 0.0445940567993 0)
(0.0148642241007 0.0381473034782 0)
(0.0130962820326 0.0324701154731 0)
(0.0114197007173 0.0275333290333 0)
(0.00987193150269 0.0232806286012 0)
(0.0084713617366 0.0196429747464 0)
(0.00722125555814 0.0165501571676 0)
(0.00611674517959 0.0139367631691 0)
(0.00515109570678 0.0117432579815 0)
(0.00431956627272 0.00991289917626 0)
(0.00361657751613 0.00838848944387 0)
(0.00302870748141 0.00711559033191 0)
(0.00253610624987 0.00604981923008 0)
(0.00212179912022 0.00515773882764 0)
(0.00177379870671 0.00441200128422 0)
(0.00148234404809 0.00378819579707 0)
(0.00123692501817 0.00326570921259 0)
(0.00102954644978 0.00282922607168 0)
(0.000857351986542 0.00245065844931 0)
(0.000719788101771 0.00210495010444 0)
(0.000629045853827 0.00189003848326 0)
(0.00053355121499 0.00160998764606 0)
(0.000467696470079 0.00137570780769 0)
(0.000457854296683 0.00122187158568 0)
(0.000483667255444 0.00109512738681 0)
(0.000464446681794 0.000853442952692 0)
(0.000495635758853 0.000683860117239 0)
(0.000546386132726 0.000486295611539 0)
(0.000591381852033 0.000287072216431 0)
(0.000566753798599 8.82668202188e-05 0)
(-0.0497875863596 0.00700812894526 0)
(-0.0526176832419 0.0224863744952 0)
(-0.052402180619 0.037819015923 2.4457812459e-27)
(-0.0519458035913 0.05317787131 0)
(-0.0513378846079 0.0683638455598 0)
(-0.0505861493288 0.0833449543361 0)
(-0.0496972924772 0.0980788766921 0)
(-0.0486790167304 0.112526020929 0)
(-0.0475398296791 0.126649265841 0)
(-0.0462888506851 0.140414264194 0)
(-0.0449355586722 0.153789596576 0)
(-0.0434896152157 0.16674685934 0)
(-0.0419606128733 0.179260683036 0)
(-0.0403579139441 0.191308679366 0)
(-0.0386904121196 0.202871325975 0)
(-0.0369664042362 0.213931788117 0)
(-0.0351933856563 0.224475688681 0)
(-0.033377975605 0.234490829047 0)
(-0.0315257671239 0.243966875531 0)
(-0.0296413238964 0.252895017673 0)
(-0.0277280993121 0.261267615729 0)
(-0.0257885126989 0.269077845654 0)
(-0.0238239386565 0.276319358941 0)
(-0.0218348554265 0.282985964223 0)
(-0.0198208912063 0.289071344562 0)
(-0.0177810266224 0.294568813373 0)
(-0.0157136794756 0.299471118419 0)
(-0.0136169444313 0.30377029349 0)
(-0.0114887045866 0.307457565381 0)
(-0.0093269015825 0.310523309995 0)
(-0.0071296810713 0.312957089533 0)
(-0.00489567680941 0.314747736554 0)
(-0.00262416737735 0.315883493177 0)
(-0.000315408002381 0.316352271793 0)
(0.00202922076304 0.316141972885 0)
(0.00440691606461 0.315240882803 0)
(0.00681334903976 0.313638151934 0)
(0.00924244787426 0.311324335715 0)
(0.0116864128298 0.308291982445 0)
(0.0141356461511 0.304536237694 0)
(0.016578941101 0.300055433743 0)
(0.0190035884864 0.294851621609 0)
(0.0213957297554 0.288931008081 0)
(0.0237405736342 0.282304260559 0)
(0.0260227797634 0.274986661303 0)
(0.0282265790997 0.266998112668 0)
(0.0303359210154 0.258363032127 0)
(0.0323341978177 0.249110214431 0)
(0.0342038781634 0.239272785026 0)
(0.0359256567485 0.228888402063 0)
(0.0374776174083 0.217999903846 0)
(0.0388341763811 0.206656524396 0)
(0.0399656869029 0.194915835015 0)
(0.0408386574198 0.182846103628 0)
(0.0414178863625 0.17052874418 0)
(0.0416701423377 0.158059552188 0)
(0.0415697151647 0.145547468888 0)
(0.0411031843123 0.133109760539 0)
(0.0402704183106 0.120864398875 0)
(0.0390779588709 0.10892742273 0)
(0.0375425359924 0.0974113486387 0)
(0.0356878073327 0.086423845733 0)
(0.0335480836349 0.076064028155 0)
(0.031152623224 0.0664447710565 0)
(0.028631112764 0.0576423529606 0)
(0.0260836899592 0.0496399665265 0)
(0.0235120658809 0.0424087196232 0)
(0.0209053632324 0.0359787279956 0)
(0.0183476576247 0.0303811793928 0)
(0.0159341380581 0.0255813523294 0)
(0.0137251349408 0.0215000000128 0)
(0.01174278755 0.0180455864796 0)
(0.00998402390594 0.0151332712267 0)
(0.00843426811626 0.0126919985091 0)
(0.00707989433417 0.0106634405644 0)
(0.00591666262008 0.00899260901077 0)
(0.00494299904005 0.00761666268124 0)
(0.00413862591538 0.00647107728721 0)
(0.00346648922553 0.00550914314254 0)
(0.00289952868175 0.00470325930693 0)
(0.00242324315872 0.00403109323448 0)
(0.00202658368273 0.00346884288967 0)
(0.00169277442735 0.00299678108401 0)
(0.00141064284244 0.00260423032507 0)
(0.00117677845801 0.00225151089843 0)
(0.00100863650116 0.00196995137831 0)
(0.000879328078009 0.0017246541533 0)
(0.000759859645619 0.00145509439171 0)
(0.000692219039879 0.00126389326845 0)
(0.000633504917283 0.00104263093063 0)
(0.000627465493312 0.000862275169082 0)
(0.000679305632148 0.000734101296765 0)
(0.000667362009198 0.000514475994192 0)
(0.000710000761009 0.000346195768606 0)
(0.000758391122545 0.000205106603802 0)
(0.000740769143079 6.67913294624e-05 0)
(-0.0645074517575 0.0070820104193 0)
(-0.0681789697767 0.0227549966904 0)
(-0.067897164932 0.0382590400439 0)
(-0.0673007846644 0.0537917461257 0)
(-0.0665064117523 0.069145909797 0)
(-0.0655245618618 0.0842883275273 0)
(-0.0643641960552 0.0991752897194 0)
(-0.0630355378186 0.113766119955 0)
(-0.0615498837852 0.128022872587 0)
(-0.0599193247293 0.141910632612 0)
(-0.0581564482014 0.15539766425 0)
(-0.0562740596616 0.168455496401 0)
(-0.0542848896273 0.181058933466 0)
(-0.0522013303814 0.193185992553 0)
(-0.0500351666358 0.20481777081 0)
(-0.0477973504193 0.215938245933 0)
(-0.0454977810705 0.226534016795 0)
(-0.0431451461217 0.236593991092 0)
(-0.0407467790527 0.246109031548 0)
(-0.0383085924536 0.25507157233 0)
(-0.0358350346466 0.263475221427 0)
(-0.0333291274953 0.271314363249 0)
(-0.0307925232373 0.278583777622 0)
(-0.0282256362668 0.285278287211 0)
(-0.0256277791355 0.291392444987 0)
(-0.0229973604508 0.296920267468 0)
(-0.020332070914 0.301855018919 0)
(-0.0176291224704 0.306189047125 0)
(-0.01488546827 0.309913674126 0)
(-0.012098076755 0.313019134717 0)
(-0.00926419690631 0.315494602383 0)
(-0.00638165251243 0.317328256099 0)
(-0.00344913936784 0.318507406033 0)
(-0.000466582805716 0.319018757098 0)
(0.00256456744695 0.318848736536 0)
(0.00564101096941 0.317983919099 0)
(0.00875735219571 0.316411551994 0)
(0.0119058780729 0.314120164348 0)
(0.0150764711697 0.31110024256 0)
(0.0182565944818 0.30734493805 0)
(0.0214314546117 0.302850765102 0)
(0.0245842563113 0.297618233749 0)
(0.0276966251213 0.291652359289 0)
(0.0307490619142 0.284962990886 0)
(0.033721452978 0.277564916014 0)
(0.0365934373197 0.269477727642 0)
(0.0393446041705 0.260725481552 0)
(0.0419542969005 0.251336242459 0)
(0.044401001234 0.241341665624 0)
(0.0466611960729 0.230776890206 0)
(0.048707761193 0.219680979042 0)
(0.0505082089173 0.20809839186 0)
(0.0520231393011 0.196081560425 0)
(0.0532060790042 0.183694917382 0)
(0.0540055642811 0.171019454129 0)
(0.0543712439151 0.15815643463 0)
(0.0542634878495 0.145226993097 0)
(0.0536638460964 0.13236439375 0)
(0.0525773876604 0.119698107641 0)
(0.0510103953416 0.107353420258 0)
(0.0489857175121 0.0954524083278 0)
(0.0465320079889 0.0841121582326 0)
(0.0436931506313 0.0734296743814 0)
(0.0404347493835 0.0635855311307 0)
(0.0370431992273 0.0547098783655 0)
(0.0337171552681 0.0466908511288 0)
(0.0303682048156 0.0394181462652 0)
(0.0268880691671 0.0329849988758 0)
(0.0234544525699 0.02750069854 0)
(0.0202460384587 0.0229123425493 0)
(0.0173525490315 0.0190905763056 0)
(0.0147895795748 0.0159029610226 0)
(0.0125349795765 0.0132425677822 0)
(0.0105528564069 0.0110334231705 0)
(0.00881583933651 0.00922632057756 0)
(0.00732587066907 0.00777656417388 0)
(0.00610113139526 0.00661092020675 0)
(0.00511390766481 0.00563947392793 0)
(0.00428893860601 0.0048110575094 0)
(0.00358534659347 0.00411478094403 0)
(0.00299314059537 0.00353930386727 0)
(0.00250669739892 0.00305793832262 0)
(0.00209582197028 0.00264989546173 0)
(0.0017463077438 0.00231153545552 0)
(0.00145034317891 0.00198813139059 0)
(0.00129040951311 0.00178174900627 0)
(0.00115432205688 0.00154518731315 0)
(0.00101059005218 0.0012956097164 0)
(0.000874099587497 0.00103237818056 0)
(0.000827193066679 0.000848547344483 0)
(0.000784330990072 0.000647746029376 0)
(0.000823940356813 0.000525538858586 0)
(0.000871062399119 0.000391421782665 0)
(0.000846521623767 0.000235168617199 0)
(0.000853904861765 0.000131542046507 0)
(0.000832035545616 4.3391396089e-05 0)
(-0.0794236873243 0.00717414442774 0)
(-0.0839434644991 0.0230943528479 0)
(-0.0835920558917 0.0388177218062 0)
(-0.0828502852118 0.0545717550286 0)
(-0.0818622810523 0.0701395092035 0)
(-0.0806415115274 0.0854863977817 0)
(-0.079199465233 0.100567047017 0)
(-0.0775491742981 0.11533942803 0)
(-0.0757050073762 0.129764548287 0)
(-0.0736823201776 0.143806767476 0)
(-0.0714970905822 0.157433948553 0)
(-0.069165556133 0.170617541459 0)
(-0.0667038518611 0.18333258624 0)
(-0.0641276641237 0.195557636806 0)
(-0.0614518975136 0.207274607698 0)
(-0.0586903735105 0.218468546604 0)
(-0.0558555589174 0.229127338421 0)
(-0.0529583458538 0.239241348402 0)
(-0.0500078806014 0.248803016255 0)
(-0.0470114624172 0.257806415546 0)
(-0.0439745037941 0.266246796438 0)
(-0.0409005670916 0.274120130425 0)
(-0.0377914587421 0.281422676099 0)
(-0.034647387867 0.288150581563 0)
(-0.0314671621265 0.294299535529 0)
(-0.0282484253748 0.299864473213 0)
(-0.0249879103287 0.30483933903 0)
(-0.0216817181187 0.309216904379 0)
(-0.0183256058762 0.312988639805 0)
(-0.0149153040651 0.316144630668 0)
(-0.0114468605901 0.318673586573 0)
(-0.00791698903199 0.320562879604 0)
(-0.00432347048844 0.321798649827 0)
(-0.000665591105648 0.322366062948 0)
(0.003055442417 0.322249645017 0)
(0.00683608209237 0.32143373701 0)
(0.0106700725043 0.319903077169 0)
(0.0145481526796 0.317643499527 0)
(0.0184578885843 0.314642728871 0)
(0.0223836516632 0.310891235162 0)
(0.0263067989749 0.306383092751 0)
(0.0302060466502 0.301116771825 0)
(0.0340580513907 0.295095775555 0)
(0.0378381273125 0.288329032404 0)
(0.0415210315028 0.280830963329 0)
(0.0450816478779 0.272621174515 0)
(0.0484954137243 0.263723789193 0)
(0.0517382434924 0.254166500484 0)
(0.0547857880574 0.24397957169 0)
(0.0576118112343 0.233195057378 0)
(0.0601857378153 0.221846831141 0)
(0.0624693978431 0.209971847708 0)
(0.0644137918299 0.197613690685 0)
(0.0659569090576 0.18482855883 0)
(0.0670252556543 0.171693979499 0)
(0.0675421725528 0.158317571889 0)
(0.0674453438854 0.144840171639 0)
(0.0667107698446 0.131423749739 0)
(0.0653632321365 0.11821102119 0)
(0.0634008771246 0.105335807497 0)
(0.0608560587523 0.0929330048922 0)
(0.0577661974101 0.0811313250217 0)
(0.0542101385242 0.0699668508233 0)
(0.0498584499355 0.0597948270078 0)
(0.0454319692939 0.0509246822031 0)
(0.0413873733028 0.0429649300421 0)
(0.0373208237402 0.035579764906 0)
(0.0328245505045 0.0290652241943 0)
(0.0283549527161 0.0237394384649 0)
(0.024261899024 0.0194797325685 0)
(0.0206622956608 0.0160438069373 0)
(0.0175355825857 0.0132282607045 0)
(0.0148163273983 0.0108967669721 0)
(0.012425889761 0.00897304889285 0)
(0.0103067721924 0.00743660440525 0)
(0.00847943475876 0.00627798437492 0)
(0.00702789008394 0.00540471632969 0)
(0.00592192539484 0.00465888093248 0)
(0.00498487399643 0.00398057876405 0)
(0.00415892527429 0.0034074623276 0)
(0.00346032161977 0.0029524454247 0)
(0.00290925841282 0.00257152122321 0)
(0.00243701071056 0.00223626139656 0)
(0.00203098946766 0.00195474838213 0)
(0.00169319414899 0.00167446220236 0)
(0.00152285022704 0.00148801074361 0)
(0.00134550279271 0.00124274869553 0)
(0.001225338187 0.00104938510096 0)
(0.00113091055122 0.000851354846901 0)
(0.00106307222111 0.000664916727098 0)
(0.000938234780932 0.00045397323771 0)
(0.000917378211676 0.000316156496418 0)
(0.000975703489968 0.000239469278611 0)
(0.000956503382171 0.000151537220425 0)
(0.000926617395767 7.89038876027e-05 0)
(0.000903450265113 2.57893953667e-05 0)
(-0.0945823086467 0.00728609698938 0)
(-0.0999612230584 0.0235086335254 0)
(-0.0995356140613 0.039500527214 2.46372611305e-27)
(-0.0986412470691 0.055525240999 0)
(-0.0974502727346 0.0713538233065 0)
(-0.095979301533 0.0869499874017 0)
(-0.0942426296325 0.102266340104 0)
(-0.0922564260126 0.117259199676 0)
(-0.0900384807342 0.131888291697 0)
(-0.087607776352 0.146117088944 0)
(-0.0849840426566 0.159912969814 0)
(-0.0821873089262 0.173247301435 0)
(-0.0792374604668 0.18609543454 0)
(-0.0761538082131 0.198436611964 0)
(-0.0729546776162 0.210253791416 0)
(-0.0696570282907 0.221533384637 0)
(-0.0662761143441 0.23226491676 0)
(-0.0628252010161 0.242440613562 0)
(-0.0593153493873 0.252054928791 0)
(-0.0557552836359 0.261104029085 0)
(-0.0521513463641 0.26958525843 0)
(-0.0485075461948 0.27749660672 0)
(-0.0448256890907 0.284836206666 0)
(-0.0411055834016 0.291601879515 0)
(-0.0373452980545 0.297790743417 0)
(-0.0335414585408 0.303398889821 0)
(-0.0296895623726 0.308421125754 0)
(-0.0257843095568 0.312850774684 0)
(-0.0218199451217 0.316679529641 0)
(-0.017790625078 0.3198973408 0)
(-0.0136908262125 0.322492401061 0)
(-0.00951575843717 0.324451139881 0)
(-0.00526186831598 0.325758296943 0)
(-0.000927380944892 0.326397158598 0)
(0.00348715240113 0.326349891013 0)
(0.00797829838835 0.325598020821 0)
(0.0125392296393 0.324123082861 0)
(0.017159300551 0.32190742824 0)
(0.0218237732971 0.318935176322 0)
(0.0265137480615 0.315193270068 0)
(0.0312063581073 0.310672568796 0)
(0.0358752620338 0.305368882424 0)
(0.0404914451908 0.299283824453 0)
(0.0450242804644 0.292425344725 0)
(0.0494427419103 0.284807801084 0)
(0.0537165775402 0.276451467739 0)
(0.0578171761737 0.267381432763 0)
(0.0617178086885 0.257625977029 0)
(0.0653928840881 0.24721460852 0)
(0.0688159183506 0.236176244056 0)
(0.0719559161843 0.224538016078 0)
(0.0747721266213 0.212325961659 0)
(0.0772075451605 0.199568669893 0)
(0.079182638713 0.186306071478 0)
(0.0805932226107 0.172604494933 0)
(0.0813195996799 0.158576362886 0)
(0.0812567496317 0.144395451404 0)
(0.0803726253137 0.130282137779 0)
(0.0787602358432 0.116388065048 0)
(0.0763760308812 0.102846086925 0)
(0.0732676686086 0.0898175758972 0)
(0.0695097814835 0.0774661448999 0)
(0.0653920928218 0.0655222191502 0)
(0.0593975239634 0.0548075978659 0)
(0.0535635934009 0.0462390099941 0)
(0.0490957859533 0.0385813205373 0)
(0.0445396686237 0.0308604151241 0)
(0.0386733936848 0.0240264460894 0)
(0.0328577199938 0.0189464966105 0)
(0.0277634312788 0.0152286390753 0)
(0.0234740239882 0.0123733167603 0)
(0.019845141908 0.0100655738596 0)
(0.016733113936 0.00814045845543 0)
(0.0139868501557 0.00653013533101 0)
(0.0114784960917 0.00528453498988 0)
(0.00926584501518 0.00450029647275 0)
(0.00762295275008 0.00405414904589 0)
(0.00654677452396 0.00359673293645 0)
(0.00556032199978 0.00304821525425 0)
(0.00460696994765 0.00259032914336 0)
(0.00379217450894 0.00228965913812 0)
(0.00322605890687 0.00203461056639 0)
(0.00271115819972 0.0017710529605 0)
(0.00225547178317 0.00154974672665 0)
(0.00192773998487 0.00134199528143 0)
(0.00173565965723 0.00115968128751 0)
(0.00156507738103 0.000959879559573 0)
(0.0014072163114 0.000757560101645 0)
(0.00131538607217 0.000586677074859 0)
(0.00119653439868 0.000415598129583 0)
(0.00113315453068 0.000287251322071 0)
(0.00102100427957 0.000155720295801 0)
(0.000998608376878 9.2868643843e-05 0)
(0.00101120207086 6.28955554149e-05 0)
(0.000965273986804 2.96686609946e-05 0)
(0.00093976463754 9.35912880922e-06 0)
(-0.110032730494 0.00741911519191 0)
(-0.116284626538 0.0240023689269 0)
(-0.115779154415 0.040314291 -2.46334594198e-27)
(-0.114723162603 0.0566614680939 0)
(-0.113317536498 0.072800357427 0)
(-0.111582315383 0.0886925822607 0)
(-0.109534951657 0.104288302734 0)
(-0.107195150112 0.119541846536 0)
(-0.104584549677 0.134411400896 0)
(-0.101726202357 0.148859381577 0)
(-0.0986440353853 0.162852599377 0)
(-0.0953623115936 0.176362342538 0)
(-0.0919050953589 0.189364363075 0)
(-0.088295731707 0.201838768649 0)
(-0.0845563453685 0.213769819618 0)
(-0.0807073717078 0.225145630325 0)
(-0.076767133328 0.23595777624 0)
(-0.0727514821001 0.246200812717 0)
(-0.0686735255681 0.255871718395 0)
(-0.0645434575524 0.264969283851 0)
(-0.0603685045074 0.273493473861 0)
(-0.0561529925172 0.281444796003 0)
(-0.0518985254205 0.288823708847 0)
(-0.0476042560177 0.295630097411 0)
(-0.0432672214013 0.301862833247 0)
(-0.038882714656 0.307519423032 0)
(-0.0344446677147 0.312595736759 0)
(-0.0299460354916 0.317085798449 0)
(-0.0253791829098 0.320981623037 0)
(-0.0207362922613 0.324273071352 0)
(-0.0160098265637 0.326947801344 0)
(-0.0111930048682 0.328991195983 0)
(-0.00628041077214 0.330386385055 0)
(-0.00126865783039 0.331114436271 0)
(0.00384290616041 0.331154668295 0)
(0.00905146568668 0.330485146714 0)
(0.0143500344777 0.32908339824 0)
(0.019726845801 0.326927347172 0)
(0.0251649173054 0.323996464734 0)
(0.0306418767724 0.320273092494 0)
(0.0361301404192 0.315743863579 0)
(0.041597517473 0.310401100467 0)
(0.0470082826938 0.304244020738 0)
(0.0523246900649 0.297279541747 0)
(0.0575088092468 0.289522460091 0)
(0.0625244429726 0.28099479788 0)
(0.0673387610035 0.271724203392 0)
(0.0719231820952 0.261741393422 0)
(0.0762529665971 0.251076881248 0)
(0.0803049800823 0.239757323107 0)
(0.08405297024 0.227802331765 0)
(0.0874597828173 0.215222857254 0)
(0.0904658652593 0.202023700949 0)
(0.0929750944369 0.188213872379 0)
(0.0948416761882 0.173830711681 0)
(0.0958727454726 0.158980964766 0)
(0.0958704328576 0.14389306765 0)
(0.0947769170009 0.128927066564 0)
(0.0929166575227 0.114214258452 0)
(0.0900843148494 0.0998431103621 0)
(0.0863118963397 0.0860668765917 0)
(0.0817798310906 0.0732566865724 0)
(0.0778812932269 0.0598629545056 0)
(0.068777035626 0.0479775303466 0)
(0.0607349941907 0.0406391544741 0)
(0.0576694079864 0.0340060435996 0)
(0.0544522148576 0.0253347768283 0)
(0.0462418447222 0.0176293817996 0)
(0.0381395931807 0.0131113867775 0)
(0.0316230915545 0.0103958840456 0)
(0.0264923629368 0.00843048469712 0)
(0.0223905274496 0.00677695185693 0)
(0.0190005432971 0.00529421583608 0)
(0.0159375293419 0.00392930904326 0)
(0.0128241982479 0.0028726837577 0)
(0.00980323805619 0.0025107685541 0)
(0.00777346692803 0.00271005453793 0)
(0.00702873256168 0.00260636838009 0)
(0.00606042536475 0.0020469609205 0)
(0.00490363563716 0.00164313993856 0)
(0.0039101189873 0.00157246657097 0)
(0.00346733270885 0.00149069114191 0)
(0.00292681176477 0.00126377791616 0)
(0.00240994465059 0.00110530339193 0)
(0.00213043716749 0.000967894010275 0)
(0.00191239916437 0.0007984760894 0)
(0.00176765578799 0.000642762469271 0)
(0.00160591980409 0.000469257798827 0)
(0.00146524176279 0.00031643029054 0)
(0.00131716338453 0.000179141881916 0)
(0.0012055076873 8.00283251902e-05 0)
(0.00113014603029 1.51786465605e-05 0)
(0.00102384166079 -2.5698230151e-05 0)
(0.00103134992037 -3.03915215555e-05 0)
(0.000970672976626 -1.82768424005e-05 0)
(0.000940194987305 -7.27131168661e-06 0)
(-0.12582759228 0.00757451055472 0)
(-0.132968941692 0.0245808787321 0)
(-0.132376738597 0.0412674021967 0)
(-0.131148083373 0.0579918612057 0)
(-0.129513515658 0.0744932899163 0)
(-0.127496890707 0.0907307591902 0)
(-0.125119258409 0.106651498452 0)
(-0.122404349267 0.12220746488 0)
(-0.119378171322 0.137355028318 0)
(-0.116068380584 0.152055367376 0)
(-0.112503639315 0.166274642241 0)
(-0.108712976042 0.179984074676 0)
(-0.104725153922 0.193159924899 0)
(-0.100568050939 0.205783367559 0)
(-0.0962680581866 0.217840263101 0)
(-0.0918495069532 0.2293208196 0)
(-0.0873341435449 0.240219141106 0)
(-0.082740676858 0.250532665041 0)
(-0.0780844288204 0.260261500816 0)
(-0.0733771159373 0.269407694615 0)
(-0.0686267837229 0.277974457259 0)
(-0.0638379010005 0.285965400812 0)
(-0.0590116038322 0.293383831112 0)
(-0.0541460591425 0.300232136169 0)
(-0.0492369052685 0.306511293953 0)
(-0.0442777217581 0.312220501219 0)
(-0.0392604907734 0.317356903332 0)
(-0.0341760318818 0.321915390969 0)
(-0.0290144188093 0.325888430263 0)