/*--------------------------------*- C++ -*----------------------------------*\
| =========                 |                                                 |
| \\      /  F ield         | OpenFOAM: The Open Source CFD Toolbox           |
|  \\    /   O peration     | Version:  v1906                                 |
|   \\  /    A nd           | Web:      www.OpenFOAM.com                      |
|    \\/     M anipulation  |                                                 |
\*---------------------------------------------------------------------------*/
FoamFile
{
    version     2.0;
    format      ascii;
    class       volVectorField;
    location    "330";
    object      Ua;
}
// * * * * * * * * * * * * * * * * * * * * * * * * * * * * * * * * * * * * * //

dimensions      [0 1 -1 0 0 0 0];


internalField   nonuniform List<vector> 
9216
(
(-0.00409696225464 0.00410286436427 0)
(-0.00365450215881 0.0113763586127 -4.85690694293e-28)
(-0.00368702627345 0.0192617674188 -2.61742881431e-31)
(-0.00365497349834 0.0269148751434 0)
(-0.00358852318913 0.0344613916148 0)
(-0.00349969002176 0.0418315538537 0)
(-0.0033936456226 0.0489838014004 0)
(-0.00327222503478 0.0558832307739 0)
(-0.00313832668026 0.0624991869372 0)
(-0.00299280226173 0.0688057803347 0)
(-0.00283846431803 0.0747805732516 0)
(-0.00267586652082 0.080405602099 0)
(-0.00250788483447 0.0856661621836 0)
(-0.00233476714102 0.0905517198962 0)
(-0.00215937769693 0.0950546719209 0)
(-0.00198160141096 0.099171109367 0)
(-0.0018042273224 0.102899589989 0)
(-0.00162675892987 0.106241771598 0)
(-0.00145187848855 0.109201266811 0)
(-0.0012787252006 0.111784177027 0)
(-0.00110987495575 0.113998074346 0)
(-0.000944149492627 0.115852444247 0)
(-0.000784030339483 0.117357832776 0)
(-0.000628076168038 0.118526205985 0)
(-0.000478691398268 0.119370266189 0)
(-0.000334227830059 0.119903714956 0)
(-0.00019702046278 0.120140742592 0)
(-6.52605709243e-05 0.120096186877 0)
(5.87915580195e-05 0.119785202751 0)
(0.000177074038871 0.119223246458 0)
(0.000287394246415 0.118425934978 0)
(0.000391782744087 0.117408967369 0)
(0.000488132220638 0.116188045262 0)
(0.000578541781252 0.114778721491 0)
(0.000660996057701 0.113196437174 0)
(0.000737638518065 0.111456288472 0)
(0.000806548333232 0.109573165597 0)
(0.000869887911495 0.107561445023 0)
(0.000925833810298 0.105435224361 0)
(0.000976546184633 0.103207959094 0)
(0.00102029631488 0.100892773202 0)
(0.0010592200919 0.0985020476366 0)
(0.00109168196226 0.0960477999301 0)
(0.00111977648633 0.0935412404751 0)
(0.0011419559097 0.0909932020909 0)
(0.00116025660218 0.0884136686843 0)
(0.00117321540753 0.0858122489067 0)
(0.00118279876933 0.0831976896081 0)
(0.00118762247841 0.0805783771045 0)
(0.00118957193736 0.0779618374694 0)
(0.00118733896568 0.0753552612885 0)
(0.00118272157791 0.0727650000465 0)
(0.0011744830611 0.0701971008821 0)
(0.00116432823317 0.0676567994579 0)
(0.00115108996684 0.0651490624004 0)
(0.0011363780485 0.0626780839071 0)
(0.00111909158934 0.0602478251773 0)
(0.00110074360273 0.0578615146989 0)
(0.00108029818409 0.0555221837248 0)
(0.00105917281331 0.0532321766844 0)
(0.00103639359149 0.0509936741856 0)
(0.00101328323018 0.0488082140368 0)
(0.000988928061676 0.0466772016018 0)
(0.000964558737793 0.0446014479439 0)
(0.000939317766284 0.0425816607085 0)
(0.000914345253988 0.0406180009938 0)
(0.000888835887544 0.0387105553509 0)
(0.000863841399233 0.0368589183292 0)
(0.000838601466939 0.0350626409236 0)
(0.000814079205172 0.033320841454 0)
(0.000789550660324 0.0316326331141 0)
(0.000765888731085 0.0299967701079 0)
(0.000742392621645 0.0284120538573 0)
(0.000719838618912 0.0268770170138 0)
(0.000697532197832 0.0253903165999 0)
(0.000676141205175 0.0239504614926 0)
(0.000654952604091 0.0225562018994 0)
(0.000634502262202 0.0212063031514 0)
(0.000614022116307 0.0198999554038 0)
(0.000593871554658 0.0186366074682 0)
(0.000573159849616 0.0174164353153 0)
(0.000551968861884 0.016240274943 0)
(0.000529114293617 0.0151102533151 0)
(0.00050407210358 0.0140299920606 0)
(0.00047464521267 0.0130059790885 0)
(0.000438098523853 0.0120485496398 0)
(0.000381481456745 0.0112021286675 0)
(0.000293818907307 0.0101330456766 0)
(0.000324390326153 0.00982108421768 0)
(0.000405778255056 0.00906847125066 0)
(0.000453478336934 0.00822017340499 0)
(0.000507906452285 0.00723818364235 0)
(0.000600185608489 0.00611817681796 0)
(0.000732414028839 0.00483516872007 0)
(0.000937165033216 0.00319076505999 0)
(0.00114626888137 0.00113174390953 0)
(-0.0114000792956 0.00370016189192 0)
(-0.0119161278286 0.0120258430705 0)
(-0.0118941844307 0.0204162788982 4.99611592953e-28)
(-0.01172633767 0.028655118612 0)
(-0.0114803559984 0.0367181016349 0)
(-0.0111687287658 0.0445775441307 0)
(-0.0108010755942 0.0521978541239 0)
(-0.0103830815975 0.059544630185 0)
(-0.00992236561358 0.0665864064671 0)
(-0.00942371508154 0.0732958288529 0)
(-0.00889479291732 0.0796494239382 0)
(-0.0083399367921 0.085628098005 0)
(-0.00776673725152 0.091216602664 0)
(-0.00717880647986 0.0964038169118 0)
(-0.00658333815126 0.1011820951 0)
(-0.00598296659912 0.105547416733 0)
(-0.00538427282562 0.109498694683 0)
(-0.00478880987486 0.11303784679 0)
(-0.00420246940395 0.116169128267 0)
(-0.00362575443271 0.118899166218 0)
(-0.0030639017704 0.121236361936 0)
(-0.00251648843296 0.123190912877 0)
(-0.00198818646381 0.124774311158 0)
(-0.00147780520129 0.125999359899 0)
(-0.000989554307142 0.126879772588 0)
(-0.000521630324354 0.127430177407 0)
(-7.78600373398e-05 0.127665810393 0)
(0.000344046823672 0.127602499687 0)
(0.000740598633699 0.127256418789 0)
(0.00111448143442 0.126644093553 0)
(0.00146250374224 0.12578219304 0)
(0.00178766470053 0.124687462003 0)
(0.0020870606576 0.123376626967 0)
(0.00236393993024 0.121866278979 0)
(0.00261566944086 0.120172838721 0)
(0.00284568397373 0.118312411409 0)
(0.00305159864378 0.116300803569 0)
(0.00323697164708 0.114153356532 0)
(0.00339964195164 0.11188501138 0)
(0.00354323289585 0.109510127451 0)
(0.00366577835665 0.107042588552 0)
(0.0037709109435 0.104495610954 0)
(0.00385683222256 0.101881886067 0)
(0.00392713633122 0.0992133822875 0)
(0.00398016488113 0.0965015166842 0)
(0.0040194310432 0.0937569531775 0)
(0.0040433935526 0.0909897983966 0)
(0.00405545162195 0.0882093987696 0)
(0.00405416019661 0.0854245536736 0)
(0.00404277759783 0.082643312389 0)
(0.00401993999393 0.0798732004052 0)
(0.00398874699014 0.0771210176065 0)
(0.00394790367399 0.0743930719552 0)
(0.0039003383509 0.071694979081 0)
(0.00384481804728 0.069031900295 0)
(0.00378409440312 0.0664083445598 0)
(0.00371699106301 0.0638284064221 0)
(0.00364608086391 0.0612955705795 0)
(0.00357024211585 0.0588129478326 0)
(0.00349187130049 0.056383083513 0)
(0.00340989913157 0.0540081883108 0)
(0.00332654900924 0.0516899513686 0)
(0.00324080257843 0.0494297650445 0)
(0.00315471515259 0.047228544627 0)
(0.00306731498936 0.0450869450591 0)
(0.00298049232127 0.0430051890151 0)
(0.00289331523279 0.0409832757078 0)
(0.00280750995757 0.0390208202628 0)
(0.00272217124505 0.037117254233 0)
(0.00263885624749 0.0352716791912 0)
(0.0025566662026 0.033483060978 0)
(0.00247697655718 0.0317501015703 0)
(0.00239886317527 0.0300714295346 0)
(0.00232349380732 0.0284454942336 0)
(0.00224987270884 0.0268707583907 0)
(0.00217891541315 0.0253456199396 0)
(0.00210948498283 0.0238686150901 0)
(0.00204216758936 0.0224383745804 0)
(0.00197557651012 0.0210538531017 0)
(0.00190983155389 0.0197143333997 0)
(0.00184310194408 0.0184197065988 0)
(0.00177476481117 0.0171705421545 0)
(0.00170212064381 0.0159684438931 0)
(0.00162309616334 0.014816156366 0)
(0.00153282205138 0.0137179652379 0)
(0.00142507856319 0.0126782763891 0)
(0.00128642796858 0.01172025685 0)
(0.00108838094062 0.0105854004034 0)
(0.00108298985708 0.00972957964001 0)
(0.0012462610387 0.00904452935449 0)
(0.00139706392566 0.00817486551138 0)
(0.00158170846307 0.00712627339486 0)
(0.00182332698965 0.00592714095996 0)
(0.0023303556956 0.00469776092817 0)
(0.00306000671751 0.00306286213292 0)
(0.00312924474834 0.000917816966978 0)
(-0.0194443071181 0.00380911126116 0)
(-0.0203844751242 0.012267006652 0)
(-0.0201938744467 0.0206659358183 4.97539959321e-28)
(-0.019866140202 0.0290001909733 0)
(-0.0194333934078 0.0371587766064 0)
(-0.0189007549431 0.045108330417 0)
(-0.0182767533725 0.0528110581273 0)
(-0.0175701863121 0.0602319174691 0)
(-0.0167914643381 0.0673392682931 0)
(-0.0159501770386 0.07410557099 0)
(-0.0150571993292 0.0805074525397 0)
(-0.0141219397825 0.0865259040668 0)
(-0.01315490773 0.0921460402635 0)
(-0.0121646063417 0.0973570683602 0)
(-0.011160558826 0.102151897629 0)
(-0.0101498870489 0.106526987597 0)
(-0.00914077897605 0.110481894124 0)
(-0.00813877845163 0.114019066013 0)
(-0.00715064920127 0.117143395769 0)
(-0.00618039429151 0.119862017162 0)
(-0.00523345625631 0.122183902898 0)
(-0.0043124836866 0.124119690852 0)
(-0.00342179936155 0.125681352894 0)
(-0.00256293851193 0.126882059126 0)
(-0.00173931935765 0.127735915635 0)
(-0.000951587352176 0.128257856534 0)
(-0.000202429759816 0.128463441411 0)
(0.000508228138981 0.128368762566 0)
(0.00117831072043 0.127990287099 0)
(0.00180848738747 0.127344756357 0)
(0.00239721800518 0.126449073275 0)
(0.00294568825069 0.125320200203 0)
(0.00345283256377 0.123975062712 0)
(0.00392027220195 0.12243045083 0)
(0.0043473620021 0.120702950277 0)
(0.00473608335905 0.118808843941 0)
(0.00508615107241 0.116764068921 0)
(0.00539982799196 0.114584119644 0)
(0.00567712467333 0.112284032757 0)
(0.00592050693191 0.109878295691 0)
(0.0061302155007 0.107380854781 0)
(0.00630884375007 0.104805029105 0)
(0.00645680041508 0.102163541838 0)
(0.0065767380974 0.0994684412079 0)
(0.00666917657464 0.0967311493711 0)
(0.00673676774216 0.0939623890418 0)
(0.00678009357363 0.0911722490539 0)
(0.00680175580137 0.0883701173295 0)
(0.00680235810902 0.0855647574034 0)
(0.00678441292394 0.082764245656 0)
(0.00674851491106 0.0799760577755 0)
(0.00669705899702 0.0772070102988 0)
(0.00663060872179 0.0744633518527 0)
(0.00655142270389 0.0717507069062 0)
(0.00646001970191 0.0690741711568 0)
(0.00635851184412 0.0664382576052 0)
(0.00624736560565 0.0638469920015 0)
(0.00612854260128 0.0613038597348 0)
(0.00600245457173 0.0588119014155 0)
(0.00587091336343 0.0563736611975 0)
(0.00573427589942 0.0539912795994 0)
(0.0055942070805 0.0516664425923 0)
(0.00545100978501 0.0494004724438 0)
(0.00530620513493 0.0471942788879 0)
(0.00516004059817 0.0450484462746 0)
(0.00501389391783 0.0429631871782 0)
(0.00486795138683 0.0409384275018 0)
(0.00472344234495 0.038973764818 0)
(0.00458047780692 0.0370685512232 0)
(0.0044401239464 0.0352218581686 0)
(0.00430239035825 0.0334325601942 0)
(0.00416815111593 0.0316993099263 0)
(0.0040372704934 0.0300206247358 0)
(0.00391038062885 0.0283948753883 0)
(0.00378713211731 0.0268203812003 0)
(0.00366783531462 0.0252954176346 0)
(0.00355182200533 0.0238183254357 0)
(0.00343895314929 0.0223875431811 0)
(0.00332807570479 0.0210017411103 0)
(0.00321838915056 0.019659888277 0)
(0.00310797345419 0.0183614239262 0)
(0.00299498907577 0.0171063629153 0)
(0.00287623775758 0.0158955033911 0)
(0.00274815772813 0.0147305058556 0)
(0.00260542247411 0.0136140690753 0)
(0.00244191842972 0.0125484688825 0)
(0.00225049911876 0.0115534702192 0)
(0.00203292951469 0.0104107586551 0)
(0.00195050220635 0.00946361612451 0)
(0.00210309705675 0.0087634361829 0)
(0.00240918209441 0.0078892294544 0)
(0.00271125146519 0.0066895207384 0)
(0.00323731647596 0.0055065466869 0)
(0.00394593390473 0.00399810353947 0)
(0.00462288775737 0.0023550793195 0)
(0.00482334868342 0.000749868494505 0)
(-0.0274698555912 0.00389348614996 0)
(-0.0289256181536 0.0124990387211 0)
(-0.0286500918133 0.0210068593718 -4.97475682265e-28)
(-0.0281741090702 0.0294669790827 0)
(-0.0275489783145 0.037747908359 0)
(-0.0267837106701 0.0458123497274 0)
(-0.02588946339 0.0536199561719 0)
(-0.0248788894641 0.0611343493504 0)
(-0.0237660955259 0.0683232138077 0)
(-0.0225653853958 0.0751586822057 0)
(-0.0212916385994 0.0816174202949 0)
(-0.0199590912587 0.0876806657336 0)
(-0.018581983264 0.0933340481075 0)
(-0.0171733155418 0.0985674123129 0)
(-0.0157457480028 0.103374479952 0)
(-0.0143103390853 0.107752558098 0)
(-0.0128776810182 0.111702135206 0)
(-0.0114566160274 0.115226556235 0)
(-0.0100555753662 0.118331624232 0)
(-0.00868125583421 0.121025298774 0)
(-0.00734011625644 0.123317350067 0)
(-0.00603699103108 0.125219112983 0)
(-0.00477669250069 0.126743212934 0)
(-0.00356254504361 0.127903379924 0)
(-0.00239805008763 0.1287142411 0)
(-0.00128533623879 0.129191181187 0)
(-0.000226857426088 0.12935018282 0)
(0.000776226322501 0.129207712662 0)
(0.0017223324247 0.128780595275 0)
(0.00261111727593 0.128085894435 0)
(0.00344175461518 0.127140822425 0)
(0.00421461851146 0.125962627675 0)
(0.00492955058052 0.124568501527 0)
(0.00558754667123 0.122975484408 0)
(0.00618903054352 0.121200385911 0)
(0.00673552373435 0.119259699428 0)
(0.0072279376193 0.117169540702 0)
(0.007668216048 0.114945573769 0)
(0.00805765866621 0.112602968975 0)
(0.00839852660757 0.110156341125 0)
(0.00869240751613 0.107619726077 0)
(0.00894177812296 0.105006531438 0)
(0.00914842034892 0.102329530286 0)
(0.00931493389761 0.0996008232442 0)
(0.00944320988555 0.0968318469046 0)
(0.00953588952295 0.0940333463027 0)
(0.00959490092162 0.0912153958448 0)
(0.00962285931276 0.0883873802924 0)
(0.00962167036148 0.0855580253685 0)
(0.00959386994336 0.0827353856839 0)
(0.00954129675795 0.079926882636 0)
(0.0094663688463 0.0771392971365 0)
(0.00937082632922 0.074378812101 0)
(0.00925694391907 0.0716510084384 0)
(0.00912634430613 0.0689609102009 0)
(0.00898114507007 0.0663129821697 0)
(0.0088228417514 0.0637111757188 0)
(0.00865338942123 0.0611589270944 0)
(0.00847415444872 0.058659202922 0)
(0.0082869302846 0.0562144983287 0)
(0.00809295577579 0.0538268810544 0)
(0.00789386635835 0.0514979892848 0)
(0.007690776757 0.0492290741405 0)
(0.00748516813328 0.0470209972107 0)
(0.0072780318949 0.0448742712935 0)
(0.00707069468639 0.0427890583669 0)
(0.00686401984014 0.0407652093138 0)
(0.00665917141541 0.0388022633831 0)
(0.00645686868729 0.0368994880353 0)
(0.00625809145093 0.035055881917 0)
(0.0060633826675 0.0332702170266 0)
(0.0058734964236 0.0315410478128 0)
(0.00568874286029 0.0298667585818 0)
(0.00550958055438 0.0282455823728 0)
(0.00533599754517 0.0266756575266 0)
(0.0051680478191 0.025155060448 0)
(0.00500526039416 0.0236818755088 0)
(0.00484711642574 0.0222542463438 0)
(0.00469247455432 0.0208704645124 0)
(0.00453997577362 0.019529044714 0)
(0.00438746380767 0.0182288391849 0)
(0.00423229211707 0.0169691405881 0)
(0.00407071206411 0.0157498341179 0)
(0.00389807057299 0.0145715422141 0)
(0.00370823283996 0.0134360049875 0)
(0.00349391270698 0.0123456767571 0)
(0.00324786375749 0.0113267401039 0)
(0.00296660949717 0.0101303741656 0)
(0.00294446882858 0.00936315555278 0)
(0.00308521332548 0.00835532264622 0)
(0.00342452903834 0.00724041778991 0)
(0.00408222482964 0.00626360423798 0)
(0.00464845744328 0.00471632725579 0)
(0.00539804719626 0.00324712285995 0)
(0.00603134006067 0.00188641743792 0)
(0.00620394703796 0.000613359180333 0)
(-0.0356914020234 0.0039828272574 0)
(-0.0376112933821 0.0127887644623 0)
(-0.0372512804615 0.0214699864779 0)
(-0.0366235256014 0.03010437447 0)
(-0.0357985360928 0.0385511545468 0)
(-0.0347900995574 0.0467701953426 0)
(-0.0336133004135 0.0547186342834 0)
(-0.0322852022938 0.0623584339786 0)
(-0.0308243723111 0.0696563000517 0)
(-0.0292500011718 0.076583917937 0)
(-0.0275815900853 0.0831179805796 0)
(-0.0258381972915 0.0892401171582 0)
(-0.0240383351644 0.0949366763646 0)
(-0.02219934025 0.100198444433 0)
(-0.0203374789031 0.105020272551 0)
(-0.0184674378994 0.10940068757 0)
(-0.0166026217825 0.113341461555 0)
(-0.0147547422612 0.116847204438 0)
(-0.012934270056 0.119924954561 0)
(-0.0111500843229 0.122583818634 0)
(-0.00941002662547 0.124834632433 0)
(-0.00772056304794 0.126689681043 0)
(-0.00608738487456 0.128162447164 0)
(-0.00451504137493 0.129267412655 0)
(-0.00300754354951 0.130019880247 0)
(-0.00156794521329 0.13043583244 0)
(-0.000198929881213 0.130531797911 0)
(0.00109765690764 0.13032474142 0)
(0.0023202381544 0.12983195096 0)
(0.00346799970298 0.129070922376 0)
(0.00454033165147 0.128059276235 0)
(0.00553733781397 0.126814643618 0)
(0.00645926927733 0.125354572662 0)
(0.00730703609401 0.123696436399 0)
(0.00808163926586 0.121857346993 0)
(0.00878467502863 0.119854075782 0)
(0.00941776945836 0.117702982897 0)
(0.00998307294305 0.115419951837 0)
(0.0104827030981 0.113020337212 0)
(0.010919228351 0.110518915216 0)
(0.0112951246608 0.107929848415 0)
(0.01161324748 0.105266650884 0)
(0.0118763063459 0.102542169359 0)
(0.0120873239844 0.0997685619343 0)
(0.0122491318594 0.0969572928104 0)
(0.0123648154388 0.0941191223138 0)
(0.0124372328507 0.0912641137841 0)
(0.0124694452702 0.0884016332565 0)
(0.0124642603073 0.0855403653412 0)
(0.0124246468057 0.0826883199528 0)
(0.0123533037595 0.0798528553213 0)
(0.012253058539 0.0770406898439 0)
(0.0121264615431 0.0742579291404 0)
(0.0119761670118 0.0715100806277 0)
(0.0118045529439 0.068802083139 0)
(0.0116140834499 0.0661383228436 0)
(0.0114069531575 0.0635226632 0)
(0.0111854303673 0.0609584606867 0)
(0.0109515248272 0.0584485944617 0)
(0.0107073109264 0.0559954813631 0)
(0.0104546175957 0.0536011040168 0)
(0.0101953311016 0.0512670244271 0)
(0.00993110554305 0.0489944106677 0)
(0.00966364471948 0.0467840492647 0)
(0.00939443145771 0.0446363700943 0)
(0.0091249881599 0.0425514577232 0)
(0.00885662273255 0.0405290754806 0)
(0.0085906671522 0.0385686769141 0)
(0.00832823732927 0.0366694298404 0)
(0.00807044896776 0.0348302293995 0)
(0.00781818814352 0.0330497243865 0)
(0.00757230334859 0.0313263345869 0)
(0.00733338312741 0.0296582818099 0)
(0.00710192302494 0.0280436146818 0)
(0.00687810608757 0.026480247868 0)
(0.00666194234605 0.0249659977622 0)
(0.0064530466796 0.0234986322155 0)
(0.00625074562747 0.0220759193797 0)
(0.00605384271112 0.02069568928 0)
(0.00586067894458 0.019355896021 0)
(0.00566886409302 0.0180546912935 0)
(0.00547525967083 0.016790497605 0)
(0.00527563552726 0.0155621066101 0)
(0.00506452678105 0.014368792507 0)
(0.00483478209644 0.013210612863 0)
(0.00457728082473 0.0120884609337 0)
(0.00428112710987 0.0110170803899 0)
(0.0039460806381 0.00979370769679 0)
(0.00393852922553 0.00884805391476 0)
(0.004167741138 0.00779277401446 0)
(0.00459230923553 0.00661965366622 0)
(0.00525951625713 0.00537214280713 0)
(0.00622855423925 0.00418620995165 0)
(0.0067039150494 0.0027329443433 0)
(0.00711831780683 0.00157379862998 0)
(0.00725560396233 0.000516382977463 0)
(-0.0441269865015 0.0040899478767 0)
(-0.046506640684 0.0131501672222 0)
(-0.0460561450366 0.0220615370413 0)
(-0.0452678453907 0.0309217892275 0)
(-0.0442310558523 0.0395814429438 0)
(-0.0429645920151 0.0479976487822 0)
(-0.0414882740544 0.0561249322719 0)
(-0.0398242320387 0.0639233754349 0)
(-0.0379962285892 0.0713585333935 0)
(-0.0360288142567 0.078401603883 0)
(-0.0339466932215 0.0850293843464 0)
(-0.0317740347858 0.0912241005206 0)
(-0.0295340553317 0.0969731030799 0)
(-0.0272485345135 0.10226848246 0)
(-0.0249376313993 0.107106609761 0)
(-0.0226196019486 0.111487653738 0)
(-0.0203108278974 0.115415077959 0)
(-0.0180257003852 0.118895161348 0)
(-0.0157768129946 0.121936539749 0)
(-0.0135749551171 0.124549802174 0)
(-0.0114294026372 0.126747132213 0)
(-0.00934795195192 0.128542015314 0)
(-0.0073372366291 0.129948993992 0)
(-0.00540273970402 0.130983478791 0)
(-0.00354908249984 0.131661592536 0)
(-0.00177998076641 0.132000047603 0)
(-9.84863749948e-05 0.132016034239 0)
(0.00149310984459 0.131727127652 0)
(0.00299307193105 0.131151182462 0)
(0.00440034325593 0.130306231226 0)
(0.00571435855376 0.129210402859 0)
(0.00693517760892 0.127881806747 0)
(0.00806329029869 0.126338440414 0)
(0.00909974835526 0.124598094184 0)
(0.0100459650948 0.122678263754 0)
(0.0109038394567 0.120596067554 0)
(0.0116755526315 0.118368175396 0)
(0.0123636863291 0.116010742814 0)
(0.0129710211895 0.113539358114 0)
(0.0135006516492 0.110968994415 0)
(0.0139557901463 0.108313974528 0)
(0.014339880688 0.105587939625 0)
(0.0146564116774 0.102803830004 0)
(0.0149090286183 0.0999738682168 0)
(0.0151013570194 0.0971095535621 0)
(0.0152371148227 0.0942216577579 0)
(0.0153199466776 0.0913202309018 0)
(0.0153535360333 0.0884146072703 0)
(0.0153414514516 0.0855134202552 0)
(0.0152872586188 0.0826246158962 0)
(0.0151943790843 0.0797554741304 0)
(0.0150662015148 0.076912627328 0)
(0.014905952383 0.074102085297 0)
(0.0147168058588 0.0713292566041 0)
(0.01450176572 0.0685989752012 0)
(0.0142637725874 0.0659155225579 0)
(0.0140055958505 0.0632826542707 0)
(0.0137299373413 0.060703621764 0)
(0.0134393321753 0.0581811977848 0)
(0.013136247611 0.0557176966987 0)
(0.0128229914769 0.0533149981553 0)
(0.0125018053969 0.0509745655596 0)
(0.0121747795578 0.0486974675965 0)
(0.011843939096 0.0464843946308 0)
(0.0115111635875 0.0443356780936 0)
(0.0111782655533 0.0422513050876 0)
(0.0108469128356 0.0402309361005 0)
(0.0105186975717 0.0382739184284 0)
(0.0101950590012 0.0363793032915 0)
(0.00987734116789 0.0345458595446 0)
(0.00956671330446 0.0327720920081 0)
(0.00926421391132 0.0310562576423 0)
(0.00897066540687 0.0293963878411 0)
(0.00868670230505 0.0277903101865 0)
(0.00841267685073 0.0262356775373 0)
(0.0081486685395 0.0247299981645 0)
(0.00789437696273 0.023270672971 0)
(0.00764910842298 0.0218550342515 0)
(0.00741164938577 0.020480388043 0)
(0.0071802180277 0.0191440552802 0)
(0.00695229833586 0.0178434086721 0)
(0.00672452019367 0.0165759009205 0)
(0.00649239529737 0.0153390907426 0)
(0.00625002909263 0.0141306788013 0)
(0.00598960614513 0.0129487326018 0)
(0.00570072331548 0.0117914078666 0)
(0.00536930534042 0.0106754162182 0)
(0.00499307885161 0.00939402516056 0)
(0.00507971507068 0.00844665441239 0)
(0.00549882311965 0.00743468852269 0)
(0.00588132521376 0.00601930452336 0)
(0.00653356443998 0.00471975753983 0)
(0.00736214894366 0.00358423330256 0)
(0.00786979015879 0.00244831477695 0)
(0.00812361895529 0.00140166304231 0)
(0.00823932643219 0.000460819934944 0)
(-0.052824352675 0.00421977794827 0)
(-0.0556698573733 0.0135932511311 0)
(-0.0551195112172 0.0227914745287 -4.86816370423e-28)
(-0.0541575993882 0.0319319574684 0)
(-0.052892508156 0.0408544644527 0)
(-0.0513484146051 0.0495129620776 0)
(-0.0495505943194 0.0578589834848 0)
(-0.0475270051005 0.0658504784505 0)
(-0.0453074051597 0.0734517291821 0)
(-0.0429223737786 0.0806334785063 0)
(-0.04040246113 0.0873727995915 0)
(-0.0377774123306 0.0936528084455 0)
(-0.0350755800263 0.0994622426026 0)
(-0.0323234277814 0.104794945007 0)
(-0.0295452314561 0.109649290175 0)
(-0.0267628543106 0.114027582145 0)
(-0.0239957055149 0.117935457849 0)
(-0.0212607383449 0.121381315571 0)
(-0.0185726027124 0.124375795699 0)
(-0.0159437912147 0.126931322995 0)
(-0.0133848992776 0.129061726603 0)
(-0.0109048259913 0.130781934286 0)
(-0.00851104711434 0.132107742442 0)
(-0.0062097836016 0.13305564547 0)
(-0.00400621639111 0.133642713631 0)
(-0.00190457661805 0.133886499036 0)
(9.17166332278e-05 0.133804953851 0)
(0.00198003702685 0.13341636354 0)
(0.0037584611553 0.132739245157 0)
(0.00542578451903 0.131792269245 0)
(0.00698145150855 0.130594170948 0)
(0.00842557235429 0.129163636393 0)
(0.00975884456729 0.127519205589 0)
(0.0109825619716 0.125679174932 0)
(0.0120985250557 0.123661503688 0)
(0.0131090401845 0.121483730977 0)
(0.0140168226206 0.119162899584 0)
(0.0148249907566 0.116715492363 0)
(0.0155369679133 0.114157376542 0)
(0.0161564766734 0.111503760031 0)
(0.0166874443203 0.108769154872 0)
(0.0171340002582 0.105967351044 0)
(0.0175003875105 0.103111396709 0)
(0.0177909643533 0.100213587025 0)
(0.0180101231215 0.097285458587 0)
(0.0181622966555 0.0943377908434 0)
(0.0182518853343 0.0913806126205 0)
(0.0182832689113 0.0884232138697 0)
(0.0182607426069 0.0854741614385 0)
(0.0181885346219 0.082541318251 0)
(0.0180707514253 0.0796318655354 0)
(0.0179114005427 0.0767523266479 0)
(0.0177143444934 0.073908592742 0)
(0.0174833278471 0.0711059485851 0)
(0.0172219386342 0.0683490994993 0)
(0.0169336382995 0.0656421973167 0)
(0.0166217292486 0.0629888667497 0)
(0.0162893862937 0.0603922300552 0)
(0.0159396289226 0.0578549318621 0)
(0.015575352884 0.0553791617728 0)
(0.0151993058818 0.0529666768226 0)
(0.0148141180313 0.0506188214235 0)
(0.0144222796048 0.0483365472044 0)
(0.0140261690102 0.0461204301272 0)
(0.0136280310902 0.0439706874949 0)
(0.0132300010368 0.0418871921858 0)
(0.0128340812972 0.0398694871873 0)
(0.012442159403 0.0379167974901 0)
(0.012055981014 0.0360280428613 0)
(0.0116771591146 0.0342018484815 0)
(0.0113071400705 0.0324365576486 0)
(0.0109472012143 0.0307302433836 0)
(0.0105984064567 0.0290807235576 0)
(0.0102615894606 0.027485576673 0)
(0.00993729576274 0.0259421624222 0)
(0.00962574942547 0.024447644588 0)
(0.00932677978283 0.0229990178624 0)
(0.00903977056773 0.0215931372952 0)
(0.00876356925732 0.0202267447941 0)
(0.00849641335776 0.0188964919752 0)
(0.00823580950255 0.0175989422036 0)
(0.00797840477968 0.0163305456384 0)
(0.00771977337843 0.0150875694 0)
(0.00745410490212 0.0138659600083 0)
(0.00717366735595 0.0126612518601 0)
(0.00686787662389 0.0114676030605 0)
(0.00652219639132 0.0102922678738 0)
(0.00612388118097 0.00895651123546 0)
(0.00617670333476 0.00785450305421 0)
(0.00663524214104 0.00671214405103 0)
(0.00725035568674 0.0055152495343 0)
(0.00776601356955 0.00422759620641 0)
(0.00827560286511 0.00311703225796 0)
(0.00886120774189 0.00221369226924 0)
(0.00904138638211 0.00127532955672 0)
(0.00913100413499 0.000419031838935 0)
(-0.0618385992907 0.00437567807666 0)
(-0.0651611618135 0.0141274066637 0)
(-0.0644993626575 0.0236727926535 4.86742712581e-28)
(-0.0633468613265 0.0331517677964 0)
(-0.0618321237172 0.0423906821445 0)
(-0.0599853900929 0.0513395298561 0)
(-0.057838293779 0.059946313491 0)
(-0.0554255844394 0.068166548043 0)
(-0.0527839705316 0.0759631635094 0)
(-0.0499509190555 0.0833065642586 0)
(-0.0469635825814 0.0901743805089 0)
(-0.0438578849322 0.096551034227 0)
(-0.0406677950762 0.102427156558 0)
(-0.0374247784105 0.107798913925 0)
(-0.0341574369029 0.112667277249 0)
(-0.0308913039276 0.117037281788 0)
(-0.0276488029276 0.12091730116 0)
(-0.0244493199523 0.124318373806 0)
(-0.0213094002515 0.127253596633 0)
(-0.0182430035204 0.12973761359 0)
(-0.0152618280749 0.131786202239 0)
(-0.0123756264092 0.133415968145 0)
(-0.00959252931248 0.134644132366 0)
(-0.00691930265387 0.135488400625 0)
(-0.00436157486019 0.135966885858 0)
(-0.00192397511 0.13609806245 0)
(0.000389754244213 0.135900722759 0)
(0.00257671843058 0.135393946594 0)
(0.00463481511082 0.134597000766 0)
(0.00656274216547 0.133529291668 0)
(0.00835996018768 0.13221026083 0)
(0.0100266839762 0.130659270641 0)
(0.0115638346392 0.128895502139 0)
(0.0129730121502 0.126937848528 0)
(0.0142564303234 0.124804817931 0)
(0.015416873913 0.122514443435 0)
(0.0164576235435 0.120084206751 0)
(0.0173824062758 0.117530971354 0)
(0.0181953194882 0.114870929618 0)
(0.0189007826085 0.11211955852 0)
(0.0195034657973 0.109291587594 0)
(0.0200082468355 0.106400973665 0)
(0.0204201468 0.103460885832 0)
(0.0207442931246 0.100483695901 0)
(0.0209858628315 0.0974809776896 0)
(0.0211500525124 0.0944635109319 0)
(0.0212420299944 0.0914412926202 0)
(0.021266912169 0.088423551871 0)
(0.0212297259607 0.0854187705295 0)
(0.0211353947026 0.0824347059046 0)
(0.020988708597 0.0794784172842 0)
(0.0207943192004 0.0765562931262 0)
(0.0205567184718 0.073674080323 0)
(0.0202802401645 0.0708369130013 0)
(0.0199690459614 0.0680493420375 0)
(0.0196271320241 0.0653153633318 0)
(0.01925832045 0.0626384459021 0)
(0.0188662693234 0.0600215583126 0)
(0.0184544678921 0.0574671943018 0)
(0.0180262485119 0.0549773965084 0)
(0.0175847840371 0.0525537790017 0)
(0.0171331002762 0.0501975478096 0)
(0.0166740741992 0.0479095199609 0)
(0.016210445386 0.0456901404421 0)
(0.0157448134168 0.0435394975175 0)
(0.0152796465914 0.0414573359439 0)
(0.014817276453 0.0394430685971 0)
(0.0143599014269 0.0374957860358 0)
(0.0139095756629 0.0356142649832 0)
(0.0134682046245 0.0337969750519 0)
(0.013037524591 0.0320420854648 0)
(0.0126190865833 0.0303474707827 0)
(0.0122142224793 0.028710718787 0)
(0.0118240140249 0.0271291387433 0)
(0.0114492423375 0.0255997739655 0)
(0.0110903407387 0.0241194165736 0)
(0.0107473279047 0.022684627185 0)
(0.0104197476665 0.021291756269 0)
(0.0101065917672 0.0199369636498 0)
(0.0098062327452 0.0186162294101 0)
(0.00951634041503 0.0173253358047 0)
(0.00923379769685 0.016059803024 0)
(0.00895457298793 0.0148147321895 0)
(0.00867351056628 0.0135845172475 0)
(0.0083839209932 0.0123624385033 0)
(0.00807666778998 0.0111394082872 0)
(0.00773910647335 0.00991552540824 0)
(0.00735594694049 0.00853223509876 0)
(0.00751902456273 0.00743582395928 0)
(0.00781887494321 0.00613504537762 0)
(0.00838444493194 0.00498132127703 0)
(0.00890825968585 0.00387201915534 0)
(0.00923895067207 0.00282852953874 0)
(0.00975770282724 0.00200398124293 0)
(0.00988612943488 0.0011794733964 0)
(0.00994057004748 0.00038343624748 0)
(-0.071231895235 0.00456092681258 0)
(-0.0750459314339 0.0147631874465 0)
(-0.074258429113 0.0247216746917 0)
(-0.0728939896379 0.0346026669626 0)
(-0.0711027373409 0.0442159823327 0)
(-0.0689220669264 0.0535067350881 0)
(-0.0663911860067 0.0624187371981 0)
(-0.0635528746469 0.07090476427 0)
(-0.0604519847832 0.078926376691 0)
(-0.057133933342 0.0864538712816 0)
(-0.0536433888769 0.0934658625053 0)
(-0.0500231773944 0.0999486482299 0)
(-0.0463134351128 0.105895422969 0)
(-0.0425509917241 0.111305395614 0)
(-0.0387689824175 0.116182872071 0)
(-0.0349966585918 0.120536334666 0)
(-0.0312593861388 0.124377567753 0)
(-0.0275787974697 0.127720848149 0)
(-0.0239730776933 0.130582243095 0)
(-0.0204573425825 0.132979024859 0)
(-0.0170440753563 0.134929230372 0)
(-0.013743571112 0.136451355475 0)
(-0.0105643521181 0.137564183683 0)
(-0.00751351260715 0.138286712181 0)
(-0.00459697845506 0.138638148269 0)
(-0.0018196726212 0.138637930262 0)