/*--------------------------------*- C++ -*----------------------------------*\
| =========                 |                                                 |
| \\      /  F ield         | OpenFOAM: The Open Source CFD Toolbox           |
|  \\    /   O peration     | Version:  v1906                                 |
|   \\  /    A nd           | Web:      www.OpenFOAM.com                      |
|    \\/     M anipulation  |                                                 |
\*---------------------------------------------------------------------------*/
FoamFile
{
    version     2.0;
    format      ascii;
    class       volVectorField;
    location    "709";
    object      U;
}
// * * * * * * * * * * * * * * * * * * * * * * * * * * * * * * * * * * * * * //

dimensions      [0 1 -1 0 0 0 0];


internalField   nonuniform List<vector> 
9216
(
(0.00156501685276 -0.0015665678049 0)
(0.00160496798171 -0.00488199415111 6.54679807821e-28)
(0.00159362392318 -0.00820551436405 1.08701383112e-31)
(0.0015704554872 -0.0115089663249 0)
(0.00153931309636 -0.0147536914669 0)
(0.00150098453758 -0.0179256935137 0)
(0.00145634223083 -0.0210109085864 0)
(0.00140615746604 -0.0239970028964 0)
(0.00135124891286 -0.0268732655269 0)
(0.00129237784285 -0.0296306570932 0)
(0.00123034113266 -0.0322617477675 0)
(0.00116583193654 -0.0347606881677 0)
(0.00109955776678 -0.0371230720942 0)
(0.00103208424853 -0.0393458456785 0)
(0.000963985777273 -0.0414271226252 0)
(0.000895672732523 -0.0433660666357 0)
(0.000827574667662 -0.0451626929121 0)
(0.000759947606135 -0.0468177534963 0)
(0.000693087740245 -0.0483325498162 0)
(0.000627115227908 -0.0497088396828 0)
(0.000562216871967 -0.0509486733482 0)
(0.000498403156229 -0.0520543295087 0)
(0.000435778856017 -0.0530281787005 0)
(0.00037427132905 -0.053872649182 0)
(0.000313929409865 -0.0545901154299 0)
(0.000254621376111 -0.055182890819 0)
(0.000196362911521 -0.0556531378711 0)
(0.000138983959186 -0.0560028854012 0)
(8.24878169084e-05 -0.0562339570427 0)
(2.6685918345e-05 -0.0563480101816 0)
(-2.84119275931e-05 -0.0563464873268 0)
(-8.29978487143e-05 -0.0562306691962 0)
(-0.000137033720957 -0.0560016374854 0)
(-0.000190688436348 -0.0556603761007 0)
(-0.000243872587035 -0.055207743978 0)
(-0.000296714444208 -0.0546445979617 0)
(-0.000349050375524 -0.0539717873291 0)
(-0.000400946823427 -0.0531903054429 0)
(-0.000452145266653 -0.0523012973528 0)
(-0.000502635617802 -0.0513062372307 0)
(-0.000552051615361 -0.0502069390519 0)
(-0.000600302379824 -0.0490057484101 0)
(-0.000646914336257 -0.0477055427488 0)
(-0.000691726703997 -0.0463099237876 0)
(-0.000734173368348 -0.0448231899669 0)
(-0.000774048237592 -0.0432505140557 0)
(-0.000810719654987 -0.0415978760753 0)
(-0.000843969698671 -0.0398722162065 0)
(-0.000873133752339 -0.038081325111 0)
(-0.000898017636729 -0.0362339614621 0)
(-0.000917962016316 -0.0343397078518 0)
(-0.000932836110583 -0.0324090346535 0)
(-0.000942034418841 -0.0304531285322 0)
(-0.000945534279472 -0.0284838723716 0)
(-0.000942841974856 -0.0265136647077 0)
(-0.000934083090995 -0.0245553012832 0)
(-0.000918931374203 -0.0226218041023 0)
(-0.000897706798231 -0.0207261926785 0)
(-0.000870323188831 -0.0188812860809 0)
(-0.000837335262803 -0.0170993812919 0)
(-0.000798922476585 -0.0153920639829 0)
(-0.000755880850187 -0.0137698539634 0)
(-0.000708691043857 -0.0122419923302 0)
(-0.000658404899714 -0.0108160251913 0)
(-0.000605646222376 -0.00949780960699 0)
(-0.000551567491709 -0.00829129720162 0)
(-0.000497079874661 -0.00719837401152 0)
(-0.000443580690463 -0.00621840655358 0)
(-0.00039206547591 -0.00534830434291 0)
(-0.000343685083714 -0.00458261533311 0)
(-0.000299007051575 -0.00391415459891 0)
(-0.000258597867791 -0.00333447261748 0)
(-0.000222468527564 -0.00283459852464 0)
(-0.000190633269876 -0.00240548133312 0)
(-0.000162675466126 -0.0020385815737 0)
(-0.00013827648923 -0.00172609964743 0)
(-0.000116902661549 -0.00146121683616 0)
(-9.82884065415e-05 -0.00123791029398 0)
(-8.21005967569e-05 -0.00105081711809 0)
(-6.8204607162e-05 -0.000894995692882 0)
(-5.63073546945e-05 -0.000765982460588 0)
(-4.62284628366e-05 -0.000659766123485 0)
(-3.76193245471e-05 -0.000572879742602 0)
(-3.0005090848e-05 -0.00050310716564 0)
(-2.23416432634e-05 -0.000441171788454 0)
(-1.91107078368e-05 -0.000404939150506 0)
(-1.76781733341e-05 -0.000365963249674 0)
(-1.51129843504e-05 -0.000333165848976 0)
(-1.4920181093e-05 -0.000305802569822 0)
(-1.60099309871e-05 -0.000274810429646 0)
(-1.60689511051e-05 -0.000243804511054 0)
(-1.65108928964e-05 -0.000210531034742 0)
(-1.90271582246e-05 -0.000173871386489 0)
(-2.19560142843e-05 -0.000133078834926 0)
(-2.52146837229e-05 -8.28869021985e-05 0)
(-2.74298183577e-05 -2.67006328142e-05 0)
(0.00489362577627 -0.00162301295108 0)
(0.00515584415514 -0.00519590603306 0)
(0.00511654329973 -0.00873747407539 -6.73185796766e-28)
(0.00504049522245 -0.0122600345785 0)
(0.00493935444047 -0.0157166156763 0)
(0.00481564181463 -0.0190940763317 0)
(0.00467176862609 -0.0223777759332 0)
(0.00451017302445 -0.0255546782577 0)
(0.00433342891732 -0.0286134387323 0)
(0.00414403771867 -0.0315444975182 0)
(0.00394451662646 -0.0343400502945 0)
(0.00373716038426 -0.0369939917941 0)
(0.0035241832433 -0.0395017871322 0)
(0.00330747375707 -0.0418603418534 0)
(0.00308880055533 -0.0440678224775 0)
(0.00286955863454 -0.0461234982696 0)
(0.0026510350725 -0.0480275508208 0)
(0.00243413714653 -0.0497809210607 0)
(0.00221970985057 -0.0513851344078 0)
(0.00200823525634 -0.0528421724097 0)
(0.0018001947604 -0.0541543262909 0)
(0.0015957311023 -0.0553241004643 0)
(0.00139505089382 -0.0563540972038 0)
(0.00119804409522 -0.0572469514941 0)
(0.00100472586785 -0.05800524397 0)
(0.000814810691323 -0.058631463338 0)
(0.000628194824381 -0.0591279432147 0)
(0.000444484124434 -0.05949684836 0)
(0.000263520571391 -0.0597401317729 0)
(8.48631105449e-05 -0.059859543575 0)
(-9.1639057231e-05 -0.0598566029308 0)
(-0.000266415404791 -0.0597326389493 0)
(-0.000439543178483 -0.0594887864652 0)
(-0.000611368690409 -0.0591260346678 0)
(-0.00078182373174 -0.0586452505567 0)
(-0.00095110346484 -0.058047263572 0)
(-0.00111892040235 -0.0573329076788 0)
(-0.00128524961644 -0.0565031349691 0)
(-0.00144951897719 -0.0555590771597 0)
(-0.00161143240774 -0.0545021824192 0)
(-0.00177009334027 -0.0533342870623 0)
(-0.00192491812145 -0.0520577636703 0)
(-0.00207468850203 -0.050675587658 0)
(-0.00221856510412 -0.0491914793475 0)
(-0.00235505954944 -0.0476099470746 0)
(-0.00248315481006 -0.0459364059021 0)
(-0.00260118280378 -0.0441771828797 0)
(-0.00270805495636 -0.0423396019795 0)
(-0.0028020311396 -0.0404319479631 0)
(-0.00288206500384 -0.0384635134611 0)
(-0.00294646458896 -0.0364445249744 0)
(-0.00299435336831 -0.0343861407921 0)
(-0.00302423989785 -0.0323003347758 0)
(-0.0030355700351 -0.0301998228672 0)
(-0.00302722629786 -0.0280979057828 0)
(-0.00299911803385 -0.0260083260572 0)
(-0.00295065622935 -0.0239450959967 0)
(-0.00288237819337 -0.0219222743291 0)
(-0.00279446632091 -0.0199537043807 0)
(-0.00268823461131 -0.0180527091131 0)
(-0.00256469873481 -0.0162318341748 0)
(-0.00242596338151 -0.0145025570169 0)
(-0.00227402973876 -0.0128749497989 0)
(-0.00211193434191 -0.0113571676902 0)
(-0.00194200237652 -0.00995552959844 0)
(-0.00176751610663 -0.00867452750962 0)
(-0.00159180103676 -0.00751642038246 0)
(-0.00141913586177 -0.00648062512685 0)
(-0.00125315452733 -0.00556360400004 0)
(-0.00109734164065 -0.00475911967845 0)
(-0.000953815687045 -0.00405893147593 0)
(-0.000824133051143 -0.00345348507717 0)
(-0.000708525992222 -0.00293267950486 0)
(-0.000606770836687 -0.00248646101752 0)
(-0.000517649263587 -0.00210542188134 0)
(-0.000439858035201 -0.00178116863118 0)
(-0.000371769294251 -0.00150652961784 0)
(-0.000312355475309 -0.00127533151119 0)
(-0.000260744588763 -0.00108202716991 0)
(-0.00021642169629 -0.000921419180966 0)
(-0.000178594411885 -0.00078872616125 0)
(-0.0001466135826 -0.000679628334102 0)
(-0.000119614051934 -0.00059023508051 0)
(-9.67685943058e-05 -0.000517166938206 0)
(-7.64813976167e-05 -0.000453829847077 0)
(-6.29149530682e-05 -0.000397003005833 0)
(-5.35868229981e-05 -0.000357618916275 0)
(-4.55523371553e-05 -0.00032580758111 0)
(-4.38725934552e-05 -0.000294269847378 0)
(-4.64059309406e-05 -0.000269125959634 0)
(-4.79883193586e-05 -0.000242643692534 0)
(-5.11377001166e-05 -0.000207940006682 0)
(-5.70784239166e-05 -0.000170365470452 0)
(-7.14079629744e-05 -0.00013565001383 0)
(-8.85003331641e-05 -8.71828474595e-05 0)
(-8.09315971855e-05 -2.39961420456e-05 0)
(0.00828156569567 -0.00164428924641 0)
(0.00872977353958 -0.00526109754459 0)
(0.00865571384832 -0.00883940590272 -6.72235743149e-28)
(0.00852377775827 -0.0124012043541 0)
(0.00835042769599 -0.0158948508946 0)
(0.00813921538185 -0.0193065435009 0)
(0.00789395570925 -0.0226211948353 0)
(0.00761879071777 -0.0258255364861 0)
(0.00731807019102 -0.0289081299217 0)
(0.00699613348448 -0.0318594321448 0)
(0.00665723515813 -0.034671760456 0)
(0.00630535973899 -0.0373392071884 0)
(0.00594421188386 -0.0398575014249 0)
(0.00557707170197 -0.0422238478643 0)
(0.00520685168721 -0.0444367396788 0)
(0.00483598598278 -0.0464957728274 0)
(0.00446654245367 -0.0484014540896 0)
(0.00410012956041 -0.0501550266206 0)
(0.00373804688037 -0.0517583003783 0)
(0.00338119241973 -0.0532135077585 0)
(0.00303023715837 -0.0545231676641 0)
(0.00268551991302 -0.0556899763894 0)
(0.00234723689666 -0.0567167059676 0)
(0.00201531701925 -0.0576061277396 0)
(0.00168962300287 -0.0583609402048 0)
(0.00136980473252 -0.0589837197516 0)
(0.00105551257365 -0.0594768725617 0)
(0.000746229440045 -0.0598426078443 0)
(0.00044149943822 -0.0600829098211 0)
(0.000140740259766 -0.0601995310628 0)
(-0.000156507758135 -0.0601939849608 0)
(-0.000450787413293 -0.0600675582698 0)
(-0.000742453517963 -0.0598213237873 0)
(-0.00103189699286 -0.0594561806143 0)
(-0.00131924746913 -0.0589728896556 0)
(-0.00160461928699 -0.0583721406028 0)
(-0.00188779039819 -0.0576546148436 0)
(-0.0021684776682 -0.056821081398 0)
(-0.00244599482059 -0.0558724844983 0)
(-0.00271956781006 -0.0548100638232 0)
(-0.00298797702923 -0.0536354575322 0)
(-0.00324992393874 -0.0523508335579 0)
(-0.0035036607451 -0.0509589915183 0)
(-0.00374741559635 -0.0494634851943 0)
(-0.00397900556669 -0.0478687018146 0)
(-0.00419631947614 -0.0461799545252 0)
(-0.00439690079471 -0.0444035230429 0)
(-0.00457848002903 -0.0425467056402 0)
(-0.00473851323517 -0.0406178190679 0)
(-0.00487476224227 -0.0386262132726 0)
(-0.0049847917452 -0.0365822355367 0)
(-0.00506660917748 -0.0344972057709 0)
(-0.00511813893619 -0.0323833267239 0)
(-0.00513791043196 -0.0302535914804 0)
(-0.00512450008319 -0.0281216304023 0)
(-0.00507720490341 -0.0260015611029 0)
(-0.00499547019387 -0.0239078417388 0)
(-0.00487964528798 -0.0218550731479 0)
(-0.00473054040279 -0.0198576493847 0)
(-0.004549847025 -0.0179294684635 0)
(-0.00433977287931 -0.0160836304044 0)
(-0.00410327379585 -0.014332299312 0)
(-0.00384437174022 -0.0126862258228 0)
(-0.00356807310506 -0.0111537504639 0)
(-0.00327838772793 -0.00974133945205 0)
(-0.00298023999327 -0.00845419248094 0)
(-0.00267981927113 -0.00729531118636 0)
(-0.00238451925316 -0.00626433266082 0)
(-0.0021013007543 -0.00535717769889 0)
(-0.00183604239503 -0.00456653587354 0)
(-0.00159268859836 -0.00388284093713 0)
(-0.00137355320772 -0.00329522629928 0)
(-0.00117915408938 -0.00279237749364 0)
(-0.00100869534289 -0.00236322672378 0)
(-0.000860055632831 -0.00199762161283 0)
(-0.000730465609282 -0.00168686901528 0)
(-0.000617013197514 -0.00142400434867 0)
(-0.000517717417819 -0.001203389979 0)
(-0.000431490723321 -0.0010198438489 0)
(-0.000357518282301 -0.000868197124565 0)
(-0.000294623184667 -0.000743573543663 0)
(-0.000241604780492 -0.000641638680654 0)
(-0.000197295781679 -0.000558528835735 0)
(-0.000160658855254 -0.000491071519416 0)
(-0.000131221749795 -0.000432621404629 0)
(-0.000109139430071 -0.000381703768398 0)
(-9.36065747453e-05 -0.000351470818097 0)
(-7.8904778509e-05 -0.000309089796655 0)
(-7.02662162153e-05 -0.000273278718807 0)
(-7.18521574597e-05 -0.00025176470747 0)
(-8.19343228679e-05 -0.000234230600794 0)
(-8.51406830809e-05 -0.000189062756851 0)
(-9.82865761444e-05 -0.000156884350271 0)
(-0.000116620334988 -0.00011507406248 0)
(-0.000132965217477 -6.94621558987e-05 0)
(-0.000130531343837 -2.14782279375e-05 0)
(0.0117348518457 -0.00167060106431 0)
(0.0123748653935 -0.00534347814716 0)
(0.012267998885 -0.0089742979317 6.72146516891e-28)
(0.0120781125046 -0.0125873903947 0)
(0.0118289279442 -0.016128886348 0)
(0.0115257467387 -0.0195841925695 0)
(0.0111741242109 -0.0229376285906 0)
(0.0107801136124 -0.0261755872834 0)
(0.0103500299899 -0.0292865062893 0)
(0.00989019260159 -0.0322609040189 0)
(0.00940673542591 -0.0350913172129 0)
(0.00890541948412 -0.0377721796642 0)
(0.00839152926155 -0.0402996529358 0)
(0.0078697657931 -0.0426714292161 0)
(0.00734422741218 -0.0448865178107 0)
(0.00681837048208 -0.0469450312786 0)
(0.00629505350645 -0.0488479772926 0)
(0.00577653967701 -0.0505970666937 0)
(0.00526457762335 -0.052194538143 0)
(0.00476042025495 -0.0536430052574 0)
(0.00426492014512 -0.0549453226021 0)
(0.00377854652187 -0.0561044737559 0)
(0.0033014820032 -0.0571234756066 0)
(0.00283362855065 -0.0580053012627 0)
(0.00237470060025 -0.0587528150569 0)
(0.00192421778954 -0.0593687224311 0)
(0.00148159532215 -0.0598555282138 0)
(0.0010461257565 -0.0602155072407 0)
(0.000617070773272 -0.0604506813114 0)
(0.00019363606993 -0.0605628074521 0)
(-0.000224929854594 -0.0605533750935 0)
(-0.000639364303913 -0.0604236100122 0)
(-0.00105028062972 -0.0601744910402 0)
(-0.00145819822621 -0.059806783954 0)
(-0.00186342098519 -0.0593210807793 0)
(-0.00226607091194 -0.0587178608716 0)
(-0.00266595823713 -0.0579975622966 0)
(-0.00306262724143 -0.0571606747696 0)
(-0.00345522615528 -0.0562078412108 0)
(-0.00384257792951 -0.0551399792115 0)
(-0.00422306165086 -0.0539584039453 0)
(-0.00459472228539 -0.0526649641982 0)
(-0.00495517351795 -0.051262167406 0)
(-0.00530175419246 -0.049753305511 0)
(-0.005631451753 -0.0481425555095 0)
(-0.005941098892 -0.0464350685679 0)
(-0.00622730032535 -0.0446370245543 0)
(-0.00648665024594 -0.0427556730541 0)
(-0.00671563981458 -0.0407993446559 0)
(-0.00691088758375 -0.0387774570497 0)
(-0.00706903216761 -0.0367005001506 0)
(-0.0071870051061 -0.0345800115238 0)
(-0.00726194514909 -0.0324285077298 0)
(-0.00729151712238 -0.0302593788721 0)
(-0.0072738064989 -0.028086716181 0)
(-0.00720755768233 -0.0259251549063 0)
(-0.00709200047536 -0.0237897837969 0)
(-0.00692730589637 -0.0216960508717 0)
(-0.00671487404445 -0.0196591655584 0)
(-0.00645679963394 -0.0176938715138 0)
(-0.00615649555797 -0.0158140005349 0)
(-0.00581739200949 -0.01403286424 0)
(-0.00544592999381 -0.01236260276 0)
(-0.00505018773406 -0.0108113733748 0)
(-0.00463477139711 -0.00938542376945 0)
(-0.00420570772154 -0.00809143291001 0)
(-0.0037724196958 -0.00693413258042 0)
(-0.00334660138931 -0.00591371002186 0)
(-0.00293945009075 -0.00502510656082 0)
(-0.00255982509867 -0.00425905825162 0)
(-0.00221350879775 -0.00360374606253 0)
(-0.00190352983807 -0.00304617325467 0)
(-0.00163042769282 -0.00257311221808 0)
(-0.00139263099278 -0.00217185305843 0)
(-0.00118660332446 -0.00183099859586 0)
(-0.00100747540408 -0.00154135011475 0)
(-0.000850253959178 -0.00129651165928 0)
(-0.000711893248804 -0.00109212326413 0)
(-0.000591646684382 -0.000923793903441 0)
(-0.000488870668578 -0.000786227528535 0)
(-0.000401869409568 -0.000674248513426 0)
(-0.000328749742469 -0.000583539043472 0)
(-0.00026796369669 -0.000510361773259 0)
(-0.000218030864746 -0.000451914460429 0)
(-0.00017825733508 -0.000399175188066 0)
(-0.000151016060886 -0.000361073854037 0)
(-0.000129699968676 -0.000326927391139 0)
(-0.000111911875954 -0.000287424424798 0)
(-0.000103781442192 -0.000261136388634 0)
(-9.9085139346e-05 -0.000226138957048 0)
(-0.00010634178814 -0.000196379973432 0)
(-0.000126321101265 -0.000175274481463 0)
(-0.000134992132227 -0.00012898237985 0)
(-0.000154809611392 -9.08036081617e-05 0)
(-0.000174590153636 -5.53986701148e-05 0)
(-0.000175084614001 -1.8151895874e-05 0)
(0.015250119127 -0.00170582197365 0)
(0.0160817431074 -0.00545477236966 0)
(0.0159398346433 -0.00915849114774 0)
(0.0156884311822 -0.0128415894623 0)
(0.015358793678 -0.0164480774133 0)
(0.0149582224819 -0.0199623691304 0)
(0.0144943031181 -0.0233680244878 0)
(0.013975259097 -0.0266509965695 0)
(0.0134096168593 -0.029799579694 0)
(0.0128058727156 -0.0328044113954 0)
(0.0121722150427 -0.0356583668105 0)
(0.011516295827 -0.0383563874347 0)
(0.0108450728712 -0.0408952621174 0)
(0.0101647014431 -0.043273381542 0)
(0.00948049030336 -0.0454904834799 0)
(0.00879689064395 -0.0475474036803 0)
(0.00811753238949 -0.0494458421306 0)
(0.00744527164362 -0.0511881519099 0)
(0.00678226819611 -0.0527771533659 0)
(0.00613005553021 -0.0542159750562 0)
(0.00548962913031 -0.0555079197112 0)
(0.00486151512126 -0.0566563537135 0)
(0.00424585223567 -0.0576646165229 0)
(0.00364244800787 -0.0585359478016 0)
(0.00305084873196 -0.059273428529 0)
(0.00247038172736 -0.0598799344571 0)
(0.00190021527404 -0.0603580989867 0)
(0.00133939113412 -0.0607102849642 0)
(0.000786880450139 -0.060938563584 0)
(0.000241613143909 -0.061044700541 0)
(-0.000297462777289 -0.0610301535565 0)
(-0.000831349223008 -0.0608960707043 0)
(-0.00136092937538 -0.0606433063934 0)
(-0.00188692898494 -0.0602724503829 0)
(-0.00240983800995 -0.059783866237 0)
(-0.00292986702201 -0.0591777500394 0)
(-0.00344686372312 -0.0584542054972 0)
(-0.00396027474376 -0.0576133396934 0)
(-0.00446906956001 -0.0566553755882 0)
(-0.00497172459654 -0.0555807838089 0)
(-0.00546617319321 -0.0543904246219 0)
(-0.00594983184075 -0.0530857007009 0)
(-0.00641959329674 -0.0516687056882 0)
(-0.00687190727057 -0.0501423673393 0)
(-0.00730281849382 -0.0485105669529 0)
(-0.0077080913233 -0.0467782352541 0)
(-0.00808326802634 -0.0449514137749 0)
(-0.00842380066613 -0.0430372876474 0)
(-0.00872509200055 -0.0410441984015 0)
(-0.00898261004252 -0.0389816439658 0)
(-0.00919192006376 -0.0368602851324 0)
(-0.0093488378349 -0.034691942573 0)
(-0.00944953604893 -0.0324895529194 0)
(-0.00949078660606 -0.0302670566596 0)
(-0.00947005989739 -0.0280391643623 0)
(-0.00938554969139 -0.0258211386726 0)
(-0.00923598225149 -0.0236288650071 0)
(-0.0090210854463 -0.0214791151991 0)
(-0.00874321461029 -0.0193882077595 0)
(-0.00840450621169 -0.0173720541542 0)
(-0.00801023897136 -0.0154450906513 0)
(-0.00756238959808 -0.0136225100264 0)
(-0.00707109293938 -0.0119197116345 0)
(-0.00655077908722 -0.0103432016376 0)
(-0.00600333253266 -0.00889739489425 0)
(-0.00543413836512 -0.0075923082258 0)
(-0.00485680786975 -0.00643661074908 0)
(-0.0042896879419 -0.00543171380355 0)
(-0.00374998886657 -0.0045707031759 0)
(-0.00325026408525 -0.00384085321868 0)
(-0.00279799447621 -0.00322676663533 0)
(-0.00239661915685 -0.00271233347006 0)
(-0.00204639838997 -0.00228163873398 0)
(-0.00174470192206 -0.00191953823838 0)
(-0.00148596473163 -0.0016125812013 0)
(-0.00126200925593 -0.00135061717557 0)
(-0.00106410162661 -0.00112850474775 0)
(-0.000887793621243 -0.000944852655537 0)
(-0.000734351937448 -0.000796880680696 0)
(-0.000604359330639 -0.00067847049612 0)
(-0.000495083421965 -0.000583496003395 0)
(-0.000403452739726 -0.000507770097849 0)
(-0.000327674577972 -0.000447832926579 0)
(-0.000265757879669 -0.000401083032237 0)
(-0.000215213681919 -0.000355453708998 0)
(-0.000188884630741 -0.000333006068769 0)
(-0.000167682306742 -0.000302861147269 0)
(-0.000148118936964 -0.000268357821146 0)
(-0.000131430216247 -0.000227463136914 0)
(-0.000130283516288 -0.000201202197387 0)
(-0.000133376482637 -0.000166107284345 0)
(-0.000155529005866 -0.00014424810577 0)
(-0.000181182817567 -0.000114877110523 0)
(-0.000190268814498 -7.42865649802e-05 0)
(-0.000203010347763 -4.36492654079e-05 0)
(-0.000203549699609 -1.44660796154e-05 0)
(0.0188486809634 -0.0017509164274 0)
(0.0198744001479 -0.00559795810423 0)
(0.0196940516323 -0.00939603831984 0)
(0.0193760122388 -0.013169306813 0)
(0.0189594552213 -0.0168591468724 0)
(0.018454000256 -0.0204487154594 0)
(0.0178696267138 -0.0239206288392 0)
(0.0172170830406 -0.027260315479 0)
(0.016507436236 -0.0304559395032 0)
(0.015751637017 -0.033498357351 0)
(0.0149601544241 -0.0363809500798 0)
(0.0141426911647 -0.0390993820442 0)
(0.0133079860834 -0.0416513115225 0)
(0.0124636962088 -0.0440360797363 0)
(0.0116163516295 -0.0462544000665 0)
(0.010771366147 -0.0483080639027 0)
(0.00993309306548 -0.0501996740089 0)
(0.00910490787264 -0.051932411359 0)
(0.00828931000131 -0.0535098372397 0)
(0.00748802884643 -0.0549357295736 0)
(0.00670213170356 -0.0562139502911 0)
(0.00593212309756 -0.0573483397244 0)
(0.00517803836848 -0.0583426333592 0)
(0.00443952414218 -0.0592003967445 0)
(0.00371591231238 -0.059924974435 0)
(0.00300628171007 -0.0605194498888 0)
(0.00230951654356 -0.0609866134976 0)
(0.00162435609716 -0.0613289372364 0)
(0.00094944635703 -0.0615485547424 0)
(0.000283387349791 -0.0616472459786 0)
(-0.000375211893041 -0.0616264330475 0)
(-0.00102767961692 -0.0614871720821 0)
(-0.00167521460153 -0.0612301659149 0)
(-0.00231881978305 -0.0608557871569 0)
(-0.00295922219649 -0.0603641126578 0)
(-0.00359679531314 -0.0597549795203 0)
(-0.0042314710937 -0.05902806187 0)
(-0.00486266337241 -0.0581829712007 0)
(-0.00548918890468 -0.0572193802277 0)
(-0.00610921452454 -0.0561371704117 0)
(-0.00672021383957 -0.0549365969922 0)
(-0.00731896713965 -0.0536184681786 0)
(-0.00790158140538 -0.0521843246238 0)
(-0.00846356308524 -0.0506366102499 0)
(-0.00899990927227 -0.0489788166977 0)
(-0.00950524007865 -0.0472155926773 0)
(-0.00997392385931 -0.0453528057648 0)
(-0.0104002109866 -0.0433975660545 0)
(-0.0107783170926 -0.0413582201007 0)
(-0.0111025116354 -0.039244348146 0)
(-0.0113671486404 -0.0370667878962 0)
(-0.0115668153675 -0.0348376843881 0)
(-0.0116965022103 -0.0325705103365 0)
(-0.0117519866846 -0.0302799535614 0)
(-0.0117300682991 -0.0279815271345 0)
(-0.0116284672222 -0.0256911221419 0)
(-0.0114449261302 -0.0234253613732 0)
(-0.0111778018191 -0.0212033217612 0)
(-0.0108319609708 -0.0190426216128 0)
(-0.010408038276 -0.0169609276927 0)
(-0.00991633565365 -0.0149719124438 0)
(-0.00935026448711 -0.0130937433179 0)
(-0.00872701254508 -0.0113510144417 0)
(-0.0080782843827 -0.00974363260795 0)
(-0.00739249287078 -0.00826880010045 0)
(-0.00666994598734 -0.0069449229988 0)
(-0.00593114337867 -0.00578969502313 0)
(-0.00520614058203 -0.00480690227183 0)
(-0.00452148028148 -0.00398569245407 0)
(-0.00389404642615 -0.00330707221215 0)
(-0.00333224101455 -0.00275010824345 0)
(-0.00283914444485 -0.00229458321603 0)
(-0.00241439757026 -0.00192120013284 0)
(-0.00205423606005 -0.00161142378743 0)
(-0.00175052217745 -0.0013483096523 0)
(-0.00148972572725 -0.00111949012264 0)
(-0.00125552276263 -0.000922298596479 0)
(-0.00104099483322 -0.000762375726563 0)
(-0.000854087230597 -0.0006403614308 0)
(-0.000699179428026 -0.000546960553784 0)
(-0.000570466131044 -0.000473343216617 0)
(-0.00046230602998 -0.000416130593614 0)
(-0.000373592698288 -0.000372646297771 0)
(-0.000301659228199 -0.000338849019156 0)
(-0.000245611769791 -0.000306215371738 0)
(-0.000216321602348 -0.000288233849282 0)
(-0.000190653959544 -0.000258502264937 0)
(-0.00017710589933 -0.000236466121727 0)
(-0.00016939483831 -0.000210957104351 0)
(-0.000169359714392 -0.000184312096138 0)
(-0.000162812467866 -0.000142664725914 0)
(-0.000176691729734 -0.000113544446005 0)
(-0.000209481004507 -9.47263565303e-05 0)
(-0.000223917934489 -6.551927381e-05 0)
(-0.000230032938457 -3.74423351112e-05 0)
(-0.000231257015418 -1.24444695923e-05 0)
(0.0225522795745 -0.00180705258613 0)
(0.0237757149195 -0.00577634036535 0)
(0.0235523171778 -0.0096919966232 6.67387670502e-28)
(0.0231607835879 -0.0135772437302 0)
(0.0226487284802 -0.017370122555 0)
(0.0220285318459 -0.0210522000761 0)
(0.0213130468921 -0.0246049433089 0)
(0.0205160190713 -0.0280131887118 0)
(0.0196514868161 -0.0312650274679 0)
(0.0187332180191 -0.0343516950484 0)
(0.0177742463402 -0.0372673146017 0)
(0.0167865234275 -0.0400085578183 0)
(0.0157806890158 -0.0425742592254 0)
(0.0147659494141 -0.044965018259 0)
(0.0137500481761 -0.0471828159155 0)
(0.0127393084778 -0.0492306647249 0)
(0.0117387267263 -0.0511123029865 0)
(0.0107520978402 -0.0528319376485 0)
(0.00978215639715 -0.0543940351506 0)
(0.00883072065946 -0.0558031561859 0)
(0.00789883106285 -0.0570638283554 0)
(0.00698687710104 -0.0581804499963 0)
(0.0060947103328 -0.059157218468 0)
(0.00522174223073 -0.0599980768784 0)
(0.00436702835695 -0.0607066740026 0)
(0.00352934013513 -0.0612863332774 0)
(0.00270722759086 -0.0617400276508 0)
(0.00189907542873 -0.0620703581903 0)
(0.00110315664168 -0.0622795353396 0)
(0.0003176862504 -0.062369361513 0)
(-0.000459120407585 -0.0623412237146 0)
(-0.00122898373426 -0.0621960766571 0)
(-0.00199348528766 -0.0619344498232 0)
(-0.00275398431587 -0.0615564612596 0)
(-0.00351152291338 -0.0610618450668 0)
(-0.00426672343448 -0.0604500022553 0)
(-0.00501967920663 -0.0597200768963 0)
(-0.00576984696477 -0.0588710608691 0)
(-0.00651594454354 -0.0579019301347 0)
(-0.00725586805925 -0.056811812174 0)
(-0.00798663357015 -0.0556001807086 0)
(-0.0087043611191 -0.0542670717845 0)
(-0.00940430271451 -0.0528133051978 0)
(-0.0100809287808 -0.0512406988113 0)
(-0.0107280616589 -0.0495522475774 0)
(-0.0113390509359 -0.0477522534752 0)
(-0.0119069668064 -0.0458463882874 0)
(-0.0124247596401 -0.0438416844256 0)
(-0.0128853960521 -0.0417465025129 0)
(-0.0132818659012 -0.0395704789042 0)
(-0.0136072231364 -0.0373245922304 0)
(-0.0138545934055 -0.0350212995881 0)
(-0.0140175122261 -0.0326747278968 0)
(-0.0140905014499 -0.0303006267672 0)
(-0.014069806629 -0.0279156493555 0)
(-0.0139531595476 -0.0255360014003 0)
(-0.0137365414617 -0.0231782048524 0)
(-0.0134135794261 -0.0208661549552 0)
(-0.012997604208 -0.0186184490896 0)
(-0.0124811527677 -0.0164564328002 0)
(-0.0118933411922 -0.0143873201477 0)
(-0.0111933852751 -0.0124331885344 0)
(-0.0104141064743 -0.0106477323627 0)
(-0.00964150933225 -0.00900868031029 0)
(-0.00881487461379 -0.00748905227726 0)
(-0.00791982583686 -0.00613095286441 0)
(-0.00699166441995 -0.00497279885436 0)
(-0.006083546134 -0.00402204372801 0)
(-0.00523711477266 -0.0032586011512 0)
(-0.00447320992759 -0.00265160546205 0)
(-0.00379849332303 -0.0021718564007 0)
(-0.00321401976144 -0.00179448270942 0)
(-0.00271863337893 -0.001496724218 0)
(-0.00230819426993 -0.00125565791128 0)
(-0.00197231921046 -0.00104806709574 0)
(-0.00168909039536 -0.000855615156098 0)
(-0.00142517103955 -0.000679772553935 0)
(-0.00116729523318 -0.000543416762372 0)
(-0.000943251679394 -0.000455065166864 0)
(-0.000767764455292 -0.000394849334829 0)
(-0.000624670570863 -0.000346622464258 0)
(-0.000501877936421 -0.000310892287923 0)
(-0.00040297103718 -0.000287042414836 0)
(-0.000323478128145 -0.000268422644042 0)
(-0.000268192265623 -0.000252748491398 0)
(-0.000237468638014 -0.000240390660234 0)
(-0.000214469386644 -0.000222706929591 0)
(-0.000197928900106 -0.000200966692486 0)
(-0.000195071819462 -0.000182110925016 0)
(-0.000192924494184 -0.000153717080894 0)
(-0.000202637021522 -0.000130909340897 0)
(-0.000203624439361 -9.65189380975e-05 0)
(-0.000222991114789 -7.49782157257e-05 0)
(-0.000248652500619 -5.7170186238e-05 0)
(-0.00025339424515 -3.29334997965e-05 0)
(-0.000255201644875 -1.09895017721e-05 0)
(0.0263852462852 -0.00187558624807 0)
(0.027810883621 -0.00599407469065 0)
(0.0275384338376 -0.0100529840534 -6.6728489772e-28)
(0.0270644772657 -0.0140741604268 0)
(0.0264458056112 -0.0179914373742 0)
(0.0256981728342 -0.0217843988332 0)
(0.0248379510871 -0.0254331421899 0)
(0.0238825073221 -0.028921875999 0)
(0.0228494097783 -0.0322387409129 0)
(0.0217557041343 -0.0353755981181 0)
(0.020617336072 -0.0383276449182 0)
(0.019448737611 -0.0410929395917 0)
(0.0182625739904 -0.0436718857528 0)
(0.0170696337661 -0.0460667207995 0)
(0.0158788355697 -0.0482810412416 0)
(0.0146973218383 -0.0503193856108 0)
(0.0135306099898 -0.0521868849253 0)
(0.0123827755008 -0.053888981986 0)
(0.0112566459019 -0.0554312147345 0)
(0.0101539907799 -0.0568190552339 0)
(0.00907569752836 -0.0580577941831 0)
(0.00802192761979 -0.0591524607905 0)
(0.00699225098544 -0.0601077685635 0)
(0.00598575925886 -0.0609280790475 0)
(0.00500115956995 -0.0616173768463 0)
(0.00403685245354 -0.0621792509546 0)
(0.00309099721189 -0.0626168784832 0)
(0.00216156952663 -0.0629330084388 0)
(0.00124641521268 -0.0631299441322 0)
(0.000343305433767 -0.0632095229075 0)
(-0.000550002833087 -0.0631731035394 0)
(-0.00143569657471 -0.0630215374997 0)
(-0.00231582367773 -0.0627551670611 0)
(-0.00319219437299 -0.0623738253792 0)
(-0.00406626774807 -0.0618768524097 0)
(-0.00493902326887 -0.0612631364896 0)
(-0.00581082207462 -0.0605311861266 0)
(-0.00668126398164 -0.0596792373234 0)
(-0.00754904911339 -0.0587054021783 0)
(-0.00841185855338 -0.0576078603774 0)
(-0.00926626548641 -0.056385091087 0)
(-0.0101076998176 -0.0550361384654 0)
(-0.0109304731338 -0.0535608935416 0)
(-0.0117278886334 -0.0519603705614 0)
(-0.0124924189671 -0.0502369403145 0)
(-0.0132159651806 -0.0483944993469 0)
(-0.0138901206937 -0.0464385160038 0)
(-0.0145064464656 -0.0443759967881 0)
(-0.0150565779968 -0.0422153277606 0)
(-0.0155322647085 -0.0399661765308 0)
(-0.0159251305744 -0.037639516672 0)
(-0.0162266165293 -0.0352479748788 0)
(-0.0164282015827 -0.0328064201591 0)
(-0.0165226558224 -0.030332250398 0)
(-0.0165059261159 -0.0278441884919 0)
(-0.0163779885684 -0.0253578611384 0)
(-0.0161319480673 -0.0228857864979 0)
(-0.015744617432 -0.0204643888147 0)
(-0.0152596166397 -0.0181101998233 0)
(-0.0146336537649 -0.0158566669826 0)
(-0.0139712982558 -0.013684142737 0)
(-0.0131082816732 -0.0116144974471 0)
(-0.0121148905097 -0.00979910852485 0)
(-0.0112575497588 -0.00814428455526 0)
(-0.0103014014864 -0.00654693773361 0)
(-0.00920233964847 -0.00512149191199 0)
(-0.00803577183568 -0.0039531670655 0)
(-0.0069041837568 -0.00305207726904 0)
(-0.00587372152428 -0.0023750485266 0)
(-0.00496491131769 -0.00186812719589 0)