/*--------------------------------*- C++ -*----------------------------------*\
| =========                 |                                                 |
| \\      /  F ield         | OpenFOAM: The Open Source CFD Toolbox           |
|  \\    /   O peration     | Version:  v1906                                 |
|   \\  /    A nd           | Web:      www.OpenFOAM.com                      |
|    \\/     M anipulation  |                                                 |
\*---------------------------------------------------------------------------*/
FoamFile
{
    version     2.0;
    format      ascii;
    class       surfaceScalarField;
    location    "860";
    object      phi;
}
// * * * * * * * * * * * * * * * * * * * * * * * * * * * * * * * * * * * * * //

dimensions      [0 3 -1 0 0 0 0];
oriented        oriented;


internalField   nonuniform List<scalar> 
18240
(
-0.000352203365855
0.000352196891234
-0.000737859827502
0.000385645169467
-0.00112316257937
0.000385297493789
-0.00150351080421
0.00038033581409
-0.00187681074605
0.000373296288575
-0.00224134523623
0.000364521106331
-0.00259556997357
0.00035422266054
-0.00293815730701
0.000342573149049
-0.00326790998811
0.000329752210194
-0.00358385097027
0.000315926183754
-0.00388512195246
0.000301272169746
-0.00417108404763
0.000285946855924
-0.00444119492771
0.000270113718324
-0.00469511901726
0.000253908572702
-0.00493258652289
0.000237471998145
-0.0051535148953
0.000220912728854
-0.00535785377619
0.000204344973467
-0.00554571909413
0.000187849691099
-0.00571722735855
0.00017151592532
-0.00587264270659
0.000155399867172
-0.00601220288591
0.000139569320377
-0.0061362785705
0.000124060468863
-0.00624519266155
0.000108924653831
-0.00633939047128
9.41829617645e-05
-0.00641925331256
7.98747136606e-05
-0.00648527778682
6.60100859442e-05
-0.00653788449765
5.26198176562e-05
-0.00657760459722
3.9706246399e-05
-0.00660488431612
2.72939360375e-05
-0.00662027717479
1.53796068978e-05
-0.00662424570682
3.98377886344e-06
-0.00661735570135
-6.90260258469e-06
-0.00660007347326
-1.72660763574e-05
-0.00657296672251
-2.71186433717e-05
-0.00653650190463
-3.64478377184e-05
-0.0064912437944
-4.52692592781e-05
-0.00643765150912
-5.35745945056e-05
-0.0063762790571
-6.13828227303e-05
-0.00630757183005
-6.86888954391e-05
-0.00623206681739
-7.55145793804e-05
-0.00615019029824
-8.18576549648e-05
-0.00606245689731
-8.77421405251e-05
-0.00596926936164
-9.31681994691e-05
-0.00587111571489
-9.81615433539e-05
-0.00576837181145
-0.000102724192114
-0.00566149591341
-0.000106882937025
-0.00555083475052
-0.000110641127704
-0.00543681487399
-0.000114026049279
-0.0053197527547
-0.000117041846199
-0.00520004231954
-0.000119715733399
-0.00507796965958
-0.000122052192461
-0.00495389617525
-0.000124077904752
-0.00482807829195
-0.000125797297975
-0.00470084568583
-0.000127236145041
-0.00457242645583
-0.000128398564769
-0.00444311991862
-0.000129309194842
-0.00431312754255
-0.000129971700116
-0.00418271984443
-0.000130409473419
-0.00405207346156
-0.000130625730596
-0.0039214317018
-0.000130642654373
-0.00379094802314
-0.000130463113085
-0.00366083983689
-0.000130108199391
-0.00353123875313
-0.000129580636568
-0.00340233725905
-0.000128900626043
-0.00327424601315
-0.000128070973669
-0.00314713306858
-0.000127111191993
-0.00302108859112
-0.000126024408456
-0.00289625631474
-0.000124829635824
-0.0027727059945
-0.000123530503749
-0.00265055681888
-0.000122145640566
-0.00252985798193
-0.000120679299015
-0.0024107037817
-0.000119149766722
-0.00229312262667
-0.000117561942724
-0.00217718357362
-0.000115933720612
-0.00206289412651
-0.000114270595688
-0.00195029796266
-0.000112589943958
-0.00183938180705
-0.000110897726909
-0.00173016411434
-0.000109210611145
-0.00162261132116
-0.000107534850794
-0.00151671724755
-0.000105886175913
-0.00141242896292
-0.000104270919331
-0.00130971669282
-0.000102703616257
-0.00120850955084
-0.000101190442724
-0.0011087557506
-9.97444485954e-05
-0.00101036844129
-9.83713473678e-05
-0.000913276133838
-9.7082272826e-05
-0.000817379052997
-9.58818557899e-05
-0.000722590154668
-9.47781496991e-05
-0.000628803364415
-9.37722873006e-05
-0.000535928486135
-9.28635529897e-05
-0.000443879781733
-9.20351703235e-05
-0.000352627873253
-9.1240390447e-05
-0.000262274115042
-9.03418311257e-05
-0.000173404289491
-8.88585008911e-05
-8.85519595951e-05
-8.48396517785e-05
-8.85453070404e-05
-0.000389312482703
0.000741501425499
-0.000823968477932
0.000820291034375
-0.00125615118779
0.000817472143242
-0.00168203413518
0.000806208729678
-0.00209968490027
0.000790939556904
-0.00250733002088
0.000772156226307
-0.00290330385685
0.00075018965537
-0.0032861226714
0.0007253820868
-0.00365447214842
0.000698095627419
-0.00400724953607
0.000668693954731
-0.00434352436376
0.000637541810321
-0.00466257340658
0.000604986664174
-0.00496382618799
0.000571362265771
-0.00524689876453
0.00053697240292
-0.00551152927936
0.000502099277239
-0.00575761430668
0.000466989586854
-0.00598513857493
0.000431867047222
-0.00619421646381
0.000396920064419
-0.00638501881971
0.000362317140229
-0.0065578208809
0.000328195126874
-0.0067129278624
0.000294676226863
-0.00685072943666
0.000261856004012
-0.00697162479723
0.000229820989064
-0.00707608301741
0.000198635937585
-0.00716456769002
0.00016836139705
-0.00723760208668
0.000139040055009
-0.00729569322051
0.000110713960084
-0.00733940061518
8.34100389618e-05
-0.00736925957336
5.71568686857e-05
-0.00738585232419
3.19695832844e-05
-0.00738972972507
7.86606927829e-06
-0.00738148627131
-1.51480103104e-05
-0.00736168327641
-3.70633068303e-05
-0.00733092053887
-5.78825223347e-05
-0.00728975726736
-7.76045240857e-05
-0.00723878741959
-9.62394502275e-05
-0.00717856128035
-0.000113793369839
-0.00710966040983
-0.000130283253459
-0.00703261941151
-0.000145721805599
-0.00694800075508
-0.000160132032457
-0.00685631723238
-0.000173532406465
-0.00675810643458
-0.000185950990223
-0.00665385425731
-0.000197410974054
-0.00654406878619
-0.000207944343123
-0.0064292051409
-0.000217577841618
-0.00630973853486
-0.00022634616859
-0.00618609071736
-0.000234278403706
-0.00605870196516
-0.000241410745969
-0.00592795931767
-0.000247773441616
-0.00579426726661
-0.000253403068372
-0.00565797795475
-0.000258329984946
-0.00551946032111
-0.000262590183747
-0.00537903237968
-0.000266213285083
-0.00523702858686
-0.00026923396501
-0.00509373430475
-0.000271680497306
-0.00494945115393
-0.0002735857762
-0.00480443372872
-0.000274976410734
-0.00465895271534
-0.000275883340555
-0.00451323393496
-0.000276331467851
-0.00436751901649
-0.000276349870267
-0.00422200682992
-0.000275961956211
-0.00407691153294
-0.000275195255588
-0.00393240648838
-0.000274072070027
-0.00378867952589
-0.000272618827176
-0.00364587944224
-0.000270857203518
-0.00350416835571
-0.000268813010975
-0.00336367092767
-0.000266507767207
-0.00322452370878
-0.00026396709394
-0.00308682722419
-0.000261212724214
-0.00295069223692
-0.00025827038416
-0.00281619486634
-0.000255162233619
-0.00268341970083
-0.000251914217343
-0.00255241810611
-0.000248548951927
-0.00242324812788
-0.000245092528555
-0.00229593615313
-0.000241567866844
-0.00217051353633
-0.000238000961992
-0.00204698174868
-0.000234414735821
-0.00192534565955
-0.00023083471526
-0.00180558230387
-0.000227283413135
-0.00168767074128
-0.000223785428638
-0.00157156454149
-0.000220362389905
-0.00145721814281
-0.000217037457077
-0.00134456315412
-0.000213830852297
-0.00123353113464
-0.000210763735399
-0.0011240337932
-0.000207854321615
-0.00101598212884
-0.000205121052318
-0.000909270601129
-0.000202579216585
-0.00080379250522
-0.000200243180946
-0.000699427716174
-0.000198123096365
-0.000596052662331
-0.000196225439181
-0.000493525852192
-0.000194548612951
-0.000391672805033
-0.000193080751633
-0.000290208568081
-0.000191793339467
-0.00018843965244
-0.000190615202028
-8.45939846517e-05
-0.000188673330978
-0.000173133315981
-0.000396270996736
0.00113776406102
-0.00083656945072
0.0012605803566
-0.0012750091915
0.00125590288094
-0.00170707601495
0.00123826633296
-0.00213063892383
0.00121449388128
-0.00254383118201
0.00118533947808
-0.00294494735941
0.00115129771056
-0.00333247106674
0.00111289714476
-0.00370508022376
0.00107069722149
-0.00406166196882
0.00102526753907
-0.00440129976156
0.000977172712595
-0.00472327681151
0.000926956150445
-0.00502705176579
0.000875131083658
-0.00531225660157
0.000822170362593
-0.00557866644438
0.000768503815326
-0.00582619654537
0.0007145135705
-0.00605487041635
0.000660536491498
-0.00626481904941
0.000606863397674
-0.00645625003529
0.000553744624344
-0.0066294506267
0.000501391276763
-0.00678475903885
0.000449982077768
-0.00692257169818
0.000399665109597
-0.00704331690477
0.000350564593402
-0.00714746578206
0.000302782161289
-0.00723550785411
0.000256402814333
-0.00730796483933
0.000211495290623
-0.00736536751543
0.000168116924083
-0.00740827143514
0.000126313102761
-0.00743723446448
8.61210973305e-05
-0.00745283366033
4.75688028783e-05
-0.00745564319466
1.06776951888e-05
-0.00744625185676
-2.45384687926e-05
-0.00742524106736
-5.80711538452e-05
-0.00739320265889
-8.99192181361e-05
-0.0073507168758
-0.000120086539044
-0.00729837031666
-0.000148583493072
-0.00723673413693
-0.000175425000536
-0.00716638212882
-0.000200631969147
-0.00708786922445
-0.000224229408086
-0.0070017496179
-0.000246247602681
-0.00690855569862
-0.000266720316216
-0.00680881621345
-0.000285685723809
-0.00670303577447
-0.000303184723622
-0.00659171303277
-0.000319261650214
-0.00647532083944
-0.000333962709002
-0.00635432439768
-0.000347336520789
-0.00622916215465
-0.000359432710522
-0.00610026386806
-0.000370302319126
-0.00596803224469
-0.000379996559274
-0.00583286085189
-0.000388567150668
-0.0056951165209
-0.000396065265299
-0.00555515700718
-0.000402541819503
-0.00541331412274
-0.000408046612056
-0.00526991104814
-0.000412628619623
-0.0051252461687
-0.000416335335554
-0.0049796099219
-0.000419213089015
-0.00483326927355
-0.00042130656972
-0.00468648399466
-0.000422659195434
-0.00453949174028
-0.000423312806401
-0.00439252364802
-0.0004233080746
-0.00424578996688
-0.000422684327641
-0.00409949489862
-0.000421479993714
-0.00395382277023
-0.000419732514302
-0.00380895205507
-0.000417478792813
-0.00366504208666
-0.000414755141522
-0.00352224623548
-0.000411597710935
-0.00338069921352
-0.000408042428026
-0.00324052939967
-0.000404125372767
-0.00310184678728
-0.000399882667226
-0.00296475447973
-0.000395350786431
-0.00282933736875
-0.00039056638002
-0.00269567282217
-0.00038556650485
-0.00256382016647
-0.000380388370882
-0.00243383059673
-0.000375069504432
-0.00230573754903
-0.000369647429289
-0.00217956584615
-0.000364159767848
-0.00205532301788
-0.000358643873121
-0.00193300769163
-0.000353136886692
-0.00181260191835
-0.000347675344951
-0.00169407879658
-0.000342295203773
-0.00157739583422
-0.000337031438184
-0.00146250178899
-0.000331918044098
-0.00134933109192
-0.00032698764572
-0.00123780986798
-0.000322271466818
-0.00112785141278
-0.000317798942424
-0.00101936132949
-0.000313597631552
-0.000912233972832
-0.000309692795979
-0.000806356410838
-0.000306107185873
-0.000701605230675
-0.000302860562095
-0.00059784778211
-0.000299969430735
-0.000494935762867
-0.000297447201638
-0.000392696927755
-0.000295306711616
-0.000290913319244
-0.000293564593402
-0.000189315603494
-0.000292200300473
-8.81074840701e-05
-0.000289869019401
-0.000261234979048
-0.000402474273354
0.00154022990008
-0.000848889323136
0.00170698575245
-0.00129343017013
0.00170043463151
-0.00173135483183
0.00167618177025
-0.00216039763294
0.00164352782753
-0.00257859980409
0.00160353278628
-0.00298420022867
0.00155688965514
-0.00337564828425
0.00150433676608
-0.0037516114962
0.00144665246653
-0.00411097990977
0.00138462806278
-0.00445285833865
0.00131904379986
-0.00477655800154
0.00125064857197
-0.00508157841269
0.00118014487642
-0.0053675924322
0.00110817787574
-0.00563442383042
0.00103532938908
-0.00588203109422
0.000962115131423
-0.00611048521202
0.000888985641604
-0.00631995572906
0.000816329069435
-0.00651069133588
0.000744476158978
-0.0066830097724
0.000673705763124
-0.00683728211752
0.0006042512785
-0.00697392672323
0.000536306684367
-0.00709339696988
0.000470032632705
-0.00719617857335
0.000405561661931
-0.00728278001004
0.000343002985715
-0.0073537322195
0.000282446323573
-0.00740958076375
0.000223965130374
-0.00745088696989
0.000167619045161
-0.00747822103821
0.000113455739677
-0.00749216391863
6.15123134149e-05
-0.00749330091317
1.18161470622e-05
-0.00748222356968
-3.56143153813e-05
-0.00745952347782
-8.07689308274e-05
-0.00742579449163
-0.000123645867706
-0.00738162657702
-0.000164251316669
-0.00732760798144
-0.000202598944248
-0.00726431913861
-0.000238709914151
-0.00719233496964
-0.000272612217764
-0.00711221903494
-0.000304340659626
-0.00702452597225
-0.000333936002847
-0.00692979597821
-0.000361444904028
-0.00682855744351
-0.000386918886112
-0.00672132183705
-0.000410414238526
-0.00660858657368
-0.000431990864637
-0.00649083034731
-0.000451712188565
-0.00636851624633
-0.000469643927555
-0.00624208754955
-0.000485854041223
-0.0061119710731
-0.000500411487996
-0.00597857341637
-0.000513386259275
-0.00584228450713
-0.00052484816867
-0.00570347425917
-0.000534866999699
-0.00556249625588
-0.000543511378015
-0.00541968476125
-0.000550849063282
-0.00527535847037
-0.000556945940195
-0.00512981779789
-0.000561866466332
-0.00498334860641
-0.000565672812922
-0.00483621968704
-0.000568425474472
-0.00468868637796
-0.00057018256584
-0.00454098815204
-0.000571000573898
-0.00439335203984
-0.000570933803133
-0.00424599025246
-0.000570035236122
-0.00409910334695
-0.000568356094162
-0.00395287783723
-0.000565946750382
-0.00380748906364
-0.00056285636262
-0.00366309877644
-0.000559133780191
-0.00351985770795
-0.000554827196278
-0.00337790314683
-0.00054998498639
-0.00323736123682
-0.000544655338001
-0.00309834458635
-0.000538886976165
-0.00296095434286
-0.000532728738636
-0.00282527790019
-0.00052623015947
-0.00269139080302
-0.00051944098068
-0.00255935461712
-0.000512411589343
-0.00242921871938
-0.000505192471427
-0.00230101839129
-0.000497834512524
-0.00217477653554
-0.000490388415295
-0.00205050203771
-0.00048290488757
-0.00192819143755
-0.00047543404818
-0.00180782759006
-0.000468025528133
-0.00168938130036
-0.000460727891122
-0.00157281029647
-0.000453588672664
-0.00145806082237
-0.000446653834322
-0.0013450669194
-0.000439967758476
-0.00123375195069
-0.000433572747893
-0.00112402815436
-0.000427508985773
-0.0010157980325
-0.000421814084898
-0.000908954065394
-0.000416523029453
-0.000803379752013
-0.000411667819752
-0.000698949077758
-0.000407277514331
-0.000595526503203
-0.000403378386101
-0.000492965460115
-0.000399995003237
-0.000391106848712
-0.000397152401021
-0.000289781662256
-0.000394876860263
-0.000188862261848
-0.000393107307363
-8.88187653054e-05
-0.000389900285664
-0.000350047616532
-0.000410472290747
0.00195069352386
-0.000865375403551
0.00216187977154
-0.00131817997258
0.00215322974144
-0.00176395102615
0.00212194364801
-0.00220028870287
0.00207985642998
-0.00262512832033
0.0020283635154
-0.00303663628201
0.00196838895678
-0.00343321949463
0.00190091152446
-0.00381353192545
0.00182695674847
-0.00417647332832
0.00174756157239
-0.00452117922161
0.00166374216799
-0.00484700573808
0.0015764678627
-0.00515350921549
0.00148664154419
-0.005440424496
0.00139508668411
-0.00570764127756
0.0013025401558
-0.00595518211133
0.00120965031546
-0.00618318058759
0.00111697895515
-0.00639186279134
0.00102500649855
-0.00658152985457
0.000934138959013
-0.00675254427418
0.000844716320171
-0.00690531733804
0.000757021004608
-0.00704030009998
0.000671286517744
-0.00715797499102
0.00058770512892
-0.00725885041792
0.000506435102064
-0.00734345535985
0.000427606473748
-0.00741233632538
0.000351326239893
-0.00746605372477
0.000277682009937
-0.0075051800672
0.000206745260896
-0.00753029715673
0.000138573221155
-0.00754199476197
7.32106935147e-05
-0.007540868103
1.06907709421e-05
-0.0075275163104
-4.89644592308e-05
-0.00750254014947
-0.000105742950874
-0.00746654050441
-0.000159643019207
-0.00742011587259
-0.000210672977297
-0.00736386093876
-0.000258850572392
-0.00729836403495
-0.000304203053129
-0.00722420580752
-0.000346766360812
-0.00714195686701
-0.000386585072608
-0.00705217663937
-0.000423711401549
-0.00695541129801
-0.000458204992356
-0.00685219288722
-0.000490131756977
-0.00674303761425
-0.00051956356375
-0.00662844529953
-0.000546576962018
-0.00650889806298
-0.000571252818829
-0.00638486012524
-0.000593675003065
-0.00625677689871
-0.00061393003263
-0.00612507513118
-0.000632105780625
-0.00599016237487
-0.000648291186089
-0.00585242744141
-0.000662575045469
-0.00571224020654
-0.000675045838844
-0.00556995231983
-0.00068579065676
-0.00542589727252
-0.000694895181019
-0.00528039128908
-0.000702442793332
-0.00513373357494
-0.000708514743437
-0.00498620729811
-0.000713189465505
-0.00483807991556
-0.000716542942614
-0.0046896041491
-0.000718648240925
-0.00454101829586
-0.000719576059706
-0.00439254710693
-0.00071939445954
-0.00424440199418
-0.000718169555678
-0.0040967817437
-0.000715965394876
-0.00394987256664
-0.000712844729879
-0.00380384860946
-0.000708868975196
-0.00365887182643
-0.000704098984281
-0.00351509228965
-0.000698595013079
-0.00337264790565
-0.00069241742697
-0.00323166456005
-0.000685626605728
-0.00309225572523
-0.00067828352094
-0.00295452250173
-0.000670449541584
-0.00281855318753
-0.00066218685113
-0.00268442328505
-0.000653558136351
-0.00255219510001
-0.000644626838745
-0.00242191778121
-0.000635456738094
-0.00229362701231
-0.000626112057518
-0.00216734513441
-0.000616656967942
-0.00204308097234
-0.000607155577962
-0.00192083007361
-0.000597671396392
-0.00180057469584
-0.000588267243354
-0.00168228417361
-0.000579004705101
-0.00156591507122
-0.000569943998678
-0.00145141167312
-0.000561143449381
-0.00133870629034
-0.000552659335611
-0.00122771984827
-0.000544545410887
-0.00111836230526
-0.00053685275118
-0.00101053328828
-0.000529629349012
-0.000904122551091
-0.000522920003252
-0.000799010535775
-0.000516766058776
-0.000695068798099
-0.000511205516561
-0.000592160404452
-0.000506273171158
-0.000490140445263
-0.000502001430878
-0.000388858200472
-0.000498421636489
-0.000288164004147
-0.000495558682934
-0.000187953418644
-0.00049330507001
-8.86781458278e-05
-0.000489162878808
-0.000438719883727
-0.00042064157918
0.00237132644657
-0.00088657032981
0.00262779858758
-0.00135005275437
0.00261670279658
-0.00180591374348
0.00257779521582
-0.00225158999479
0.00252552353095
-0.00268488905923
0.00246165355994
-0.00310388861782
0.00238737973374
-0.00350694623883
0.0023039605825
-0.00389270341611
0.00221270565301
-0.00426007923056
0.00211492939439
-0.00460825472064
0.00201191001219
-0.00493665089069
0.00190485671609
-0.00524490231256
0.00179488604586
-0.00553282913369
0.00168300695153
-0.00580040880936
0.00157011371325
-0.00604774959507
0.00145698537977
-0.00627506616159
0.00134429026811
-0.00648265854414
0.00123259404535
-0.00667089399664
0.0011223700656
-0.00684019239374
0.00101401080403
-0.00699101427541
0.000907839478558
-0.00712385188964
0.000804121162983
-0.00723922212422
0.000703072906013
-0.00733766160395
0.000604872564119
-0.00741972282318
0.000509666187921
-0.00748597162748
0.000417573972845
-0.00753698500116
0.000328694818185
-0.00757334957743
0.000243109696162
-0.00759565996922
0.00016088396856
-0.0076045174485
8.2068940717e-05
-0.00760052832971
6.70290319226e-06
-0.0075843020794
-6.51890614039e-05
-0.00755644974251
-0.000133593170168
-0.00751758201583
-0.000198508246894
-0.00746830712637
-0.000259944915584
-0.00740922893242
-0.000317925449705
-0.00734094475645
-0.00037248347662
-0.00726404354222
-0.000423663474474
-0.00717910384035
-0.00047152025648
-0.00708669216878
-0.000516118222954
-0.00698736128202
-0.00055753062834
-0.00688164884418
-0.000595838628773
-0.00677007606679
-0.000631130392965
-0.0066531467573
-0.000663500023403
-0.00653134636862
-0.000693046594062
-0.00640514144674
-0.000719873027676
-0.0062749790958
-0.000744085139116
-0.00614128681413
-0.000765790548533
-0.00600447235098
-0.000785097804711
-0.00586492389504
-0.000802115402628
-0.00572301027237
-0.000816951049437
-0.00557908142672
-0.000829710849538
-0.00543346888675
-0.000840498770501
-0.00528648645623
-0.000849416046401
-0.00513843085609
-0.000856560884934
-0.00498958252284
-0.000862028125421
-0.00484020631646
-0.000865909209136
-0.00469055231756
-0.000868292097716
-0.00454085648925
-0.000869261494488
-0.00439134136761
-0.000868898996332
-0.00424221658183
-0.000867283518394
-0.0040936793583
-0.000864491614762
-0.00394591483464
-0.000860598024871
-0.00379909633546
-0.000855676074073
-0.00365338546092
-0.000849798244594
-0.00350893213903
-0.000843036557365
-0.0033658745139
-0.000835463071164
-0.00322433882027
-0.000827150161539
-0.00308443913323
-0.000818170875722
-0.00294627713966
-0.000808599052281
-0.00280994183046
-0.000798509492504
-0.00267550925252
-0.000787977902528
-0.00254304222555
-0.000777080879952
-0.0024125901515
-0.000765895692644
-0.00228418882432
-0.000754500107366
-0.00215786035376
-0.000742972043627
-0.00203361311391
-0.000731389288609
-0.00191144181594
-0.000719829072696
-0.00179132761832
-0.000708367718341
-0.0016732383595
-0.000697080183553
-0.00155712883178
-0.000686039687429
-0.00144294116616
-0.000675317260031
-0.00133060525324
-0.000664981379022
-0.00122003925591
-0.000655097557673
-0.00111115014199
-0.000645728023369
-0.00100383429071
-0.000636931376793
-0.00089797810056
-0.000628762359232
-0.000793458679536
-0.000621271653981
-0.000690144538974
-0.000614505821514
-0.000587896488593
-0.000608507455252
-0.000486569119936
-0.000603315483647
-0.000386012836796
-0.000598964880377
-0.000286079757417
-0.000595478635551
-0.00018665986493
-0.000592712465534
-8.81667417052e-05
-0.000587643651927
-0.000526880390468
-0.000433246393957
0.00280456387839
-0.000912904924006
0.00310744782251
-0.00138965882869
0.00309344691897
-0.00185801684701
0.00304614380488
-0.00231520878564
0.00298270609813
-0.00275888467918
0.00290532031432
-0.00318701660173
0.00281550271058
-0.00359790791915
0.00271484320772
-0.00399019363443
0.00260498294449
-0.00436282718135
0.00248755482682
-0.00471505663819
0.00236413168039
-0.00504639370416
0.00223618635492
-0.00535657883471
0.00210506411959
-0.00564554533816
0.0019719668038
-0.00591338480039
0.00183794693063
-0.00616031533784
0.0017039101127
-0.0063866537957
0.00157062335429
-0.00659279220072
0.00143872754593
-0.00677917867898
0.00130875209164
-0.00694630240098
0.00118113055864
-0.00709468231747
0.00105621589025
-0.00722485891648
0.000934294752364
-0.00733738865347
0.000815600100205
-0.00743284021033
0.00070032207548
-0.00751179230581
0.000588616701462
-0.00757483227993
0.000480612859052
-0.00762255534155
0.00037641724798
-0.00765556383768
0.000276118044633
-0.00767446663313
0.000179787060377
-0.00767987809397
8.74811716031e-05
-0.00767241730162
-7.56688180521e-07
-0.00765270605458
-8.48986497263e-05
-0.00762136736147
-0.000164929789728
-0.00757902380929
-0.000240849282354
-0.00752629533859
-0.000312670470773
-0.00746379705178
-0.000380420395312
-0.00739213718024
-0.00044413962569
-0.00731191488969
-0.000503881633666
-0.00722371838035
-0.000559712269643
-0.00712812291574
-0.00061170880033
-0.00702568922368
-0.000659959085635
-0.00691696188084
-0.000704560362699
-0.00680246811404
-0.000745618219454
-0.00668271661112
-0.00078324522966
-0.00655819676441
-0.000817559829566
-0.00642937792996
-0.000848684911394
-0.0062967091155
-0.000876746703941
-0.00616061867396
-0.000901873418425
-0.00602151440543
-0.000924194218812
-0.00587978364466
-0.000943838003317
-0.00573579372437
-0.000960932541617
-0.00558989239201
-0.000975603464923
-0.00544240855474
-0.000987973637687
-0.00529365293598
-0.000998162421653
-0.00514391899942
-0.00100628533838
-0.00499348373129
-0.00101245365258
-0.00484260861872
-0.00101677435464
-0.00469154043009
-0.00101935007551
-0.00454051211967
-0.00102027938003
-0.00438974348258
-0.00101965697868
-0.00423944187199
-0.00101757427202
-0.00408980263325
-0.00101411977888
-0.00394100956053
-0.0010093798309
-0.00379323506161
-0.00100343910027
-0.00364664033225
-0.000996381318646
-0.00350137525977
-0.000988289778141
-0.00335757835086
-0.000979247953509
-0.0032153764321
-0.000969339866255
-0.0030748844085
-0.000958650517611
-0.00293620485306
-0.000947266046298
-0.00279942769654
-0.000935273926763
-0.00266462980742
-0.00092276289881
-0.00253187470993
-0.000909822932981
-0.00240121224432
-0.000896544955318
-0.00227267839186
-0.000883020619059
-0.00214629507922
-0.000869341875891
-0.00202207015907
-0.000855600612343
-0.00189999739341
-0.000841888129759
-0.00178005661145
-0.000828294706967
-0.00166221388024
-0.000814909046897
-0.00154642183712
-0.000801817818635
-0.00143262003644
-0.00078910511866
-0.00132073543723
-0.000776852034462
-0.00121068290143
-0.000765136157404
-0.00110236580429
-0.000754031202505
-0.000995676664651
-0.000743606608712
-0.000890497867278
-0.000733927251049
-0.000786702418661
-0.000725053168919
-0.000684154913031
-0.000717039452312
-0.000582712549155
-0.000709936077891
-0.000482226435253
-0.000703787887284
-0.000382543941346
-0.000698634215728
-0.000283512547785
-0.000694497598877
-0.000185009745165
-0.000691202254127
-8.74206441123e-05
-0.000685219874273
-0.000614295112525
-0.000448564540406
0.00325311948061
-0.000944915893551
0.00360378883346
-0.00143777020455
0.00358629154824
-0.00192123378859
0.00352959762641
-0.00239227468213
0.00345373751663
-0.00284835082673
0.00336138711858
-0.00328731121019
0.00325445399249
-0.0037074038609
0.00313492698872
-0.00410726968979
0.00300484019188
-0.00448591958549
0.00286619643914
-0.00484269888803
0.00272090304536
-0.00517724428735
0.00257072416633
-0.00548943743175
0.00241725007214
-0.00577935909102
0.00226188166114
-0.00604724639778
0.00210582787192
-0.00629345512995
0.00195011290103
-0.0065184277165
0.00179559046539
-0.00672266743738
0.0016429622357
-0.00690671830209
0.00149279841598
-0.00707115030524
0.00134555848065
-0.00721654902666
0.00120161103555
-0.00734350905566
0.00106125167104
-0.00745263011151
0.000924718556359
-0.00754451540389
0.000792205234047
-0.00761977120476
0.000663870878399
-0.00767900735831
0.00053984784818
-0.0077228378942
0.000420247121859
-0.00775188171775
0.000305161655019
-0.00776676278115
0.000194668401788
-0.00776810995547
8.88290604872e-05
-0.00775655595414
-1.2309497013e-05
-0.00773273676177
-0.000108716229576
-0.0076972895379
-0.000200374938323
-0.00765085075799
-0.000287285582836
-0.00759405404662
-0.000369464257019
-0.00752752797338
-0.000446943156122
-0.00745189365463
-0.000519770203337
-0.00736776257544
-0.00058800860165
-0.00727573434307
-0.000651735979824
-0.00717639476535
-0.000711043502307
-0.00707031394947
-0.000766034631989
-0.00695804478605
-0.000816823919861
-0.00684012150217
-0.0008635355212
-0.00671705862308
-0.000906301806152
-0.00658935002263
-0.000945261769015
-0.00645746837874
-0.000980559590383
-0.00632186471656
-0.00101234306085
-0.0061829683363
-0.00104076220541
-0.00604118681557
-0.00106596782331
-0.00589690636342
-0.00108811026709
-0.00575049222447
-0.00110733818678
-0.00560228938943
-0.00112379754897
-0.00545262331836
-0.00113763066893
-0.00530180090941
-0.00114897554818
-0.00515011142642
-0.00115796526641
-0.00499782759692
-0.00116472769804
-0.00484520660272
-0.0011693853074
-0.00469249115686
-0.00117205526379
-0.00453991040483
-0.00117284963165
-0.0043876808331
-0.00117187584561
-0.00423600694562
-0.00116923722501
-0.00408508188919
-0.00116503370734
-0.00393508781603
-0.00115936255863
-0.00378619616905
-0.00115231921778
-0.00363856770822
-0.00114399804311
-0.00349235246889
-0.00113449310533
-0.00334768949826
-0.00112389881456
-0.0032047065627
-0.00111231052333
-0.00306351969372
-0.00109982491887
-0.00292423276024
-0.0010865403496
-0.00278693694789
-0.00107255692822
-0.00265171032046
-0.00105797656018
-0.00251861735123
-0.00104290276594
-0.00238770857974
-0.00102744044629
-0.00225902028473
-0.001011695479
-0.00213257430789
-0.00099577429072
-0.00200837792115
-0.000979783306031
-0.00188642385161
-0.000963828405727
-0.00176669036139
-0.00094801430605
-0.00164914147749
-0.000932443975576
-0.00153372727664
-0.00091721800949
-0.00142038430316
-0.000902434061538
-0.00130903603454
-0.000888186261922
-0.00119959346047
-0.000874564706132
-0.00109195569795
-0.000861654952274
-0.000986010712699
-0.000849537597236
-0.000881636074603
-0.00083828788384
-0.000778699856
-0.000827975392947
-0.000677061557518
-0.000818663741204
-0.000576573239785
-0.000810410448057
-0.000477081023685
-0.00080326666188
-0.000378426211138
-0.00079727583513
-0.000280448428577
-0.000792462010392
-0.000183014642918
-0.000788623424528
-8.64879987257e-05
-0.000781734053821
-0.000700776767647
-0.000466935306528
0.00372004543532
-0.00098328486873
0.00412012878057
-0.00149537593672
0.0040983724131
-0.00199680721638
0.00403101909915
-0.00248422138377
0.00394114191771
-0.00295484436394
0.00383200057909
-0.00340638605255
0.00370598635449
-0.00383704384529
0.00356557571862
-0.00424548650982
0.00341327406624
-0.00463081676527
0.00325151822571
-0.00499251940205
0.00308259754538
-0.00533040159221
0.00290859859643
-0.00564453148593
0.00273137258447
-0.00593517957148
0.00255252278861
-0.00620276613455
0.00237340789245
-0.00644781643088
0.00219515711521
-0.00667092444287
0.00201869283824
-0.0068727248145
0.00184475745652
-0.00705387248241
0.00167394139513
-0.00721502870058
0.0015067105169
-0.00735685258642
0.00134343121175
-0.00747999672533
0.00118439261713
-0.00758510605778
0.00102982517117
-0.00767281871935
0.000879915696868
-0.00774376830566
0.000734818737023
-0.0077985864611
0.000594664790505
-0.00783790557698
0.000459565486572
-0.00786236079612
0.000329616626894
-0.00787259145962
0.000204899266593
-0.00786924148797
8.54797825649e-05
-0.00785295882812
-2.85910287195e-05
-0.00782439511705
-0.000137278336251
-0.00778420343782
-0.000240564595762
-0.00773303628719
-0.000338450251112
-0.00767154334399
-0.000430954317519
-0.00760036884455
-0.000518114329695