/*--------------------------------*- C++ -*----------------------------------*\
| =========                 |                                                 |
| \\      /  F ield         | OpenFOAM: The Open Source CFD Toolbox           |
|  \\    /   O peration     | Version:  v1906                                 |
|   \\  /    A nd           | Web:      www.OpenFOAM.com                      |
|    \\/     M anipulation  |                                                 |
\*---------------------------------------------------------------------------*/
FoamFile
{
    version     2.0;
    format      ascii;
    class       surfaceScalarField;
    location    "660";
    object      phia;
}
// * * * * * * * * * * * * * * * * * * * * * * * * * * * * * * * * * * * * * //

dimensions      [0 3 -1 0 0 0 0];
oriented        oriented;


internalField   nonuniform List<scalar> 
18240
(
0.00134688933208
-0.00134682027542
0.00282142570886
-0.00147445888898
0.00429489955781
-0.00147340143194
0.0057496297441
-0.00145465160151
0.00717759756225
-0.00142789671288
0.00857206213265
-0.00139438530236
0.00992695811815
-0.00135482652399
0.0112368396841
-0.00130980175162
0.0124968091631
-0.00125990185497
0.013702602084
-0.00120571272593
0.0148505169044
-0.00114784925589
0.0159375045674
-0.00108690728238
0.0169610644231
-0.00102349654753
0.0179193296356
-0.000958184868066
0.0188109301282
-0.000891539675305
0.0196350784916
-0.000824068297733
0.020391406112
-0.000756269486369
0.0210800560303
-0.000688570397111
0.0217014990604
-0.00062138780508
0.0222566393598
-0.000555061601362
0.0227466163102
-0.000489924799991
0.023172926835
-0.000426232941324
0.0235372172818
-0.000364241563605
0.023841424337
-0.000304130876738
0.0240875592074
-0.000246089370026
0.0242778669609
-0.000190233269157
0.0244146040551
-0.000136695113385
0.0245002146228
-8.55380506977e-05
0.0245371017815
-3.6848746396e-05
0.0245278193395
9.35273270496e-06
0.0244748394229
5.30146910338e-05
0.0243807497241
9.41575301837e-05
0.0242480093755
0.000132771507673
0.0240791719512
0.000168902582062
0.0238766430759
0.000202556418574
0.0236429023661
0.000233803012989
0.0233802555936
0.000262670790893
0.023091065711
0.00028924917485
0.022777503805
0.000313582462664
0.0224417857919
0.000335774171425
0.0220859229078
0.000355880126966
0.0217119621759
0.000374013657503
0.0213217377731
0.000390238445879
0.0209171135477
0.000404673851166
0.0204997365159
0.000417388065724
0.0200712798194
0.00042850297705
0.0196331997477
0.000438088248409
0.0191869775703
0.000446265096668
0.0187338812695
0.00045310183952
0.0182752047415
0.000458716088908
0.017812035457
0.000463172363377
0.0173454895232
0.000466582165863
0.0168764862074
0.00046900417079
0.0164059773902
0.000470541766864
0.015934729863
0.000471246352241
0.0154635477165
0.00047121188366
0.0149930630508
0.000470481702732
0.0145239499367
0.000469139724034
0.0140567241775
0.000467221208203
0.0135919475856
0.00046480017984
0.0131300372391
0.00046190444549
0.0126714590059
0.000458598916664
0.0122165467985
0.000454905152551
0.0117656844719
0.000450880238747
0.0113191354548
0.000446541031919
0.010877212399
0.000441938337558
0.0104401176436
0.000437086022132
0.0100081002118
0.000432030234492
0.00958130745615
0.000426783473727
0.00915992923481
0.000421388699125
0.00874406112629
0.000415858439224
0.00833383578483
0.000410233654297
0.00792929798358
0.000404527916143
0.00753052331168
0.000398780980743
0.00713750528445
0.000393008067483
0.00675026163469
0.000387248119887
0.00636873357994
0.000381518170222
0.00599288004029
0.000375856337599
0.00562258910188
0.000370281258769
0.00525776051691
0.000364829879969
0.00489822927857
0.000359521899141
0.00454383679373
0.000354392441278
0.00419436647488
0.00034946143362
0.00384960402947
0.000344761209318
0.00350928504979
0.00034031063469
0.00317314521391
0.000336137508192
0.00284088063666
0.00033225679308
0.00251219071948
0.000328686548912
0.00218675676723
0.000325426724512
0.00186429282356
0.000322459680355
0.00154458170514
0.000319704612919
0.00122763927526
0.000316937587095
0.000914103741573
0.000313530061262
0.000606808049502
0.000307290630004
0.000317039509982
0.000289762831477
0.000317036501003
0.00148903824896
-0.00283578403985
0.00315120656918
-0.00313654732946
0.00480427507421
-0.00312639079634
0.00643354541347
-0.00308384139564
0.00803159320567
-0.00302586603173
0.00959147819017
-0.0029541898701
0.0111066068874
-0.00286987761201
0.0125709284276
-0.00277404321501
0.013978993233
-0.00266789008909
0.0153260286466
-0.00255266859633
0.0166079264089
-0.00242967167917
0.0178212838528
-0.00230018592923
0.018963354197
-0.00216549301693
0.0200320684974
-0.00202682135069
0.0210259584761
-0.00188535747039
0.0219441676989
-0.0017422009287
0.0227863552348
-0.00159838678185
0.0235527040347
-0.00145484409147
0.0242438132101
-0.00131242891863
0.0248607105153
-0.00117188555107
0.0254047396529
-0.00103388830382
0.0258775818194
-0.000899003767761
0.0262811423149
-0.000767739071999
0.0266175836421
-0.000640503133763
0.0268892133788
-0.000517658986092
0.0270985290522
-0.00039948238421
0.0272481074485
-0.000286216431666
0.0273406600127
-0.000178026786075
0.0273789228522
-7.50577170887e-05
0.0273657204582
2.26160308475e-05
0.0273038531374
0.000114932555011
0.027196175397
0.000201893086889
0.0270454930905
0.000283500927084
0.026854632452
0.000359817811674
0.0266263290384
0.00043090346483
0.0263633142388
0.000496869079496
0.0260682078571
0.00055781729066
0.0257436070075
0.000613897896716
0.0253919791623
0.000665246926102
0.0250157545873
0.000712043187231
0.0246172206848
0.00075444717466
0.024198617223
0.000792658117507
0.0237620324033
0.000826853007302
0.023309500077
0.000857243751527
0.0228428979629
0.000884016595869
0.0223640461145
0.000907389015405
0.021874607745
0.000927549821678
0.0213761882308
0.00094471548188
0.0208702389504
0.0009590712296
0.02035815612
0.000970826553964
0.0198411879943
0.000980157651809
0.0193205327814
0.000987261880583
0.018797249425
0.000992301891963
0.018272353812
0.00099545886632
0.0177467332583
0.000996878644617
0.0172212401767
0.000996723570811
0.0166966102732
0.000995120890181
0.0161735528592
0.000992213008142
0.0156526727259
0.000988108358682
0.0151345563321
0.000982929866439
0.0146196972968
0.000976768416275
0.0141085778131
0.000969729280897
0.0136015977546
0.000961888259696
0.0130991508083
0.000953335826293
0.012601557238
0.000944135952791
0.0121091344137
0.000934367738716
0.0116221333704
0.000924086909077
0.0111408035793
0.000913364715065
0.010665333492
0.000902252079802
0.0101959095636
0.000890815604291
0.00973266103481
0.000879104340693
0.00927571333528
0.000867182790557
0.0088251373541
0.000855100293323
0.00838099744172
0.00084292095904
0.00794330541744
0.000830695676241
0.00751206342899
0.000818488971039
0.00708722288736
0.000806353644685
0.0066687224593
0.000794354591099
0.00625645207507
0.000782546081048
0.00585028631413
0.00077099259401
0.0054500535558
0.000759748754208
0.00505556500038
0.000748877236264
0.00466658899706
0.000738431331699
0.00428287592863
0.000728469941011
0.00390413772106
0.000719042640611
0.00353006882166
0.000710201580994
0.00316033081736
0.000701988537084
0.00279456929912
0.000694442784143
0.00243240156543
0.000687588160164
0.00207342209654
0.000681433501167
0.00171716650999
0.000675954162921
0.00136301719476
0.000671081313654
0.0010098655483
0.000666675910441
0.000654687917537
0.000662462675432
0.000288923423578
0.000655522023572
0.000605957312503
0.00151534572268
-0.00435105480696
0.00319879713852
-0.00481991841672
0.00487560794019
-0.00480312180931
0.00652850558797
-0.00473665877994
0.00814932691495
-0.00464660786639
0.00973080502548
-0.00453558816163
0.0112661746155
-0.00440516830597
0.0127492572998
-0.00425704665144
0.0141745185401
-0.00409307321787
0.0155371209867
-0.00391519254693
0.0168329320506
-0.00372540562896
0.0180585401517
-0.0035257164997
0.0192112274413
-0.00331810440818
0.0202889611645
-0.00310447874398
0.0212903419639
-0.00288666383489
0.0222145799541
-0.0026663640376
0.0230614278573
-0.00244516195594
0.0238311505744
-0.00222449363577
0.0245244515456
-0.00200565913121
0.0251424433163
-0.00178980611768
0.025686573811
-0.0015779502553
0.0261586032548
-0.00137096423588
0.0265605346214
-0.00116960436557
0.0268945995166
-0.000974501526382
0.0271631942952
-0.000786190380579
0.027368874981
-0.000605099270855
0.0275142985486
-0.000431579520942
0.0276022254742
-0.000265892817774
0.0276354648577
-0.000108239696331
0.0276168830386
4.12556598941e-05
0.0275493519167
0.00018251784687
0.0274357619873
0.000315537598335
0.0272789743122
0.000440339429435
0.0270818377488
0.000557005611585
0.02684714166
0.000665646944821
0.0265776376291
0.000766420926662
0.0262759946088
0.0008595042301
0.0259448241725
0.000945112681587
0.0255866377516
0.00102347376639
0.0252038746332
0.00109484717479
0.0247988611821
0.00115949757047
0.024373841135
0.00121771556583
0.0239309368225
0.00126979081893
0.0234721813558
0.00131603319426
0.0229994818662
0.00135674621505
0.0225146532614
0.00139224823243
0.0220193835885
0.00142284633057
0.021515269045
0.00144885736162
0.0210037815
0.0014705824338
0.0204863044376
0.00148832777835
0.0199641026566
0.00150238002894
0.0194383587428
0.00151302690574
0.0189101448173
0.00152053349895
0.0183804590678
0.00152516281068
0.01785019936
0.0015271532623
0.0173201992735
0.00152673908766
0.0167912032619
0.00152412921223
0.0162639016245
0.0015195274702
0.0157389069154
0.00151311294358
0.0152167872922
0.00150505988106
0.0146980438555
0.00149551948173
0.0141831419142
0.00148463935581
0.0136724890538
0.00147254667937
0.0131664639722
0.00145936696752
0.0126653951451
0.0014452084628
0.0121695870522
0.00143017999888
0.0116792994673
0.00141437648067
0.0111947710307
0.00139789561075
0.0107161992702
0.00138082431873
0.0102437616202
0.00136325418323
0.00977759639148
0.00134526871263
0.00931782142247
0.00132695733453
0.00886451623508
0.00130840346541
0.00841773856704
0.00128969701723
0.00797750798634
0.00127092324713
0.00754382055885
0.00125217377181
0.00711663414744
0.00123353621879
0.00669588146387
0.00121510379434
0.00628145725215
0.0011969657869
0.00587322992725
0.00117921574781
0.00547103076748
0.00116194289911
0.00507466429928
0.00114523899725
0.00468389956827
0.00112919068208
0.00429847934796
0.00111388505156
0.00391811343043
0.00109940292108
0.00354248653621
0.00108582304209
0.0031712531277
0.00107321609496
0.0028040428552
0.00106164731991
0.0024404539267
0.00105117106378
0.00208004915241
0.00104183236785
0.00172233197507
0.00103366532952
0.00136670154132
0.001026706034
0.00101235460893
0.00102101727143
0.000658224585799
0.00101658687752
0.000304839252688
0.00100890176689
0.000910794025974
0.00153868323576
-0.00588966292625
0.00324516325327
-0.00652631900507
0.00494512718837
-0.00650300558759
0.00662049978844
-0.00641195143583
0.00826264975735
-0.00628867808786
0.0098639852323
-0.00613684406292
0.0114175187086
-0.00595862260549
0.0129169133928
-0.00575636235072
0.0143565341591
-0.00553261552949
0.0157314872203
-0.00529006740538
0.0170376313478
-0.00503147221683
0.0182715804555
-0.00475958840215
0.0194306807529
-0.00447712831138
0.0205129859903
-0.00418670800993
0.0215172110034
-0.00389081383902
0.022442690016
-0.00359176856333
0.0232893167441
-0.0032917153224
0.0240574954439
-0.00299259959545
0.0247480766969
-0.0026961689282
0.025362309449
-0.00240396814053
0.0259017797151
-0.00211735123897
0.0263683694297
-0.00183748549305
0.0267642023947
-0.0015653704699
0.027091612498
-0.00130184569134
0.0273530979224
-0.00104761160882
0.027551298247
-0.000803236405805
0.0276889555106
-0.000569175461485
0.0277688981335
-0.00034577520205
0.0277940068165
-0.000133290121507
0.0277672034411
6.81161467303e-05
0.0276914207155
0.000258355614374
0.027569593842
0.000437418312698
0.027404634241
0.000605350723336
0.0271994251155
0.000762265194675
0.0269567972828
0.000908323039894
0.0266795285771
0.00104373663625
0.0263703217959
0.00116875578606
0.0260318072586
0.00128367072916
0.0256665232424
0.00138879905493
0.0252769210416
0.00148448938524
0.0248653475683
0.00157110881822
0.0244340525416
0.00164904712081
0.0239851730788
0.0017187046001
0.0235207427571
0.00178049661022
0.0230426781272
0.00183484176358
0.0225527894826
0.00188216660623
0.0220527692713
0.00192289414862
0.0215442044274
0.00195744866117
0.0210285666467
0.00198624460818
0.0205072261039
0.00200969161187
0.019981443487
0.00202818395091
0.0194523848294
0.00204210581615
0.018921115088
0.00205182158928
0.0183886137163
0.00205768153743
0.0178557694563
0.0020600130682
0.0173233961752
0.00205912698082
0.0167922284531
0.00205530983576
0.0162629371637
0.00204883079297
0.0157361254125
0.00203993512617
0.0152123433488
0.00202885157423
0.0146920840481
0.00201578692053
0.0141757971293
0.00200093368066
0.0136638842731
0.0019844655673
0.0131567113439
0.0019665452651
0.0126546033712
0.00194732054593
0.0121578550366
0.00192693185023
0.011666725095
0.00190550880022
0.0111814452359
0.00188317732089
0.010702214054
0.00186005632868
0.0102292044286
0.00183626417527
0.00976255725515
0.00181191534503
0.00930238757139
0.00178712607786
0.00884877831745
0.00176201098256
0.00840178548448
0.00173668777435
0.00796143218722
0.00171127378186
0.00752771311033
0.0016858898055
0.00710058915115
0.00166065655481
0.00667999141163
0.0016356976877
0.00626581662416
0.00161113625342
0.0058579308815
0.0015870970033
0.00545616598922
0.00156370293113
0.00506032305792
0.00154107695492
0.0046701698433
0.00151933864221
0.00428544421895
0.00149860534752
0.00390585240994
0.00147898918979
0.00353107212575
0.00146059771989
0.00316075118234
0.00144353125187
0.00279450932721
0.00142788331634
0.00243193540018
0.00141373899309
0.00207258481763
0.00140117692525
0.00171597137642
0.00139027289446
0.00136155974547
0.00138111192763
0.0010087751237
0.00137379602802
0.000657203457543
0.00136815284607
0.00030860113948
0.0013574986024
0.0012193924698
0.00156864410866
-0.00745823214663
0.00330698919172
-0.00826458389657
0.00503822505337
-0.00823416161967
0.0067436463796
-0.00811729275568
0.00841417837611
-0.00795913042495
0.0100418586215
-0.00776444478955
0.011619412134
-0.00753609693931
0.0131402919665
-0.00727716325466
0.0145987271626
-0.00699097221645
0.0159897541775
-0.00668101625415
0.0173092246009
-0.00635086500751
0.0185537974733
-0.00600408408518
0.0197209119494
-0.00564416625661
0.0208087506385
-0.00527447072561
0.0218161885839
-0.00489817660603
0.022742739148
-0.00451824462758
0.0235884905663
-0.00413739317409
0.0243540451216
-0.00375808139269
0.0250404534023
-0.00338250552741
0.0256491559773
-0.00301259997124
0.0261819234035
-0.00265004913497
0.0266408068513
-0.00229630047718
0.0270280884317
-0.00195258493544
0.0273462431773
-0.00161993450756
0.0275979000241
-0.00129920399612
0.0277858136667
-0.000991086886601
0.0279128335353
-0.000696133749677
0.0279818822928
-0.000414763771709
0.0279959297484
-0.000147279063371
0.0279579755255
0.000106127405983
0.027871026418
0.000345360004186
0.0277380809967
0.000570417472537
0.0275621120492
0.000781371593524
0.0273460539684
0.000978373604123
0.0270927866374
0.00116163884173
0.0268051275511
0.00133144257189
0.0264858179061
0.00148811040193
0.0261375176053
0.00163201436332
0.0257627939052
0.00176356420162
0.0253641187949
0.00188320430763
0.0249438597929
0.00199140575649
0.0245042793467
0.00208866388054
0.0240475275626
0.0021754908429
0.0235756434344
0.00225241360268
0.0230905494111
0.00231996683327
0.0225940543775
0.0023786911266
0.0220878500499
0.00242912619002
0.0215735156547
0.00247180925897
0.0210525161143
0.00250726863633
0.0205262083266
0.00253602242913
0.0199958410339
0.00255857262258
0.0194625624891
0.0025754043459
0.0189274217534
0.00258698073459
0.0183913774002
0.00259374297361
0.0178552998556
0.00259610619972
0.0173199806618
0.00259446051202
0.0167861353586
0.00258916806839
0.0162544127614
0.00258056514869
0.0157253978618
0.00256896046725
0.0151996205811
0.00255463821152
0.0146775582029
0.00253785743542
0.0141596431562
0.00251885586505
0.0136462646235
0.00249785011538
0.0131377750506
0.00247503994519
0.0126344907217
0.00245060896027
0.012136696873
0.00242472896466
0.0116446472118
0.00239756080389
0.0111585676759
0.00236925846957
0.0106786550178
0.00233996977469
0.0102050793951
0.00230983994191
0.00973798226485
0.00227901188903
0.00927747807661
0.00224762912073
0.00882365177587
0.0022158355009
0.00837655991287
0.0021837773763
0.00793622807348
0.00215160281289
0.00750265170576
0.00211946296592
0.00707579375974
0.00208751083477
0.00665558549334
0.00205590196559
0.00624192455258
0.00202479283338
0.00583467594876
0.00199434099944
0.00543367072933
0.0019647032547
0.00503870723978
0.00193603537153
0.0046495504458
0.00190849015011
0.00426593348165
0.00188221690412
0.00388755754463
0.00185735955756
0.0035140935569
0.00183405603968
0.00314518232087
0.00181243667728
0.00278043581668
0.00179262390636
0.00241943707176
0.00177473173513
0.0020617408057
0.00175886718733
0.00170687440385
0.00174513326764
0.00135434573223
0.0017336348382
0.00100367255169
0.00172446365931
0.000654554386845
0.00171726511051
0.000308670461018
0.00170337683105
0.00152806038011
0.00160652907789
-0.00906468622081
0.0033860640434
-0.0100440397879
0.00515753855091
-0.0100055560511
0.00690147379318
-0.00986114827247
0.00860827270337
-0.00966584963906
0.0102695283516
-0.00942562102794
0.0118776116243
-0.0091441010257
0.0134257155899
-0.00882518834954
0.0149079031255
-0.00847308120652
0.0163191316197
-0.00809216660505
0.0176552538528
-0.0076869095258
0.0189129992905
-0.0072617523224
0.020089937476
-0.00682102778918
0.0211844287033
-0.00636888593752
0.0221955633496
-0.00590923591329
0.0231230950827
-0.0054457017927
0.0239673687483
-0.00498159308748
0.0247292481156
-0.00451988791507
0.025410043666
-0.00406322918986
0.0260114453676
-0.00361393083037
0.0265354595959
-0.00317399362036
0.0269843543383
-0.00274512665439
0.0273606102487
-0.00232877351461
0.0276668804812
-0.00192613871266
0.0279059552593
-0.00153821410808
0.0280807333085
-0.00116580168568
0.0281941953627
-0.000809534026458
0.0282493821323
-0.00046989027985
0.0282493722234
-0.000147210463934
0.0281972632791
0.000158293441151
0.0280961527039
0.000446526020502
0.0279491201319
0.00071750381471
0.0277592127004
0.000971331078468
0.0275294302731
0.00120820636729
0.0272627121106
0.00142840558392
0.0269619267516
0.00163227476369
0.0266298612635
0.00182022094241
0.0262692139593
0.00199270496168
0.0258825861702
0.0021502334989
0.0254724772423
0.00229335298746
0.0250412783599
0.00242264261172
0.0245912694496
0.00253870902488
0.0241246148123
0.00264217995807
0.0236433617878
0.00273369939432
0.0231494381491
0.00281392151545
0.0226446525247
0.00288350612457
0.0221306935897
0.0029431128206
0.0216091322743
0.00299339664888
0.021081422776
0.0030350025845
0.0205489065224
0.00306856157076
0.0200128149186
0.00309468555361
0.0194742748903
0.00311396420538
0.0189343131135
0.00312696085163
0.0183938627825
0.00313421022273
0.0178537688877
0.00313621560024
0.0173147956876
0.00313344787473
0.0167776324651
0.00312634412434
0.0162429010956
0.00311530809389
0.0157111616692
0.00310071023014
0.0151829195495
0.00308288949848
0.0146586303092
0.00306215469683
0.0141387057805
0.00303878733811
0.0136235178919
0.00301304389923
0.0131134033839
0.00298515936536
0.0126086663267
0.00295534997786
0.0121095813814
0.00292381698205
0.0116163949814
0.00289074942254
0.0111293272119
0.00285632766225
0.0106485718181
0.00282072583443
0.0101742969322
0.00278411478971
0.00970664419592
0.002746663924
0.00924572866228
0.00270854333725
0.00879163738337
0.00266992489024
0.00834442884713
0.00263098349287
0.00790413138764
0.00259189736846
0.00747074249684
0.00255284850589
0.0070442273709
0.00251402221094
0.00662451838214
0.00247560683911
0.00621151400522
0.00243779277932
0.00580507865356
0.00240077163399
0.00540504214311
0.00236473481188
0.00501120000696
0.00232987234282
0.00462331355813
0.00229637126788
0.00424111069611
0.00226441428308
0.00386428652255
0.002234178128
0.0034925045477
0.00220583228655
0.00312539773209
0.00217953765496
0.00276257000325
0.00215544568877
0.00240359781551
0.00213369788754
0.0020480327321
0.00211442618932
0.00169540598134
0.00209775414063
0.00134523793403
0.00208379712709
0.000997062247309
0.00207263343118
0.000650556947938
0.00206376471124
0.000307241264906
0.00204668703013
0.00183529894338
0.00165316590484
-0.0107177774999
0.00348367119892
-0.0118744650125
0.00530488205498
-0.0118266873472
0.00709632024149
-0.0116525066453
0.00884773405206
-0.0114171839687
0.0105501737129
-0.0111279813254
0.012195581082
-0.010789429313
0.0137768399019
-0.0104063683251
0.0152878216499
-0.00998398445577
0.0167234029435
-0.0095276697331
0.0180794557296
-0.00904288459724
0.0193528155063
-0.00853503482583
0.0205412308422
-0.00800936642581
0.0216432994276
-0.00747087838955
0.0226583932195
-0.00692425428137
0.0235865774396
-0.00637381129148
0.0244285254202
-0.00582346719755
0.0251854338774
-0.00527672334874
0.0258589402769
-0.00473666356172
0.0264510465305
-0.00420596604919
0.0269640498421
-0.00368692703426
0.0274004836967
-0.00318149174729
0.0277630680066
-0.00269129033591
0.0280546693932
-0.00221767388065
0.0282782686356
-0.00176174852858
0.028436934839
-0.00132440446026
0.0285338027084
-0.000906339974865
0.0285720527446
-0.000508079894627
0.0285548916892
-0.000129990589036
0.028485534178
0.000227708180739
0.0283671845931
0.000564931152557
0.0282030212735
0.000881721014044
0.0279961784324
0.00117822605524
0.0277497347682
0.00145470044836
0.0274666996141
0.00171148937267
0.027150002778
0.00194901848531
0.0268024850641
0.00216778374024
0.0264268908774
0.0023683424686
0.0260258612088
0.00255130468149
0.0256019283767
0.00271732557229
0.0251575109035
0.00286709804275
0.0246949099825
0.00300134615752
0.0242163060146
0.00312081836614
0.0237237567123
0.00322628141945
0.0232191953179
0.00331851389764
0.0227044304341
0.00339830031755
0.022181146052
0.00346642482253
0.0216509032348
0.00352366545736
0.0211151420565
0.00357078812101
0.0205751851868
0.0036085412277
0.0200322417134
0.00363765024476
0.0194874124929
0.00365881313977
0.0189416956052
0.00367269595586
0.0183959931007
0.00367992951304
0.0178511176045
0.00368110646309
0.0173077998726
0.00367677962313
0.0167666958865
0.00366746079285
0.0162283945136
0.00365362088479
0.0156934243767
0.0036356905402
0.015162260922
0.00361406195338
0.0146353324154
0.00358909105286
0.0141130258488
0.00356110067576
0.0135956915922
0.00353038387212
0.0130836477787
0.00349720791446
0.0125771833715
0.00346181816406
0.012076560911
0.00342444233858
0.0115820180018
0.00338529436831
0.0110937685352
0.00334457838049
0.0106120028031
0.00330249205468
0.0101368874882
0.00325922990303
0.00966856475804
0.00321498578195
0.00920715141658
0.00316995520982
0.00875273739265
0.00312433686475
0.00830538447514
0.00307833385355
0.00786512460787
0.00303215418531
0.00743195859335
0.00298601104919
0.00700585454633
0.00294012237783
0.00658674687673
0.00289471029112
0.00617453516935
0.00284999994241
0.00576908366153
0.00280621834067
0.00537022071582
0.00276359270871
0.0049777389088
0.00272234891863
0.00459139516589
0.00268270960142
0.0042109114834
0.00264489243272
0.00383597570957
0.00260910823592
0.00346624286487
0.0025755593682
0.00310133655056
0.00254443808781
0.00274085092343
0.00251592533492
0.00238435305925
0.00249018970765
0.00203138631733
0.00246738690153
0.00168147519993
0.00244765919282
0.00133413354771
0.00243113299894
0.000988880508085
0.00241788094623
0.000645348346843
0.00240729096714
0.000304939179931
0.00238709050766
0.00214023560255
0.00170936970581
-0.0124270724863
0.00360135486723
-0.0137663716233
0.00548249674614
-0.0137077494424
0.00733105764111
-0.0135009881627
0.00913597352928
-0.0132220204243
0.0108876342424
-0.0128795628813
0.0125774711316
-0.0124791872045
0.0141980099311
-0.0120268284106
0.0157429125764
-0.0115288086426
0.0172069833085
-0.0109916623726
0.0185861442114
-0.0104219677636
0.0198773858844
-0.00982619924248
0.0210786992374
-0.00921060299891
0.0221889929493
-0.00858109593352
0.0232080011197
-0.00794318689635
0.0241361845308
-0.00730191990267
0.0249746294304
-0.00666183805764
0.0257249471171
-0.00602696790021
0.0263891782719
-0.00540082249351
0.0269697052172
-0.00478642182552
0.0274691753132
-0.00418632702492
0.0278904371618
-0.00360268468843
0.0282364903779
-0.00303727585238
0.028510447676
-0.00249156481197
0.028715507065
-0.00196674289288
0.0288549307918
-0.00146376461652
0.0289320279619
-0.000983375035006
0.0289501382019
-0.000526129585077
0.0289126150294
-9.240842976e-05
0.0288228085068
0.000317572040267
0.0286840453875
0.000703749960964
0.028499618145
0.00106620221916
0.0282727637524
0.00140513269467
0.0280066516225
0.00172086305085
0.0277043716319
0.00201381808009
0.0273689240562
0.00228451297503
0.0270032111676
0.00253354176477
0.0266100302074
0.00276156675121
0.0261920673992
0.00296930902892
0.0257518928744
0.00315753982718
0.0252919563147
0.00332707255845
0.0248145833582
0.0034787552798
0.0243219726715
0.00361346346781
0.0238161938373
0.00373209290903
0.0232991859953
0.00383555267851
0.0227727574248
0.00392475810956
0.0222385860033
0.00400062379451
0.0216982207328
0.00406405661225
0.0211530842351
0.00411594888638
0.0206044763707
0.00415717175453
0.0200535788183
0.00418856890612
0.0195014607029
0.00421095082692
0.018949085025
0.00422508972266
0.018397315901
0.00423171526462
0.0178469262948
0.0042315112923
0.0172986061927
0.00422511356879
0.0167529708639
0.0042131086449
0.0162105691334
0.00419603384707
0.0156718913227
0.00417437835288
0.0151373767958
0.00414858528329
0.0146074208203
0.00411905469623
0.014082380722
0.00408614733954
0.013562581123
0.00405018900026
0.0130483182975
0.00401147526495
0.0125398635316
0.00397027651904
0.0120374655686
0.00392684298576
0.0115413521242
0.00388140966197
0.0110517305844
0.00383420096297
0.0105687879527
0.00378543499336
0.0100926901701
0.00373532728239
0.00962358092988
0.00368409398003
0.0091615800988
0.00363195438159
0.00870678190068
0.00357913285797
0.00825925293598
0.00352586008606
0.00781903020991
0.00347237372338
0.00738611919416
0.00341891843638
0.00696049209545
0.00336574547833
0.0065420863051
0.00331311172664
0.00613080319574
0.00326127841014
0.00572650719096
0.00321050942805
0.00532902526345
0.00316106951025
0.00493814674629
0.00311322210927
0.00455362360003
0.00306722728038
0.00417517099402
0.00302333943033
0.00380246833491
0.00298180518934
0.00343516060245
0.00294286128134
0.00307286014304
0.00290673263889
0.00271514884638
0.00287363062948
0.00236158090912
0.00284375157063
0.00201168631638
0.00281727538307
0.00166497545265
0.00279436418195
0.00132094470317
0.00277515798372
0.000979088019161
0.00275973168942
0.000638995693876
0.00274737763398
0.000301988880556
0.00272409190072
0.00244222181008
0.00177609061702
-0.014203089008
0.00374103048545
-0.0157312317981
0.00569318731192
-0.0156598272779
0.007609275886
-0.0154169973729
0.00947723544854
-0.0150899009596
0.0112866635983
-0.0146889120532
0.0130283941531
-0.0142208390199
0.0146945503547
-0.013692906043
0.0162785765789
-0.0131127565865
0.0177752278111
-0.0124882355852
0.0191805238773
-0.011827186202
0.0204916776104
-0.0111372757179
0.0217070034168
-0.0104258520677
0.0228258125686
-0.00969982884968
0.0238482988825
-0.00896559763917
0.0247754193194
-0.00822896541864
0.025608772388
-0.00749511702324
0.0263504791475
-0.00676860136485
0.0270030703933
-0.00605334141851
0.0275693853355
-0.00535266541453
0.028052484998
-0.00466935646111
0.0284555838189
-0.00400571440558
0.0287819993699
-0.00336362357169
0.0290351191831
-0.00274461806123
0.0292183800823
-0.00214993863298
0.0293352555866
-0.00158057636175
0.0293892457097
-0.00103730292181
0.0293838660916
-0.000520689245437
0.029322634076
-3.11173153137e-05
0.0292090523191
0.000431211283653
0.0290465882098
0.000866269848406
0.0288386631675
0.00127418134443
0.028588630212
0.00165521795997
0.0282997618057
0.00200978201982
0.0279752383708
0.00233839026654
0.0276181392209
0.00264165909857
0.0272314350785
0.00292029105075
0.0268179821456
0.00317506303654
0.0263805168847
0.00340681580993
0.0259216516916
0.00361644475223
0.0254438709177
0.00380489124486
0.0249495276383
0.0039731347006
0.0244408408114
0.00412218464246
0.0239198933014
0.00425307302543
0.0233886304819
0.00436684634833
0.0228488598962
0.00446455784452
0.022302251714
0.00454725941756
0.0217503404329
0.00461599368364
0.0211945275544
0.00467178590369
0.0206360856119
0.00471563624417
0.0200761632229
0.00474851225604
0.019515791428
0.00477134205836
0.0189558909039
0.0047850081701
0.0183972801862
0.00479034245591
0.0178406844125
0.00478812210622
0.0172867446272
0.00477906702625
0.0167360271242
0.00476383847317
0.0161890328286
0.0047430391879
0.0156462062146
0.00471721475703
0.0151079437761
0.00468685632575
0.014574601612
0.00465240430598
0.0140465022019
0.00461425310712
0.0135239400272
0.00457275647399
0.0130071861921
0.00452823341239
0.0124964917999
0.00448097426686
0.0119920903236
0.00443124693391
0.0114941988108
0.0043793027913
0.011003018237
0.00432538237232
0.0105187329013
0.0042697204093
0.0100415092332
0.00421255035054
0.00957149392377
0.00415410803118
0.00910881177642
0.00409463468794
0.00865356317631
0.00403437905243
0.00820582157666
0.00397359879085
0.00776563086616
0.00391256106418
0.00733300299906
0.00385154253415
0.00690791570911
0.00379082861047
0.00649031066464
0.00373071229905
0.00608009184375
0.00367149245339
0.00567712445816
0.00361347180281
0.00528123417079
0.00355695455968
0.00489220690589
0.00350224397701
0.00450978897415
0.00344963965622
0.00413368778595
0.00339943496087
0.00376357286798
0.00335191433441
0.00339907744962
0.0033073508507
0.00303980035093
0.00326600378816
0.0026853084458
0.00322811650507
0.00233513953978
0.00319391440466
0.00198880581064
0.00316360307566
0.00164579770508
0.00313736620699
0.00130558886322
0.00311536104534
0.000967644934164
0.00309767013144
0.000631518189971
0.00308349851122
0.000298466358628
0.00305713810982
0.00274068570004
0.00185448841604
-0.0160575033555
0.00390506616509
-0.0177817319477
0.00594043273106
-0.0176951147425
0.0079354156293
-0.0174119016299
0.00987674742042
-0.0170311539545
0.0117530856887