/*--------------------------------*- C++ -*----------------------------------*\
| =========                 |                                                 |
| \\      /  F ield         | OpenFOAM: The Open Source CFD Toolbox           |
|  \\    /   O peration     | Version:  v1906                                 |
|   \\  /    A nd           | Web:      www.OpenFOAM.com                      |
|    \\/     M anipulation  |                                                 |
\*---------------------------------------------------------------------------*/
FoamFile
{
    version     2.0;
    format      ascii;
    class       volScalarField;
    location    "188";
    object      alpha;
}
// * * * * * * * * * * * * * * * * * * * * * * * * * * * * * * * * * * * * * //

dimensions      [0 0 -1 0 0 0 0];


internalField   nonuniform List<scalar> 
9216
(
160.523979531
199.999998514
199.999998628
199.999998628
199.999998628
199.999998722
199.999998722
199.999998722
199.999998722
199.999998722
199.99999863
199.999998441
199.999998466
199.999998245
199.999998245
199.999998245
199.999998441
199.9999986
199.9999986
199.9999986
199.9999986
199.999998249
199.999998172
199.999998172
199.999998172
199.999998172
199.999997901
199.999997778
199.999997674
199.999997472
199.999997417
199.999996816
199.999997004
199.999997602
199.999997657
199.999997972
199.99999799
199.99999799
199.99999799
199.99999799
199.99999799
199.999997804
199.999997479
199.999997449
199.99999769
199.99999769
199.99999769
199.99999769
199.99999769
199.999997675
199.999997749
199.999997828
199.999997914
199.99999799
199.99999799
199.999997939
199.999997768
199.999997549
199.999997189
199.999996662
199.9999962
199.999995786
199.999995467
199.999995078
199.999994351
199.999993282
199.999992294
199.999991964
199.999990839
199.999989421
199.999988117
199.999986536
199.999985152
199.99998381
199.999981387
199.999977218
199.999972508
199.999967407
199.999959131
199.99994385
199.999903091
199.999493215
199.97556363
187.971661524
169.997139838
155.790065936
140.947563032
120.131334454
95.577787243
74.7075678121
56.09206294
41.6350407482
30.2154441238
19.7528150457
11.7842682178
1.33855209295
199.999998421
199.999998713
199.999998722
199.999998722
199.999998722
199.999998722
199.999998722
199.999998628
199.999998628
199.999998628
199.999998628
199.999998628
199.999998452
199.999998255
199.999998255
199.999998255
199.999998327
199.999998336
199.999998336
199.999998249
199.999998524
199.999998408
199.999998231
199.999998039
199.999997961
199.999997961
199.999997961
199.999997961
199.999997958
199.999997662
199.999997419
199.999997419
199.999997419
199.999997419
199.999997419
199.999997419
199.999997419
199.999997201
199.999997201
199.999997004
199.999997004
199.999997004
199.999997004
199.999996671
199.999996671
199.999996671
199.999996671
199.999996671
199.999996671
199.999996671
199.999996671
199.999996671
199.999996671
199.999996387
199.999996164
199.999996133
199.999995909
199.999995529
199.999994362
199.999993329
199.999992496
199.999991806
199.999991158
199.999990851
199.999990064
199.999988448
199.999986689
199.999986086
199.999986209
199.999986652
199.99998607
199.999984128
199.999981828
199.999979315
199.999976189
199.999971694
199.999967526
199.999967169
199.99996844
199.999959795
199.999943709
199.999869492
199.999268269
199.835163121
185.397424223
169.243340649
154.886712994
132.885415294
112.333874986
87.5935817567
66.225484691
52.9925519656
42.3505195292
27.2039712338
17.9811065135
14.2430727287
199.999998628
199.999998734
199.999998695
199.999998757
199.999998628
199.999998628
199.999998628
199.999998628
199.999998628
199.999998628
199.999998524
199.999998524
199.999998524
199.999998524
199.999998035
199.999998231
199.999998231
199.999998231
199.999998231
199.999998231
199.999998231
199.999998231
199.999998231
199.999997961
199.999997961
199.999997702
199.999997465
199.999997223
199.999997223
199.999997223
199.999997004
199.999997004
199.999996671
199.999996671
199.999996671
199.999996671
199.999996671
199.999996671
199.999996671
199.999996671
199.999996671
199.999996671
199.999996302
199.999996302
199.999995794
199.999995794
199.999995338
199.999995338
199.999994927
199.999994363
199.999994363
199.999994363
199.999994363
199.999994363
199.999994363
199.999994363
199.999994363
199.999994135
199.999993515
199.999992345
199.999991276
199.999990422
199.999989629
199.999988662
199.999987115
199.999984928
199.999982573
199.999980625
199.999978441
199.999975365
199.999972034
199.999971431
199.999967044
199.999968722
199.999963641
199.999956282
199.999950643
199.999944996
199.999936607
199.999929235
199.999916039
199.999767331
199.997945662
198.583072297
183.210786972
166.271404106
144.978992728
133.884908312
118.81673971
90.4507600614
63.432280187
57.3619796848
41.5373955471
31.8903983326
28.1215708471
18.8347725428
199.999998722
199.999998757
199.999998757
199.999998757
199.999998628
199.999998628
199.999998628
199.999998628
199.999998524
199.999998524
199.999998524
199.999998524
199.999998524
199.999998231
199.999998231
199.999998231
199.999998231
199.999998231
199.999998231
199.999998231
199.999998231
199.999998035
199.999998035
199.999997765
199.999997465
199.999997223
199.999997004
199.999997004
199.999996671
199.999996671
199.999996671
199.999996671
199.999996671
199.999996671
199.999996671
199.999996671
199.999996302
199.999996302
199.999996302
199.999996302
199.999995383
199.999994927
199.999994363
199.999994363
199.999994363
199.999994363
199.999994363
199.999994363
199.999994363
199.999994363
199.999993737
199.999993737
199.999993737
199.999993737
199.999993737
199.999993737
199.999993737
199.999993737
199.99999368
199.99999281
199.999991646
199.999990583
199.999989436
199.999988392
199.999986888
199.999984693
199.999982132
199.999979902
199.99997781
199.999974916
199.999971756
199.999967791
199.9999631
199.999961729
199.999954337
199.999946701
199.999940375
199.99993404
199.999925671
199.999910781
199.999777057
199.997579496
199.88619067
190.808886569
177.579550923
159.459676458
143.402657959
132.783828254
111.462124007
96.1914823026
77.7583224884
54.5059397369
50.1887909167
41.3725678543
35.0694822633
23.2276303178
199.999998722
199.999998757
199.999998757
199.999998692
199.999998628
199.999998628
199.999998628
199.999998524
199.999998524
199.999998524
199.999998524
199.999998524
199.999998231
199.999998231
199.999998231
199.999998231
199.999998231
199.999998231
199.999998231
199.999998035
199.999998035
199.999998035
199.999997765
199.999997465
199.999997004
199.999997004
199.999996671
199.999996671
199.999996671
199.999996671
199.999996671
199.999996671
199.999996302
199.999996302
199.999996302
199.999996302
199.999996302
199.999995891
199.999994927
199.999994363
199.999994363
199.999994363
199.999994363
199.999994363
199.999993737
199.999993737
199.999993737
199.999993737
199.999993737
199.999993737
199.999993737
199.999993737
199.999993041
199.999993041
199.999993041
199.999993041
199.999993041
199.999993041
199.999993041
199.999991858
199.999990762
199.999989167
199.99998742
199.999986106
199.999984557
199.999981896
199.99998004
199.999978703
199.999976137
199.999973042
199.99997018
199.999968069
199.999963347
199.999957075
199.999948261
199.999940992
199.99993984
199.999934115
199.999925863
199.999910681
199.999763918
199.997477038
199.835981955
185.971981878
169.020748481
150.508895727
134.629473748
125.569248693
119.997751625
98.4071020365
85.1826118179
64.5645456099
50.2439249244
49.8402519216
46.0530747376
34.0275035208
199.999998722
199.999998757
199.999998757
199.999998628
199.999998628
199.999998628
199.999998524
199.999998524
199.999998524
199.999998524
199.999998524
199.999998408
199.999998231
199.999998231
199.999998231
199.999998231
199.999998231
199.999998035
199.999998035
199.999998035
199.999998035
199.999997765
199.999997465
199.999997004
199.999996671
199.999996671
199.999996671
199.999996671
199.999996671
199.999996671
199.999996302
199.999996302
199.999996302
199.999996302
199.999996302
199.999995891
199.999994927
199.999994927
199.999994363
199.999994363
199.999994363
199.999994363
199.999993737
199.999993737
199.999993737
199.999993737
199.999993737
199.999993041
199.999993041
199.999993041
199.999993041
199.999993041
199.999992268
199.999992268
199.999992268
199.999991408
199.999991408
199.999990454
199.999990454
199.99998933
199.999984982
199.999981767
199.999979431
199.999977848
199.999976669
199.999975606
199.999972622
199.999972188
199.99997044
199.999967925
199.9999652
199.999960899
199.999955286
199.999947434
199.999941546
199.999940874
199.99993559
199.99992471
199.999918068
199.999909404
199.999771098
199.994663617
195.386827722
183.115558899
166.940836963
149.811585785
141.572373541
125.802417464
108.314903053
91.4657916694
91.4639736126
79.5512264059
60.2220450453
56.8406868798
56.1017085105
43.4917535453
199.999998722
199.999998757
199.999998757
199.999998628
199.999998628
199.999998524
199.999998524
199.999998524
199.999998524
199.999998524
199.999998524
199.999998231
199.999998231
199.999998231
199.999998035
199.999998035
199.999998035
199.999998035
199.999998035
199.999998035
199.999998035
199.999997465
199.999997004
199.999996671
199.999996671
199.999996671
199.999996671
199.999996671
199.999996302
199.999996302
199.999996302
199.999996302
199.999996302
199.999995891
199.999995891
199.999994927
199.999994363
199.999994363
199.999994363
199.999994363
199.999993737
199.999993737
199.999993737
199.999993737
199.999993041
199.999993041
199.999993041
199.999993041
199.999993041
199.999992268
199.999992268
199.999992268
199.999991408
199.999991408
199.999990454
199.999990454
199.999989393
199.999989393
199.999985258
199.999978124
199.999976669
199.999972622
199.999972622
199.999972622
199.99996958
199.99996958
199.99996958
199.99996958
199.9999662
199.999966191
199.999964757
199.999960618
199.999955302
199.999948822
199.999942038
199.999940527
199.999931626
199.999922784
199.999919102
199.99988938
199.999310915
199.9852336
190.397509551
176.763399164
163.386313288
149.043026382
137.16680829
125.849458456
107.973940795
101.035914159
87.7276908504
87.80408363
77.920569259
65.825369386
65.7691366426
52.631411008
199.999998722
199.999998757
199.999998757
199.999998628
199.999998628
199.999998653
199.999998653
199.999998524
199.999998524
199.999998524
199.999998347
199.999998231
199.999998231
199.999998035
199.999998035
199.999998035
199.999998035
199.999998035
199.999998035
199.999998035
199.999997765
199.999997223
199.999996671
199.999996671
199.999996671
199.999996671
199.999996671
199.999996302
199.999996302
199.999996302
199.999996302
199.999996302
199.999995891
199.999995891
199.999994927
199.999994363
199.999994363
199.999994363
199.999993737
199.999993737
199.999993737
199.999993737
199.999993737
199.999993041
199.999993041
199.999993041
199.999993041
199.999992268
199.999992268
199.999992268
199.999991408
199.999991408
199.999990454
199.999990454
199.999989393
199.999989393
199.999988215
199.999978645
199.99997536
199.999972622
199.999972622
199.99996958
199.99996958
199.9999662
199.9999662
199.999962444
199.999962444
199.999958271
199.999958271
199.999958271
199.999953635
199.999953573
199.99995003
199.999944431
199.999937717
199.999931796
199.999927377
199.999920059
199.999917221
199.999870842
199.999377596
199.935415814
189.246416171
176.754361233
160.704400874
148.777932218
132.77808555
120.942208663
110.778156492
105.828674253
97.8672734366
88.1516059541
89.1663236749
74.1306538557
74.9516521244
61.896319975
199.999998777
199.999998757
199.999998757
199.999998757
199.999998653
199.999998653
199.999998653
199.999998524
199.999998524
199.999998524
199.999998347
199.999998231
199.999998035
199.999998035
199.999998035
199.999998035
199.999998035
199.999998035
199.999998035
199.999998035
199.999997465
199.999997004
199.999996671
199.999996671
199.999996671
199.999996671
199.999996302
199.999996302
199.999996302
199.999996302
199.999996302
199.999995891
199.999995891
199.999994927
199.999994363
199.999994363
199.999994363
199.999993737
199.999993737
199.999993737
199.999993737
199.999993041
199.999993041
199.999993041
199.999993041
199.999992268
199.999992268
199.999992268
199.999991408
199.999991408
199.999990454
199.999990454
199.999989393
199.999989393
199.999988215
199.999984422
199.99997536
199.999972622
199.999972622
199.99996958
199.99996958
199.9999662
199.9999662
199.999962444
199.999958271
199.999958271
199.999953635
199.999953635
199.999948483
199.999948483
199.999948483
199.999942759
199.999942759
199.99993993
199.999933747
199.999927759
199.999920233
199.999920457
199.999910723
199.99981426
199.998893477
199.401717594
186.976188858
173.844925388
161.949332268
150.352143057
137.170971738
122.250762778
112.235734168
100.387076284
104.155178008
98.3935735427
91.8054985862
86.7091584158
82.4117934532
70.1435367149
199.999998851
199.999998757
199.999998757
199.999998757
199.999998653
199.999998653
199.999998653
199.999998524
199.999998524
199.999998524
199.999998347
199.999998231
199.999998035
199.999998035
199.999998035
199.999998035
199.999998035
199.999998035
199.999998035
199.999997765
199.999997004
199.999996671
199.999996671
199.999996671
199.999996671
199.999996302
199.999996302
199.999996302
199.999996302
199.999996302
199.999995891
199.999995434
199.999994927
199.999994363
199.999994363
199.999994363
199.999993737
199.999993737
199.999993737
199.999993737
199.999993041
199.999993041
199.999993041
199.999993041
199.999992268
199.999992268
199.999991408
199.999991408
199.999990454
199.999990454
199.999990454
199.999989393
199.999989393
199.999988215
199.999980895
199.99997536
199.999972622
199.99996958
199.99996958
199.9999662
199.9999662
199.999962444
199.999958271
199.999953635
199.999953635
199.999948483
199.999948483
199.999942759
199.999942759
199.999936399
199.999936399
199.999936399
199.999936399
199.999929332
199.999926909
199.999923629
199.999919212
199.999919262
199.999906518
199.999747633
199.996221428
198.289017292
184.101947967
171.815902493
161.946890477
150.387410524
136.640084636
124.951311143
115.480973333
108.49181663
102.242329961
104.336099838
99.6338192407
97.294539525
89.6736260854
79.1971737665
199.999998851
199.999998757
199.999998757
199.999998757
199.999998653
199.999998653
199.999998653
199.999998524
199.999998524
199.999998347
199.999998231
199.999998035
199.999998035
199.999998035
199.999998035
199.999998035
199.999998035
199.999998035
199.999998035
199.999997247
199.999997004
199.999996671
199.999996671
199.999996671
199.999996302
199.999996302
199.999996302
199.999996302
199.999995891
199.999995891
199.999995891
199.999994927
199.999994927
199.999994363
199.999994363
199.999993737
199.999993737
199.999993737
199.999993041
199.999993041
199.999993041
199.999993041
199.999992268
199.999992268
199.999992268
199.999991408
199.999991408
199.999990454
199.999990454
199.999989393
199.999989393
199.999988215
199.999988215
199.999980895
199.999972622
199.999972622
199.99996958
199.99996958
199.9999662
199.999962444
199.999958271
199.999953635
199.999953635
199.999948483
199.999942759
199.999942759
199.999936399
199.999936399
199.999929332
199.999929332
199.999929332
199.99992148
199.99992148
199.99992148
199.99992148
199.99992148
199.999919966
199.999912525
199.999893947
199.999606727
199.993727395
197.411666615
183.759974096
172.711330496
161.905942685
147.040397023
135.750781869
127.151231013
122.498683325
115.967159318
111.049563041
103.524001055
106.17805129
109.06724094
97.4000675382
86.1001636403
199.999998851
199.999998757
199.999998757
199.999998757
199.999998653
199.999998653
199.999998653
199.999998524
199.999998524
199.999998347
199.999998231
199.999998035
199.999998035
199.999998035
199.999998035
199.999998035
199.999998035
199.999998035
199.999997816
199.999997004
199.999996671
199.999996671
199.999996671
199.999996302
199.999996302
199.999996302
199.999996302
199.999995891
199.999995891
199.999995891
199.999994927
199.999994927
199.999994363
199.999994363
199.999993737
199.999993737
199.999993737
199.999993041
199.999993041
199.999993041
199.999993041
199.999992268
199.999992268
199.999992268
199.999991408
199.999991408
199.999990454
199.999990454
199.999989393
199.999989393
199.999988215
199.999988215
199.999980895
199.999972622
199.99996958
199.99996958
199.9999662
199.9999662
199.999962444
199.999958271
199.999953635
199.999948483
199.999942759
199.999942759
199.999936399
199.999936399
199.999929332
199.99992148
199.99992148
199.99992148
199.999912755
199.999912755
199.999912755
199.999903061
199.999903061
199.999903061
199.999903061
199.999902459
199.999868912
199.999456655
199.993224709
197.389425815
183.429533002
173.363284307
161.035966074
148.221611235
139.576379791
132.328788062
125.141960941
120.570831848
116.000513944
112.535123003
107.500860731
114.035249831
104.615554811
91.4957989558
199.999999011
199.999998917
199.999998757
199.999998757
199.999998653
199.999998653
199.999998653
199.999998524
199.999998524
199.999998347
199.999998231
199.999998035
199.999998035
199.999998035
199.999998035
199.999998035
199.999998035
199.999997816
199.999997247
199.999997004
199.999996671
199.999996671
199.999996671
199.999996302
199.999996302
199.999996302
199.999995891
199.999995891
199.999995891
199.999995434
199.999994927
199.999994363
199.999994363
199.999993737
199.999993737
199.999993737
199.999993041
199.999993041
199.999993041
199.999992268
199.999992268
199.999992268
199.999991408
199.999991408
199.999991408
199.999990454
199.999990454
199.999989393
199.999989393
199.999988215
199.999988215
199.999984909
199.999972622
199.99996958
199.99996958
199.9999662
199.999962444
199.999958271
199.999958271
199.999952799
199.999948483
199.999942759
199.999936399
199.999929332
199.999929332
199.99992148
199.99992148
199.999912755
199.999912755
199.999903061
199.999903061
199.999892291
199.999892291
199.999892291
199.999892291
199.999892291
199.999892291
199.999874251
199.999841693
199.999643437
199.995360216
193.957590312
182.57450982
174.426050605
161.485269119
152.855243351
144.330711726
136.114543633
128.85328597
124.216800597
119.492072644
116.023098554
114.009489668
117.065495295
110.826448166
96.4936616222
199.999999011
199.999998917
199.999998917
199.999998757
199.999998653
199.999998653
199.999998653
199.999998524
199.999998524
199.999998347
199.999998231
199.999998035
199.999998035
199.999998035
199.999998035
199.999998035
199.999997816
199.999997816
199.999997004
199.999997004
199.999996671
199.999996671
199.999996302
199.999996302
199.999996302
199.999995891
199.999995891
199.999995891
199.999995434
199.999994927
199.999994363
199.999994363
199.999993737
199.999993737
199.999993737
199.999993041
199.999993041
199.999993041
199.999992268
199.999992268
199.999992268
199.999991408
199.999991408
199.999990454
199.999990454
199.999990454
199.999989393
199.999989393
199.999988215
199.999988215
199.999986905
199.999972622
199.99996958
199.99996958
199.9999662
199.999962444
199.999958271
199.999953635
199.999948483
199.999942759
199.999936399
199.999936399
199.999929332
199.99992148
199.99992148
199.999912755
199.999903061
199.999903061
199.999892291
199.999892291
199.999892291
199.999880323
199.999880323
199.999880323
199.999880323
199.999867025
199.999862669
199.999840317
199.99974468
199.999218484
199.984714382
195.764159168
185.377788484
175.777317439
167.246129465
155.322614536
147.71152744
139.072470538
132.337669675
129.718717309
123.637894975
120.608217241
117.812514048
115.929906475
118.909077613
100.883097361
199.999999011
199.999998917
199.999998917
199.999998917
199.999998653
199.999998653
199.999998653
199.999998524
199.999998524
199.999998231
199.999998231
199.999998035
199.999998035
199.999998035
199.999998035
199.999997816
199.999997816
199.999997547
199.999997004
199.999996671
199.999996671
199.999996671
199.999996302
199.999996302
199.999995891
199.999995891
199.999995891
199.999995434
199.999994927
199.999994927
199.999994363
199.999994363
199.999993737
199.999993737
199.999993041
199.999993041
199.999993041
199.999992268
199.999992268
199.999992268
199.999991408
199.999991408
199.999990454
199.999990454
199.999989393
199.999989393
199.999989393
199.999988215
199.999988215
199.999986905
199.999972622
199.99996958
199.99996958
199.9999662
199.999962444
199.999958271
199.999953635
199.999948483
199.999942759
199.999936399
199.999929332
199.99992148
199.999912755
199.999912755
199.999903061
199.999892291
199.999892291
199.999880323
199.999880323
199.999880323
199.999867025
199.999867025
199.999867025
199.999867025
199.999867025
199.99984713
199.999831158
199.999767084
199.999564108
199.99875622
199.976668059
193.613911994
188.914268714
180.37611425
168.330649903
159.915923111
147.960712154
141.971668867
138.15218653
134.321270371
128.138392762
124.570589268
120.930905867
119.045400525
124.215536968
104.780919598
199.999999011
199.99999906
199.999998917
199.999998917
199.999998812
199.999998653
199.999998653
199.999998653
199.999998347
199.999998231
199.999998231
199.999998035
199.999998035
199.999998035
199.999998035
199.999997816
199.999997816
199.999997304
199.999997004
199.999996671
199.999996671
199.999996302
199.999996302
199.999996302
199.999995891
199.999995891
199.999995434
199.999994927
199.999994927
199.999994363
199.999994363
199.999993737
199.999993737
199.999993041
199.999993041
199.999993041
199.999992268
199.999992268
199.999992268
199.999991408
199.999991408
199.999990454
199.999990454
199.999989393
199.999989393
199.999989393
199.999988215
199.999988215
199.999986905
199.99997536
199.99996958
199.99996958
199.9999662
199.999962444
199.999958271
199.999948483
199.999942759
199.999936399
199.999929332
199.99992148
199.999912755
199.999912755
199.999903061
199.999892291
199.999880323
199.999880323
199.999867025
199.999867025
199.999867025
199.99985225
199.99985225
199.99985225
199.99985225
199.999851981
199.999849821
199.999844271
199.999757993
199.99961782
199.999207305
199.997615284
199.910612689
193.50605911
190.902612975
181.881196809
171.050039747
160.549017802
151.549794718
149.115748886
144.054741641
136.830303838
130.727603591
127.45308273
124.970085112
121.585678428
125.063401725
107.818068448
199.999999011
199.99999906
199.99999906
199.999998917
199.999998812
199.999998653
199.999998653
199.999998653
199.999998347
199.999998231
199.999998035
199.999998035
199.999998035
199.999998035
199.999997816
199.999997816
199.999997573
199.999997004
199.999997004
199.999996671
199.999996671
199.999996302
199.999996302
199.999995891
199.999995891
199.999995434
199.999995434
199.999994927
199.999994363
199.999994363
199.999993737
199.999993737
199.999993041
199.999993041
199.999993041
199.999992268
199.999992268
199.999991408
199.999991408
199.999991408
199.999990454
199.999990454
199.999989393
199.999989393
199.999988215
199.999988215
199.999988215
199.999986905
199.99998545
199.99996958
199.99996958
199.9999662
199.999962444
199.999953635
199.999948483
199.999942759
199.999936399
199.99992148
199.999912755
199.999903061
199.999892291
195.382479717
191.324214366
195.194288274
199.748871571
199.99984353
199.99985225
199.999849076
199.999822456
199.999827949
199.999829151
199.999829246
199.999827539
199.999823927
199.999816223
199.999792276
199.999670423
199.999326921
199.998596582
199.993981012
199.581834158
197.110243604
189.98940784
181.143137447
171.004136388
160.003649517
155.530476628
152.387744826
141.452368697
136.426530282
133.714432033
129.369511116
127.324403412
123.909288806
125.355194232
109.835945092
199.999999154
199.99999906
199.99999906
199.99999906
199.999998955
199.999998812
199.999998653
199.999998653
199.999998347
199.999998231
199.999998035
199.999998035
199.999998035
199.999998035
199.999997816
199.999997816
199.999997304
199.999997004
199.999996671
199.999996671
199.999996302
199.999996302
199.999995891
199.999995891
199.999995434
199.999995434
199.999994927
199.999994363
199.999994363
199.999993737
199.999993737
199.999993041
199.999993041
199.999993041
199.999992268
199.999992268
199.999991408
199.999991408
199.999990454
199.999990454
199.999990454
199.999989393
199.999989393
199.999988215
199.999988215
199.999986905
199.999986905
199.99998545
199.999972622
199.99996958
199.9999662
199.999962444
199.999953635
199.999948483
199.999936399
124.687233963
25.9053374878
7.52670004995
2.88839466206
1.34853519472
0.822623845514
0.676629027436
0.756625339727
1.07776230595
1.93441260425
3.74792574955
8.05441301302
18.8909468179
49.5958993125
145.298450686
198.952919529
199.999783212
199.999776524
199.999760718
199.999733264
199.999687346
199.999587588
199.999318907
199.998673822
199.996297449
199.906754566
194.188792156
187.054829177
179.441943491
169.855139374
160.137825112
158.157740235
150.301232844
143.769178346
139.85528705
136.297609367
133.113744011
127.735716887
126.272520043
124.459200016
111.354107464
199.999999154
199.99999906
199.99999906
199.99999906
199.999998955
199.999998955
199.999998653
199.999998524
199.999998231
199.999998231
199.999998035
199.999998035
199.999998035
199.999997816
199.999997816
199.999997573
199.999997304
199.999997004
199.999996671
199.999996671
199.999996302
199.999996302
199.999995891
199.999995434
199.999995434
199.999994927
199.999994927
199.999994363
199.999993737
199.999993737
199.999993041
199.999993041
199.999993041
199.999992268
199.999992268
199.999991408
199.999991408
199.999990454
199.999990454
199.999989393
199.999989393
199.999989393
199.999988215
199.999988215
199.999986905
199.999986905
199.99998545
199.99997536
199.99996958
199.9999662
199.999958271
199.999953635
194.640994886
5.41536967687
0.129021442047
0
0
0
0
0
0
0
0
0
0.00274888108376
0.00904692850084
0.0458767270308
0.136779489591
0.463208666509
1.56773777653
5.49361163425
20.0209311802
78.7509493445
191.225983731
199.999592724
199.999504594
199.999285279
199.997943777
199.99749494
199.983914913
196.910221577
190.250406138
184.031315972
177.500017762
169.074938476
161.717207551
162.096599782
153.481952727
148.246106155
143.867126056
139.5384982
134.715641159
130.020228514
127.675987919
124.070472658
113.014162999
199.999999154
199.99999906
199.99999906
199.99999906
199.999998955
199.999998955
199.999998812
199.999998524
199.999998231
199.999998231
199.999998035
199.999998035
199.999998035
199.999997816
199.999997573
199.999997304
199.999997004
199.999997004
199.999996671
199.999996302
199.999996302
199.999995891
199.999995891
199.999995434
199.999994927
199.999994927
199.999994363
199.999993737
199.999993737
199.999993041
199.999993041
199.999993041
199.999992268
199.999992268
199.999991408
199.999991408
199.999990454
199.999990454
199.999989393
199.999989393
199.999988215
199.999988215
199.999988215
199.999986905
199.999986905
199.99998545
199.999983833
199.99996958
199.9999662
199.999958271
199.999953635
2.72105921585
0
0
0
0
0
0
0
0
0
0
0
0
0
0
0
0.00207634975381
0.0057041982927
0.0253383444844
0.106785678884
0.434281525286
1.79244581444
7.4342033966
31.6063900844
146.82698345
199.086812425
199.993959717
199.990822969
198.903538991
192.592197245
186.50651887
180.944485325
175.31577672
169.062776882
167.941719172
163.234405028
154.648238897
151.447096151
147.032069857
142.170051324
137.604907875
133.918564795
128.474412807
125.876722149
114.584066145
199.999999154
199.99999906
199.99999906
199.99999906
199.999998955
199.999998955
199.999998812
199.999998524
199.999998231
199.999998231
199.999998035
199.999998035
199.999997816
199.999997816
199.999997573
199.999997304
199.999997004
199.999996671
199.999996671
199.999996302
199.999995891
199.999995891
199.999995434
199.999994927
199.999994927
199.999994363
199.999993737
199.999993737
199.999993041
199.999993041
199.999992268
199.999992268
199.999991408
199.999991408
199.999990454
199.999990454
199.999990454
199.999989393
199.999989393
199.999988215
199.999988215
199.999986905
199.999986905
199.99998545
199.99998545
199.999983833
199.99996958
199.9999662
199.999958271
199.999948483
2.91892596465e-05
0
0
0
0
0
0
0
0
0
0
0
0
0
0
0
0
0
0
0.000200121689407
0.00322664516742
0.00913447598376
0.0409035600041
0.225307573432
0.901273598927
4.5787474813
20.7867161125
108.864132957
192.044408194
194.051963601
187.40763228
182.104802647
177.442802194
172.490307925
167.65935759
167.662232275
162.358742279
156.379474212
153.267598575
148.632359078
143.992163955
139.205879047
136.68512445
130.282597594
127.595399073
115.560541618
199.999999154
199.99999906
199.99999906
199.99999906
199.999998955
199.999998955
199.999998812
199.999998408
199.999998231
199.999998231
199.999998035
199.999998035
199.999997816
199.999997573
199.999997304
199.999997004
199.999997004
199.999996671
199.999996302
199.999996302
199.999995891
199.999995434
199.999995434
199.999994927
199.999994363
199.999993737
199.999993737
199.999993041
199.999993041
199.999992268
199.999992268
199.999991408
199.999991408
199.999990454
199.999990454
199.999989393
199.999989393
199.999988215
199.999988215
199.999988215
199.999986905
199.999986905
199.99998545
199.99998545
199.999983833
199.999972622
199.9999662
199.999958271
199.999942759
0
0
0
0
0
0
0
0
0
0
0
0
0
0
0
0
0
0
0
0
0
0
0
0.00200527717997
0.00590344187841
0.0315971204375
0.157406640426
0.650670598814
3.47186898451
16.6081029134
88.9072133138
173.757889001
178.060918287
173.582887137
168.708835844
164.606189756
165.703707912
160.508894687
159.40357346
150.416969348
147.073683672
144.222800988
139.449534819
136.969305206
132.113662976
127.558408573
115.049886281
199.999999154
199.99999906
199.99999906
199.99999906
199.999998955
199.999998955
199.999998812
199.999998408
199.999998231
199.999998231
199.999998035
199.999998035
199.999997816
199.999997573
199.999997304
199.999997004
199.999996671
199.999996302
199.999996302
199.999995891
199.999995434
199.999995434
199.999994927
199.999994363
199.999993737
199.999993737
199.999993041
199.999993041
199.999992268
199.999992268
199.999991408
199.999990454
199.999990454
199.999990454
199.999989393
199.999989393
199.999988215