/*--------------------------------*- C++ -*----------------------------------*\
| =========                 |                                                 |
| \\      /  F ield         | OpenFOAM: The Open Source CFD Toolbox           |
|  \\    /   O peration     | Version:  v1906                                 |
|   \\  /    A nd           | Web:      www.OpenFOAM.com                      |
|    \\/     M anipulation  |                                                 |
\*---------------------------------------------------------------------------*/
FoamFile
{
    version     2.0;
    format      ascii;
    class       volScalarField;
    location    "528";
    object      pa;
}
// * * * * * * * * * * * * * * * * * * * * * * * * * * * * * * * * * * * * * //

dimensions      [0 2 -2 0 0 0 0];


internalField   nonuniform List<scalar> 
9216
(
916.019107039
915.713288297
915.080617098
914.115598139
912.823634865
911.210794184
909.284611634
907.054005446
904.529097714
901.721133489
898.642290727
895.30560534
891.724767475
887.914059001
883.888145111
879.662032569
875.250864111
870.66990317
865.934335835
861.059284568
856.059619692
850.950001957
845.744703471
840.457676957
835.102384706
829.691891432
824.238699502
818.754861992
813.251822558
807.74054556
802.231359163
796.734101558
791.257966809
785.811658985
780.403241787
775.040305212
769.729815781
764.47828987
759.291645935
754.175383327
749.134436121
744.173355589
739.296165611
734.506547074
729.807694797
725.202502367
720.693420611
716.282641386
711.971957563
707.762944498
703.656821578
699.654630137
695.757096575
691.964805724
688.278065694
684.697075772
681.221793203
677.852094981
674.587646945
671.428058957
668.372756765
665.42113031
662.572408997
659.825802942
657.180382312
654.635211511
652.189233353
649.841396137
647.590543379
645.435533798
643.375137325
641.408147912
639.533286418
637.749306143
636.05490314
634.448814213
632.929735085
631.496410572
630.147560946
628.88196389
627.698389285
626.595672527
625.572657915
624.62826282
623.761429735
622.971180751
622.256578104
621.616768029
621.050948693
620.558400576
620.138455294
619.790498401
619.51390016
619.30783645
619.169004422
619.112995742
916.323899653
916.0163518
915.382035028
914.412658337
913.114490996
911.493879597
909.558534219
907.317509488
904.781076528
901.960615424
898.868459565
895.517780597
891.922423732
888.096798104
884.055714519
879.814290627
875.387798884
870.791592491
866.040968068
861.151115028
856.136994532
851.013312221
845.794412741
840.494273871
835.126414587
829.703907701
824.239299051
818.744635686
813.231394022
807.710521023
802.192369891
796.686750785
791.202872757
785.749405654
780.33442548
774.965482021
769.649549216
764.393098788
759.202053577
754.081865347
749.037470593
744.073371284
739.193592584
734.401765363
729.701085328
725.094396255
720.584150057
716.172489748
711.861210028
707.651839077
703.545599259
699.543486935
695.646232967
691.854379852
688.168241813
684.587978694
681.113555556
677.744812965
674.481426154
671.322971512
668.26888553
665.318527471
662.471138462
659.725900454
657.081895916
654.538163292
652.093657819
649.74730371
647.497956615
645.344452766
643.28557356
641.320091825
639.446738941
637.664248319
635.971325367
634.366688183
632.849040573
631.41710986
630.069623089
628.805341761
627.623041258
626.521542275
625.499693433
624.556399123
623.690605215
622.901322985
622.18761778
621.548628654
620.983559819
620.491696122
620.072399024
619.725125377
619.449452588
619.245200389
619.11285395
619.056942947
916.957962517
916.645683791
916.005607247
915.027528657
913.717818171
912.082956565
910.130850643
907.870771969
905.313232481
902.469857704
899.353240478
895.976804721
892.354653484
888.501436243
884.432203398
880.162286987
875.707169604
871.082384611
866.303403806
861.385559695
856.343953052
851.193396938
845.948342877
840.622844375
835.230499061
829.784428649
824.297234147
818.780989286
813.247206284
807.706840375
802.170264275
796.647281505
791.147108395
785.678395297
780.249213851
774.867084415
769.53896825
764.271299852
759.06998281
753.940425791
748.887541185
743.915783737
739.029151205
734.231224691
729.525170601
724.913781839
720.399480431
715.984358766
711.670182261
707.458429926
703.350296518
699.346731738
695.448441388
691.65592464
687.969473833
684.389209381
680.915077968
677.546884858
674.284290446
671.126839878
668.073958072
665.124976763
662.27912827
659.535570187
656.89337827
654.351569121
651.909092637
649.56485303
647.317701284
645.166454856
643.109890558
641.146763198
639.275799204
637.495714408
635.805208641
634.202982733
632.687734193
631.258173427
629.913020536
628.651020634
627.470941717
626.371588926
625.351803381
624.410475174
623.546543039
622.759005892
622.046923221
621.409425108
620.845713605
620.355072044
619.936869816
619.590576962
619.315784503
619.112263877
618.980253111
618.91822301
917.932734234
917.615009785
916.965932696
915.974260505
914.646558765
912.989538785
911.01140221
908.721756788
906.131483438
903.252594378
900.098082097
896.681769218
893.018154516
889.122267412
885.009523513
880.695593981
876.196278747
871.527396807
866.70468121
861.743692551
856.659736336
851.467798784
846.182484554
840.817971935
835.387967551
829.905677331
824.383774723
818.834384238
813.269060457
807.698781785
802.133938323
796.584334166
791.059183077
785.567116918
780.116187455
774.713881561
769.367127491
764.082314533
758.865303109
753.721447855
748.655610557
743.672185712
738.775115459
733.967916778
729.253697667
724.635185206
720.114742274
715.694395734
711.375853025
707.160529763
703.049565582
699.043850505
695.14403947
691.350576937
687.663709653
684.08350909
680.609882176
677.242591338
673.981263104
670.825405729
667.774415762
664.827593416
661.984147359
659.243208127
656.603831536
654.065010532
651.625677658
649.284715776
647.040960043
644.893207893
642.840220927
640.880734482
639.013459736
637.237093098
635.550318724
633.951817837
632.440271751
631.014371122
629.672819466
628.414342268
627.237690893
626.141651408
625.125048753
624.186755093
623.32569409
622.540848651
621.831265217
621.196060904
620.634428052
620.145641405
619.729064369
619.384158128
619.110492531
618.90776495
618.776055038
618.712774424
919.2522467
918.927518606
918.26613898
917.255850987
915.903519243
914.216191639
912.202479244
909.872455771
907.237510565
904.310190738
901.10403803
897.63342493
893.913391542
889.959489077
885.78762977
881.413948331
876.854673162
872.126011721
867.244046843
862.224647757
857.083391382
851.835497266
846.495770814
841.078558189
835.597707052
830.066536932
824.497813331
818.903729957
813.295893259
807.685314212
802.082401486
796.496961488
790.938199422
785.41472427
779.934556383
774.505139765
769.133353526
763.825528465
758.587462271
753.424439373
748.341248893
743.342206855
738.431176068
733.611589897
728.886473328
724.258467566
719.729851582
715.302566808
710.978238461
706.75819965
702.643511799
698.634987502
694.733209437
690.938551406
687.251195256
683.67114968
680.198264831
676.832248666
673.572679151
670.419018139
667.370621267
664.426749574
661.58657739
658.84920204
656.213650153
653.678885919
651.243816306
648.907298345
646.66814375
644.525125686
642.476983203
640.52242786
638.660148283
636.888816893
635.207094789
633.613638695
632.107106238
630.686163121
629.349488759
628.095783587
626.923774935
625.832224309
624.819933346
623.885750884
623.028578815
622.247378802
621.541177906
620.909074894
620.35024573
619.863949573
619.44953442
619.106442862
618.834215886
618.632497312
618.501298932
618.43784873
920.923146249
920.589558088
919.912421093
918.878251247
917.494322593
915.768136949
913.708845617
911.327133019
908.635051394
905.645843698
902.373763288
898.833893625
895.041971643
891.014218853
886.767182222
882.317587668
877.682206775
872.877738444
867.920704775
862.827361932
857.613624126
852.295000754
846.886544057
841.402807097
835.857809224
830.26500918
824.637283288
818.986909551
813.325555493
807.664271074
802.013484719
796.383004164
790.782020345
785.219112155
779.702257324
774.238844949
768.835689416
763.499047203
758.2346344
753.047646591
747.94277899
742.924248547
737.995815908
733.160809005
728.422146136
723.78236032
719.243622814
714.807767515
710.476314189
706.250492221
702.131262826
698.119341446
694.215218298
690.419178793
686.731321884
683.151578055
679.679725124
676.315403566
673.058129653
669.907308133
666.862242842
663.922146972
661.086151496
658.353313461
655.722622717
653.193008756
650.763346305
648.432461271
646.199135744
644.062113553
642.020105136
640.071793118
638.215837381
636.450880927
634.775555347
633.188487089
631.688303379
630.273638883
628.943142024
627.695481917
626.529354937
625.443491749
624.43666392
623.507690843
622.655446183
621.878864503
621.176947377
620.548769563
619.993484636
619.51033055
619.098634553
618.75781669
618.487392155
618.286973597
618.156544061
618.09335919
922.953870698
922.60936482
921.912776421
920.849112563
919.426174009
917.652046033
915.536568458
913.091199649
910.328827801
907.263569899
903.910569265
900.285795166
896.405848864
892.28778003
887.948916064
883.406706655
878.678584664
873.781844277
868.733536207
863.550379636
858.248689456
852.844317494
847.352605514
841.788348248
836.165764296
830.498473543
824.799479643
819.081157077
813.355242091
807.632827594
801.924361791
796.239650639
790.587863909
784.977541171
779.416605441
773.912376893
768.471588885
763.100405945
757.804443141
752.588786923
747.458016926
742.416228869
737.467058065
732.613703711
727.858953446
723.205208366
718.654507959
714.20855513
709.868740783
705.636168107
701.51167604
697.495862062
693.589103802
689.791579669
686.103287997
682.524064995
679.053601052
675.69145575
672.437071207
669.289784183
666.248836632
663.3133852
660.482509403
657.755219007
655.130460419
652.60712258
650.184042201
647.860008823
645.633769517
643.504033681
641.469477727
639.528750064
637.680476133
635.923263851
634.255709199
632.676402244
631.183933311
629.776899548
628.453911597
627.213600546
626.05462492
624.975677805
623.975493907
623.052856613
622.206604867
621.435639926
620.738931819
620.115525551
619.564546913
619.085207705
618.676810365
618.338751464
618.070523008
617.871715801
617.742299645
617.679611227
925.35480585
924.997124373
924.277084872
923.177868049
921.707933469
919.876098148
917.693060962
915.171241023
912.324558962
909.168205851
905.718413271
901.992228333
898.007298752
893.781671795
889.333609903
884.681425034
879.843332898
874.837327682
869.681076976
864.391836065
858.986379805
853.480950008
847.891215501
842.23224234
836.518471414
830.763701673
824.981077352
819.183078763
813.381516191
807.587527227
801.81157817
796.06346783
790.352335973
784.686671952
779.074330185
773.522546146
768.037954366
762.626608252
757.294001148
752.045088733
746.884312268
741.81562286
736.84250629
731.968008556
727.194761702
722.525010041
717.960636326
713.503187952
709.153902716
704.913734203
700.783376307
696.763286963
692.853710615
689.054699513
685.366133443
681.787738005
678.319101156
674.959688185
671.708854949
668.565859595
665.529872694
662.599986088
659.775220429
657.054531746
654.436817079
651.920919513
649.505632667
647.189704946
644.971843593
642.850718833
640.824968069
638.893200407
637.054001408
635.305938279
633.647565383
632.077430201
630.594079609
629.196066548
627.88195693
626.650336835
625.499819805
624.429054303
623.436731115
622.521590764
621.682430733
620.918112536
620.227568467
619.609808037
619.063923875
618.589097163
618.184602279
617.849809845
617.584189601
617.387315415
617.259143749
617.197108179
928.138465171
927.765116425
927.017245915
925.875856308
924.350221704
922.450065221
920.1871446
917.575056673
914.628980329
911.365408067
907.801882307
903.956740998
899.848877783
895.497520709
890.922032064
886.141731299
881.175742031
876.04286356
870.761466406
865.349410557
859.823984182
854.201859692
848.499063578
842.73095618
836.912218067
831.05684033
825.178117372
819.288641564
813.400300158
807.524274844
801.671045831
795.850397406
790.07142867
784.342565172
778.671576947
773.065596893
767.531141205
762.074131183
756.699916314
751.413298287
746.218555953
741.119470992
736.119354295
731.221072835
726.427077006
721.739428153
717.159826247
712.689637386
708.329921018
704.081456558
699.944769256
695.920154982
692.007703794
688.207322002
684.518752626
680.941594052
677.47531686
674.119278744
670.872737581
667.734862684
664.704744392
661.781402113
658.96379105
656.25080777
653.641294892
651.134045078
648.727804582
646.421276543
644.213124236
642.101974436
640.086421031
638.165029007
636.336338873
634.59887157
632.9511339
631.391624448
629.918839996
628.531282341
627.227465509
626.005923233
624.865216671
623.803942218
622.820739382
621.914298578
621.083368808
620.326765094
619.643375618
619.03216843
618.492197723
618.022609321
617.622645608
617.291649598
617.029067337
616.834453811
616.707751838
616.646500535
931.319699116
930.927907107
930.147354374
928.956476473
927.365549476
925.385412493
923.029120088
920.31170224
917.249858616
913.861643803
910.166162958
906.183282594
901.933362035
897.437009046
892.714862056
887.787400509
882.674784283
877.396722434
871.972370635
866.420255643
860.75822376
855.00340921
849.172217276
843.280317066
837.342639052
831.373374123
825.385972322
819.393141374
813.406845905
807.438308919
801.498017993
795.595733283
789.740499645
783.940662882
778.203890289
772.537192088
766.946944441
761.438913727
756.018281625
750.689671085
745.457172923
740.324373181
735.294381015
730.369857196
725.553042942
720.845789104
716.249585372
711.765589452
707.394655826
703.137363988
698.994045744
694.964811425
691.049574619
687.2480753
683.559901028
679.984506178
676.521228983
673.169306471
669.927887218
666.796042096
663.772773084
660.857020405
658.047668149
655.343548703
652.743446191
650.246099265
647.850203449
645.554413337
643.357344818
641.257577577
639.253657963
637.344102412
635.527401434
633.802024283
632.166424251
630.619044638
629.158325278
627.782709648
626.49065238
625.280627185
624.151134996
623.10071231
622.127939543
621.231449369
620.409934876
619.662157505
618.986954603
618.383246593
617.850043503
617.386451007
616.991675686
616.665028846
616.405930702
616.213917025
616.088911153
616.028566551
934.915949669
934.502586477
933.683917596
932.435376191
930.768471308
928.695414931
926.230846096
923.391532209
920.196001588
916.664171987
912.816997743
908.676140435
904.263667834
899.601784089
894.712592638
889.617893094
884.339012797
878.896673423
873.310892055
867.60091475
861.785178901
855.881298705
849.906066812
843.875464495
837.804673797
831.708086893
825.599311074
819.49117006
813.395704391
807.32417352
801.287063603
795.294098193
789.354251416
783.47577025
777.666198091
771.932399616
766.280586986
760.716346642
755.244666718
749.869964857
744.596116671
739.426484692
734.363948014
729.410932377
724.569440794
719.841084421
715.227113639
710.728449
706.345711918
702.079254669
697.929189518
693.895416513
689.977649733
686.175441587
682.488205008
678.915233259
675.455717315
672.108760714
668.873391971
665.748574619
662.733215113
659.826168769
657.026244096
654.33220576
651.74277656
649.256638709
646.872434766
644.588768478
642.404205831
640.317276489
638.326475839
636.430267726
634.627088007
632.915348918
631.293444299
629.7597556
628.312658645
626.950531039
625.671760147
624.474751485
623.35793747
622.319786321
621.358811071
620.473578487
619.662717863
618.924929492
618.258992799
617.663773946
617.138232937
616.681429878
616.292530688
615.970812139
615.715665142
615.52660152
615.403523967
615.344209311
938.947564098
938.509064478
937.646122133
936.330679589
934.575767674
932.395290993
929.805825234
926.826241231
923.477259639
919.781010515
915.760623997
911.439855674
906.842750186
901.993344061
896.9154082
891.632230434
886.166438965
880.539867475
874.773461802
868.887226398
862.900205991
856.830495069
850.695265142
844.510798888
838.29252118
832.055020722
825.812060405
819.576579321
813.36069144
807.175686545
801.032038194
794.939417706
788.906708292
782.942035476
777.052794028
771.245677251
765.526706606
759.90126143
754.374108512
748.949431924
743.630863119
738.421511668
733.323996509
728.340477892
723.472689763
718.72197265
714.089306687
709.575344735
705.180445147
700.904703992
696.74798621
692.709955431
688.790101923
684.987768413
681.302173369
677.732431593
674.277571899
670.936551911
667.708269965
664.591574318
661.585269854
658.688122607
655.898862438
653.216184253
650.638748152
648.165178924
645.794065236
643.523958903
641.353374499
639.280789608
637.304645867
635.423350981
633.635281751
631.938788189
630.332198651
628.813825998
627.381974626
626.034948326
624.771058779
623.588634613
622.486030798
621.461638322
620.513893892
619.64128964
618.842382575
618.115803781
617.460267129
616.874577521
616.357638402
615.908458729
615.526159101
615.209976418
614.959268972
614.773523482
614.652615781
614.594455793
943.438184595
942.970434831
942.056160258
940.663261017
938.806658279
936.502353049
933.769294016
930.62889936
927.104513468
923.220884257
919.003689539
914.479113586
909.673473808
904.612895783
899.323034658
893.828842661
888.15438375
882.322697433
876.355713082
870.274213742
864.097844509
857.845155554
851.533665642
845.179929489
838.799594005
832.407433767
826.017364588
819.642441294
813.294849912
806.98590397
800.726051602
794.524891322
788.39119119
782.332927924
776.357318871
770.470856505
764.679342147
758.987918457
753.401101233
747.922810848
742.556404041
737.304706154
732.170044201
727.154280548
722.258847361
717.484781512
712.832759933
708.303135043
703.895970074
699.611073755
695.448034029
691.406250179
687.484962946
683.68328209
680.000211085
676.43466855
672.985506351
669.651524223
666.431481077
663.324103096
660.328089002
657.442112768
654.664824304
651.994848505
649.430783205
646.971196478
644.614623778
642.359565295
640.204483908
638.147804022
636.187911499
634.323154841
632.55184769
630.872272672
629.282686536
627.781326503
626.36641772
625.036181654
623.7888453
622.622650975
621.535866597
620.526796183
619.59379049
618.735257528
617.949672906
617.235589763
616.591648252
616.016584392
615.509238303
615.068561466
614.693623378
614.383617518
614.137865215
613.955822552
613.837337846
613.780463331
948.415234306
947.913427934
946.939628994
945.457072575
943.483048452
941.036171991
938.138311407
934.813973891
931.089640309
926.993146212
922.553138397
917.798601816
912.75845094
907.461178313
901.93455525
896.205383184
890.299297835
884.240630706
878.052332294
871.755958434
865.371715002
858.918548365
852.414260762
845.875625235
839.318475913
832.757758895
826.207543308
819.681005862
813.190407357
806.747080817
800.36143227
794.042960828
787.800290308
781.641215029
775.572740801
769.60112592
763.731919076
757.969994593
752.319585756
746.784317602
741.367239863
736.070860774
730.897181719
725.847732908
720.923609823
716.125510482
711.453773209
706.908414832
702.489168813
698.195522999
694.026756267
689.981973572
686.0601386
682.260103553
678.58063545
675.020438676
671.578173456
668.25247032
665.041940543
661.945182923
658.960787164
656.087334423
653.323395477
650.667527163
648.118267629
645.674131022
643.33360213
641.095131501
638.957131429
636.91797317
634.975985602
633.129455509
631.376629526
629.715717767
628.144899021
626.662327448
625.26614055
623.954468317
622.725443242
621.57721112
620.507942295
619.515843248
618.59916824
617.756230899
616.985415479
616.285187757
615.654105298
615.09082711
614.59412241
614.162878712
613.796108944
613.492956912
613.252703101
613.074771727
612.958977102
612.903523172
953.910529894
953.368973935
952.326019397
950.739533737
948.629809404
946.018750658
942.931836615
939.397327267
935.445448015
931.107662484
926.416058315
921.402829658
916.099839462
910.538246309
904.748185662
898.758503109
892.596543981
886.288008683
879.856884073
873.325457319
866.714409683
860.042974256
853.329127506
846.589774106
839.840885229
833.097565165
826.374048404
819.683653587
813.038729364
806.450624956
799.929684558
793.48527489
787.125836062
780.858938298
774.691335561
768.629014129
762.677234912
756.840570373
751.122938535
745.527636045
740.057371981
734.714302801
729.50006876
724.415831463
719.462312603
714.639833585
709.948356102
705.3875233
700.956701326
696.655020569
692.481415999
688.434665651
684.513426523
680.716266978
677.041695121
673.488182572
670.054183474
666.738148597
663.538534763
660.453809854
657.482453929
654.622956996
651.873814159
649.233518799
646.700554587
644.273386975
641.950454888
639.730163162
637.610876241
635.590913523
633.668546605
631.84199859
630.109445497
628.469019723
626.918815448
625.456895791
624.081301533
622.790061144
621.581201904
620.452761818
619.402802136
618.429420149
617.530762111
616.705035977
615.950523846
615.265593836
614.648711353
614.098449503
613.613498737
613.192675279
612.834928805
612.539349345
612.305171618
612.13178188
612.018960063
611.965070229
959.96106106
959.372912752
958.249318201
956.541992737
954.275089766
951.474695086
948.170781178
944.396174977
940.18556281
935.574649129
930.599480952
925.295900887
919.699094846
913.843206372
907.761000977
901.48357711
895.040132677
888.457804901
881.761604417
874.974460172
868.117378232
861.209696181
854.269388848
847.31336016
840.35765196
833.417524985
826.507418244
819.640840684
812.830260148
806.087042252
799.421443339
792.842651473
786.358869128
779.977389732
773.704667208
767.546373616
761.507444775
755.592117086
749.803959943
744.145907869
738.620294293
733.228887686
727.972929622
722.853174538
717.869930701
713.023102489
708.312233827
703.736552835
699.295017203
694.986359762
690.80913321
686.761752989
682.842537079
679.049741771
675.38159248
671.836309101
668.412125509
665.107303248
661.920139545
658.84897014
655.892167506
653.048135232
650.315299379
647.692097738
645.176967845
642.768334662
640.464598696
638.264125287
636.165235631
634.166199982
632.265233331
630.460493694
628.750083018
627.132050616
625.604398913
624.165091321
622.812061883
621.543226497
620.356495309
619.249786097
618.221038207
617.268226897
616.389377663
615.582580428
614.846003232
614.177905356
613.576649588
613.040713626
612.568700355
612.159347216
611.811534368
611.524290985
611.296801694
611.128413498
611.018865001
610.966688783
966.609998136
965.966895901
964.748751764
962.900267991
960.450649363
957.431363661
953.878010838
949.82898035
945.324251273
940.404446849
935.110124933
929.481233514
923.556670192
917.373899996
910.968606066
904.374370053
897.622398927
890.741329984
883.757153129
876.69328524
869.570813259
862.408888151
855.225206509
848.036472605
840.858717729
833.707389668
826.597227489
819.542031329
812.55445025
805.645871866
798.826421032
792.105037424
785.489611073
778.987090116
772.603571172
766.344365965
760.214047748
754.216483673
748.354862126
742.631721588
737.048983935
731.607991649
726.309548098
721.153959572
716.141078767
711.270349578
706.54085369
701.951358914
697.500369175
693.186175205
689.006904842
684.960571305
681.045118007
677.258458423
673.598510025
670.063221439
666.650592574
663.358687604
660.185641217
657.129658618
654.18901015
651.362021418
648.647060018
646.042519935
643.546804738
641.158310621
638.875410274
636.696438423
634.619679745
632.643359643
630.765638203
628.98460746
627.29829189
625.704651995
624.201590645
622.786961907
621.458581949
620.2142417
619.051720894
617.968803123
616.963291593
616.033025178
615.175894525
614.389857807
613.672955982
613.023327196
612.439220295
611.919007162
611.461193992
611.06443104
610.727521374
610.449428687
610.229282057
610.066382618
609.960427371
609.910124562
973.908015275
973.199551188
971.869710623
969.855274511
967.19219361
963.91895815
960.078258774
955.715252251
950.876151611
945.607217284
939.954073151
933.961222063
927.67166127
921.126528121
914.364740497
907.422630771
900.333602725
893.127865266
885.832310982
878.470606923
871.063541763
863.62962203
856.185830488
848.748370906
841.333172789
833.955975809
826.632024607
819.37560584
812.199661246
805.115603847
798.13334503
791.261466945
784.507438197
777.877772362
771.378141689
765.01345012
758.787874266
752.70488353
746.767255805
740.977100437
735.335890714
729.84450327
724.503261308
719.311979651
714.270010536
709.376290887
704.629391813
700.02757109
695.568828384
691.25096241
687.071628143
683.028392106
679.11878345
675.340339103
671.690641455
668.167347781
664.768210921
661.491091346
658.333961003
655.294899769
652.372085489
649.563778848
646.868304339
644.284028739
641.809338405
639.442616724
637.18222288
635.026472978
632.973624331
631.021863504
629.16929843
627.413954682
625.753775746
624.186627012
622.710303037
621.322537695
620.021016667
618.803391949
617.667297828
616.610368046
615.630253619
614.724641034
613.891270315
613.127952734
612.432587728
611.803178892
611.237848737
610.734852202
610.292588635
609.909612556
609.584642872
609.316569955
609.104462613
608.94757474
608.845554297
608.797292302
981.91506515
981.128009356
979.664905597
977.453729351
974.539662882
970.970494647
966.797889437
962.075197929
956.855882311
951.19254469
945.136379237
938.736843769
932.041398768
925.095215793
917.940809188
910.617595285
903.161427957
895.604196251
887.973597027
880.293203927
872.58293175
864.859922797
857.139749167
849.437645843
841.769352071
834.151161464
826.599240546
819.128724075
811.753027728
804.483567724
797.329886862
790.300023416
783.400864529
776.638374674
770.017727225
763.543375013
757.219074852
751.047880335
745.032135432
739.173488291
733.472924997
727.930813556
722.546952332
717.320618771
712.250617346
707.335328345
702.572759948
697.960604809
693.49630162
689.177100246
685.000128027
680.962454038
677.061148373
673.293333862
669.656228512
666.147177512
662.763674505
659.503372217
656.364083213
653.343771727
650.440537994
647.652596508
644.978249931
642.415860256
639.963818954
637.620517627
635.384320674
633.253541169
631.226420954
629.301115626
627.475684716
625.748087122
624.116181427
622.577730714
621.13041118
619.771824056
618.49951014
617.310966536
616.203665034
615.175071718
614.222667332
613.343967901
612.536545233
611.79804676
611.126214503
610.518902715
609.974094151
609.489914654
609.064646239
608.696738198
608.384816861
608.127694205
607.924372866
607.774052464
607.67633169
607.630290035
990.702811211
989.819947738
988.195821318
985.748904958
982.537386589
978.621547775
974.064420191
968.929164401
963.277490937
957.16892976
950.660607071
943.807220783
936.661000117
929.271522199
921.685331427
913.945376704
906.090341984
898.153999595
890.16476262
882.145644262
874.11482507
866.086943442
858.075016339
850.092546132
842.155023039
834.279883232
826.485030772
818.7870979
811.200241967
803.735784446
796.402587235
789.207815151
782.157544007
775.257051685
768.510938501
761.923178276
755.497109095
749.235371328
743.139860905
737.211732855
731.451443373
725.858804461
720.433041187
715.172845536
710.076424943
705.141550814
700.3656117
695.745673918
691.278550511
686.960876899
682.789189113
678.760000072
674.869869429
671.115463746
667.493604678
664.001304057
660.63578551
657.394493089
654.275087829
651.27543372
648.393574756
645.627705026
642.976133841
640.437247975
638.009473049
635.691235986
633.480930326
631.376885884
629.377343998
627.480439096
625.684186963
623.986479562
622.385085909
620.877658243
619.461742621
618.134793156
616.894189124
615.737254429
614.661278814
613.663540443
612.741329189
611.891970246
611.112847348
610.401425247
609.755270869
609.172072954
608.649659834
608.18601533
607.779292563
607.427826037
607.130141756
606.884964858
606.691226857
606.548071717
606.455041082
606.411408579
1000.35804476
999.356390719
997.534553807
994.801342372
991.233926913
986.909589714
981.90566071
976.296781162
970.15370356
963.543173297
956.528324165
949.169169568
941.522910313
933.643913443
925.583305335
917.388212519
909.100759925
900.757007699
892.386085203
884.009857568
875.643506638
867.297344857
858.979893305
850.701594583
842.477716076
834.328104765
826.273974817
818.334591044
810.525224714
802.856782148
795.336795941
787.970987065
780.764309603
773.721215251
766.845675658
760.141191434
753.610731943
747.256563934
741.08013331
735.08206456
729.262231982
723.619835708
718.15347421
712.861204575
707.740587836
702.788732716
698.002347404
693.377803223
688.91121279
684.59851976
680.43559355
676.41832174
672.542693886
668.804872314
665.201247338
661.72847569
658.383502183
655.163565303
652.066188261
649.089157337
646.23048981
643.48839381
640.861222664
638.347426158
635.945501264
633.653944625
631.471209018
629.395665627
627.42557364
625.559058095
623.7940963
622.12851258
620.559980366
619.086030621
617.70406516
616.411373963
615.205155425
614.082539084
613.040610188
612.076435713
611.187091211
610.369687832
609.621398902
608.939485317
608.321319375
607.76440649
607.26640474
606.82514193
606.438630472
606.105079659
605.822906136
605.590742911
605.407444272
605.272091345
605.18416862
605.143148034
1010.98759841
1009.83566273
1007.766147
1004.6793072
1000.68127841
995.872628616
990.348268843
984.195697496
977.494944403
970.319671075
962.738600171
954.816799499
946.616488647
938.197236081
929.61549397
920.923533916
912.167931089
903.387828008
894.613323591
885.864491792
877.151707525
868.478023701
859.844062672
851.254724247
842.725272491
834.280680843
825.948483366
817.752528409
809.709607749
801.829363729
794.116668028
786.574809824
779.207275626
772.017621091
765.009182099
758.185049776
751.547969035
745.099938079
738.841960122
732.774070078
726.895487739
721.204731012
715.699711924
710.377805172
705.235879638
700.270328704
695.477116022
690.851840377
686.389825504
682.086230117
677.936165916
673.934812305
670.077518485
666.359887612
662.777840201
659.327656093
656.005995349
652.809899478
649.736775039
646.784362213
643.95069118
641.234029309
638.632822165
636.145631386
633.771072375
631.507754685
629.354227771
627.308934417
625.370173773
623.536075111
621.804582749
620.173451452
618.640250968
617.202377803
615.857072447
614.601440552
613.432477027
612.347092527
611.342141879
610.41445415
609.560863612