/*--------------------------------*- C++ -*----------------------------------*\
| =========                 |                                                 |
| \\      /  F ield         | OpenFOAM: The Open Source CFD Toolbox           |
|  \\    /   O peration     | Version:  v1906                                 |
|   \\  /    A nd           | Web:      www.OpenFOAM.com                      |
|    \\/     M anipulation  |                                                 |
\*---------------------------------------------------------------------------*/
FoamFile
{
    version     2.0;
    format      ascii;
    class       volVectorField;
    location    "773";
    object      U;
}
// * * * * * * * * * * * * * * * * * * * * * * * * * * * * * * * * * * * * * //

dimensions      [0 1 -1 0 0 0 0];


internalField   nonuniform List<vector> 
9216
(
(0.00270969988176 -0.00271206996263 0)
(0.00285696606298 -0.0087522190702 1.17186878028e-27)
(0.002848802686 -0.0148864110343 1.84076858482e-31)
(0.00281151866669 -0.0210209772409 0)
(0.00275975874422 -0.0270527345407 0)
(0.00269498430228 -0.0329574157021 0)
(0.00261888011826 -0.0387091803239 0)
(0.00253279079365 -0.0442850477052 0)
(0.00243801665345 -0.0496648261074 0)
(0.00233583018128 -0.0548311077067 0)
(0.00222749637032 -0.0597692267945 0)
(0.00211421939235 -0.0644672044334 0)
(0.00199715776906 -0.068915617549 0)
(0.00187736677275 -0.073107452348 0)
(0.001755831974 -0.0770378978958 0)
(0.0016334131996 -0.080704150734 0)
(0.00151089814388 -0.0841051800797 0)
(0.00138894477949 -0.0872415277438 0)
(0.00126815250849 -0.0901150830021 0)
(0.00114899847669 -0.09272890752 0)
(0.00103192338313 -0.0950870415849 0)
(0.000917257538302 -0.0971943674205 0)
(0.000805318993463 -0.09905645406 0)
(0.000696326605716 -0.10067946012 0)
(0.00059050928876 -0.102070014511 0)
(0.000488004559224 -0.103235152131 0)
(0.00038897840536 -0.104182222936 0)
(0.000293509178542 -0.104918851532 0)
(0.00020171851875 -0.105452866283 0)
(0.000113642218966 -0.105792275789 0)
(2.93747462444e-05 -0.105945198288 0)
(-5.10957717246e-05 -0.105919915627 0)
(-0.000127729504836 -0.105724662589 0)
(-0.000200560390674 -0.105367710449 0)
(-0.000269548494927 -0.104857346154 0)
(-0.000334756606548 -0.104201829075 0)
(-0.000396173740367 -0.103409352846 0)
(-0.000453891079065 -0.102488031755 0)
(-0.000507918928603 -0.101445862135 0)
(-0.000558372049991 -0.100290711543 0)
(-0.000605278701654 -0.0990302858998 0)
(-0.000648773262031 -0.0976721202113 0)
(-0.000688898643683 -0.0962235520894 0)
(-0.000725804617041 -0.0946917144638 0)
(-0.000759544988515 -0.0930835158225 0)
(-0.000790280296897 -0.0914056349418 0)
(-0.000818071480101 -0.0896645082892 0)
(-0.000843085323119 -0.0878663268769 0)
(-0.000865386162245 -0.0860170304926 0)
(-0.000885142686256 -0.0841223061809 0)
(-0.000902419449457 -0.0821875890377 0)
(-0.000917383370896 -0.0802180618957 0)
(-0.000930096592823 -0.078218661689 0)
(-0.000940721279 -0.0761940794109 0)
(-0.000949315498906 -0.0741487712211 0)
(-0.000956034721497 -0.0720869579162 0)
(-0.000960932124405 -0.070012639398 0)
(-0.000964155458059 -0.0679295925848 0)
(-0.000965753243799 -0.0658413882122 0)
(-0.000965865532717 -0.0637513864852 0)
(-0.000964537145356 -0.0616627549111 0)
(-0.000961901148479 -0.0595784609591 0)
(-0.000958000295846 -0.0575012902101 0)
(-0.000952961965344 -0.0554338358588 0)
(-0.000946828656341 -0.0533785164511 0)
(-0.000939723456492 -0.0513375622187 0)
(-0.000931690434933 -0.0493130323439 0)
(-0.000922849703834 -0.0473067986839 0)
(-0.000913248281473 -0.0453205625307 0)
(-0.000903004153565 -0.0433558363796 0)
(-0.000892168156626 -0.0414139606525 0)
(-0.000880856488492 -0.0394960844905 0)
(-0.000869123938693 -0.0376031827797 0)
(-0.000857084606922 -0.0357360368261 0)
(-0.000844796769719 -0.0338952522429 0)
(-0.000832371612752 -0.0320812404054 0)
(-0.000819869833032 -0.0302942374778 0)
(-0.000807398428664 -0.0285342872715 0)
(-0.000795019082472 -0.0268012617363 0)
(-0.000782833070628 -0.0250948457486 0)
(-0.000770901317827 -0.0234145591334 0)
(-0.000759317622578 -0.021759743688 0)
(-0.000748140191328 -0.0201295869191 0)
(-0.000737453292134 -0.0185231117173 0)
(-0.000727309814052 -0.0169392022592 0)
(-0.000717781138428 -0.0153765975483 0)
(-0.000708909263907 -0.0138339220984 0)
(-0.000700742223401 -0.0123096895017 0)
(-0.000693287917358 -0.0108023525381 0)
(-0.000686514913914 -0.00931035418578 0)
(-0.00068025142467 -0.00783228619936 0)
(-0.000674003493895 -0.00636726447267 0)
(-0.000666380485195 -0.00491605990098 0)
(-0.000651235184075 -0.00349045762416 0)
(-0.000623795700459 -0.00200578553988 0)
(-0.000836613026041 -0.000836394900045 0)
(0.00877237673178 -0.00288709223613 0)
(0.00969980709095 -0.0097699664998 0)
(0.00967738124626 -0.016640042501 -1.23059827003e-27)
(0.00954792393968 -0.0235154905141 0)
(0.00936877564105 -0.0302664186706 0)
(0.0091472912231 -0.0368710701723 0)
(0.00888786895693 -0.0433020136145 0)
(0.00859472207989 -0.0495340016672 0)
(0.00827215659187 -0.0555446200075 0)
(0.00792449316385 -0.0613145202736 0)
(0.0075560209534 -0.0668274450157 0)
(0.00717086035377 -0.0720701742807 0)
(0.00677293642515 -0.07703238232 0)
(0.00636586089103 -0.0817064559341 0)
(0.0059529573606 -0.0860872601379 0)
(0.00553716939368 -0.0901719002839 0)
(0.00512113572326 -0.0939594595587 0)
(0.00470711360971 -0.0974507587596 0)
(0.00429709295173 -0.100648109755 0)
(0.00389272031817 -0.10355510647 0)
(0.00349544015853 -0.10617641796 0)
(0.00310640678991 -0.108517624808 0)
(0.00272664371942 -0.11058505841 0)
(0.00235693504635 -0.112385682719 0)
(0.00199799784395 -0.113926975175 0)
(0.00165034866132 -0.115216845617 0)
(0.0013144871555 -0.116263549067 0)
(0.000990736998912 -0.11707563072 0)
(0.000679441454292 -0.117661859569 0)
(0.000380780741232 -0.118031187501 0)
(9.49830939113e-05 -0.118192702182 0)
(-0.00017789922885 -0.11815553914 0)
(-0.000437762521452 -0.117928974251 0)
(-0.000684648624566 -0.117522315824 0)
(-0.00091852183228 -0.116944833308 0)
(-0.00113951756356 -0.116205760738 0)
(-0.00134768762764 -0.115314256908 0)
(-0.0015432545004 -0.114279384522 0)
(-0.00172634500876 -0.113110076721 0)
(-0.00189725731702 -0.111815116997 0)
(-0.00205618268286 -0.110403110113 0)
(-0.00220348271407 -0.108882464875 0)
(-0.00233940112556 -0.107261370678 0)
(-0.00246434917754 -0.105547783863 0)
(-0.00257860967417 -0.103749410425 0)
(-0.00268262867863 -0.10187369628 0)
(-0.00277671431655 -0.0999278164158 0)
(-0.00286133266158 -0.0979186690734 0)
(-0.00293680383196 -0.095852871104 0)
(-0.0030036000431 -0.093736755674 0)
(-0.00306204162351 -0.0915763733564 0)
(-0.00311259504772 -0.0893774927145 0)
(-0.00315557130135 -0.0871456061927 0)
(-0.00319142184771 -0.0848859326226 0)
(-0.00322044178905 -0.0826034268632 0)
(-0.00324306157999 -0.08030278316 0)
(-0.00325955712809 -0.0779884471928 0)
(-0.00327033522882 -0.0756646190984 0)
(-0.00327565264264 -0.0733352667028 0)
(-0.00327589312874 -0.0710041271661 0)
(-0.00327129715578 -0.0686747201759 0)
(-0.00326222861629 -0.0663503473491 0)
(-0.00324891666392 -0.064034104577 0)
(-0.00323171019682 -0.0617288787423 0)
(-0.00321083295772 -0.0594373586683 0)
(-0.00318662418677 -0.0571620290747 0)
(-0.00315930799648 -0.0549051801255 0)
(-0.00312921875073 -0.0526688990222 0)
(-0.00309658546599 -0.0504550784023 0)
(-0.00306174088416 -0.0482654062373 0)
(-0.0030249215861 -0.046101373706 0)
(-0.00298645996912 -0.0439642643047 0)
(-0.00294660056287 -0.0418551618373 0)
(-0.00290567452315 -0.039774939626 0)
(-0.00286393257202 -0.0377242693359 0)
(-0.00282170182624 -0.0357036111263 0)
(-0.0027792355898 -0.0337132238189 0)
(-0.00273685261994 -0.0317531566054 0)
(-0.00269480388853 -0.0298232609739 0)
(-0.00265339448472 -0.0279231844248 0)
(-0.00261286725202 -0.0260523843293 0)
(-0.00257350763298 -0.0242101238862 0)
(-0.00253554388875 -0.0223954880455 0)
(-0.00249923502096 -0.0206073818923 0)
(-0.00246478674979 -0.0188445487277 0)
(-0.00243242186104 -0.0171055710729 0)
(-0.00240230917925 -0.0153888910094 0)
(-0.00237461146061 -0.0136928132804 0)
(-0.00234941469197 -0.0120155241392 0)
(-0.00232672511778 -0.01035508127 0)
(-0.00230632776637 -0.00870937416192 0)
(-0.00228756741121 -0.00707591710083 0)
(-0.0022686484863 -0.00545101212284 0)
(-0.00224431307804 -0.00382677597159 0)
(-0.00218487750523 -0.00218001043943 0)
(-0.00200441836737 -0.000621707826293 0)
(0.0150176004329 -0.00293296944732 0)
(0.016628161187 -0.00993076176932 0)
(0.0165674299134 -0.0168910961252 -1.22855917935e-27)
(0.0163364259248 -0.0238671939681 0)
(0.0160246911571 -0.0307151073661 0)
(0.0156419967508 -0.0374115690899 0)
(0.0151948472106 -0.0439281100328 0)
(0.0146901778575 -0.0502389304928 0)
(0.0141353142157 -0.0563212927315 0)
(0.0135377112984 -0.0621557110965 0)
(0.0129047647168 -0.0677259580967 0)
(0.0122436004545 -0.0730189830307 0)
(0.0115609626506 -0.0780247453274 0)
(0.0108630734358 -0.082735998361 0)
(0.0101556050714 -0.0871480312458 0)
(0.00944360530566 -0.0912583996705 0)
(0.00873154088559 -0.0950666468778 0)
(0.00802326766286 -0.0985740404215 0)
(0.00732212229231 -0.101783318837 0)
(0.00663091217084 -0.104698468298 0)
(0.00595203258877 -0.107324517394 0)
(0.00528745559867 -0.109667365834 0)
(0.00463885585763 -0.111733631225 0)
(0.00400758484707 -0.113530527079 0)
(0.0033947959382 -0.115065754151 0)
(0.00280139758162 -0.116347417132 0)
(0.00222817432294 -0.117383948512 0)
(0.00167571813629 -0.118184051325 0)
(0.00114454620281 -0.118756643371 0)
(0.00063501244539 -0.119110814762 0)
(0.000147422936478 -0.119255785508 0)
(-0.000318058587465 -0.11920086825 0)
(-0.000761292427935 -0.11895543215 0)
(-0.0011822875327 -0.118528872614 0)
(-0.00158107003278 -0.117930572741 0)
(-0.00195780303032 -0.117169875311 0)
(-0.0023126553184 -0.116256048447 0)
(-0.00264593108306 -0.115198258685 0)
(-0.00295793019938 -0.114005540893 0)
(-0.00324908237172 -0.112686773875 0)
(-0.00351980111969 -0.111250654228 0)
(-0.003770621769 -0.109705675619 0)
(-0.00400205036152 -0.108060107675 0)
(-0.00421470476035 -0.106321979774 0)
(-0.00440915986946 -0.104499065502 0)
(-0.00458609123382 -0.102598871316 0)
(-0.00474611810362 -0.100628626875 0)
(-0.00488994885658 -0.0985952786155 0)
(-0.00501822342307 -0.0965054856766 0)
(-0.0051316598739 -0.0943656179654 0)
(-0.00523089772469 -0.0921817572043 0)
(-0.00531664492873 -0.0899596988192 0)
(-0.00538952345961 -0.0877049571315 0)
(-0.00545021594254 -0.0854227700287 0)
(-0.0054993148248 -0.0831181072499 0)
(-0.00553746774446 -0.0807956766851 0)
(-0.00556523137365 -0.0784599343624 0)
(-0.00558321457078 -0.0761150910575 0)
(-0.00559193778362 -0.0737651227502 0)
(-0.00559197286271 -0.0714137763776 0)
(-0.00558380861535 -0.0690645795061 0)
(-0.0055679861128 -0.0667208442288 0)
(-0.00554497078194 -0.0643856752765 0)
(-0.00551528195949 -0.0620619715149 0)
(-0.00547937169607 -0.0597524319899 0)
(-0.00543774741837 -0.0574595548768 0)
(-0.00539085756265 -0.0551856415646 0)
(-0.0053392063276 -0.0529327934189 0)
(-0.00528324622109 -0.0507029142824 0)
(-0.0052234841714 -0.0484977057063 0)
(-0.00516038115761 -0.046318668649 0)
(-0.00509444919302 -0.0441670980792 0)
(-0.00502615825942 -0.0420440846521 0)
(-0.00495602398301 -0.0399505095677 0)
(-0.00488452217175 -0.0378870470692 0)
(-0.00481216719336 -0.0358541603695 0)
(-0.0047394343997 -0.0338521055648 0)
(-0.00466682939207 -0.0318809292088 0)
(-0.0045948185873 -0.0299404741102 0)
(-0.00452388959653 -0.0280303789351 0)
(-0.00445449006487 -0.0261500860653 0)
(-0.00438707938638 -0.0242988433637 0)
(-0.00432207577618 -0.0224757141324 0)
(-0.00425989934049 -0.0206795809723 0)
(-0.004200926916 -0.0189091575403 0)
(-0.00414552592568 -0.0171629938941 0)
(-0.00409401542662 -0.0154394886778 0)
(-0.00404668843527 -0.0137368927456 0)
(-0.00400377510248 -0.0120533140527 0)
(-0.00396544927552 -0.0103867014002 0)
(-0.00393179491475 -0.00873480196438 0)
(-0.00390283398409 -0.00709503372053 0)
(-0.00387860401535 -0.0054641479461 0)
(-0.00385896867003 -0.00383655390853 0)
(-0.00382766900437 -0.00222679729035 0)
(-0.00348151264835 -0.00064543085994 0)
(0.0214106490398 -0.00297831497269 0)
(0.0237250548563 -0.0100811960102 0)
(0.0236353079968 -0.0171370812724 1.22798871812e-27)
(0.0233007049954 -0.0242094442792 0)
(0.0228500237777 -0.0311482725968 0)
(0.0222977157489 -0.0379288056326 0)
(0.0216532255757 -0.0445213967981 0)
(0.0209266429866 -0.0508995411853 0)
(0.0201286280805 -0.0570401487572 0)
(0.019270035076 -0.0629236799333 0)
(0.0183615934268 -0.068534105873 0)
(0.0174136217585 -0.073858777061 0)
(0.0164358304093 -0.0788882089438 0)
(0.015437156631 -0.0836158146535 0)
(0.0144256906158 -0.0880376036913 0)
(0.0134086181111 -0.0921518710529 0)
(0.0123922441652 -0.0959588883832 0)
(0.0113820089613 -0.0994606139015 0)
(0.0103825716928 -0.102660424591 0)
(0.00939786179267 -0.105562880247 0)
(0.00843118818032 -0.108173516458 0)
(0.0074852955028 -0.110498671099 0)
(0.00656247408883 -0.112545337435 0)
(0.00566460222523 -0.114321045684 0)
(0.00479324348778 -0.115833764442 0)
(0.00394966669988 -0.117091822904 0)
(0.00313492659604 -0.118103845183 0)
(0.00234986102898 -0.11887869796 0)
(0.0015951570424 -0.119425443742 0)
(0.000871329292043 -0.119753301923 0)
(0.000178775921243 -0.11987160936 0)
(-0.000482252040064 -0.119789799591 0)
(-0.00111159687136 -0.119517337055 0)
(-0.00170924419546 -0.119063714399 0)
(-0.002275266097 -0.118438410284 0)
(-0.00280986542975 -0.117650858078 0)
(-0.00331332132401 -0.116710413889 0)
(-0.00378603639604 -0.11562632716 0)
(-0.00422847845767 -0.114407711328 0)
(-0.00464122806151 -0.113063517416 0)
(-0.00502491680105 -0.111602508512 0)
(-0.00538027506213 -0.110033237491 0)
(-0.00570806764706 -0.108364026397 0)
(-0.00600914181085 -0.106602949179 0)
(-0.00628436115254 -0.104757816639 0)
(-0.00653465420964 -0.102836164638 0)
(-0.00676094768125 -0.100845244857 0)
(-0.00696421580059 -0.0987920184557 0)
(-0.00714541390768 -0.0966831524178 0)
(-0.00730552883874 -0.0945250182745 0)
(-0.00744551383563 -0.0923236934558 0)
(-0.00756634004954 -0.0900849643109 0)
(-0.0076689336428 -0.0878143315219 0)
(-0.00775422846626 -0.0855170163612 0)
(-0.00782310609039 -0.0831979689832 0)
(-0.00787644949834 -0.0808618766182 0)
(-0.00791508653645 -0.07851317334 0)
(-0.00793984431501 -0.0761560487959 0)
(-0.00795149631786 -0.0737944580571 0)
(-0.00795081689343 -0.0714321295412 0)
(-0.00793853193216 -0.0690725736693 0)
(-0.00791537265389 -0.0667190889022 0)
(-0.00788202952584 -0.0643747683155 0)
(-0.00783920434342 -0.062042503093 0)
(-0.00778756687807 -0.0597249865749 0)
(-0.00772780427953 -0.0574247150725 0)
(-0.00766057994909 -0.0551439895087 0)
(-0.00758657937028 -0.0528849139214 0)
(-0.00750647080126 -0.0506493952344 0)
(-0.00742094693359 -0.048439140205 0)
(-0.00733068722808 -0.0462556542019 0)
(-0.00723639506508 -0.0441002375604 0)
(-0.00713876176454 -0.0419739843173 0)
(-0.00703849921997 -0.0398777789467 0)
(-0.0069363058514 -0.037812295963 0)
(-0.00683289490066 -0.03577799787 0)
(-0.00672896266123 -0.0337751363161 0)
(-0.00662521276383 -0.0318037518479 0)
(-0.00652232705508 -0.0298636770765 0)
(-0.00642098619907 -0.0279545385678 0)
(-0.00632184349967 -0.0260757621902 0)
(-0.00622554210235 -0.0242265772041 0)
(-0.00613269192101 -0.0224060237199 0)
(-0.00604388355 -0.0206129587528 0)
(-0.00595966822026 -0.0188460652975 0)
(-0.00588056830785 -0.0171038594535 0)
(-0.00580706004181 -0.015384699486 0)
(-0.00573958064833 -0.0136867910115 0)
(-0.00567851495436 -0.0120081904548 0)
(-0.00562420457486 -0.0103467985668 0)
(-0.00557695522131 -0.0087003462456 0)
(-0.00553709246153 -0.00706635748439 0)
(-0.0055050244906 -0.00544210329559 0)
(-0.00548024858379 -0.00382321043662 0)
(-0.00543663310111 -0.00223178731396 0)
(-0.00488931212455 -0.00065486821521 0)
(0.0279105378663 -0.00303786044328 0)
(0.0309306738219 -0.0102789936847 0)
(0.0308093031207 -0.0174674304843 0)
(0.0303657646132 -0.0246691830465 0)
(0.029768856284 -0.0317293845458 0)
(0.0290381586729 -0.038621563232 0)
(0.0281865484135 -0.0453146402559 0)
(0.0272277027549 -0.0517811957523 0)
(0.026175999067 -0.0579976968674 0)
(0.0250460161267 -0.0639445803679 0)
(0.023852088522 -0.0696061485951 0)
(0.022607933512 -0.0749703654332 0)
(0.0213263772425 -0.080028568312 0)
(0.0200191586833 -0.0847751283804 0)
(0.0186968274525 -0.089207084858 0)
(0.0173686996578 -0.0933237779719 0)
(0.0160428852511 -0.0971264966896 0)
(0.0147263437401 -0.100618155164 0)
(0.0134249856931 -0.103803003996 0)
(0.0121437745832 -0.106686381353 0)
(0.0108868540575 -0.109274502732 0)
(0.00965765490285 -0.111574288818 0)
(0.00845901541728 -0.113593226247 0)
(0.00729326915046 -0.115339258102 0)
(0.00616234179644 -0.116820697617 0)
(0.0050678100103 -0.118046161422 0)
(0.00401097088927 -0.1190245162 0)
(0.00299287261401 -0.119764835937 0)
(0.00201436066422 -0.120276364966 0)
(0.00107608682134 -0.120568485534 0)
(0.000178539859156 -0.120650682814 0)
(-0.000677960001943 -0.120532535803 0)
(-0.00149323081234 -0.120223635765 0)
(-0.00226725083618 -0.119733607988 0)
(-0.00300013157584 -0.119072055426 0)
(-0.00369213108766 -0.118248531112 0)
(-0.00434363173423 -0.117272506128 0)
(-0.00495515189623 -0.116153338868 0)
(-0.00552732112321 -0.114900245246 0)
(-0.00606089018252 -0.113522270924 0)
(-0.00655670342308 -0.112028265317 0)
(-0.00701570728002 -0.110426858243 0)
(-0.00743892049449 -0.108726439033 0)
(-0.00782744166134 -0.106935138643 0)
(-0.00818241825571 -0.105060814602 0)
(-0.00850505398375 -0.103111039071 0)
(-0.00879657763095 -0.101093089877 0)
(-0.0090582509559 -0.0990139445112 0)
(-0.00929133833276 -0.0968802769908 0)
(-0.00949711586848 -0.094698457341 0)
(-0.00967684271863 -0.092474553678 0)
(-0.00983177199386 -0.0902143363685 0)
(-0.00996312451224 -0.0879232843177 0)
(-0.0100721019408 -0.0856065926514 0)
(-0.0101598635697 -0.0832691819386 0)
(-0.0102275419094 -0.0809157079932 0)
(-0.0102762228054 -0.0785505724918 0)
(-0.0103069634263 -0.076177933324 0)
(-0.0103207756804 -0.0738017150641 0)
(-0.010318646144 -0.0714256183707 0)
(-0.0103015223508 -0.0690531288833 0)
(-0.0102703338674 -0.0666875244346 0)
(-0.0102259806897 -0.0643318813866 0)
(-0.0101693544063 -0.0619890789266 0)
(-0.0101013277481 -0.0596618023705 0)
(-0.0100227747256 -0.0573525443996 0)
(-0.00993456039612 -0.0550636055151 0)
(-0.00983755898746 -0.0527970926766 0)
(-0.00973264315411 -0.0505549175762 0)
(-0.00962069942327 -0.0483387935649 0)
(-0.00950261655216 -0.0461502327936 0)
(-0.00937929800562 -0.0439905425456 0)
(-0.00925164939151 -0.0418608223532 0)
(-0.0091205880563 -0.0397619608286 0)
(-0.00898702987821 -0.0376946337861 0)
(-0.00885189631855 -0.0356593024793 0)
(-0.00871610102744 -0.0336562134751 0)
(-0.00858055482848 -0.031685398904 0)
(-0.00844615264137 -0.0297466785503 0)
(-0.00831377687327 -0.027839662421 0)
(-0.00818428510405 -0.0259637551861 0)
(-0.00805851228719 -0.0241181610685 0)
(-0.00793725953231 -0.0223018904984 0)
(-0.00782129540007 -0.0205137670188 0)
(-0.00771134602218 -0.0187524356308 0)
(-0.00760809579847 -0.0170163709037 0)
(-0.00751217937137 -0.015303885794 0)
(-0.00742418293173 -0.0136131391778 0)
(-0.00734464086516 -0.0119421428095 0)
(-0.00727404414579 -0.010288766061 0)
(-0.00721285503549 -0.00865074474413 0)
(-0.00716154329974 -0.00702569070202 0)
(-0.00712055419288 -0.00541113171801 0)
(-0.0070885910674 -0.00380304054237 0)
(-0.00703014780044 -0.00222466824417 0)
(-0.0063082540134 -0.00065480829427 0)
(0.034555173478 -0.00311331062163 0)
(0.0382920028699 -0.0105321981513 0)
(0.0381343983746 -0.0178926979066 0)
(0.0375739039047 -0.0252611943863 0)
(0.0368203967308 -0.0324771218514 0)
(0.0358990833121 -0.0395119139386 0)
(0.0348268349863 -0.04633275247 0)
(0.0336214733562 -0.0529111159758 0)
(0.0323016088084 -0.0592229831954 0)
(0.0308859916301 -0.0652488552872 0)
(0.0293929295292 -0.0709735645335 0)
(0.027839816066 -0.0763859696109 0)
(0.0262427863154 -0.0814785640861 0)
(0.0246164900497 -0.0862470374959 0)
(0.0229739783796 -0.0906898221474 0)
(0.0213266788302 -0.0948076526811 0)
(0.0196844478639 -0.0986031573775 0)
(0.0180556715891 -0.102080493897 0)
(0.01644740599 -0.105245035361 0)
(0.0148655299542 -0.108103108599 0)
(0.0133149091179 -0.11066178204 0)
(0.0117995485205 -0.112928699058 0)
(0.0103227393635 -0.114911950337 0)
(0.00888718205675 -0.116619978873 0)
(0.00749509697461 -0.118061510358 0)
(0.00614830786431 -0.11924550277 0)
(0.00484831390336 -0.120181108906 0)
(0.00359633657879 -0.120877647257 0)
(0.00239336036129 -0.121344576923 0)
(0.00124015305814 -0.121591473952 0)
(0.000137287630034 -0.121628002779 0)
(-0.000914859637338 -0.121463920281 0)
(-0.00191608189292 -0.121108972747 0)
(-0.00286635970416 -0.120572951525 0)
(-0.00376584384303 -0.119865615041 0)
(-0.00461485807124 -0.1189966677 0)
(-0.00541388837313 -0.117975726115 0)
(-0.00616358150764 -0.1168122871 0)
(-0.0068647311151 -0.115515696652 0)
(-0.00751827321631 -0.114095120775 0)
(-0.00812526907143 -0.112559518388 0)
(-0.00868689807357 -0.110917616932 0)
(-0.00920443822044 -0.109177890767 0)
(-0.00967925738268 -0.107348542737 0)
(-0.0101127925522 -0.105437488904 0)
(-0.0105065406255 -0.103452346591 0)
(-0.0108620376268 -0.101400425667 0)
(-0.011180850074 -0.0992887230219 0)
(-0.0114645552717 -0.0971239201115 0)
(-0.0117147342346 -0.0949123833792 0)
(-0.0119329540335 -0.092660167371 0)
(-0.0121207631109 -0.0903730202184 0)
(-0.0122796765223 -0.0880563912608 0)
(-0.0124111743435 -0.0857154403515 0)
(-0.0125166904605 -0.0833550485788 0)
(-0.0125976144928 -0.0809798298272 0)
(-0.0126552844514 -0.0785941429087 0)
(-0.0126909922319 -0.0762021036225 0)
(-0.0127059800103 -0.0738075965185 0)
(-0.0127014488451 -0.0714142857194 0)
(-0.0126785581579 -0.069025624699 0)
(-0.0126384365068 -0.0666448644514 0)
(-0.0125821830612 -0.0642750601287 0)
(-0.0125108792376 -0.0619190757118 0)
(-0.0124255908233 -0.0595795870103 0)
(-0.0123273790783 -0.0572590827155 0)
(-0.0122173022037 -0.0549598640075 0)
(-0.0120964246761 -0.0526840425671 0)
(-0.0119658170522 -0.0504335376498 0)
(-0.0118265627271 -0.0482100721532 0)
(-0.0116797555431 -0.0460151684083 0)
(-0.011526503664 -0.0438501436304 0)
(-0.0113679249558 -0.0417161057551 0)
(-0.0112051481569 -0.0396139495475 0)
(-0.0110393064098 -0.0375443536464 0)
(-0.0108715362255 -0.0355077783399 0)
(-0.0107029697737 -0.0335044646403 0)
(-0.0105347322992 -0.0315344343676 0)
(-0.0103679338405 -0.0295974917109 0)
(-0.0102036657352 -0.0276932258915 0)
(-0.0100429923667 -0.0258210153114 0)
(-0.00988694730769 -0.0239800327479 0)
(-0.00973652558035 -0.022169251899 0)
(-0.00959267988258 -0.020387454782 0)
(-0.00945631380205 -0.0186332402045 0)
(-0.00932827866175 -0.0169050327502 0)
(-0.00920936847052 -0.0152010924439 0)
(-0.00910031872493 -0.0135195246146 0)
(-0.00900180547647 -0.0118582904586 0)
(-0.00891445021054 -0.0102152189606 0)
(-0.00883882897272 -0.00858802658051 0)
(-0.00877548344316 -0.00697433890075 0)
(-0.00872481191978 -0.00537173323703 0)
(-0.008684812426 -0.00377617346072 0)
(-0.00861132934134 -0.00221068934547 0)
(-0.0077222552699 -0.000651397773959 0)
(0.0413816196831 -0.00320676851539 0)
(0.0458510324156 -0.0108465206127 0)
(0.0456507557553 -0.0184212015077 1.21841795125e-27)
(0.0449624475452 -0.0259965984606 0)
(0.044038542492 -0.0334050010092 0)
(0.0429105436269 -0.0406152115172 0)
(0.041600033687 -0.0475923032825 0)
(0.0401296995221 -0.0543064796029 0)
(0.0385230553548 -0.0607332427662 0)
(0.0368036030355 -0.0668533301745 0)
(0.03499409191 -0.0726524007856 0)
(0.0331159377362 -0.0781205911023 0)
(0.03118881249 -0.083251982333 0)
(0.0292303950411 -0.0880440295736 0)
(0.0272562657949 -0.0924969942773 0)
(0.025279917061 -0.0966134113038 0)
(0.0233128536412 -0.100397611029 0)
(0.0213647533129 -0.103855308074 0)
(0.0194436656443 -0.106993260261 0)
(0.0175562252735 -0.109818996103 0)
(0.0157078668518 -0.112340604953 0)
(0.0139030260582 -0.114566581935 0)
(0.0121453223593 -0.116505718325 0)
(0.0104377146955 -0.118167028042 0)
(0.00878263218567 -0.119559700996 0)
(0.0071820756541 -0.120693075022 0)
(0.00563769637737 -0.121576619081 0)
(0.00415085045891 -0.122219921873 0)
(0.00272263751215 -0.12263268141 0)
(0.00135392255014 -0.122824691221 0)
(4.53559506684e-05 -0.122805823655 0)
(-0.00120263995856 -0.122586038304 0)
(-0.00238983693107 -0.122175268577 0)
(-0.0035162217268 -0.121583502149 0)
(-0.0045819873248 -0.120820685269 0)
(-0.00558753079507 -0.119896706201 0)
(-0.00653344652604 -0.118821359037 0)
(-0.00742052022432 -0.117604309837 0)
(-0.00824971746593 -0.116255063787 0)
(-0.0090221732017 -0.114782934181 0)
(-0.00973917610433 -0.113197013815 0)
(-0.0104021545126 -0.111506149255 0)
(-0.0110126578446 -0.109718918318 0)
(-0.0115723404085 -0.107843610966 0)
(-0.0120829414039 -0.10588821376 0)
(-0.0125462680952 -0.103860397903 0)
(-0.0129641758607 -0.101767510852 0)
(-0.0133385520896 -0.0996165713852 0)
(-0.0136712975768 -0.0974142680237 0)
(-0.0139643123392 -0.0951669605677 0)
(-0.0142194794993 -0.0928806845656 0)
(-0.0144386540796 -0.0905611583771 0)
(-0.0146236503874 -0.0882137925446 0)
(-0.0147762346935 -0.0858437010321 0)
(-0.0148981169191 -0.0834557139554 0)
(-0.0149909478157 -0.0810543912605 0)
(-0.0150563153725 -0.0786440369028 0)
(-0.015095746631 -0.0762287129435 0)
(-0.0151107086512 -0.073812253122 0)
(-0.0151026144459 -0.0713982753479 0)
(-0.0150728276693 -0.0689901927627 0)
(-0.0150226715009 -0.0665912229522 0)
(-0.0149534356242 -0.0642043951379 0)
(-0.0148663864066 -0.0618325551303 0)
(-0.0147627744074 -0.0594783680895 0)
(-0.0146438440606 -0.0571443191152 0)
(-0.0145108399987 -0.0548327119263 0)
(-0.0143650146793 -0.0525456658415 0)
(-0.0142076322229 -0.0502851114721 0)
(-0.0140399729758 -0.0480527854578 0)
(-0.0138633341949 -0.0458502247186 0)
(-0.0136790312169 -0.043678760564 0)
(-0.0134883949952 -0.0415395131012 0)
(-0.0132927701642 -0.0394333862206 0)
(-0.0130935099595 -0.0373610635085 0)
(-0.0128919718773 -0.0353230052477 0)
(-0.0126895107923 -0.033319446738 0)
(-0.0124874730791 -0.0313503979792 0)
(-0.0122871887965 -0.0294156448478 0)
(-0.0120899650963 -0.0275147516956 0)
(-0.0118970782406 -0.0256470654267 0)
(-0.0117097669895 -0.0238117209022 0)
(-0.0115292250709 -0.022007647676 0)
(-0.0113565951076 -0.0202335778557 0)
(-0.0111929620835 -0.0184880550657 0)
(-0.011039348403 -0.0167694442952 0)
(-0.0108967090853 -0.0150759426722 0)
(-0.0107659289521 -0.0134055911156 0)
(-0.0106478209278 -0.0117562873942 0)
(-0.0105431270389 -0.0101258013512 0)
(-0.010452520675 -0.00851179731802 0)
(-0.0103766012892 -0.00691185460521 0)
(-0.0103157382424 -0.00532349498074 0)
(-0.010267372206 -0.00374256652072 0)
(-0.0101791140015 -0.00219164010651 0)
(-0.00912627528957 -0.000646022944562 0)
(0.0484310001285 -0.00332034712439 0)
(0.0536529653154 -0.0112285942705 0)
(0.0534016588192 -0.0190634493002 -1.21776926133e-27)
(0.0525714568448 -0.0268894354231 0)
(0.0514593417529 -0.0345299367521 0)
(0.0501040568055 -0.0419504753561 0)
(0.0485328540631 -0.0491136002492 0)
(0.0467742312182 -0.0559880949638 0)
(0.0448574723437 -0.062549079976 0)
(0.0428115670247 -0.0687778189078 0)
(0.0406642850426 -0.0746612300176 0)
(0.0384414763536 -0.0801912493469 0)
(0.0361666028109 -0.0853641073397 0)
(0.0338604836756 -0.0901795850822 0)
(0.0315412240172 -0.0946403014194 0)
(0.0292242868579 -0.0987510665714 0)
(0.0269226698649 -0.102518323331 0)
(0.0246471488137 -0.105949684575 0)
(0.0224065567189 -0.109053566551 0)
(0.020208072324 -0.111838910997 0)
(0.01805749957 -0.114314985295 0)
(0.0159595237648 -0.116491248 0)
(0.0139179368257 -0.118377266532 0)
(0.011935826186 -0.119982674238 0)
(0.0100157271142 -0.121317154923 0)
(0.00815973881077 -0.122390444411 0)
(0.00636960871863 -0.12321234022 0)
(0.0046467887146 -0.123792712504 0)
(0.00299246984084 -0.124141511457 0)
(0.00140759971469 -0.124268762508 0)
(-0.000107104106496 -0.124184580415 0)
(-0.00155117123807 -0.123899119753 0)
(-0.00292435666804 -0.123422561188 0)
(-0.00422665625583 -0.122765108532 0)
(-0.0054583078727 -0.121936930644 0)
(-0.00661978788349 -0.120948133346 0)
(-0.00771180597626 -0.119808721887 0)
(-0.00873529733516 -0.118528564272 0)
(-0.00969141081487 -0.117117355744 0)
(-0.0105814949712 -0.115584585401 0)
(-0.0114070807772 -0.113939505555 0)
(-0.0121698630979 -0.112191104391 0)
(-0.012871679799 -0.110348082241 0)
(-0.0135144906203 -0.108418831732 0)
(-0.0141003546419 -0.10641142188 0)
(-0.0146314084483 -0.10433358619 0)
(-0.0151098437306 -0.102192714655 0)
(-0.0155378863725 -0.0999958495836 0)
(-0.0159177756965 -0.0977496850579 0)
(-0.0162517458719 -0.0954605698505 0)
(-0.0165420081296 -0.0931345135125 0)
(-0.0167907357518 -0.0907771953611 0)
(-0.0170000504671 -0.0883939759835 0)
(-0.017172012158 -0.0859899108481 0)
(-0.0173086104573 -0.0835697655229 0)
(-0.0174117600029 -0.0811380319612 0)
(-0.0174832978133 -0.0786989452645 0)
(-0.0175249843356 -0.0762565003034 0)
(-0.0175385064531 -0.0738144675987 0)
(-0.0175254837372 -0.0713764078676 0)
(-0.0174874760571 -0.0689456847505 0)
(-0.017425993579 -0.0665254752712 0)
(-0.0173425071591 -0.0641187777691 0)
(-0.0172384599862 -0.0617284171017 0)
(-0.0171152784971 -0.0593570471448 0)
(-0.0169743833667 -0.0570071506634 0)
(-0.016817198751 -0.0546810368608 0)
(-0.0166451606465 -0.0523808369065 0)
(-0.0164597228144 -0.0501084979442 0)
(-0.0162623612641 -0.0478657760086 0)
(-0.0160545760629 -0.0456542284209 0)
(-0.0158378915939 -0.0434752060929 0)
(-0.0156138543307 -0.041329846258 0)
(-0.0153840293221 -0.0392190659637 0)
(-0.015149994681 -0.0371435567102 0)
(-0.0149133352511 -0.0351037804249 0)
(-0.0146756348918 -0.0330999669986 0)
(-0.0144384684548 -0.0311321134352 0)
(-0.0142033929719 -0.0291999847006 0)
(-0.0139719389799 -0.0273031162198 0)
(-0.0137456015522 -0.0254408180028 0)
(-0.0135258318098 -0.0236121802925 0)
(-0.0133140285267 -0.0218160806495 0)
(-0.0131115304687 -0.0200511923471 0)
(-0.0129196091535 -0.0183159939742 0)
(-0.0127394625742 -0.0166087801496 0)
(-0.0125722096801 -0.0149276733156 0)
(-0.0124188860717 -0.013270636708 0)
(-0.0122804407401 -0.0116354887601 0)
(-0.0121577339144 -0.0100199194877 0)
(-0.0120515345942 -0.00842151261478 0)
(-0.011962506823 -0.00683776130166 0)