/*--------------------------------*- C++ -*----------------------------------*\
| =========                 |                                                 |
| \\      /  F ield         | OpenFOAM: The Open Source CFD Toolbox           |
|  \\    /   O peration     | Version:  v1906                                 |
|   \\  /    A nd           | Web:      www.OpenFOAM.com                      |
|    \\/     M anipulation  |                                                 |
\*---------------------------------------------------------------------------*/
FoamFile
{
    version     2.0;
    format      ascii;
    class       volVectorField;
    location    "659";
    object      Ua;
}
// * * * * * * * * * * * * * * * * * * * * * * * * * * * * * * * * * * * * * //

dimensions      [0 1 -1 0 0 0 0];


internalField   nonuniform List<vector> 
9216
(
(-0.00663502169618 0.00663833652174 0)
(-0.00682079379091 0.0207022879561 2.38096306867e-27)
(-0.00680643418178 0.0348452753263 -4.59290899732e-31)
(-0.00675801398986 0.0489786726477 0)
(-0.0066902854503 0.0629658067118 0)
(-0.00660481310209 0.0767713077344 0)
(-0.00650297928708 0.0903557082916 0)
(-0.00638585410695 0.103682357938 0)
(-0.00625431059358 0.116717023942 0)
(-0.00610938099101 0.129427837025 0)
(-0.0059519518689 0.141785472611 0)
(-0.00578311036405 0.153763085426 0)
(-0.00560373344648 0.165336445426 0)
(-0.00541490124288 0.176483775565 0)
(-0.00521740378776 0.187185797274 0)
(-0.00501223687076 0.197425466579 0)
(-0.00480002796734 0.207187936105 0)
(-0.00458162188762 0.216460211315 0)
(-0.00435742747908 0.225231049006 0)
(-0.00412809569876 0.233490568167 0)
(-0.00389378993951 0.241230113672 0)
(-0.00365495476621 0.248441866431 0)
(-0.00341151651085 0.255118700213 0)
(-0.00316373293306 0.261253837708 0)
(-0.00291133492626 0.266840724112 0)
(-0.0026544396339 0.27187277424 0)
(-0.00239265250559 0.2763432727 0)
(-0.00212601559581 0.280245251681 0)
(-0.00185410083067 0.28357141861 0)
(-0.0015769560286 0.286314192552 0)
(-0.00129422529994 0.288465692624 0)
(-0.0010060235519 0.290017894507 0)
(-0.000712187803144 0.290962605892 0)
(-0.000413020755587 0.291291972916 0)
(-0.000108680410092 0.290998359392 0)
(0.000200292127712 0.290075090116 0)
(0.000513306748891 0.288516264287 0)
(0.00082953660798 0.286317746592 0)
(0.00114787778658 0.283476848327 0)
(0.00146722041928 0.279993530581 0)
(0.00178591715874 0.275869902159 0)
(0.00210262822 0.271111558574 0)
(0.00241519078096 0.265726882513 0)
(0.00272212201139 0.259728428534 0)
(0.00302080334458 0.253132074971 0)
(0.0033096746322 0.245958370503 0)
(0.00358570162141 0.238231685558 0)
(0.00384722595826 0.229981497707 0)
(0.00409075253816 0.221241754453 0)
(0.00431437672801 0.212052118484 0)
(0.00451402363813 0.202457727621 0)
(0.00468736479867 0.192510369678 0)
(0.00482973823603 0.182268567796 0)
(0.00493850459865 0.171798361404 0)
(0.005008922405 0.161173184445 0)
(0.00503886576697 0.150473508121 0)
(0.00502481457353 0.139785641331 0)
(0.00496666520733 0.129199513267 0)
(0.00486374079199 0.118805984151 0)
(0.00471927569383 0.108693015242 0)
(0.00453628106924 0.0989422378963 0)
(0.00432131958255 0.0896249741342 0)
(0.00408022736193 0.0807998782948 0)
(0.00382129220229 0.0725104682459 0)
(0.00355061588095 0.0647854506471 0)
(0.0032747393675 0.0576400572658 0)
(0.00299743533811 0.051079449426 0)
(0.00272337504984 0.0451000642504 0)
(0.00245577321344 0.0396908292674 0)
(0.00219893438078 0.0348326573717 0)
(0.00195553911091 0.0304995984014 0)
(0.00172869508199 0.0266594355541 0)
(0.00151975659196 0.0232756486223 0)
(0.00133021911064 0.0203085448695 0)
(0.00115989849019 0.0177173891821 0)
(0.00100861688116 0.0154617067094 0)
(0.000874862543971 0.0135031523783 0)
(0.000757459933976 0.0118061044084 0)
(0.000654499314032 0.0103384490715 0)
(0.000564618695032 0.00907133603557 0)
(0.000485928373698 0.00797947402579 0)
(0.000416905024694 0.00704091523131 0)
(0.00035517789558 0.00623741432465 0)
(0.000296017026623 0.00556295913069 0)
(0.00022952293298 0.00492408520804 0)
(0.000206652048648 0.00455387774982 0)
(0.000198827327389 0.00411631257054 0)
(0.000175020326284 0.00374135539779 0)
(0.000175527985769 0.00341963367026 0)
(0.000188134520157 0.0030539657895 0)
(0.000187654189189 0.00268840858458 0)
(0.000189526993683 0.00230178282804 0)
(0.000213131408369 0.00188542429877 0)
(0.000240879682792 0.00143270923689 0)
(0.000272083250044 0.00088705168937 0)
(0.000292452361922 0.000284962698912 0)
(-0.0207319962552 0.00686115379566 0)
(-0.0218875002017 0.0219897472653 0)
(-0.0218134007094 0.0370306148943 -2.44738995958e-27)
(-0.0216270105567 0.0520740884651 0)
(-0.0213732767153 0.0669500094338 0)
(-0.0210574079565 0.0816287508326 0)
(-0.0206829576731 0.0960699968234 0)
(-0.0202535350549 0.110235303263 0)
(-0.0197727021183 0.124088379636 0)
(-0.0192444086453 0.137595394931 0)
(-0.018672490857 0.150725188669 0)
(-0.0180611175662 0.163449307807 0)
(-0.0174141435441 0.175742083404 0)
(-0.0167356557805 0.18758053949 0)
(-0.0160292135928 0.198944356684 0)
(-0.0152985221198 0.209815671478 0)
(-0.0145465670683 0.220178943591 0)
(-0.0137764304453 0.230020669403 0)
(-0.0129903262453 0.239329179271 0)
(-0.0121905657319 0.248094300535 0)
(-0.0113785009155 0.256307119947 0)
(-0.0105556373715 0.26395963986 0)
(-0.0097224944696 0.27104454362 0)
(-0.00887984969457 0.277554889862 0)
(-0.00802752850059 0.283483914016 0)
(-0.0071657500026 0.28882479989 0)
(-0.00629387014963 0.293570538664 0)
(-0.00541178356247 0.297713807651 0)
(-0.00451866116434 0.301246896719 0)
(-0.00361434910227 0.304161720782 0)
(-0.00269816511003 0.306449792039 0)
(-0.00177018449962 0.308102455657 0)
(-0.000830211339069 0.309110906823 0)
(0.000121111099255 0.309466513263 0)
(0.00108311965374 0.309160956465 0)
(0.00205435277685 0.308186735312 0)
(0.00303298140458 0.306537323649 0)
(0.00401653993351 0.304207831036 0)
(0.00500183217733 0.301195141816 0)
(0.00598535164721 0.297498680107 0)
(0.00696250067935 0.293120472355 0)
(0.00792886335904 0.288065944978 0)
(0.00887857699922 0.28234386289 0)
(0.00980656328398 0.275967087292 0)
(0.0107059106399 0.268952389216 0)
(0.0115710807555 0.261321135283 0)
(0.0123942204161 0.253099063122 0)
(0.0131692645577 0.244316942272 0)
(0.0138872026818 0.235010492144 0)
(0.0145409640511 0.22522113993 0)
(0.0151198513949 0.214996269889 0)
(0.0156151728076 0.204390147146 0)
(0.0160143169793 0.193464461434 0)
(0.0163072602699 0.182289120019 0)
(0.0164809294379 0.17094249101 0)
(0.0165266335409 0.159511153809 0)
(0.016435000443 0.148088718088 0)
(0.016203733109 0.136773498019 0)
(0.0158325342928 0.125665313113 0)
(0.0153299751986 0.114861274443 0)
(0.0147076968091 0.104451399492 0)
(0.0139852282036 0.0945142433842 0)
(0.0131833120592 0.0851137664608 0)
(0.0123275333987 0.0762963394154 0)
(0.0114392824611 0.0680905126119 0)
(0.0105376992547 0.0605099385288 0)
(0.00963525872739 0.053558090452 0)
(0.00874488500153 0.0472305920737 0)
(0.00787770359989 0.0415153359687 0)
(0.00704633654822 0.0363915517253 0)
(0.00626030303414 0.0318304941634 0)
(0.00552850600712 0.0277966241555 0)
(0.00485600393124 0.0242495290324 0)
(0.00424666605754 0.0211454990574 0)
(0.00370045979257 0.0184395771241 0)
(0.00321586156619 0.0160874466795 0)
(0.00278831438774 0.0140474034739 0)
(0.00241320457668 0.0122812642305 0)
(0.00208478338589 0.0107547923946 0)
(0.00179818122554 0.00943742627602 0)
(0.00154790620666 0.0083021844623 0)
(0.00132922975186 0.00732520991343 0)
(0.00113654360064 0.00648491778466 0)
(0.000963530096056 0.00576342031298 0)
(0.000796603884172 0.0050980096705 0)
(0.000687327374736 0.00448599219838 0)
(0.000606879561779 0.00403466579544 0)
(0.000531045391579 0.00366324099471 0)
(0.000519265589351 0.00328824465295 0)
(0.000548639352935 0.00298374191487 0)
(0.000562156672176 0.00266468932277 0)
(0.000586980668403 0.00226025447557 0)
(0.000638825721043 0.00183406969235 0)
(0.000780439173761 0.00144859453679 0)
(0.000949801901061 0.000924955072277 0)
(0.000859323327237 0.000253822442075 0)
(-0.0350351914069 0.00691649924521 0)
(-0.0370093709749 0.0221725051663 0)
(-0.0368577085997 0.037305601459 -2.45074591869e-27)
(-0.0365369844815 0.0524586165004 0)
(-0.0361092268974 0.0674419749398 0)
(-0.0355796073775 0.0822246766866 0)
(-0.03495283001 0.0967654117872 0)
(-0.0342343468632 0.111025224142 0)
(-0.0334300608874 0.124967418568 0)
(-0.03254636793 0.13855787497 0)
(-0.0315898126512 0.151765230547 0)
(-0.030567179671 0.164560956059 0)
(-0.029485098809 0.176919400341 0)
(-0.0283501861115 0.188817731527 0)
(-0.0271686098828 0.200235857916 0)
(-0.0259463003406 0.21115625349 0)
(-0.0246884907362 0.221563774793 0)
(-0.0234000125455 0.231445395509 0)
(-0.022084825222 0.240789948243 0)
(-0.0207464090283 0.249587804212 0)
(-0.0193872938048 0.257830579939 0)
(-0.0180095521191 0.26551080727 0)
(-0.0166143313098 0.272621648798 0)
(-0.0152024363942 0.279156603702 0)
(-0.0137738641088 0.285109271316 0)
(-0.012328453562 0.290473129685 0)
(-0.010865422369 0.295241373079 0)
(-0.00938405670069 0.299406787599 0)
(-0.00788325899813 0.302961677868 0)
(-0.00636224551873 0.305897852379 0)
(-0.00482014456906 0.308206662432 0)
(-0.00325663904864 0.309879102588 0)
(-0.00167163083974 0.310905936494 0)
(-6.58336769816e-05 0.311277966356 0)
(0.00155948092458 0.310986263775 0)
(0.00320205003479 0.310022567882 0)
(0.0048587400151 0.308379606733 0)
(0.00652536032979 0.3060516138 0)
(0.00819661534263 0.303034691285 0)
(0.00986626046188 0.299327387103 0)
(0.0115268335055 0.294931029599 0)
(0.0131702216275 0.289850285561 0)
(0.0147870955623 0.284093392585 0)
(0.0163678983422 0.277672622795 0)
(0.0179018781826 0.270604374993 0)
(0.0193784320018 0.262909516958 0)
(0.0207856229736 0.254613396723 0)
(0.0221117556286 0.245746147634 0)
(0.02334331477 0.236342806613 0)
(0.0244666889863 0.226443794127 0)
(0.0254656657417 0.216095414521 0)
(0.0263234659834 0.205350741788 0)
(0.0270203397237 0.194270589612 0)
(0.0275365098392 0.182924631422 0)
(0.0278507568062 0.171392195581 0)
(0.0279448738988 0.159762467559 0)
(0.0278035348684 0.148133533781 0)
(0.0274195628941 0.136610023164 0)
(0.026793591239 0.125299349335 0)
(0.0259380576048 0.114306926289 0)
(0.024875317621 0.103730454397 0)
(0.0236378500601 0.0936548261217 0)
(0.0222645234125 0.084148414562 0)
(0.0208006811275 0.0752580938525 0)
(0.019286795867 0.0670078802136 0)
(0.0177535884723 0.0594049995448 0)
(0.0162210771268 0.052448679862 0)
(0.0147081743151 0.0461337752662 0)
(0.0132351776632 0.0404482184339 0)
(0.011823317515 0.0353701336285 0)
(0.0104904674192 0.0308682327003 0)
(0.00925103647931 0.0269038292818 0)
(0.00811460985361 0.0234330831168 0)
(0.00708703758869 0.0204087273013 0)
(0.00616895138565 0.0177820807319 0)
(0.00535645681814 0.0155056142041 0)
(0.00464156447483 0.0135354982883 0)
(0.00401511333328 0.0118327046292 0)
(0.00346757604231 0.0103628679412 0)
(0.00299019481715 0.0090956058136 0)
(0.00257429513566 0.00800419563611 0)
(0.00221213874096 0.00706520134818 0)
(0.00189664175218 0.00625762127262 0)
(0.00162230303179 0.00556602049922 0)
(0.00139024488608 0.00492666172932 0)
(0.00120989945979 0.0043577087541 0)
(0.0010744974701 0.00399335650678 0)
(0.000930305400279 0.00348535999771 0)
(0.000841198179352 0.00305002836866 0)
(0.00086045431091 0.00277687384682 0)
(0.000964286208922 0.00255136896014 0)
(0.000977372263862 0.00203135127035 0)
(0.00109815114547 0.00166440692381 0)
(0.00126850760164 0.00120730882184 0)
(0.00141810689269 0.00072301297983 0)
(0.00137750749684 0.000223013885921 0)
(-0.0495356696734 0.00697397357209 0)
(-0.0523504970124 0.0223763687146 0)
(-0.0521335818156 0.0376334420336 2.45042174287e-27)
(-0.0516757085951 0.0529156623982 0)
(-0.0510657685347 0.068024578126 0)
(-0.0503114639116 0.0829279824648 0)
(-0.0494194633435 0.0975833929991 0)
(-0.048397461691 0.111951043607 0)
(-0.0472539456705 0.125993634338 0)
(-0.0459980429343 0.139676632017 0)
(-0.0446392282258 0.152968431441 0)
(-0.043187199364 0.16584044259 0)
(-0.0416515721507 0.178267118199 0)
(-0.0400417838151 0.190225901286 0)
(-0.0383667884264 0.20169712073 0)
(-0.0366350062249 0.212663814651 0)
(-0.0348540392247 0.223111512603 0)
(-0.0330306879662 0.233027959338 0)
(-0.0311707078875 0.242402814704 0)
(-0.0292789116503 0.251227316479 0)
(-0.0273589809922 0.259493942599 0)
(-0.0254136618276 0.267196062906 0)
(-0.0234446334877 0.27432761489 0)
(-0.021452786801 0.280882794911 0)
(-0.0194381388434 0.286855792112 0)
(-0.0174001714078 0.292240557009 0)
(-0.0153377750987 0.297030621297 0)
(-0.0132496237265 0.301218964404 0)
(-0.0111341400598 0.304797932856 0)
(-0.00898988886162 0.307759208231 0)
(-0.00681558279781 0.310093861708 0)
(-0.00461044582627 0.311792417889 0)
(-0.00237426376763 0.312845007618 0)
(-0.000107758444293 0.313241617167 0)
(0.00218736247813 0.312972364155 0)
(0.00450810217528 0.312027872838 0)
(0.00685011252882 0.310399677822 0)
(0.00920752967462 0.308080718826 0)
(0.0115729272683 0.305065820355 0)
(0.0139373568629 0.301352239691 0)
(0.0162903241277 0.296940138042 0)
(0.0186200657944 0.291833084931 0)
(0.0209135127624 0.286038415784 0)
(0.0231567628494 0.279567592567 0)
(0.0253349264339 0.272436368862 0)
(0.0274326615099 0.264664964755 0)
(0.0294337340259 0.256278070184 0)
(0.0313214166116 0.2473049319 0)
(0.0330775912847 0.237779416082 0)
(0.0346828830183 0.227740327386 0)
(0.0361153379675 0.217231965786 0)
(0.0373505609894 0.20630515603 0)
(0.0383606679708 0.195018697357 0)
(0.0391154933691 0.183441150487 0)
(0.0395833311438 0.171652588876 0)
(0.0397345272325 0.15974563545 0)
(0.0395447915299 0.147825090101 0)
(0.0390003184135 0.136005396578 0)
(0.0381009423826 0.124406160266 0)
(0.036863002418 0.113146383258 0)
(0.0353209581412 0.102336280387 0)
(0.0335223249196 0.0920710573251 0)
(0.031526866271 0.082427651398 0)
(0.0294080929349 0.0734541239828 0)
(0.0272311715765 0.0651644593366 0)
(0.025037992595 0.0575518839894 0)
(0.0228494246228 0.0506080677832 0)
(0.0206872554716 0.0443289027785 0)
(0.0185820240708 0.0387045757816 0)
(0.0165662970133 0.0337118563771 0)
(0.014667438633 0.0293151296976 0)
(0.0129059269785 0.0254705084417 0)
(0.0112957214263 0.0221289524439 0)
(0.00984522404269 0.0192377244308 0)
(0.00855560877831 0.0167420463552 0)
(0.00741963694516 0.014588904381 0)
(0.00642376409344 0.0127312548316 0)
(0.00555293266481 0.011129309005 0)
(0.0047931028166 0.00974917289474 0)
(0.00413166146308 0.00856108363281 0)
(0.00355635401656 0.00753903192262 0)
(0.0030561966125 0.00666070880337 0)
(0.00262172166529 0.00590668936723 0)
(0.00224609712515 0.00526588979957 0)
(0.00192839979494 0.00464604760158 0)
(0.00170848228367 0.00418831928002 0)
(0.00151840055745 0.0037508588779 0)
(0.00134262569381 0.00325163926623 0)
(0.00126092257882 0.00290566927502 0)
(0.00120003921136 0.00246814452251 0)
(0.00125843030001 0.0021019335121 0)
(0.00144873914799 0.001842375657 0)
(0.00149962808774 0.00132944733499 0)
(0.00167123173185 0.000920208415071 0)
(0.00184639953542 0.000555397696581 0)
(0.0018314084554 0.000181532876547 0)
(-0.06418310007 0.00704820273215 0)
(-0.0678349369775 0.022645762408 0)
(-0.0675513258698 0.0380748615904 0)
(-0.0669530398305 0.0535315350388 0)
(-0.0661560908642 0.0688092621262 0)
(-0.0651709541587 0.0838746196413 0)
(-0.0640065585077 0.0986837349862 0)
(-0.0626731055183 0.113195754019 0)
(-0.0611818685089 0.127372543948 0)
(-0.0595449347629 0.141178993382 0)
(-0.0577748926596 0.154583165704 0)
(-0.0558845779037 0.167556386644 0)
(-0.0538867603681 0.180073261674 0)
(-0.0517939099397 0.192111616801 0)
(-0.0496179018833 0.203652373816 0)
(-0.0473698253305 0.214679355592 0)
(-0.0450597331148 0.225179035718 0)
(-0.0426965211667 0.235140232185 0)
(-0.040287751526 0.244553763698 0)
(-0.0378396291285 0.253412073699 0)
(-0.0353569193696 0.261708844362 0)
(-0.0328430342583 0.269438609023 0)
(-0.0303000458632 0.2765963847 0)
(-0.0277288697161 0.283177332227 0)
(-0.0251293526285 0.289176459536 0)
(-0.0225005226876 0.2945883707 0)
(-0.0198407212829 0.299407067629 0)
(-0.0171478902106 0.303625803891 0)
(-0.0144197302433 0.307236993072 0)
(-0.0116540127592 0.310232160542 0)
(-0.00884877954595 0.312602001171 0)
(-0.00600263792023 0.314336417328 0)
(-0.003115007646 0.315424679547 0)
(-0.000186456273927 0.315855671475 0)
(0.00278108213766 0.315618189664 0)
(0.00578400847445 0.314701332718 0)
(0.00881687766767 0.31309496161 0)
(0.0118722148146 0.310790231668 0)
(0.0149404389531 0.307780160613 0)
(0.018009868635 0.304060228667 0)
(0.0210667954051 0.299628949673 0)
(0.0240957123804 0.294488416262 0)
(0.0270795183479 0.288644727791 0)
(0.0299999079743 0.282108336997 0)
(0.0328375817549 0.274894204114 0)
(0.0355726072689 0.26702185439 0)
(0.0381843879967 0.258515252549 0)
(0.0406516919198 0.249402650771 0)
(0.0429520583682 0.239716441106 0)
(0.0450612012765 0.229493211437 0)
(0.0469517108748 0.21877424882 0)
(0.048592079424 0.207606699767 0)
(0.0499454990307 0.196045609293 0)
(0.0509702189175 0.18415683027 0)
(0.0516208512898 0.172020203057 0)
(0.0518528245606 0.159732330115 0)
(0.0516281610995 0.147407148066 0)
(0.0509232358422 0.135173414075 0)
(0.0497343512359 0.123168690991 0)
(0.0480808224107 0.111533024138 0)
(0.0460127240132 0.100395298533 0)
(0.0435936441684 0.0898657161217 0)
(0.0409064633145 0.0800386489318 0)
(0.0380707462422 0.070966383969 0)
(0.0351893773902 0.0626413266354 0)
(0.0323127004967 0.0550264080591 0)
(0.0294450196188 0.0481007472522 0)
(0.0266041771717 0.0418688602114 0)
(0.0238357903051 0.0363294535609 0)
(0.0211897484177 0.0314574758198 0)
(0.018704973222 0.0272095502341 0)
(0.0164078017025 0.0235335848492 0)
(0.0143160913819 0.0203736622923 0)
(0.0124418773953 0.0176697294365 0)
(0.0107878018481 0.0153574638029 0)
(0.0093413492086 0.0133746161718 0)
(0.00807936146335 0.0116695351829 0)
(0.00697830058855 0.0102026936619 0)
(0.00601908555419 0.00894216813237 0)
(0.00518583042222 0.00785935980189 0)
(0.0044621650167 0.0069291740462 0)
(0.00383344471841 0.00613095736371 0)
(0.00328712549184 0.00544775432617 0)
(0.00281461274179 0.00486944330022 0)
(0.00240135888013 0.00427912757299 0)
(0.00220073538768 0.00394818854017 0)
(0.00201872620685 0.00351774957579 0)
(0.0018180585253 0.00304260417114 0)
(0.00162187495769 0.0025088660959 0)
(0.00159371231927 0.00215163714581 0)
(0.0015892569818 0.00171922427044 0)
(0.00178150794781 0.00145247444812 0)
(0.0019982718277 0.00112687315527 0)
(0.00203331177388 0.000708592024351 0)
(0.00212144767162 0.000408737037031 0)
(0.00210180681348 0.000135131403111 0)
(-0.0790274728612 0.00714077376641 0)
(-0.0835232185693 0.0229860788207 0)
(-0.0831696283099 0.0386352694872 0)
(-0.0824255650221 0.0543140131348 0)
(-0.0814344564978 0.0698061076608 0)
(-0.0802097113347 0.0850767460223 0)
(-0.0787627741881 0.100080391142 0)
(-0.077106639438 0.114774831269 0)
(-0.0752556433321 0.129120876765 0)
(-0.0732251256162 0.143082677223 0)
(-0.0710310627461 0.156627876096 0)
(-0.0686897172982 0.169727698417 0)
(-0.0662172718147 0.182356959091 0)
(-0.0636294952682 0.194493992145 0)
(-0.060941404001 0.206120503888 0)
(-0.0581669740715 0.217221351934 0)
(-0.0553188621385 0.227784256587 0)
(-0.052408200786 0.237799451405 0)
(-0.049444418765 0.24725928572 0)
(-0.0464351571995 0.256157792823 0)
(-0.0433862205004 0.264490242794 0)
(-0.0403016323964 0.272252698256 0)
(-0.0371837197853 0.279441592843 0)
(-0.0340332916848 0.286053347959 0)
(-0.0308498224743 0.292084040088 0)
(-0.0276317084486 0.297529125125 0)
(-0.0243765030495 0.302383221076 0)
(-0.0210812096834 0.306639948046 0)
(-0.0177425430358 0.310291823322 0)
(-0.0143572480732 0.313330195361 0)
(-0.0109224086051 0.315745298792 0)
(-0.00743575820644 0.317526260891 0)
(-0.00389605347151 0.318661262022 0)
(-0.00030344995262 0.31913777756 0)
(0.00334015537557 0.318942894047 0)
(0.00703076646976 0.318063725154 0)
(0.0107620026414 0.316487930137 0)
(0.0145248640191 0.314204313267 0)
(0.0183076056592 0.311203492923 0)
(0.0220957323521 0.307478599308 0)
(0.025872115069 0.303025968567 0)
(0.0296172728131 0.297845777866 0)
(0.0333097320241 0.291942564581 0)
(0.0369265290811 0.285325592937 0)
(0.0404436670797 0.278008990091 0)
(0.0438365877441 0.270011680087 0)
(0.0470804014092 0.261357054453 0)
(0.050149871072 0.252072497334 0)
(0.0530188925373 0.242188822482 0)
(0.0556593904217 0.231739887068 0)
(0.0580395826685 0.220762770388 0)
(0.0601217000628 0.209298899091 0)
(0.0618598767278 0.197396827661 0)
(0.0631989375801 0.185116533416 0)
(0.064075934624 0.172535263729 0)
(0.0644252065267 0.159753046033 0)
(0.0641882619616 0.146895622176 0)
(0.0633257221472 0.134111713975 0)
(0.0618272361451 0.121563866107 0)
(0.0597105077684 0.109424853609 0)
(0.0570522957855 0.097849173393 0)
(0.0539275203647 0.0869648368681 0)
(0.0504369046881 0.076904750944 0)
(0.0467875595672 0.0677369951604 0)
(0.0431509907201 0.0594063513032 0)
(0.0395780554777 0.0518074740251 0)
(0.0360096956077 0.0448995175522 0)
(0.0324472966619 0.0387196697821 0)
(0.0289685403976 0.0332901567887 0)
(0.0256539532164 0.0285810538075 0)
(0.0225566004797 0.0245331971439 0)
(0.0197057405337 0.0210816370496 0)
(0.0171211327182 0.0181630320372 0)
(0.0148211785202 0.0157094313052 0)
(0.0128141167949 0.0136415098638 0)
(0.0110787429187 0.0118804559919 0)
(0.00957340516064 0.0103682020477 0)
(0.00826139074196 0.00906903323921 0)
(0.0071191550882 0.0079567057158 0)
(0.00613011964686 0.00700416749383 0)
(0.00527265861854 0.00618665091715 0)
(0.00452787074017 0.00548566009335 0)
(0.00388010156186 0.00488741289213 0)
(0.00331860082116 0.00436658552602 0)
(0.00285713923618 0.00385667789701 0)
(0.00262503648541 0.00351269836938 0)
(0.00238072820097 0.00303461001278 0)
(0.00223856881201 0.0026669285443 0)
(0.00213558307296 0.00227737529099 0)
(0.00209360549977 0.00189713385204 0)
(0.00194389507207 0.00139577598841 0)
(0.00201913804361 0.00105696606339 0)
(0.00228936325007 0.000850506561828 0)
(0.00236052047223 0.000569669509103 0)
(0.00236595097818 0.000315792928544 0)
(0.00234766499025 0.000104237896434 0)
(-0.0941149252702 0.00725324826465 0)
(-0.0994655230929 0.0234014872187 0)
(-0.0990373830362 0.039320102529 2.46827229813e-27)
(-0.0981403713671 0.0552704093905 0)
(-0.0969458039563 0.071024260039 0)
(-0.0954702105047 0.0865451510556 0)
(-0.0937278251507 0.101785524921 0)
(-0.0917347598753 0.116701511272 0)
(-0.0895087563476 0.131252626782 0)
(-0.0870687659541 0.14540211686 0)
(-0.0844345079602 0.159117118087 0)
(-0.0816260299194 0.172368745493 0)
(-0.0786632660752 0.185132093326 0)
(-0.0755656145724 0.197386149097 0)
(-0.0723515268532 0.209113623217 0)
(-0.0690381348629 0.220300694519 0)
(-0.0656409112337 0.230936676993 0)
(-0.0621733942107 0.241013614112 0)
(-0.0586469723957 0.250525814226 0)
(-0.055070761741 0.259469343817 0)
(-0.0514515616743 0.267841501578 0)
(-0.0477939140741 0.275640297795 0)
(-0.0441002359472 0.282863963867 0)
(-0.0403710366175 0.289510512975 0)
(-0.0366051763235 0.295577365708 0)
(-0.0328001726457 0.301061047079 0)
(-0.0289525120686 0.30595695195 0)
(-0.0250579846576 0.310259172755 0)
(-0.0211120127513 0.313960381935 0)
(-0.0171100078384 0.317051744743 0)
(-0.0130477537501 0.319522966171 0)
(-0.00892176536761 0.321362253591 0)
(-0.00472976655802 0.322556468623 0)
(-0.000471146815903 0.323091357382 0)
(0.00385257812206 0.322951876499 0)
(0.00823730441694 0.322122641406 0)
(0.0126759414291 0.320588509798 0)
(0.0171580872218 0.318335273303 0)
(0.021669839726 0.315350454834 0)
(0.0261937640122 0.311624151019 0)
(0.0307090470877 0.307149890358 0)
(0.0351918599977 0.301925421392 0)
(0.0396158900456 0.295953361311 0)
(0.0439530423943 0.289241640099 0)
(0.0481741896053 0.281803624134 0)
(0.0522499259159 0.273657947049 0)
(0.0561511044928 0.264827896404 0)
(0.0598490472723 0.25534051189 0)
(0.0633150499002 0.245225349549 0)
(0.0665190444962 0.234513321854 0)
(0.0694269021712 0.223236023911 0)
(0.0719967620707 0.211426518897 0)
(0.0741743712463 0.199122444012 0)
(0.0758898105435 0.186372564889 0)
(0.0770569934197 0.173246227567 0)
(0.0775800514203 0.159844481714 0)
(0.077368374367 0.14630753946 0)
(0.0763578749658 0.13281229636 0)
(0.0745285814142 0.119553395813 0)
(0.0718803747832 0.106757988991 0)
(0.0685541711023 0.0946122046335 0)
(0.0646113780636 0.0832502046926 0)
(0.0601304546043 0.0728985153782 0)
(0.0555105103219 0.0636802362717 0)
(0.0510670515077 0.0554315627652 0)
(0.0468326283963 0.0478848914068 0)
(0.0425545158607 0.0409698348532 0)
(0.0382024492314 0.0348276105841 0)
(0.0339388752591 0.0295360512155 0)
(0.0299032774963 0.0250454943745 0)
(0.0261624922837 0.0212613049825 0)
(0.0227376168216 0.0180980879525 0)
(0.019643677058 0.0154890672754 0)
(0.0169124447129 0.0133626706623 0)
(0.0145715820451 0.0116149782764 0)
(0.0125853443726 0.0101338575878 0)
(0.0108721156812 0.00885214661831 0)
(0.00937372528802 0.00774841854091 0)
(0.00806668278832 0.00681087958413 0)
(0.00694235076405 0.0060128500708 0)
(0.00596992827441 0.00532691303326 0)
(0.00512501287427 0.00473832944368 0)
(0.00439048964833 0.0042364174387 0)
(0.00375015819744 0.00377930173167 0)
(0.00329706744814 0.00337870195058 0)
(0.00303871032624 0.00302316291498 0)
(0.00280677036364 0.00262580988569 0)
(0.00259968051599 0.0022148640474 0)
(0.00252296562777 0.00187141290308 0)
(0.0024102452298 0.00147238059346 0)
(0.00241776617925 0.00116679470276 0)
(0.00231084167896 0.000789724322363 0)
(0.00240728295511 0.000574353175475 0)
(0.00257651837205 0.000423161719437 0)
(0.00255241584268 0.000234153973104 0)
(0.00253298248189 7.71774638324e-05 0)
(-0.109494975442 0.0073868601481 0)
(-0.115714342039 0.0238964949772 0)
(-0.115206027525 0.0401361652284 -2.46789322107e-27)
(-0.114147087394 0.0564099435392 0)
(-0.112737436736 0.0724751765936 0)
(-0.110997007057 0.0882932723245 0)
(-0.108943164331 0.103814227852 0)
(-0.106595531039 0.118992175108 0)
(-0.103975674961 0.133785078414 0)
(-0.101106596357 0.148155105581 0)
(-0.0980121968113 0.162068798479 0)
(-0.0947167464483 0.175497161001 0)
(-0.0912443548795 0.188415651109 0)
(-0.0876184556522 0.200804079552 0)
(-0.0838613090123 0.212646413368 0)
(-0.0799935374254 0.223930484311 0)
(-0.0760337055813 0.23464760261 0)
(-0.0719979674285 0.244792082951 0)
(-0.0678997968727 0.254360694847 0)
(-0.0637498249627 0.263352059317 0)
(-0.0595557923677 0.271766019591 0)
(-0.0553226251317 0.279603020175 0)
(-0.0510526207903 0.286863526984 0)
(-0.0467457298528 0.293547518088 0)
(-0.0423998994392 0.299654061718 0)
(-0.0380114542281 0.30518098759 0)
(-0.0335754840998 0.310124641338 0)
(-0.0290862313871 0.314479707371 0)
(-0.0245374723407 0.318239082051 0)
(-0.019922912956 0.321393762703 0)
(-0.0152366313343 0.323932878565 0)
(-0.0104734901531 0.325843591256 0)
(-0.00562972004731 0.327111223383 0)
(-0.000703479399084 0.327719460558 0)
(0.00430454770213 0.327650675616 0)
(0.00939054796048 0.326886407959 0)
(0.0145470329253 0.325408019406 0)
(0.0197623858568 0.323197503452 0)
(0.0250205731646 0.320238446104 0)
(0.0303010642664 0.316517067207 0)
(0.0355790070274 0.312023309378 0)
(0.0408256949859 0.306751850542 0)
(0.046009291943 0.300702962677 0)
(0.0510958317355 0.293883095888 0)
(0.0560503400981 0.286305067311 0)
(0.060838038759 0.277987782963 0)
(0.0654253959612 0.268955364072 0)
(0.0697807581012 0.259235640015 0)
(0.0738743004376 0.248858038193 0)
(0.0776764543465 0.237850995132 0)
(0.08115457257 0.226239800681 0)
(0.0842667112171 0.214045759295 0)
(0.0869536165296 0.201289365458 0)
(0.0891301413763 0.187998756051 0)
(0.0906807750526 0.174225216578 0)
(0.0914647853317 0.160064234742 0)
(0.0913396997934 0.145673322237 0)
(0.0902018068563 0.131271841324 0)
(0.0880281458063 0.117086301466 0)
(0.0847367492116 0.103450336594 0)
(0.0806694906085 0.0905800661075 0)
(0.0757829375718 0.0785410346294 0)
(0.0699689800901 0.0678037044802 0)
(0.0640990232327 0.0586732776934 0)
(0.0588202693411 0.0507280874792 0)
(0.0541134016268 0.0432946946743 0)
(0.0491479936411 0.0362693046851 0)
(0.0438751880788 0.0301041496633 0)
(0.038699225136 0.0249911760335 0)
(0.0338730008955 0.0208048747798 0)
(0.0294608658574 0.0173677268423 0)
(0.0254429778294 0.0145629803054 0)
(0.0218104789 0.0123379610545 0)
(0.0186261643686 0.0106373561073 0)
(0.015980411261 0.00931436580659 0)
(0.0138150299652 0.00818093242124 0)
(0.0119500587156 0.00715653838892 0)
(0.0102923683227 0.00626357294809 0)
(0.00883444056157 0.00552531259773 0)
(0.0076016006713 0.00490739735553 0)
(0.00653867983789 0.00436929612853 0)
(0.00561235994942 0.00390607154419 0)
(0.00481218232403 0.00350791382545 0)
(0.00410941766731 0.00311987542864 0)
(0.00369274772868 0.00281677800195 0)
(0.00339912626663 0.00247223009538 0)
(0.00320948238277 0.00215821994268 0)
(0.00301649394923 0.00179794306187 0)
(0.00286924039471 0.00145213196763 0)
(0.00271448771887 0.0011022008844 0)
(0.00264277579906 0.000823423852409 0)
(0.00265166937136 0.000601875803196 0)
(0.00256064112783 0.000380286875263 0)
(0.00273583062939 0.000273078134456 0)
(0.00268615439413 0.000161671119131 0)
(0.00265709438233 5.07617437456e-05 0)
(-0.125220346837 0.00754291728244 0)
(-0.132325039955 0.0244763887769 0)
(-0.131729732204 0.0410917922075 0)
(-0.1304978926 0.0577439793277 0)
(-0.128858948295 0.0741729662646 0)
(-0.126836613397 0.0903376177098 0)
(-0.124451818261 0.106185000989 0)
(-0.121728178116 0.121666870245 0)
(-0.11869159883 0.136739355884 0)
(-0.115369657452 0.15136336367 0)
(-0.11179096854 0.165504752959 0)
(-0.107984551995 0.179134422562 0)
(-0.103979206953 0.192228295016 0)
(-0.0998028976332 0.204767199398 0)
(-0.0954821552813 0.216736650307 0)
(-0.0910415098099 0.228126516368 0)
(-0.0865029678407 0.238930575536 0)
(-0.0818855653302 0.249145958678 0)
(-0.0772050225303 0.258772494676 0)
(-0.072473532766 0.267811981723 0)
(-0.0676997042137 0.276267422632 0)
(-0.0628886647065 0.284142270391 0)
(-0.058042316362 0.291439731798 0)
(-0.0531597126554 0.298162170482 0)
(-0.048237511662 0.304310632988 0)
(-0.0432704596615 0.309884501737 0)
(-0.0382518631883 0.314881254125 0)
(-0.0331740324501 0.319296296438 0)
(-0.0280286989926 0.323122838049 0)
(-0.02280743704 0.326351754365 0)
(-0.0175021456144 0.328971590592 0)
(-0.0121055105583 0.330968372193 0)