/*--------------------------------*- C++ -*----------------------------------*\
| =========                 |                                                 |
| \\      /  F ield         | OpenFOAM: The Open Source CFD Toolbox           |
|  \\    /   O peration     | Version:  v1906                                 |
|   \\  /    A nd           | Web:      www.OpenFOAM.com                      |
|    \\/     M anipulation  |                                                 |
\*---------------------------------------------------------------------------*/
FoamFile
{
    version     2.0;
    format      ascii;
    class       volScalarField;
    location    "993";
    object      p;
}
// * * * * * * * * * * * * * * * * * * * * * * * * * * * * * * * * * * * * * //

dimensions      [0 2 -2 0 0 0 0];


internalField   nonuniform List<scalar> 
9216
(
268.358306279
268.443961957
268.617821704
268.880247439
269.229818255
269.664801185
270.183073373
270.782155181
271.459270443
272.211371201
273.035202961
273.927323616
274.884169729
275.902065568
276.977287211
278.106059097
279.284614602
280.509179328
281.776028333
283.081456743
284.42183478
285.793566995
287.193146551
288.617104679
290.06206563
291.524687949
293.001721236
294.489940786
295.986207051
297.487395193
298.990457817
300.492351045
301.99010125
303.480729594
304.961322848
306.428958406
307.880779777
309.31392414
310.725602318
312.113030711
313.473514944
314.804387148
316.103091231
317.367125257
318.594124865
319.781809174
320.928057888
322.030858838
323.088375001
324.098893712
325.060883439
325.972949824
326.833888725
327.642661241
328.39845564
329.100695505
329.749118197
330.34381283
330.885293856
331.374527274
331.812949096
332.202452322
332.545357485
332.844394219
333.102654826
333.323555223
333.510768141
333.66810614
333.799338976
333.908043511
333.997471531
334.070535254
334.129829145
334.177703672
334.216258237
334.247333133
334.272456596
334.292866731
334.309525111
334.323203972
334.33452879
334.34403753
334.352160359
334.359253341
334.365609596
334.371272278
334.376117502
334.380129598
334.383329839
334.385789933
334.387599948
334.388891247
334.389784419
334.39034355
334.390635658
334.390743532
268.272726468
268.358807688
268.533299306
268.796938356
269.148156209
269.585166037
270.105798358
270.707534116
271.38755215
272.142766039
272.969877074
273.865408674
274.825757519
275.84722054
276.926040571
278.05842333
279.240576199
280.468714632
281.739094335
283.048007876
284.391811496
285.766913372
287.16979662
288.597000833
290.045142791
291.51089279
292.990994354
294.482236728
295.981474631
297.485598175
298.99155361
300.49631202
301.996891825
303.490327595
304.973695457
306.444083599
307.89862133
309.334452887
310.748770859
312.138794516
313.501807599
314.835141518
316.136216297
317.402527599
318.631688029
319.821415396
320.969570324
322.07414252
323.133280983
324.145276797
325.108585785
326.021811805
326.88372915
327.693279027
328.449607539
329.152093535
329.800416009
330.394615285
330.935168358
331.423031989
331.859649234
332.246938998
332.587244348
332.883333215
333.138341351
333.355748399
333.539347593
333.693104876
333.82094272
333.926540551
334.013185204
334.083755293
334.140805019
334.186668838
334.223471693
334.253075868
334.277013099
334.296484657
334.312399428
334.325467098
334.336282663
334.34537139
334.353156592
334.359974036
334.366079637
334.371600784
334.37638486
334.380316243
334.383498506
334.385962082
334.387751407
334.389028836
334.389925574
334.390470151
334.390743278
334.390857796
268.098108439
268.185281813
268.361518779
268.627755009
268.982377076
269.423539032
269.948995943
270.556148408
271.242089149
272.003647806
272.837441055
273.739915267
274.707392746
275.736107106
276.822241856
277.961956032
279.151413912
280.386800655
281.664343707
282.98031957
284.331068406
285.712993625
287.122571437
288.556345003
290.010930564
291.48300767
292.969323219
294.466679051
295.971935
297.481994957
298.993809908
300.5043636
302.010676597
303.509792759
304.998785466
306.474746326
307.934794832
309.376070793
310.795748566
312.191034389
313.55918575
314.897513902
316.203407616
317.474339555
318.707891773
319.901762583
321.053789282
322.161950821
323.224382894
324.239372908
325.205365887
326.120954159
326.984881465
327.796041602
328.553502077
329.256539281
329.904709892
330.497939575
331.036624919
331.521706343
331.954644689
332.337426004
332.672426885
332.962500116
333.210849331
333.421063043
333.597191763
333.743551427
333.864409884
333.963682027
334.04471122
334.110268938
334.162784632
334.204560418
334.237793194
334.264422527
334.285988564
334.303615321
334.318078501
334.329945144
334.339740941
334.347992798
334.355111788
334.361410296
334.367138567
334.372392849
334.376915272
334.380680101
334.383827466
334.386278606
334.388034129
334.389312753
334.390192597
334.390723182
334.391016125
334.391161872
267.832293319
267.920870444
268.099806146
268.37005656
268.729931236
269.177487968
269.710366514
270.325841639
271.020873785
271.792160641
272.636189628
273.549286204
274.527660434
275.567446705
276.664740593
277.815627773
279.016210338
280.262625176
281.551060844
282.877767038
284.239063978
285.631345051
287.051080752
288.494816415
289.959172467
291.440838803
292.936572703
294.443191058
295.957566999
297.47662097
298.997316976
300.516653501
302.031660448
303.539391057
305.036920713
306.521341277
307.989763343
309.439314652
310.867147335
312.27044189
313.646420486
314.992357108
316.3055966
317.583569668
318.823814952
320.023994811
321.181914848
322.295533898
323.36297385
324.382517336
325.352603323
326.271812052
327.138852412
327.952549733
328.711853094
329.415868992
330.063943565
330.65579389
331.191671508
331.672508772
332.099797873
332.475682854
332.802540215
333.083392685
333.321478229
333.520472534
333.68485981
333.819600577
333.929594603
334.01919688
334.091800679
334.149879175
334.19555181
334.231060834
334.258799676
334.280912053
334.29896775
334.313947563
334.326364476
334.336497696
334.34476143
334.351763114
334.357898511
334.36343586
334.368632299
334.37346957
334.377673858
334.381279579
334.384295622
334.386685023
334.388488986
334.389772984
334.390647923
334.391206193
334.391533148
334.391693681
267.473969621
267.564409458
267.747041195
268.022793053
268.389861132
268.846164762
269.389181889
270.016010825
270.723428178
271.507948022
272.365879859
273.293382462
274.286513324
275.341271522
276.453634951
277.619590403
278.835158414
280.09641161
281.399489046
282.74060523
284.116056554
285.522223579
286.955571999
288.412650355
289.890087421
291.384586948
292.892922796
294.411931823
295.938507701
297.4695928
299.002171448
300.533261667
302.059908918
303.579178778
305.088152325
306.58392128
308.063586899
309.524259552
310.963063137
312.377141145
313.763668342
315.119864548
316.44301389
317.7304853
318.979756602
320.188436947
321.354288716
322.475242859
323.549408034
324.575067945
325.55066815
326.474789697
327.346115273
328.163393231
328.925416734
329.631041008
330.279273015
330.869470555
331.401621409
331.876717851
332.296267104
332.662834289
332.978579496
333.246964862
333.471054249
333.654391333
333.802167096
333.920474054
334.015313665
334.091853755
334.153475203
334.201878513
334.238467438
334.265378006
334.285523653
334.301552221
334.315095119
334.326873458
334.336909305
334.344890906
334.351069934
334.356417604
334.361286661
334.365830413
334.370358728
334.374703964
334.37857205
334.381989528
334.384945268
334.387314133
334.389120384
334.390447879
334.391372241
334.391978802
334.392351511
334.392536124
267.021199546
267.114025252
267.301423453
267.584271918
267.960611688
268.428174737
268.98422265
269.625619189
270.348898334
271.150333088
272.026001245
272.971845788
273.983728624
275.057476506
276.188919245
277.373920092
278.608399253
279.888350938
281.209855235
282.569085248
283.962310807
285.385898966
286.836312443
288.310105947
289.803921383
291.314481623
292.838583733
294.373091148
295.914925693
297.461058803
299.00850287
300.554302187
302.095524535
303.629252836
305.152578117
306.662593493
308.156390681
309.631058711
311.083686617
312.511369702
313.9112211
315.280387854
316.616072625
317.915559321
319.176242482
320.395657131
321.571507191
322.701687457
323.784295931
324.817630827
325.80016969
326.730526899
327.60739175
328.42945202
329.195322086
329.903510097
330.552492066
331.140995651
331.66848656
332.13628277
332.545707345
332.900597858
333.201961239
333.454745675
333.661087884
333.823671892
333.948917584
334.044938638
334.119598085
334.179718319
334.228450144
334.265588135
334.29096413
334.306518292
334.316524112
334.3248273
334.333102262
334.34158342
334.349415468
334.354987195
334.358287763
334.361581025
334.364983549
334.368286189
334.37202623
334.375874109
334.379526697
334.382899422
334.38580093
334.388111682
334.389970064
334.391397597
334.392406913
334.393123591
334.393569523
334.393794268
266.471500862
266.567296673
266.760635619
267.052324204
267.440199866
267.921749301
268.493952936
269.153371753
269.896228945
270.718491062
271.615944035
272.584261483
273.619063797
274.715967171
275.870622802
277.07874675
278.336141654
279.638711295
280.982469461
282.36354405
283.778177675
285.222725394
286.6936505
288.187518663
289.700991053
291.230816465
292.773822894
294.326908395
295.887031608
297.4512017
299.016468065
300.579909754
302.138625069
303.689721277
305.230305142
306.75747467
308.268313045
309.759885311
311.229239088
312.673410063
314.089433493
315.474362254
316.825291984
318.139392809
319.41394652
320.646386557
321.834336996
322.975645243
324.068402018
325.110941641
326.101815471
327.039732104
327.923459827
328.751691219
329.52288147
330.235103292
330.886014286
331.473214904
331.994945607
332.453857067
332.849950266
333.191334288
333.474153074
333.709060471
333.894433886
334.030082917
334.124988734
334.191014055
334.23891111
334.279464521
334.314959508
334.34066833
334.352968784
334.353293006
334.349509736
334.348336778
334.351052609
334.356982543
334.363877533
334.367038612
334.365795669
334.366697475
334.368689553
334.370386647
334.373327262
334.376851681
334.380408985
334.383825353
334.386768059
334.389180888
334.391150285
334.39270481
334.393859651
334.394714701
334.395253434
334.395524969
265.82178225
265.921204275
266.121794202
266.424261375
266.826180287
267.324721716
267.916506342
268.597710709
269.364166822
270.211459236
271.135013951
272.130176281
273.192276006
274.316679464
275.498829131
276.73427199
278.01867825
279.347852241
280.717737093
282.124414796
283.564102825
285.033148412
286.528021159
288.045304584
289.581686904
291.133951307
292.698965776
294.273672525
295.855076984
297.440236336
299.026247481
300.610234687
302.189336943
303.760695225
305.321440103
306.868680428
308.399493946
309.910920839
311.399961632
312.863580767
314.298717541
315.702305589
317.071302095
318.402726693
319.693709252
320.941543574
322.143742508
323.298087296
324.402662516
325.4558662
326.456384069
327.403116127
328.295042184
329.131011884
329.909447082
330.627971612
331.283052457
331.870249153
332.384389098
332.83321226
333.21030481
333.538968499
333.79529321
334.012718728
334.175022482
334.275474731
334.329184353
334.35564136
334.36871159
334.38992288
334.417515146
334.434772335
334.430305209
334.405864335
334.380966158
334.368488837
334.366252871
334.371852355
334.381587866
334.382623029
334.372102758
334.370754925
334.372290394
334.371452866
334.373797578
334.377407374
334.381080572
334.38478345
334.387952424
334.390546773
334.392676697
334.39442869
334.39580485
334.396799923
334.397472917
334.39780379
265.0682701
265.172064975
265.381391868
265.69682807
266.115610558
266.634505928
267.249678042
267.95681956
268.751275179
269.628159062
270.582459718
271.609129026
272.703153963
273.859611153
275.073705714
276.340796451
277.65640998
279.016246165
280.416177232
281.852242401
283.32063964
284.817715605
286.339954638
287.883967245
289.446478441
291.024315943
292.614398337
294.213722979
295.819353598
297.428407316
299.038040937
300.645436578
302.247786601
303.84227789
305.426075983
306.996309767
308.550057736
310.084337073
311.59609731
313.082220523
314.539530334
315.964811998
317.354845494
318.706452822
320.016559056
321.282264687
322.500923579
323.670217885
324.788218021
325.853413653
326.864700872
327.821307717
328.722636865
329.567986917
330.356091498
331.084388378
331.747860971
332.338573224
332.840576808
333.280766777
333.62400135
333.951782575
334.163644047
334.400173021
334.553612714
334.603233177
334.589183219
334.542924861
334.469168993
334.424857044
334.438652476
334.469915719
334.480401553
334.448351318
334.397772339
334.375172104
334.370588116
334.381553209
334.407223543
334.406590464
334.372721765
334.372222165
334.376979643
334.370146224
334.372703147
334.377391107
334.381373664
334.385882288
334.389489178
334.39222824
334.394566011
334.396584161
334.398240541
334.399441275
334.400303574
334.400710621
264.206415197
264.315445723
264.535221907
264.866141401
265.305007858
265.848071389
266.49091712
267.228631068
268.055954325
268.967426398
269.957509505
271.020690343
272.151558226
273.344860851
274.595540265
275.898752552
277.249874824
278.644503046
280.078443579
281.54770095
283.048463492
284.577088236
286.130085686
287.704105038
289.295919851
290.90241429
292.52056962
294.147450826
295.780192901
297.415986587
299.052062983
300.685677188
302.314090548
303.934551569
305.544275851
307.140425826
308.72009132
310.280272491
311.81786727
313.329665933
314.812356033
316.262541134
317.676776882
319.051627053
320.383740759
321.66994884
322.907373562
324.093540704
325.22647832
326.304784239
327.327643295
328.294776997
329.206299885
330.062435229
330.862963538
331.606135502
332.285998481
332.8902096
333.364742386
333.812608591
334.084534759
334.51602863
334.543859228
334.45416549
334.496923668
334.549756537
334.554688889
334.5337487
334.50188927
334.474757319
334.464734511
334.464862703
334.458656688
334.441532211
334.424979142
334.4199779
334.427733466
334.453004842
334.489727169
334.473369247
334.343013619
334.362147767
334.386652228
334.362568674
334.368979902
334.377285665
334.38096028
334.387337491
334.391548189
334.394274127
334.396829698
334.399206358
334.401214851
334.402748415
334.403836268
334.404353948
263.230772954
263.346051967
263.578281982
263.927615169
264.390296822
264.961915339
265.637321913
266.410842533
267.276472779
268.228053827
269.259420036
270.36451451
271.53747267
272.772676629
274.064785026
275.408743542
276.799781447
278.233398759
279.705347936
281.211612872
282.748387297
284.312053701
285.899163577
287.506419074
289.130656165
290.768828956
292.417994899
294.075300325
295.737965886
297.403271221
299.068538239
300.731112793
302.388344246
304.03756259
305.676053556
307.301032253
308.9096165
310.498801492
312.065438376
313.606220076
315.117678684
316.596199576
318.03805782
319.439482252
320.796750766
322.106316987
323.364962503
324.56996126
325.719235276
326.811476611
327.846215334
328.823819969
329.74542785
330.612788206
331.427923778
332.192226485
332.902910786
333.553865949
333.956512139
334.54976284
334.439484628
334.462422404
334.532067183
334.527437652
334.527983128
334.544584178
334.541257355
334.522846245
334.498821206
334.477552065
334.464978685
334.458525327
334.450499196
334.439034832
334.4294136
334.426325605
334.430067523
334.439948937
334.448380998
334.433235882
334.424005747
334.460105878
334.459769573
334.328920571
334.355540074
334.37845367
334.378376233
334.389991024
334.394799388
334.396647471
334.399360118
334.402264723
334.404835418
334.406842927
334.408203076
334.408863538
262.134848769
262.257584404
262.504651693
262.8758658
263.366747712
263.97203374
264.685641112
265.500942329
266.411013118
267.408849417
268.487542124
269.64040667
270.861069304
272.143515768
273.482109748
274.871589144
276.307047454
277.783906573
279.297885627
280.844969309
282.421377633
284.02353834
285.648062194
287.291721252
288.951429601
290.62422623
292.307259287
293.997771184
295.693083625
297.390581882
299.087697119
300.781886538
302.470610267
304.151304556
305.82135137
307.478044865
309.118555678
310.739894826
312.338880038
313.912108519
315.455941782
316.966509621
318.439741902
319.871437275
321.257376985
322.59348781
323.876050161
325.101935089
326.26884027
327.37548736
328.421752634
329.40873151
330.338777851
331.215649166
332.045022295
332.836830113
333.615823449
334.507003554
334.450396494
334.477206328
334.52953176
334.512359777
334.530767683
334.530066046
334.529055752
334.532086779
334.524515244
334.507603872
334.487113346
334.468308584
334.455423955
334.447465187
334.43994741
334.43201869
334.426380755
334.425216884
334.427995636
334.432821284
334.435559629
334.429440517
334.425883523
334.433529938
334.421928423
334.419089705
334.438710725
334.409908649
334.364195439
334.395786759
334.400450243
334.398690817
334.401780646
334.405703955
334.409190298
334.411859616
334.413532861
334.41434112
260.910896999
261.042553547
261.307336851
261.704595999
262.228904366
262.873893239
263.632285309
264.496253575
265.457738919
266.508717829
267.64140783
268.848409306
270.12278931
271.458117229
272.848464185
274.288377701
275.772841873
277.297230945
278.857262058
280.448950678
282.068570697
283.712619754
285.377789766
287.060941985
288.759085932
290.46936129
292.189022019
293.915421671
295.645998983
297.37826247
299.109772719
300.838121503
302.560906505
304.275700474
305.980014964
307.671258516
309.34669014
311.00336957
312.638107267
314.247418562
315.82748878
317.374158713
318.882942873
320.349095355
321.767738741
323.134068101
324.443631225
325.69266686
326.878456124
327.999618017
329.05630117
330.050254784
330.984803942
331.86473281
332.696560423
333.493003089
334.303982071
334.458042825
334.528262629
334.508820936
334.523316716
334.518060065
334.521637169
334.517647883
334.512577459
334.507302755
334.496176973
334.479749501
334.461423585
334.444629898
334.43263479
334.425123091
334.419350169
334.414873081
334.4128943
334.414171239
334.417929856
334.422494025
334.425535432
334.424481991
334.422969401
334.42533745
334.421749919
334.421780306
334.425974679
334.430071772
334.439607219
334.432075715
334.413169509
334.397780667
334.403296873
334.409531153
334.414469502
334.418031001
334.419991901
334.420921418
259.549657615
259.692039153
259.9780706
260.406451369
260.970501931
261.662408396
262.473356055
263.394003622
264.414891603
265.52677189
266.72084575
267.988912909
269.323443314
270.717588477
272.165150339
273.660524422
275.198630727
276.774842472
278.384918971
280.024946303
281.691286878
283.380537881
285.089497416
286.81513722
288.554580462
290.305083648
292.064021378
293.828873043
295.597209995
297.366681837
299.134999729
300.899915645
302.659195531
304.410584918
306.151766558
307.880309617
309.593610606
311.288827126
312.962806889
314.612016435
316.232477093
317.819719662
319.368774693
320.874220805
322.330318168
323.73125361
325.071512545
326.346362403
327.552380219
328.687894505
329.753249687
330.750852777
331.684933553
332.561428347
333.391955831
334.22041518
334.356196598
334.439602996
334.491916838
334.49874196
334.504372042
334.500652519
334.495846803
334.48649332
334.475537124
334.463908441
334.449707631
334.433300358
334.416563538
334.402495225
334.393196965
334.387734812
334.384825176
334.384168374
334.386078612
334.390543785
334.396731979
334.403322339
334.40890147
334.412448709
334.415426905
334.419586545
334.421276532
334.422778931
334.426818197
334.431480933
334.438682263
334.4546182
334.443576073
334.376631912
334.401231036
334.414029613
334.421247069
334.425775588
334.427847
334.428742054
258.040007552
258.195374214
258.50705828
258.972844074
259.584375857
260.33193139
261.204703511
262.191431983
263.280929653
264.462485355
265.726132907
267.062796453
268.464334191
269.923507728
271.433904184
272.989834248
274.586223936
276.218511831
277.882558585
279.574571281
281.29104268
283.028703541
284.78448578
286.555493972
288.338983331
290.132342567
291.933080558
293.738815577
295.547265725
297.356238456
299.163616775
300.967340014
302.765376819
304.555687874
306.336177907
308.104635527
309.858660502
311.595578371
313.312343896
315.005436631
316.670756001
318.303528321
319.898246931
321.448677001
322.947968926
324.388933181
325.764522768
327.068527726
328.296397298
329.445912469
330.517559454
331.51446779
332.442324744
333.313523666
334.17407154
334.301472399
334.370030299
334.42850227
334.464576149
334.472769454
334.470012767
334.459293349
334.4455614
334.429411417
334.412659631
334.396315397
334.380028576
334.36414624
334.349699325
334.339214411
334.333802378
334.332003612
334.33322351
334.33721335
334.343813441
334.352624141
334.362814665
334.373324102
334.383184298
334.391853187
334.399844886
334.407684794
334.414026194
334.419687565
334.425706994
334.430464557
334.434666062
334.440027263
334.433223801
334.426732169
334.408873141
334.423399517
334.430967646
334.435965015
334.437396293
334.437795736
256.368493598
256.539726942
256.882647917
257.393737084
258.06236607
258.876266357
259.822029606
260.885955249
262.054727476
263.315901268
264.658193581
266.071604236
267.54740526
269.078041939
270.656985156
272.278566821
273.937820406
275.630339895
277.352162867
279.099678553
280.869558124
282.658703283
284.46420858
286.283333813
288.113483566
289.952192384
291.797114418
293.646016851
295.496775378
297.347369467
299.195873685
301.040442364
302.879284056
304.710622874
306.532645703
308.34343333
310.140873783
311.922556426
313.685645949
315.426737408
317.141697116
318.825500787
320.472091589
322.074298343
323.623879653
325.111788436
326.528767999
327.86635572
329.118228499
330.281250381
331.355923534
332.346643683
333.266319114
334.163594963
334.278981744
334.330577243
334.374269388
334.409758419
334.425744863
334.421938746
334.407553233
334.38715613
334.364629775
334.34176669
334.320120426
334.300675735
334.283667496
334.269402795
334.258531518
334.252865772
334.252413811
334.255650422
334.262264785
334.271981288
334.284381387
334.298864682
334.314605814
334.330687675
334.34631871
334.361021258
334.374806787
334.387713772
334.399174311
334.409419273
334.418589761
334.425880643
334.431132303
334.43433425
334.432172653
334.428930456
334.435954285
334.438411204
334.443961054
334.449620887
334.448473624
334.44762784
254.518697549
254.70953955
255.090902099
255.657382074
256.395225386
257.288728567
258.321062889
259.475415961
260.735858027
262.087914606
263.518857801
265.01776574
266.575415893
268.184078903
269.837269876
271.529498848
273.256046744
275.012779652
276.796004584
278.602363322
280.42875778
282.272298942
284.130272218
286.000113354
287.879391439
289.765797319
291.657137392
293.551332652
295.446421852
297.340565494
299.23204588
301.11925851
303.000690609
304.874882809
306.740373377
308.595622117
310.438911355
312.26821992
314.081066364
315.874317917
317.643965099
319.384867007
321.090485882
322.752652932
324.361451638
325.905370588
327.37196185
328.749264356
330.028170791
331.2039774
332.277444909
333.260453386
334.20482025
334.301056838
334.326399008
334.346139269
334.362628043
334.368553531
334.360301532
334.339479608
334.311613838
334.280743431
334.250021381
334.22139677
334.196250325
334.175444451
334.159320303
334.148028974
334.142380811
334.142930659
334.148305938
334.157688156
334.17086532
334.187432391
334.206799791
334.228247528
334.250937177
334.274004823
334.296699362
334.318486556
334.339094375
334.358312552
334.375754457
334.391335722
334.404935213
334.416152024
334.424802479
334.430941615
334.433890758
334.435349838
334.440148403
334.444633394
334.458825815
334.469196056
334.460097303
334.456953554
252.470359552
252.685766742
253.115038044
253.750005841
254.572550057
255.56228189
256.697845119
257.958454765
259.324992274
260.780653453
262.311193998
263.904864715
265.552144047
267.245368912
268.97834316
270.745976577
272.543982602
274.368644339
276.216645575
278.084956835
279.97076315
281.871420611
283.784430207
285.70742104
287.638138295
289.57443546
291.51427233
293.455721231
295.396980768
297.336393249
299.272458155
301.203834609
303.129326713
305.047847998
306.958364636
308.859815248
310.751003028
312.630453667
314.496230355
316.345696674
318.175217932
319.979793416
321.752621341
323.484623167
325.164012042
326.776114048
328.303866749
329.729681099
331.03992011
332.227775879
333.300770775
334.313795732
334.384478539
334.370297952
334.354561084
334.340741075
334.321698959
334.295318154
334.261535868
334.222066555
334.180356195
334.139476391
334.101837115
334.069061535
334.042226141
334.021967281
334.008545492
334.002002654
334.00274813
334.010035327
334.022086087
334.03861602
334.059365861
334.083780165
334.111147171
334.140663037
334.171458154
334.202665411
334.233509221
334.263366847
334.291781327
334.31837463
334.342751067
334.364658835
334.383871942
334.400124775
334.41332453
334.423631959
334.431120887
334.436794954
334.442947992
334.449899136
334.455795058
334.511437873
334.471000231
334.463405832
250.19814509
250.444825288
250.934692013
251.655445007
252.582767062
253.68980943
254.949191101
256.335062615
257.824460609
259.397988828
261.039931543
262.737960977
264.482610936
266.266666149
268.084574872
269.931947011
271.80516313
273.701094144
275.61691714
277.550006017
279.497874622
281.458151768
283.428571782
285.40696924
287.391273066
289.37950096
291.369760144
293.360261182
295.349346539
297.335527913
299.317520868
301.294263663
303.26491275
305.228811748
307.185435818
309.134311355
311.074906156
313.006479321
314.927877452
316.837260167
318.731734158
320.606867231
322.456051444
324.269686629
326.034214401
327.731181012
329.336909791
330.824076538
332.172167327
333.378776499
334.500610138
334.543845277
334.475584878
334.411116111
334.355504369
334.300015768
334.242990862
334.185017381
334.126732971
334.069442963
334.015246729
333.966134281
333.923657157
333.888859693
333.862385972
333.844570441
333.835532378
333.835190438
333.842956308
333.857082043
333.876427214
333.900802482
333.929795682
333.96272808
333.998800177
334.037141975
334.076842584
334.117002469
334.156793325
334.195498435
334.232521454
334.26735158
334.299524846
334.328679503
334.354518025
334.376797795
334.395429379
334.410525766
334.422271644
334.431186935
334.438387306
334.445125507
334.449786054
334.431225679
334.45000159
334.45826534
247.669874486
247.957125472
248.524950936
249.35474287
250.413242072
251.664607203
253.073415281
254.607394514
256.239036353
257.946209457
259.71198746
261.523962701
263.373314861
265.253852098
267.161163982
269.09195149
271.043545271
273.0135923
274.999876521
277.000236055
279.012541614
281.034706411
283.064704252
285.10058105
287.140453968
289.182503168
291.224969184
293.266173419
295.304566752
297.338798163
299.367781768
301.390740199
303.407212903
305.417029414
307.42025499
309.417115677
311.407896343
313.392796582
315.371724697
317.344007424
319.307983702
321.260431312
323.195739473
325.104710101
326.972824597
328.777871086
330.486919042
332.054941935
333.459751295
334.757433454
334.783254401
334.649804286
334.524989981
334.41695569
334.314367266
334.215898015
334.123022042
334.036589364
333.957036791
333.884991502
333.821356185
333.766966695
333.722423557
333.688070095
333.664050999
333.650386166
333.64708669
333.653584506
333.668293396
333.68925135
333.716075998
333.748483308
333.785885656
333.827513442
333.872505836
333.919942415
333.968872008
334.018353253
334.067496996
334.115496681
334.16164006
334.2053004
334.245924718
334.283056495
334.316327718
334.345464604
334.370329297
334.390935511
334.407370888
334.419789056
334.428443746
334.433358304
334.431355944
334.410404532
334.415933981
334.459213134
244.843919184
245.184982597
245.855083351
246.825753308
248.050625111
249.481246768
251.071466693
252.780959948
254.57701979
256.434901826
258.337105736
260.272035034
262.232448037
264.214010795
266.214121815
268.231058401
270.263421135
272.309819483
274.368733857
276.438493825
278.517321565
280.60339933
282.694930071
284.79017094
286.887433402
288.98505976
291.081402625
293.174847064
295.263887439
297.347247022
299.423997204
301.493636629
303.556113395
305.611796153
307.661416433
309.706004463
311.746810043
313.785183526
315.822391498
317.859344072
319.89620304
321.931801412
323.962753516
325.981997978
327.976315784
329.92179135
331.774843851
333.465158756
335.038686148
335.08058852
334.884157994
334.695815285
334.52986991
334.372248768
334.223040875
334.085709983
333.962131728
333.852761178
333.757375998
333.675570393
333.606962256
333.551175176
333.507817982
333.476501481
333.45687733
333.448724925
333.452082705
333.465217051
333.485924764
333.513402664
333.5474142
333.587461217
333.63283964
333.682736434
333.736261638
333.792468832
333.850380581
333.909019274
333.967439053
334.024751777
334.08014316
334.132878751
334.18230745
334.22787721
334.26914036
334.305763939
334.337549536
334.364438008
334.386470731
334.403762625
334.416549852
334.425282671
334.429555575
334.42473599
334.424953154
334.501154419
241.665265025
242.079603885
242.88690283
244.042865958
245.481643833
247.137041748
248.948683336
250.866349961
252.851720735
254.878074921
256.928602362
258.994009512
261.070048311
263.155407946
265.25015332
267.354704143
269.469257523
271.593534977
273.726744954
275.867673025
278.014831195
280.166614018
282.321421107
284.477719004
286.634032026
288.788878778
290.940699601
293.08786879
295.228811637
297.362213826
299.487227839
301.603605142
303.711727564
305.812557174
307.907557136
309.998645307
312.08815996
314.178791342
316.273443653
318.37501659
320.486097855
322.608520789
324.742665595
326.88622714
329.031731716
331.161969558
333.244456928
335.232957613
335.361697969
335.135127305
334.901394319
334.685724698
334.473264979
334.268337571
334.079162976
333.910520908
333.764142838
333.639742296
333.535914571
333.450853333
333.382764128
333.330034265
333.291302016
333.265488039
333.251814775
333.249904825
333.259733092
333.2787067
333.304523871
333.337732784
333.37800824
333.424652425
333.476916801
333.533995344
333.595009715
333.659021842
333.725052724
333.792104844
333.859187614
333.92534204
333.989661404
334.051307394
334.109524346
334.163657242
334.213165202