/*--------------------------------*- C++ -*----------------------------------*\
| =========                 |                                                 |
| \\      /  F ield         | OpenFOAM: The Open Source CFD Toolbox           |
|  \\    /   O peration     | Version:  v1906                                 |
|   \\  /    A nd           | Web:      www.OpenFOAM.com                      |
|    \\/     M anipulation  |                                                 |
\*---------------------------------------------------------------------------*/
FoamFile
{
    version     2.0;
    format      ascii;
    class       volVectorField;
    location    "326";
    object      Ua;
}
// * * * * * * * * * * * * * * * * * * * * * * * * * * * * * * * * * * * * * //

dimensions      [0 1 -1 0 0 0 0];


internalField   nonuniform List<vector> 
9216
(
(-0.0103683788043 0.0103782458741 0)
(-0.0109420072699 0.0334948944809 3.93268725834e-27)
(-0.0109392257271 0.056969783093 -7.08370085751e-31)
(-0.010838081381 0.0804546585403 0)
(-0.0106941172377 0.103553101371 0)
(-0.0105108652774 0.126172031256 0)
(-0.010293537758 0.148210624284 0)
(-0.0100445904961 0.169577815834 0)
(-0.00976773831319 0.190191220833 0)
(-0.00946499798665 0.209978286309 0)
(-0.00914026216135 0.228875441551 0)
(-0.00879543393656 0.246829208217 0)
(-0.00843454720708 0.263795152986 0)
(-0.00805925939441 0.279738655967 0)
(-0.00767358068554 0.294633603324 0)
(-0.00727877994789 0.308462865684 0)
(-0.00687871697901 0.321216815856 0)
(-0.00647418584453 0.332893610555 0)
(-0.00606882454717 0.343497645278 0)
(-0.00566292156605 0.353039743588 0)
(-0.00525987993861 0.361535635596 0)
(-0.00485950382459 0.369006126035 0)
(-0.00446498361421 0.375475668409 0)
(-0.00407568566461 0.380972565842 0)
(-0.00369463199103 0.385527667331 0)
(-0.00332080993181 0.389174610503 0)
(-0.00295711261542 0.391948654347 0)
(-0.00260219672496 0.393886965393 0)
(-0.00225886065425 0.395027572324 0)
(-0.00192547738323 0.395409678377 0)
(-0.00160478583408 0.395072702116 0)
(-0.00129485508148 0.394056777344 0)
(-0.00099826312858 0.392401592417 0)
(-0.000712881479939 0.390146696555 0)
(-0.000441319779633 0.38733113528 0)
(-0.000181232612848 0.38399354571 0)
(6.48581428423e-05 0.380171574086 0)
(0.00029949750395 0.375902128624 0)
(0.000520226201255 0.371220880311 0)
(0.000729756501863 0.366162487102 0)
(0.000925684091154 0.360760205897 0)
(0.00111085688425 0.355046062849 0)
(0.00128292446754 0.34905058688 0)
(0.00144484184437 0.342802926217 0)
(0.00159430584647 0.336330694955 0)
(0.0017343432103 0.329660021734 0)
(0.00186269499513 0.322815519624 0)
(0.00198242715337 0.315820271928 0)
(0.00209131623999 0.308695913727 0)
(0.00219243007215 0.301462544884 0)
(0.00228357665315 0.294138928636 0)
(0.00236779398339 0.286742339213 0)
(0.00244291420234 0.279288860367 0)
(0.00251191301033 0.271793159645 0)
(0.00257264665124 0.264268886227 0)
(0.00262800524011 0.256728379439 0)
(0.00267586882277 0.249183144512 0)
(0.00271902122721 0.241643488117 0)
(0.00275537490716 0.234119068058 0)
(0.00278759723404 0.226618463172 0)
(0.00281364238422 0.219149775608 0)
(0.00283605400474 0.211720129394 0)
(0.00285284500328 0.204336322547 0)
(0.0028664364073 0.197004262471 0)
(0.00287491578205 0.189729651142 0)
(0.00288058286046 0.182517354433 0)
(0.0028816199558 0.175372122037 0)
(0.00288021091958 0.16829790042 0)
(0.00287464880909 0.161298577111 0)
(0.00286700378658 0.154377237409 0)
(0.00285569612887 0.147536938937 0)
(0.00284268475964 0.140779922729 0)
(0.00282652753382 0.134108412577 0)
(0.00280906948372 0.127523782533 0)
(0.00278901486848 0.121027388585 0)
(0.00276809067904 0.114619702437 0)
(0.00274515032955 0.108301172229 0)
(0.00272179384025 0.102071324964 0)
(0.00269702480395 0.0959296629462 0)
(0.00267230573496 0.089874742539 0)
(0.00264678658326 0.0839051039321 0)
(0.00262177784492 0.078018328446 0)
(0.00259656940897 0.0722120077479 0)
(0.00257230087572 0.0664827880972 0)
(0.00254838542498 0.0608273822632 0)
(0.00252575546808 0.0552416206211 0)
(0.00250389288969 0.0497215367679 0)
(0.00248340199444 0.0442625130234 0)
(0.00246356800411 0.0388605980626 0)
(0.00244402181479 0.0335122023128 0)
(0.00242220340453 0.0282166984457 0)
(0.00239257104992 0.0229799602851 0)
(0.00233475089034 0.0178404678027 0)
(0.00219728714346 0.0127174262884 0)
(0.00223616496032 0.00766088054397 0)
(0.00380895459976 0.00380991597882 0)
(-0.0335647442399 0.0110376996803 0)
(-0.0371047444948 0.0373989061182 0)
(-0.0370208704526 0.0636895466136 -4.12837910251e-27)
(-0.0365229806861 0.0900154833235 0)
(-0.035831343154 0.115873817684 0)
(-0.0349717054199 0.141180891817 0)
(-0.0339597584362 0.165829791353 0)
(-0.032808556766 0.189720121393 0)
(-0.0315339567517 0.212760342414 0)
(-0.0301498580206 0.234869314975 0)
(-0.0286732247003 0.25597631526 0)
(-0.0271181126575 0.276021682539 0)
(-0.0255015541094 0.294956331992 0)
(-0.0238366940853 0.31274194418 0)
(-0.022139634128 0.329350124839 0)
(-0.0204217678629 0.344762276123 0)
(-0.0186975780839 0.358968535994 0)
(-0.0169762098317 0.371967459197 0)
(-0.0152701799843 0.383764862225 0)
(-0.0135862129156 0.394373429689 0)
(-0.011934811438 0.403811570208 0)
(-0.0103203664311 0.412103038283 0)
(-0.00875152460676 0.419275875115 0)
(-0.0072305848411 0.425362099062 0)
(-0.0057646030042 0.430396765683 0)
(-0.00435408764075 0.434417743402 0)
(-0.00300478306603 0.437464896585 0)
(-0.00171569383203 0.43957993673 0)
(-0.000491503163476 0.440805712377 0)
(0.000670035944193 0.441186111463 0)
(0.00176508311072 0.440765463381 0)
(0.00279694672119 0.439588330492 0)
(0.00376256086449 0.437699269859 0)
(0.00466612304744 0.435142847651 0)
(0.00550503341896 0.431962855851 0)
(0.00628416958422 0.428202466103 0)
(0.00700137340931 0.423903847271 0)
(0.00766208665301 0.419108182912 0)
(0.00826446585201 0.413855378124 0)
(0.00881437455388 0.408184076543 0)
(0.00931018464248 0.402131438127 0)
(0.0097580530906 0.395733154598 0)
(0.010156486658 0.3890233002 0)
(0.0105118211009 0.382034341131 0)
(0.0108226249392 0.374797056533 0)
(0.011095302182 0.367340537686 0)
(0.0113284215853 0.359692180042 0)
(0.0115283552394 0.351877670164 0)
(0.0116936150296 0.343921044705 0)
(0.0118304459788 0.335844662319 0)
(0.0119372583954 0.327669327857 0)
(0.0120200899103 0.319414247602 0)
(0.0120772132935 0.311097210698 0)
(0.0121143907658 0.302734523958 0)
(0.0121297399547 0.294341244576 0)
(0.01212870198 0.285931091483 0)
(0.012109236489 0.277516717638 0)
(0.0120764362164 0.269109592802 0)
(0.0120281216293 0.260720307184 0)
(0.0119690340465 0.252358422264 0)
(0.0118968880729 0.244032793867 0)
(0.0118160865942 0.23575138675 0)
(0.011724288149 0.227521610772 0)
(0.0116255868261 0.219350098146 0)
(0.0115176408371 0.211243044608 0)
(0.0114042705232 0.203205948318 0)
(0.0112831943829 0.195243954554 0)
(0.0111579977767 0.187361558969 0)
(0.0110265143593 0.179562953099 0)
(0.010892126663 0.171851694608 0)
(0.0107528321414 0.164231056807 0)
(0.0106118357476 0.156703671629 0)
(0.0104673337872 0.149271884212 0)
(0.0103223655802 0.141937373165 0)
(0.0101753500223 0.134701515507 0)
(0.0100291620899 0.127564990659 0)
(0.00988245242854 0.120528157736 0)
(0.00973791989004 0.113590647435 0)
(0.00959444567613 0.106751756515 0)
(0.00945453159327 0.100010032822 0)
(0.00931727641564 0.0933636882026 0)
(0.00918495287614 0.0868101793789 0)
(0.00905685350602 0.0803466431163 0)
(0.00893497570006 0.0739694778315 0)
(0.00881875665676 0.0676748025796 0)
(0.00870982919523 0.0614580461455 0)
(0.00860763973442 0.0553144345262 0)
(0.00851319181917 0.0492385937612 0)
(0.00842540985431 0.0432250247772 0)
(0.00834352477752 0.0372675807823 0)
(0.00826334086228 0.0313593842064 0)
(0.00817624054975 0.02549020485 0)
(0.00805966317627 0.0196409685107 0)
(0.00784669911048 0.0137198477718 0)
(0.00758695657117 0.00757222728254 0)
(0.0076509040377 0.00223014404046 0)
(-0.0574612840861 0.0111839856364 0)
(-0.0636171143088 0.0380125331647 0)
(-0.0634045006788 0.0646330363992 -4.13211505315e-27)
(-0.0625414581689 0.0913402185717 0)
(-0.0613707075035 0.117568790314 0)
(-0.0599257218896 0.143229688605 0)
(-0.0582273859648 0.168212262127 0)
(-0.0562973525158 0.192413767603 0)
(-0.0541601077693 0.215741063779 0)
(-0.0518402904384 0.238111756608 0)
(-0.0493643982148 0.259454485271 0)
(-0.0467577551956 0.279709256934 0)
(-0.0440467066729 0.298827212021 0)
(-0.0412553084136 0.316770480496 0)
(-0.0384080413949 0.333511564185 0)
(-0.0355262692663 0.349032874458 0)
(-0.032631475458 0.363325878746 0)
(-0.0297415048356 0.376390460403 0)
(-0.0268742968198 0.388233967598 0)
(-0.0240439051052 0.398870522681 0)
(-0.021264680127 0.40832008398 0)
(-0.0185470433333 0.416607798532 0)
(-0.0159020586816 0.423763155523 0)
(-0.0133369319855 0.42981943826 0)
(-0.0108599110356 0.434812998928 0)
(-0.00847548696147 0.438782819621 0)
(-0.00618957524944 0.441769907113 0)
(-0.00400441605689 0.443816948685 0)
(-0.00192400814178 0.444967802046 0)
(5.12781516031e-05 0.445267219643 0)
(0.0019190366164 0.444760424607 0)
(0.00368046351358 0.443492881827 0)
(0.00533441562646 0.441509923908 0)
(0.0068833407728 0.438856615827 0)
(0.00832719173919 0.435577421571 0)
(0.00966947414363 0.431716070854 0)
(0.0109109650565 0.427315311209 0)
(0.012055983365 0.422416806873 0)
(0.013105945436 0.4170609488 0)
(0.0140657862668 0.411286781942 0)
(0.0149373872072 0.405131862981 0)
(0.0157261183213 0.398632209121 0)
(0.0164341702977 0.391822204848 0)
(0.0170671826916 0.384734570924 0)
(0.0176275126656 0.37740031414 0)
(0.0181209141309 0.369848711728 0)
(0.0185497792544 0.362107306639 0)
(0.0189198316261 0.35420190782 0)
(0.0192333767033 0.346156625036 0)
(0.0194959745341 0.337993880737 0)
(0.019709737201 0.32973448542 0)
(0.0198799461091 0.321397660304 0)
(0.0200084326399 0.313001144401 0)
(0.0201001082483 0.304561221452 0)
(0.0201564641016 0.296092855998 0)
(0.0201819820559 0.287609720858 0)
(0.0201777849805 0.279124350191 0)
(0.0201478998868 0.270648158829 0)
(0.0200930884737 0.26219160737 0)
(0.0200169334701 0.253764208568 0)
(0.0199198739862 0.245374692477 0)
(0.0198050892776 0.237030992302 0)
(0.0196727612718 0.228740406321 0)
(0.0195257299857 0.220509560869 0)
(0.019364001467 0.212344561054 0)
(0.0191901524311 0.2042509275 0)
(0.0190041008677 0.196233737124 0)
(0.0188082378989 0.18829753577 0)
(0.0186024757348 0.180446466472 0)
(0.0183890882096 0.172684159362 0)
(0.0181680511017 0.165013852921 0)
(0.017941573443 0.157438266732 0)
(0.0177097438013 0.14995971693 0)
(0.0174747376491 0.142579975781 0)
(0.0172367840559 0.135300388379 0)
(0.0169980348027 0.128121725302 0)
(0.0167588647756 0.121044302568 0)
(0.016521390958 0.114067831251 0)
(0.0162861203336 0.107191546592 0)
(0.0160551066158 0.100414059169 0)
(0.0158289578376 0.0937334939967 0)
(0.0156096196447 0.0871473453325 0)
(0.0153977538862 0.0806526288452 0)
(0.0151951345972 0.0742457416494 0)
(0.0150024034898 0.0679226245629 0)
(0.0148210590445 0.0616786234758 0)
(0.0146515801779 0.0555086499554 0)
(0.014494968658 0.0494070079519 0)
(0.0143511928648 0.0433674614706 0)
(0.0142202168441 0.0373828113163 0)
(0.0141007319688 0.0314443183116 0)
(0.0139909830035 0.0255397411507 0)
(0.0138892717341 0.0196496985519 0)
(0.0137966576713 0.0137284526328 0)
(0.0137183060851 0.00779038229633 0)
(0.0126824953782 0.00218326372359 0)
(-0.0819136660075 0.0113121722021 0)
(-0.0907599822473 0.03858765855 0)
(-0.0904477333972 0.0655511356129 4.13019369552e-27)
(-0.0892013728584 0.0926222848985 0)
(-0.0875132065291 0.119198944666 0)
(-0.0854328672842 0.145187053272 0)
(-0.0829899004739 0.170471702309 0)
(-0.0802159913083 0.194947161219 0)
(-0.077145960772 0.218518277581 0)
(-0.0738160993938 0.241101396079 0)
(-0.070264077763 0.262624669998 0)
(-0.0665272357845 0.283028218137 0)
(-0.0626428069989 0.302263916206 0)
(-0.0586462672452 0.320295064837 0)
(-0.0545719087018 0.337095779808 0)
(-0.0504512806124 0.35265033725 0)
(-0.0463141196301 0.366952325843 0)
(-0.0421868823662 0.380003826801 0)
(-0.0380940059972 0.391814476861 0)
(-0.0340565049648 0.402400620001 0)
(-0.030093509331 0.411784404447 0)
(-0.0262208718748 0.419993010656 0)
(-0.0224529108117 0.427057862781 0)
(-0.0188009638842 0.433013986575 0)
(-0.0152752621837 0.437899363313 0)
(-0.0118833769616 0.441754421739 0)
(-0.00863217206952 0.444621518245 0)
(-0.00552612150639 0.446544533478 0)
(-0.00256932145623 0.44756844559 0)
(0.000236316457993 0.447739001001 0)
(0.00288899503071 0.447102352399 0)
(0.0053889427842 0.445704816296 0)
(0.00773622796882 0.443592481344 0)
(0.00993281308993 0.440811067281 0)
(0.0119803455969 0.437405663013 0)
(0.013882213172 0.433420527664 0)
(0.0156412848322 0.428898898739 0)
(0.0172620529286 0.4238828531 0)
(0.0187483264081 0.418413154542 0)
(0.0201054289427 0.412529151399 0)
(0.0213378545479 0.406268665252 0)
(0.0224515115105 0.399667919767 0)
(0.0234513507384 0.392761466906 0)
(0.0243436406009 0.385582142923 0)
(0.0251335775041 0.378161029772 0)
(0.0258275797202 0.370527437129 0)
(0.0264308927943 0.362708898104 0)
(0.0269498884494 0.354731175386 0)
(0.027389677462 0.346618289635 0)
(0.027756403895 0.338392548684 0)
(0.0280548807557 0.330074606526 0)
(0.0282908680938 0.321683511968 0)
(0.0284687455713 0.313236793488 0)
(0.0285937665501 0.304750522987 0)
(0.0286697824406 0.296239420515 0)
(0.0287014622452 0.28771692591 0)
(0.0286920804337 0.279195314893 0)
(0.0286456937096 0.270685771141 0)
(0.0285650031536 0.262198505398 0)
(0.0284534766164 0.25374281957 0)
(0.0283132919846 0.245327220044 0)
(0.028147395502 0.236959467197 0)
(0.0279575319474 0.228646676667 0)
(0.0277462263902 0.220395348986 0)
(0.0275149041752 0.212211454033 0)
(0.027265786191 0.204100438705 0)
(0.0270001017375 0.196067293574 0)
(0.0267198859068 0.188116538738 0)
(0.0264262872046 0.1802522734 0)
(0.0261212590451 0.172478142848 0)
(0.0258059654025 0.164797374859 0)
(0.0254823579765 0.157212732155 0)
(0.0251516830559 0.149726539872 0)
(0.0248159394014 0.142340628916 0)
(0.0244764911513 0.135056360246 0)
(0.0241354011605 0.127874564446 0)
(0.0237941547239 0.120795567265 0)
(0.0234548657531 0.113819130124 0)
(0.0231191170186 0.10694448149 0)
(0.0227890356406 0.100170261996 0)
(0.0224662548238 0.0934945638334 0)
(0.0221528562708 0.0869148823745 0)
(0.0218504579585 0.0804281647182 0)
(0.021561018831 0.0740307673484 0)
(0.0212860546857 0.0677185096968 0)
(0.0210272993152 0.0614866301028 0)
(0.0207860479932 0.0553298290126 0)
(0.0205636717407 0.0492421906209 0)
(0.0203611032339 0.0432171484657 0)
(0.0201792729019 0.0372472521726 0)
(0.0200189506752 0.0313239018423 0)
(0.0198816936128 0.0254366931994 0)
(0.0197714291774 0.0195730039117 0)
(0.019694505792 0.0137128688876 0)
(0.0195863606179 0.00793815860578 0)
(0.0177435847358 0.00230579988693 0)
(-0.106762786819 0.0114768697518 0)
(-0.118306798268 0.0393415313666 0)
(-0.117888715622 0.0667795103246 0)
(-0.116243917662 0.0943386298507 0)
(-0.114016957183 0.121379296301 0)
(-0.111274667674 0.147802007469 0)
(-0.108056719561 0.173486663199 0)
(-0.104405754577 0.198323611644 0)
(-0.100368125069 0.222214976483 0)
(-0.0959924336708 0.245075473763 0)
(-0.091328580292 0.266832661607 0)
(-0.0864263581757 0.287426955743 0)
(-0.0813347883392 0.306811337074 0)
(-0.076100951802 0.324950857317 0)
(-0.0707696691381 0.341821930804 0)
(-0.0653825997591 0.357411514502 0)
(-0.0599782721087 0.371716163732 0)
(-0.0545914399009 0.38474106014 0)
(-0.0492534315583 0.396498997085 0)
(-0.0439917176755 0.407009409619 0)
(-0.0388305123299 0.416297426338 0)
(-0.0337904720137 0.424393016324 0)
(-0.0288894527595 0.431330195962 0)
(-0.0241422422432 0.43714634871 0)
(-0.019561373266 0.441881607436 0)
(-0.0151568067185 0.445578336084 0)
(-0.0109367363264 0.448280653884 0)
(-0.00690718687215 0.450034031177 0)
(-0.00307279483333 0.450884903564 0)
(0.000563669267096 0.450880337105 0)
(0.00400052955018 0.450067692732 0)
(0.00723775057511 0.448494394084 0)
(0.0102760771323 0.446207502665 0)
(0.013117688015 0.443253643881 0)
(0.0157653702297 0.439678712252 0)
(0.0182231089195 0.435527673218 0)
(0.0204952804355 0.430844392752 0)
(0.0225872755499 0.425671489309 0)
(0.024504687187 0.420050198292 0)
(0.0262539594579 0.414020263345 0)
(0.0278415719288 0.407619838058 0)
(0.0292747086743 0.400885409327 0)
(0.0305604396581 0.393851733054 0)
(0.0317064029995 0.386551787354 0)
(0.032719984989 0.379016739205 0)
(0.0336090100883 0.371275925806 0)
(0.0343809224726 0.363356852749 0)
(0.0350434797149 0.355285203978 0)
(0.0356039410833 0.347084869693 0)
(0.0360697631393 0.338777983275 0)
(0.0364478013853 0.330384978244 0)
(0.0367450070731 0.321924650147 0)
(0.0369676499187 0.313414237352 0)
(0.0371220163786 0.304869502056 0)
(0.0372136605346 0.296304829577 0)
(0.037248103115 0.287733321619 0)
(0.0372301163476 0.279166904367 0)
(0.0371644219152 0.270616424297 0)
(0.0370550130136 0.26209175677 0)
(0.0369058469934 0.253601895675 0)
(0.0367202054665 0.245155052466 0)
(0.036501375906 0.23675873095 0)
(0.0362520482442 0.22841981071 0)
(0.0359749779066 0.220144601812 0)
(0.0356724160083 0.211938907204 0)
(0.035346746218 0.203808054144 0)
(0.0349999450428 0.195756935364 0)
(0.0346341848901 0.18779001814 0)
(0.0342513214468 0.179911365073 0)
(0.0338534569297 0.172124623552 0)
(0.0334424526558 0.164433031238 0)
(0.0330204477508 0.156839391394 0)
(0.0325893965649 0.149346067759 0)
(0.032151540369 0.141954951391 0)
(0.0317089707866 0.134667451666 0)
(0.0312640532389 0.127484460834 0)
(0.0308190187404 0.1204063458 0)
(0.0303763394389 0.113432915194 0)
(0.0299383518777 0.10656341693 0)
(0.0295075851984 0.099796511666 0)
(0.0290864190688 0.0931302781069 0)
(0.0286773655671 0.0865621944995 0)
(0.0282827648329 0.0800891525093 0)
(0.0279050210496 0.0737074458865 0)
(0.0275463386595 0.0674127887324 0)
(0.0272089144672 0.061200304874 0)
(0.026894721252 0.0550645412978 0)
(0.0266056698388 0.0489994376005 0)
(0.0263434768677 0.0429983154429 0)
(0.0261098786463 0.0370538124376 0)
(0.025906755264 0.0311578336567 0)
(0.0257367219264 0.0253016209889 0)
(0.0256037021928 0.0194763177177 0)
(0.0255077909534 0.0136688350588 0)
(0.0253299391695 0.00796718600918 0)
(0.0227745802635 0.00234367027471 0)
(-0.132147524601 0.0116823738405 0)
(-0.146431241574 0.0403017136061 0)
(-0.145895021624 0.0683527907453 0)
(-0.143828542528 0.0965383447379 0)
(-0.141032046149 0.124172757424 0)
(-0.137590640689 0.151150032995 0)
(-0.13355551398 0.177343774933 0)
(-0.128981543589 0.202639483969 0)
(-0.123928002939 0.22693591616 0)
(-0.118456936475 0.250145850895 0)
(-0.112631679611 0.272196239236 0)
(-0.106515347787 0.29302806756 0)
(-0.100169694305 0.312595913804 0)
(-0.0936539612421 0.330867270576 0)
(-0.0870241501454 0.347821669203 0)
(-0.0803322651719 0.363449674007 0)
(-0.0736259978434 0.377751777879 0)
(-0.0669483427486 0.390737262339 0)
(-0.0603376555002 0.402423049284 0)
(-0.0538275806354 0.412832600052 0)
(-0.0474473974845 0.421994880851 0)
(-0.04122215225 0.42994343427 0)
(-0.0351731624607 0.436715557522 0)
(-0.0293182152104 0.442351603566 0)
(-0.0236720938048 0.446894384197 0)
(-0.0182467254898 0.450388670512 0)
(-0.0130516443937 0.452880757893 0)
(-0.00809404409777 0.454418086663 0)
(-0.00337916854449 0.455048891149 0)
(0.0010897092368 0.454821878397 0)
(0.00531093449894 0.453785908995 0)
(0.00928455943937 0.451989791795 0)
(0.0130118729581 0.449481791169 0)
(0.0164956229284 0.446309672894 0)
(0.0197395997736 0.442520327674 0)
(0.0227487325832 0.438159604101 0)
(0.0255287478067 0.43327214546 0)
(0.0280862756794 0.427901245568 0)
(0.0304285194766 0.422088721679 0)
(0.03256338087 0.415874809148 0)
(0.0344991377559 0.409298069631 0)
(0.0362445840308 0.402395317598 0)
(0.0378087127894 0.395201559176 0)
(0.0392008646224 0.387749947387 0)
(0.0404304134429 0.380071750666 0)
(0.041506920024 0.372196337052 0)
(0.0424398206969 0.364151172933 0)
(0.0432385845197 0.355961836604 0)
(0.0439124073415 0.347652047916 0)
(0.0444703744513 0.339243711494 0)
(0.0449211653746 0.330756976262 0)
(0.0452732248775 0.322210305841 0)
(0.0455344846834 0.313620564198 0)
(0.0457125472354 0.30500310823 0)
(0.045814430708 0.29637189258 0)
(0.0458467681118 0.287739575885 0)
(0.0458155796493 0.279117635159 0)
(0.0457264883318 0.2705164757 0)
(0.0455845212049 0.261945544258 0)
(0.0453943388647 0.253413431785 0)
(0.0451600634467 0.244927975109 0)
(0.0448855174401 0.23649634351 0)
(0.0445740740044 0.228125120854 0)
(0.0442288976464 0.219820369372 0)
(0.0438528103732 0.211587687403 0)
(0.0434485266823 0.203432247676 0)
(0.0430185289995 0.195358829647 0)
(0.0425652890569 0.187371832943 0)
(0.0420911465549 0.179475286652 0)
(0.0415985111436 0.171672841949 0)
(0.0410897402732 0.163967763529 0)
(0.0405673174443 0.156362907314 0)
(0.0400337271345 0.148860700532 0)
(0.0394916079239 0.141463111454 0)
(0.0389436247679 0.134171625082 0)
(0.0383925970318 0.126987211421 0)
(0.0378413698591 0.119910302798 0)
(0.0372929191288 0.11294076614 0)
(0.0367502249105 0.106077886733 0)
(0.0362163555945 0.0993203482713 0)
(0.0356943467253 0.0926662256935 0)
(0.0351872672745 0.0861129747488 0)
(0.0346981074435 0.0796574344447 0)
(0.0342298299407 0.0732958254512 0)
(0.0337852711325 0.0670237596231 0)
(0.0333671829206 0.0608362435056 0)
(0.0329781569087 0.0547276913733 0)
(0.0326206734041 0.0486919311509 0)
(0.03229707917 0.0427222217705 0)
(0.0320096984441 0.036811277575 0)
(0.0317609460878 0.0309514015248 0)
(0.031553562443 0.0251346558932 0)
(0.0313904388334 0.019353336984 0)
(0.0312665176097 0.0135952741902 0)
(0.0310248016851 0.00794440475484 0)
(0.027840775719 0.00234848801841 0)
(-0.158200665379 0.0119338443906 0)
(-0.175284773125 0.0414859319757 0)
(-0.17461316134 0.0702952865797 4.1536899228e-27)
(-0.172093823305 0.0992543016741 0)
(-0.168687400999 0.127620062364 0)
(-0.16449872264 0.155278548455 0)
(-0.159592097947 0.182095707386 0)
(-0.154036289263 0.207951218076 0)
(-0.147905175762 0.232739876602 0)
(-0.14127577088 0.256372315985 0)
(-0.134226292351 0.278775009356 0)
(-0.126834377173 0.299889940946 0)
(-0.11917559277 0.319673952721 0)
(-0.111322142192 0.338097837943 0)
(-0.103341892592 0.355145241442 0)
(-0.095297590158 0.370811425638 0)
(-0.0872463954355 0.385101953689 0)
(-0.0792395779587 0.398031343762 0)
(-0.0713225091469 0.40962174181 0)
(-0.0635347633179 0.419901662958 0)
(-0.0559104634525 0.428904838717 0)
(-0.0484786492829 0.436669204788 0)
(-0.0412638043507 0.443236041407 0)
(-0.0342863002939 0.44864927063 0)
(-0.027562915518 0.452954889045 0)
(-0.0211071934601 0.45620051306 0)
(-0.0149298394709 0.458434998243 0)
(-0.00903894084853 0.459708107203 0)
(-0.00344024730785 0.460070197486 0)
(0.00186269961867 0.459571923022 0)
(0.00686833491247 0.458263929016 0)
(0.0115770205523 0.456196685399 0)
(0.0159906442925 0.453419884845 0)
(0.0201127386686 0.449982660779 0)
(0.023948143617 0.445933087551 0)
(0.027502938362 0.441318066065 0)
(0.0307842290829 0.436183162796 0)
(0.0338000789033 0.430572472448 0)
(0.0365593148911 0.424528501197 0)
(0.039071478314 0.418092066754 0)
(0.0413466471907 0.411302214316 0)
(0.0433954001829 0.404196145495 0)
(0.0452286480081 0.396809162346 0)
(0.0468576042546 0.389174623416 0)
(0.0482936209378 0.381323915421 0)
(0.0495481624347 0.373286437695 0)
(0.050632643672 0.365089603784 0)
(0.0515584070015 0.356758856983 0)
(0.0523365653205 0.348317703513 0)
(0.0529779851926 0.339787760392 0)
(0.0534931401543 0.331188820536 0)
(0.053892105986 0.322538931778 0)
(0.0541844314892 0.313854490205 0)
(0.0543791526829 0.305150344671 0)
(0.0544846879191 0.296439911212 0)
(0.0545088763994 0.287735293861 0)
(0.0544589022964 0.279047409036 0)
(0.0543413598237 0.270386110418 0)
(0.0541622071051 0.261760311234 0)
(0.0539268559416 0.25317810085 0)
(0.0536401522178 0.244646852907 0)
(0.0533064847468 0.236173322612 0)
(0.0529297854803 0.227763731838 0)
(0.0525136490096 0.219423839836 0)
(0.0520613439181 0.21115899977 0)
(0.0515759334029 0.202974199587 0)
(0.0510602886189 0.194874089417 0)
(0.0505172012734 0.186862994003 0)
(0.049949391072 0.178944913952 0)
(0.0493596030816 0.171123514517 0)
(0.0487506036542 0.163402107226 0)
(0.0481252580175 0.155783622408 0)
(0.0474865120157 0.148270578834 0)
(0.0468374484433 0.140865048017 0)
(0.0461812546779 0.133568620023 0)
(0.0455212587412 0.12638236722 0)
(0.0448608850812 0.119306812899 0)
(0.0442036732261 0.112341900519 0)
(0.0435532252562 0.105486970364 0)
(0.0429132107441 0.0987407384558 0)
(0.0422873100183 0.0921012839378 0)
(0.0416792095714 0.0855660396043 0)
(0.0410925455079 0.0791317907242 0)
(0.0405308939117 0.0727946771117 0)
(0.0399977197306 0.0665502019451 0)
(0.039496368692 0.0603932442007 0)
(0.0390300305627 0.0543180791744 0)
(0.0386017452622 0.0483184015569 0)
(0.0382143997446 0.0423873769575 0)
(0.037870770265 0.036517712704 0)
(0.0375735683966 0.0307017593814 0)
(0.0373254808972 0.0249317531599 0)
(0.0371285881091 0.0192001416625 0)
(0.0369744388805 0.0134939112966 0)
(0.036674446867 0.00789198592773 0)
(0.0328901496112 0.00234025295257 0)
(-0.185067101332 0.0122354488594 0)
(-0.205027683917 0.042913845768 0)
(-0.204198822381 0.072636941927 -4.15147625077e-27)
(-0.201186977359 0.10252700389 0)
(-0.19711944509 0.131771001142 0)
(-0.192122833077 0.160245009088 0)
(-0.186276638641 0.187805770265 0)
(-0.179665633328 0.2143261183 0)
(-0.172380399219 0.239696364117 0)
(-0.164514858186 0.263824921727 0)
(-0.15616387048 0.286638100032 0)
(-0.147421097382 0.308079517704 0)
(-0.138377196459 0.328109170337 0)
(-0.129118325068 0.346702237423 0)
(-0.119724983659 0.363847697429 0)
(-0.110271151447 0.379546815419 0)
(-0.100823746307 0.393811558733 0)
(-0.0914423511566 0.406662998922 0)
(-0.0821792359347 0.418129756415 0)
(-0.0730795954185 0.428246545915 0)
(-0.0641820120941 0.437052874032 0)
(-0.0555190314459 0.444591928878 0)
(-0.0471178383987 0.450909681651 0)
(-0.0390009070923 0.456054195837 0)
(-0.0311866241002 0.460075116138 0)
(-0.0236897841528 0.463023290669 0)
(-0.016522007305 0.464950474145 0)
(-0.00969202429698 0.465909064997 0)
(-0.00320592160404 0.465951844944 0)
(0.00293268965308 0.46513170381 0)
(0.00872246394049 0.463501349585 0)
(0.0141642709259 0.461113184826 0)
(0.019260739415 0.458018559399 0)
(0.0240163605212 0.454268188852 0)
(0.0284371541537 0.449911515834 0)
(0.0325305225506 0.444996654887 0)
(0.0363050610628 0.439570232464 0)
(0.0397704191047 0.433677262519 0)
(0.0429371375253 0.427361039665 0)
(0.0458165352553 0.420663049478 0)
(0.0484205666978 0.413622890276 0)
(0.0507617242869 0.406278208575 0)
(0.0528529055238 0.398664644792 0)
(0.054707322123 0.390815792697 0)
(0.0563383696082 0.382763170994 0)
(0.0577595384268 0.374536210205 0)
(0.0589842841163 0.366162254303 0)
(0.0600259402724 0.357666579271 0)
(0.060897591885 0.349072428929 0)
(0.0616119947217 0.340401068411 0)
(0.062181458811 0.331671855775 0)
(0.0626177820763 0.322902329934 0)
(0.0629321533505 0.314108315164 0)
(0.0631351095572 0.305304038089 0)
(0.0632364675056 0.296502256738 0)
(0.0632453119595 0.287714395862 0)
(0.0631699621217 0.278950687794 0)
(0.063017993968 0.270220312156 0)
(0.0627962424246 0.261531533651 0)
(0.0625108558744 0.252891831399 0)
(0.0621673295226 0.244308019623 0)
(0.0617705853087 0.235786354067 0)
(0.0613250277129 0.227332624731 0)
(0.0608346386368 0.218952230832 0)
(0.0603030442404 0.210650239613 0)
(0.0597336131087 0.202431426654 0)
(0.0591295224312 0.194300300139 0)
(0.0584938482224 0.186261108435 0)
(0.0578296206716 0.178317834118 0)
(0.0571398978108 0.170474175106 0)
(0.0564278030498 0.162733516292 0)
(0.0556965770494 0.155098893101 0)
(0.0549495941487 0.147572950286 0)
(0.0541903911582 0.14015789759 0)
(0.0534226630238 0.132855465141 0)
(0.052650270281 0.125666859902 0)
(0.0518772169159 0.118592725565 0)
(0.0511076404876 0.111633106548 0)
(0.0503457767612 0.104787418023 0)
(0.0495959373522 0.0980544217782 0)
(0.0488624662891 0.0914322095145 0)
(0.0481497104495 0.0849181926097 0)
(0.0474619734433 0.0785090995156 0)
(0.0468034841309 0.0722009796149 0)
(0.0461783535941 0.0659892142787 0)
(0.045590547947 0.0598685347617 0)
(0.0450438556546 0.0538330494281 0)
(0.0445418725796 0.0478762833077 0)
(0.0440879875329 0.041991231701 0)
(0.0436853850185 0.036170435486 0)
(0.0433370382649 0.0304061428591 0)
(0.0430456410864 0.0246903967275 0)
(0.0428128789062 0.0190151104717 0)
(0.0426280748408 0.013366451346 0)
(0.0422733606478 0.00781897693505 0)
(0.0379025331579 0.00232486483755 0)
(-0.212905512169 0.0125917671785 0)
(-0.235833569868 0.0446092557573 0)
(-0.234820084775 0.0754151160228 0)
(-0.231266263311 0.106407139285 0)
(-0.226473918458 0.136687664116 0)
(-0.22059422366 0.166120722666 0)
(-0.213724562249 0.194552135297 0)
(-0.205968434166 0.221846865429 0)
(-0.197435743786 0.247890329136 0)
(-0.188239719621 0.272588847126 0)
(-0.178493990538 0.295869128395 0)
(-0.168310049033 0.31767733593 0)
(-0.157795136141 0.337977794086 0)
(-0.147050529528 0.35675143568 0)
(-0.136170225689 0.37399407102 0)
(-0.125239989316 0.389714537569 0)
(-0.114336768381 0.403932792057 0)
(-0.10352845354 0.416678001901 0)
(-0.092873978316 0.427986705563 0)
(-0.0824237171957 0.437901112004 0)
(-0.0722201433875 0.446467609438 0)
(-0.0622986556441 0.453735538776 0)
(-0.0526884944242 0.459756258898 0)
(-0.0434136306472 0.464582496801 0)
(-0.0344935571201 0.468267934171 0)
(-0.0259439094605 0.47086695867 0)
(-0.0177769222803 0.47243449366 0)
(-0.0100017269105 0.473025838254 0)
(-0.00262456114967 0.472696471578 0)
(0.00435107953403 0.471501788033 0)
(0.0109242672904 0.469496909974 0)
(0.0170964937641 0.466736245802 0)
(0.0228713757884 0.463273224498 0)
(0.0282545394664 0.459160284481 0)
(0.0332533572833 0.454448423213 0)
(0.0378767340185 0.449187117053 0)
(0.0421349029098 0.443424178865 0)
(0.046039252804 0.437205647996 0)
(0.0496021624016 0.430575699264 0)
(0.0528368608079 0.423576563094 0)
(0.0557572878356 0.416248457367 0)
(0.0583779717021 0.408629526031 0)
(0.0607138996026 0.400755789703 0)
(0.0627803996636 0.392661104303 0)
(0.0645930124609 0.384377134683 0)
(0.066167371438 0.375933339682 0)
(0.0675190726045 0.367356975546 0)
(0.0686635538006 0.358673114671 0)
(0.0696159657057 0.349904685176 0)
(0.0703910560185 0.341072528944 0)