/*--------------------------------*- C++ -*----------------------------------*\
| =========                 |                                                 |
| \\      /  F ield         | OpenFOAM: The Open Source CFD Toolbox           |
|  \\    /   O peration     | Version:  v1906                                 |
|   \\  /    A nd           | Web:      www.OpenFOAM.com                      |
|    \\/     M anipulation  |                                                 |
\*---------------------------------------------------------------------------*/
FoamFile
{
    version     2.0;
    format      ascii;
    class       volScalarField;
    location    "179";
    object      p;
}
// * * * * * * * * * * * * * * * * * * * * * * * * * * * * * * * * * * * * * //

dimensions      [0 2 -2 0 0 0 0];


internalField   nonuniform List<scalar> 
9216
(
275.342350371
275.425650813
275.604565163
275.871607549
276.22659804
276.667761514
277.192803529
277.798993293
278.483253286
279.242209875
280.072254483
280.969592084
281.930285237
282.950306286
284.025558958
285.151936665
286.325316585
287.541627473
288.796813076
290.086913754
291.407997578
292.756260275
294.127923468
295.519356941
296.926944057
298.34722954
299.776752759
301.212223118
302.6503223
304.087908294
305.521788649
306.948953361
308.366321479
309.771001832
311.16001702
312.530589995
313.87984992
315.205141773
316.503719577
317.773074931
319.010623515
320.214047457
321.380981347
322.509361985
323.597119637
324.642527806
325.643904643
326.599954196
327.509481054
328.371713706
329.186033115
329.952268172
330.670436286
331.34100213
331.964627638
332.542389263
333.07553665
333.565670451
334.014512388
334.424051637
334.79633065
335.133570529
335.437976085
335.711849409
335.957415599
336.176931024
336.372529205
336.546327045
336.700288822
336.836331378
336.956203862
337.061591625
337.154009405
337.234903073
337.305554111
337.367177899
337.420837555
337.467537526
337.508145378
337.543480189
337.574242577
337.60110079
337.624698603
337.645051938
337.66182788
337.675431861
337.686456957
337.69515897
337.701692675
337.706409919
337.709662577
337.711843698
337.713288077
337.714162206
337.71460319
337.714758769
275.259098235
275.342879665
275.519868546
275.787627149
276.144218588
276.587551283
277.115184811
277.724308873
278.411783411
279.174182776
280.007849275
280.908942518
281.873485519
282.897411584
283.976596383
285.106900996
286.284186967
287.504356536
288.763349826
290.057184649
291.381936294
292.733779775
294.108953278
295.503805625
296.914744662
298.338292209
299.771018658
301.209607129
302.650775609
304.091351556
305.528182925
306.958223743
308.378436032
309.785886784
311.177642651
312.550878286
313.902766372
315.230596895
316.531665251
317.803401481
319.043259213
320.248853252
321.41785187
322.54812027
323.637618153
324.684545685
325.687247307
326.64435571
327.554701327
328.417448477
329.232007802
329.998157247
330.715952603
331.385825806
332.00848874
332.585004409
333.116682667
333.605126091
334.052121609
334.459668673
334.829873601
335.164969208
335.467217738
335.738929388
335.982377404
336.199820143
336.393429377
336.565317513
336.717478087
336.851817774
336.970107369
337.074017609
337.165078878
337.244719481
337.314232181
337.374813311
337.427534331
337.473380234
337.513224507
337.547865236
337.578001112
337.604259506
337.627172532
337.647073156
337.663666474
337.676980528
337.687656068
337.696004504
337.70236593
337.706984113
337.710097123
337.712174029
337.713576014
337.714388031
337.714775366
337.714934304
275.079277731
275.166916541
275.345860361
275.616429229
275.976736779
276.424648876
276.957628026
277.572760667
278.266801624
279.036223744
279.877271721
280.786013888
281.758390601
282.79025988
283.877434374
285.01571818
286.200930474
287.428933788
288.695644733
289.997055625
291.329233841
292.688339251
294.070614137
295.472398798
296.890113824
298.320275883
299.759473893
301.204386519
302.651753557
304.098396356
305.541185619
306.97706562
308.403019802
309.816099652
311.213389516
312.592040886
313.949238047
315.282238496
316.588341126
317.864933126
319.109462206
320.319489943
321.492669151
322.626802881
323.719827328
324.769874957
325.775262432
326.734555201
327.646558504
328.510379142
329.325415339
330.091409015
330.808427597
331.476898638
332.097576537
332.671553946
333.200211207
333.685206449
334.128413194
334.531898015
334.897855655
335.228583967
335.52642412
335.793739729
336.032866898
336.246101415
336.435660263
336.603677367
336.752175426
336.883068877
336.998144264
337.09906911
337.187379204
337.264491864
337.331698237
337.390179071
337.441000183
337.485129064
337.523431877
337.55668915
337.585592025
337.610752203
337.632707291
337.651750042
337.667517082
337.680130611
337.689988067
337.697684619
337.703726222
337.708070558
337.710906418
337.712849988
337.714112814
337.714825055
337.715202578
337.715394594
274.80835538
274.898209191
275.080274526
275.35533925
275.721492799
276.176520302
276.717756169
277.342139942
278.046271687
278.826469825
279.678829893
280.599280298
281.583634105
282.627635519
283.726999539
284.877446564
286.074728811
287.314653607
288.5930979
289.90602246
291.249476818
292.61960705
294.012653576
295.424954978
296.852940736
298.293133032
299.742136027
301.196637099
302.653393934
304.109236317
305.561052105
307.00579051
308.440448081
309.86207447
311.267759631
312.65464317
314.01990415
315.360775178
316.674536255
317.958534556
319.210183561
320.426989124
321.606554616
322.746613192
323.845039
324.899884837
325.909398678
326.872064947
327.786624357
328.652115221
329.467891903
330.233659125
330.949480234
331.61579405
332.233402732
332.803463067
333.327450353
333.80712615
334.244485907
334.641715265
335.001134329
335.325154231
335.616226822
335.876808702
336.109321665
336.316128046
336.499503449
336.661622907
336.804543712
336.930199771
337.040392306
337.136790948
337.220930962
337.294219458
337.357937032
337.41324692
337.461199066
337.502740492
337.538720342
337.569900215
337.596958746
337.620502151
337.641089946
337.658735335
337.673154069
337.684600279
337.69345902
337.700427222
337.705745845
337.709580716
337.712190555
337.713915832
337.714998118
337.715628796
337.715978729
337.716154113
274.443450581
274.535634624
274.721936262
275.003198845
275.377407477
275.842206111
276.394748882
277.031773049
277.749666182
278.544534361
279.412268244
280.348604963
281.349183884
282.409595675
283.52542339
284.69227672
285.905818312
287.161784651
288.456000013
289.784386998
291.142971296
292.527885091
293.935365592
295.361753981
296.803490006
298.257108438
299.719231343
301.186563397
302.655882967
304.124037308
305.58793337
307.044533714
308.490848021
309.923930712
311.340874334
312.738810109
314.114904581
315.466364531
316.790438408
318.084426929
319.345690636
320.571667121
321.759885464
322.907990403
324.013763716
325.075154958
326.090309274
327.057603685
327.975679865
328.843483353
329.660296693
330.425773998
331.139963279
331.803321965
332.416713105
332.981389176
333.498955834
333.971326379
334.400664428
334.789327207
335.139806007
335.454672897
335.736528655
335.987960148
336.211501775
336.409607654
336.584628045
336.7387943
336.874205944
336.992823795
337.096464577
337.186801128
337.265363809
337.333546293
337.392611192
337.443698666
337.487833989
337.525937259
337.558831764
337.587253989
337.611861675
337.633248662
337.651957337
337.667691715
337.680360939
337.690300007
337.697948482
337.703950824
337.708576141
337.711852675
337.714000127
337.715404903
337.716320322
337.716846923
337.717136242
337.717284974
273.982225835
274.077183944
274.268896536
274.558153564
274.942766448
275.420169249
275.987269312
276.640533745
277.376070041
278.189706108
279.077066324
280.033640753
281.054846371
282.136078912
283.272755538
284.460348393
285.694410003
286.970591417
288.284654125
289.632477046
291.010059197
292.413519503
293.83909373
295.283130148
296.742083182
298.212506904
299.691046964
301.174433107
302.659470337
304.143031301
305.622047371
307.093501564
308.554420384
310.001868188
311.432940901
312.844763192
314.234485561
315.599286006
316.936372236
318.242989485
319.516429504
320.754045802
321.953270359
323.111636829
324.226805199
325.296592843
326.319007034
327.292283715
328.214927698
329.085758034
329.903952541
330.669092047
331.381195245
332.040741297
332.648671124
333.20636759
333.715612342
334.178525682
334.597496535
334.975111695
335.314087919
335.617208901
335.887268134
336.127020144
336.339140969
336.526199325
336.690636191
336.834751491
336.960694517
337.070457784
337.165873985
337.248617304
337.320208133
337.382020623
337.43529144
337.481129631
337.520526627
337.554366813
337.583438122
337.608443372
337.630011829
337.648740187
337.664953115
337.678270419
337.688882071
337.697109218
337.703525333
337.708525997
337.712229545
337.714677995
337.716373192
337.717424041
337.718068767
337.718517727
337.71874751
337.718867437
273.421815237
273.520155508
273.718584754
274.017800802
274.415376107
274.908460648
275.493635987
276.167018467
276.924355893
277.761122626
278.672607607
279.653993029
280.700421442
281.807051139
282.969099498
284.181875737
285.440803772
286.741437235
288.079467581
289.450727279
290.851188721
292.276960496
293.724281284
295.189512583
296.669130162
298.159715172
299.65794459
301.160581695
302.664466145
304.166504378
305.663659777
307.152943351
308.631404609
310.096123368
311.544202429
312.972761913
314.378935429
315.759868941
317.112722525
318.434675879
319.722937747
320.974759741
322.187454665
323.358419326
324.485161987
325.565334222
326.596767801
327.577516481
328.505904125
329.380578441
330.200570002
330.965351803
331.67489236
332.329691067
332.930786896
333.479735156
333.978552064
334.429633636
334.835663597
335.199526319
335.524226587
335.812817062
336.068332356
336.293734391
336.491869821
336.665442811
336.816998636
336.948915473
337.063398342
337.162474497
337.247991318
337.32161991
337.384863288
337.43906752
337.485433489
337.5250292
337.558801628
337.587588836
337.612131848
337.633087217
337.651039092
337.666552376
337.679744551
337.690344194
337.698702285
337.705128729
337.710125314
337.713839793
337.716433762
337.718157322
337.719347464
337.720048469
337.72037615
337.720654307
337.720794221
337.720864837
272.758707621
272.861155011
273.067776516
273.379145599
273.792523746
274.304690297
274.911806751
275.609541868
276.393189758
277.257783502
278.198198503
279.209241856
280.285726531
281.422529614
282.614635988
283.857168575
285.145407632
286.474800786
287.840966275
289.239690813
290.66692393
292.118769723
293.59147713
295.081429235
296.585132106
298.099203434
299.620361084
301.145411724
302.671239313
304.194793893
305.713080099
307.223146078
308.72207236
310.20696162
311.674928905
313.123093736
314.548573644
315.948480951
317.319922207
318.660002445
319.965833166
321.234546209
322.463311887
323.649363233
324.790024332
325.88274465
326.925137823
327.915027975
328.850503807
329.729983961
330.552293031
331.316745457
332.023225238
332.672244767
333.264963841
333.803164415
334.289176149
334.725759397
335.115979585
335.463098294
335.770481704
336.041516451
336.279533514
336.48774396
336.66919355
336.826738313
336.963037073
337.080552006
337.181548355
337.268089631
337.342034743
337.405043731
337.458591635
337.503984575
337.542375673
337.574779799
337.602087552
337.625078534
337.644434451
337.660752011
337.674555614
337.686341928
337.696097066
337.703760487
337.709636602
337.714078363
337.717411649
337.719792376
337.721334469
337.72235152
337.722859877
337.723156234
337.723226941
337.723210873
337.723237035
337.723239374
271.98863303
272.096032134
272.312534612
272.638549546
273.070938023
273.606002989
274.239369938
274.966142596
275.781048613
276.678577311
277.653101254
278.698978576
279.810634009
280.982619732
282.209657272
283.486663818
284.80876533
286.171300085
287.569814772
289.000055959
290.45795827
291.939631033
293.441343998
294.959513002
296.49068572
298.03152783
299.578809506
301.129392204
302.680215597
304.228284605
305.770656386
307.304427047
308.826718612
310.33466593
311.82540449
313.296059117
314.743734847
316.165510217
317.558434571
318.919529535
320.245796194
321.534227712
322.781828488
323.985638651
325.142764554
326.250413616
327.3059355
328.306869488
329.251004263
330.136453584
330.961754727
331.725986339
332.428892775
333.07098111
333.653557387
334.178704046
334.649174654
335.068216078
335.439382272
335.766405971
336.053098635
336.303257451
336.520572801
336.70855065
336.870460657
337.009319855
337.12790093
337.22875064
337.314197793
337.386344362
337.447055327
337.497966976
337.540510439
337.575936425
337.605335287
337.629654922
337.649716088
337.666226915
337.679796804
337.690950459
337.700145351
337.707787216
337.713838614
337.718329417
337.721539276
337.723851972
337.725390188
337.726325851
337.726793282
337.726970272
337.726903372
337.72666024
337.726411025
337.726105745
337.725989823
337.725913943
271.106443018
271.219780599
271.448124737
271.791662406
272.246740316
272.809050416
273.473537235
274.234594232
275.08624648
276.022318397
277.036577957
278.122852927
279.275118932
280.487560537
281.754609361
283.0709629
284.431589064
285.831720014
287.266839316
288.732664776
290.225129464
291.740361994
293.274667305
294.824508136
296.386487654
297.957333046
299.53388002
301.113057936
302.69187514
304.267404596
305.836769017
307.39712573
308.945650963
310.479524149
311.995912058
313.491954149
314.96474909
316.411344665
317.828730928
319.213839351
320.563547388
321.87469105
323.14408376
324.368543015
325.544921563
326.670144273
327.741247562
328.755426028
329.710090934
330.602954014
331.432149465
332.196402388
332.895225007
333.52908391
334.099456942
334.608828872
335.060547994
335.45851961
335.806918729
336.110051716
336.372271503
336.597875926
336.790992261
336.955470844
337.094824499
337.212224603
337.310542353
337.392400974
337.460198644
337.516083636
337.561920041
337.599298851
337.629583688
337.653949121
337.673405161
337.688816934
337.700920942
337.710339648
337.717595871
337.723126869
337.72730027
337.730423759
337.73252069
337.73369649
337.734233766
337.734330838
337.733998749
337.733383375
337.732643282
337.731878103
337.731208274
337.730519772
337.729838223
337.729263121
337.728953763
337.728799708
270.105964811
270.22640872
270.468903746
270.833335591
271.315385757
271.909961331
272.611140739
273.412425986
274.306973177
275.287798671
276.34794948
277.480634936
278.679319548
279.937781688
281.250143126
282.61087666
284.014797402
285.457043964
286.933053353
288.438533521
289.969435379
291.521926117
293.092364226
294.677276816
296.273338945
297.877354887
299.486240848
301.097008674
302.706750037
304.312620658
305.91182412
307.501594394
309.079177843
310.641813864
312.18671543
313.711049407
315.211918608
316.68634605
318.1312639
319.543508015
320.919820483
322.256860552
323.551225092
324.799476829
325.998179365
327.143933714
328.233416195
329.263415014
330.23087872
331.132993324
331.967326761
332.732063326
333.426327498
334.050486503
334.606198257
335.096502557
335.525618653
335.898377606
336.219720039
336.494626167
336.7280919
336.925031048
337.090106844
337.227574699
337.341195652
337.434260437
337.509692105
337.57016761
337.618172263
337.655928111
337.685290872
337.707766962
337.724614063
337.736905488
337.745550657
337.751315495
337.754837329
337.756638632
337.757141282
337.756680625
337.755515378
337.753868222
337.751855168
337.749624506
337.747372708
337.745120718
337.742884524
337.740777624
337.738858534
337.737141925
337.735678427
337.73447248
337.73344328
337.732571636
337.732024479
337.731789345
268.979815478
269.108767431
269.368176352
269.757513057
270.271593604
270.904310782
271.648638222
272.496957411
273.441351575
274.473859016
275.586674374
276.772294637
278.023613821
279.333973018
280.697175708
282.10747735
283.55955856
285.048488598
286.56968518
288.118873932
289.692050332
291.285444921
292.895492564
294.518805379
296.152149189
297.792422735
299.436639071
301.081908454
302.725421731
304.364433873
305.996246423
307.618188364
309.227595091
310.821785701
312.398038414
313.953565714
315.48548955
316.990819455
318.466434411
319.909072511
321.315328948
322.681666483
324.004436705
325.279914322
326.504335964
327.673942432
328.785009198
329.83386781
330.816918593
331.730676658
332.571909539
333.337959043
334.027287396
334.640083384
335.178132556
335.645242018
336.047020653
336.38965337
336.678967395
336.920662693
337.120484772
337.284117354
337.416910785
337.523602604
337.608185779
337.673978084
337.72384524
337.760468218
337.786470504
337.804234466
337.815600471
337.821905817
337.824237946
337.823542359
337.820608105
337.816086149
337.810500914
337.804260498
337.797672258
337.790957367
337.78425814
337.77776067
337.771545296
337.765825387
337.76067459
337.756013872
337.751905132
337.748311897
337.745217162
337.742533368
337.740282599
337.738425464
337.736989585
337.73586073
337.735063533
337.734719865
267.719161043
267.85833162
268.138011152
268.557096638
269.109265972
269.787092157
270.582131856
271.485354979
272.487520433
273.579488061
274.752453226
275.998104893
277.308714506
278.677169115
280.096962394
281.56215823
283.067337951
284.607541212
286.178206289
287.775114554
289.394340589
291.032209187
292.685258617
294.350209776
296.023940131
297.703461625
299.385901481
301.068484966
302.748518955
304.423375206
306.090472512
307.747255648
309.391172026
311.019644461
312.630041559
314.219645393
315.785619203
317.324976072
318.834552621
320.310989938
321.750726719
323.150006723
324.504904684
325.811366946
327.065265594
328.262447346
329.398767097
330.470075917
331.472173174
332.400746795
333.25144582
334.020256322
334.70445987
335.304068305
335.82068137
336.259177275
336.627611944
336.934294665
337.185852219
337.38860107
337.54912962
337.674148021
337.769939669
337.84185072
337.894043016
337.929661446
337.95127785
337.96146155
337.963116227
337.959029854
337.951021931
337.940053932
337.926926052
337.912451216
337.897284875
337.881949751
337.866846708
337.852254532
337.838351109
337.825225948
337.812872805
337.801450623
337.791080526
337.781913154
337.773857379
337.766912157
337.760926607
337.755807652
337.751455115
337.747771846
337.744730543
337.742268701
337.740346713
337.738922382
337.737895561
337.737438486
266.313399834
266.464909979
266.76900563
267.223779139
267.821396413
268.55269719
269.407410042
270.37472058
271.443754133
272.603957231
273.845366789
275.158772192
276.535786905
277.968849962
279.451179814
280.976699462
282.539949192
284.135997672
285.760359179
287.408920327
289.077878052
290.76368812
292.463023333
294.172739555
295.889848235
297.611493886
299.334935339
301.057529525
302.776716179
304.490002318
306.19494454
307.889127305
309.570136712
311.235529322
312.882795622
314.509319815
316.112336698
317.688889347
319.235789756
320.749588981
322.226560258
323.662704179
325.053776676
326.395347302
327.682873475
328.911782379
330.077513063
331.17548255
332.200916543
333.148582631
334.012592869
334.786687625
335.465854546
336.050497085
336.540803424
336.94303846
337.270198252
337.53414993
337.741518593
337.89872656
338.013331393
338.09353447
338.147025699
338.179966931
338.196552589
338.199346058
338.190121963
338.171060818
338.145684408
338.117882708
338.089436409
338.060375725
338.030995916
338.002083297
337.974161938
337.947612172
337.922709603
337.899585326
337.87827559
337.858725463
337.840791856
337.824537867
337.81005264
337.79753033
337.786698368
337.777477063
337.769672882
337.763002034
337.757386733
337.752688222
337.748833379
337.745752392
337.743360143
337.741611764
337.740385999
337.739804173
264.74974112
264.916267969
265.249982978
265.747840402
266.399970218
267.194914192
268.120025741
269.16222818
270.30863363
271.54700549
272.866056916
274.255602588
275.706592114
277.211059375
278.762019203
280.353339174
281.979605777
283.635999011
285.318181944
287.022208734
288.744450194
290.481535319
292.230305617
293.987779747
295.751125869
297.517640078
299.284729358
301.049897676
302.810733695
304.564897739
306.310106002
308.044108699
309.764662194
311.469492716
313.156253086
314.822471751
316.465497556
318.082441267
319.670120011
321.22500923
322.743212386
324.220456125
325.652124421
327.033334726
328.359059907
329.62426728
330.824026114
331.953472028
333.007497675
333.980061652
334.863338896
335.647222393
336.321506947
336.890270041
337.347820565
337.701848102
337.976856949
338.190930481
338.347433191
338.451556381
338.512173688
338.540001859
338.545071561
338.534744978
338.512978325
338.48096378
338.438647457
338.387048219
338.331057637
338.277617391
338.228419138
338.180965362
338.134643348
338.090754138
338.049698261
338.011661461
337.976822644
337.945127826
337.91646263
337.890604835
337.867253602
337.846493621
337.828180852
337.812316163
337.798841635
337.787406997
337.777782443
337.769639943
337.762785118
337.757093812
337.752438372
337.748734517
337.745866658
337.743782324
337.742377891
337.741675984
263.012636965
263.197619991
263.567600586
264.117897912
264.835863845
265.706960155
266.715433498
267.845330758
269.081290025
270.409089846
271.81596288
273.29070915
274.823659475
276.406540478
278.032288213
279.694845793
281.388970296
283.110062629
284.854026981
286.61715965
288.396064512
290.187589844
291.988781805
293.796849778
295.609140559
297.423119133
299.236354809
301.046511332
302.851339711
304.648670233
306.436400093
308.212473887
309.974853956
311.721480024
313.450217176
315.158793736
316.844729473
318.50525804
320.137247141
321.737126171
323.300830108
324.823778837
326.300906092
327.726763824
329.095708181
330.402161182
331.64087415
332.807026299
333.895807233
334.901106389
335.813213374
336.615416253
337.283378045
337.839717684
338.256181389
338.540064359
338.747159375
338.905061301
339.004113472
339.046115913
339.042373912
339.008346046
338.957985973
338.900603023
338.839218432
338.772360138
338.695841771
338.607425656
338.514693379
338.433504639
338.365293346
338.300187863
338.235990548
338.176624587
338.122239253
338.072556685
338.02781715
337.987668589
337.951861653
337.91996299
337.891527037
337.866469868
337.844716538
337.825845068
337.809834107
337.796391987
337.785052408
337.775463974
337.767411793
337.760768222
337.755360492
337.751055648
337.747720715
337.745305911
337.743713228
337.742910955
261.083003463
261.290950406
261.705839411
262.320607718
263.118756294
264.081574338
265.189217623
266.42207121
267.761748675
269.19172397
270.697626467
272.267268832
273.890489088
275.558886596
277.26551602
279.004586744
280.771195098
282.561103672
284.370569292
286.19621608
288.034944919
289.883870904
291.740280019
293.60159868
295.465371805
297.329247417
299.190967242
301.048362801
302.89935614
304.741960168
306.574273326
308.394464076
310.200741632
311.991310592
313.764310855
315.517741263
317.249369843
318.956630478
320.636512759
322.285451556
323.899232718
325.472934675
327.000938433
328.477045462
329.89475003
331.247695981
332.530281538
333.738196187
334.868239846
335.916414292
336.873297818
337.712177541
338.361096187
338.923888263
339.288173733
339.456847965
339.596032322
339.728553977
339.777956679
339.746599565
339.657440953
339.539428604
339.416464573
339.302281093
339.197382204
339.094090189
338.978154621
338.838523243
338.690564009
338.577802583
338.497951473
338.417837121
338.33294256
338.257478721
338.190050012
338.128593551
338.074229751
338.025902669
337.983360801
337.945856122
337.912850651
337.883945178
337.858986243
337.837518709
337.819296553
337.804039523
337.791136048
337.780158407
337.771023051
337.763548297
337.75742016
337.752532895
337.748772612
337.746044238
337.744258099
337.743375778
258.937135761
259.174078509
259.645337086
260.340311629
261.237080397
262.311217384
263.537462967
264.891544325
266.351413391
267.897931601
269.515082357
271.18983387
272.911783687
274.672700775
276.46605408
278.286584066
280.129946919
281.992439392
283.870799726
285.762071828
287.663517924
289.572564386
291.48676837
293.403795651
295.321404862
297.237436568
299.14980898
301.056521883
302.955668929
304.845451705
306.724185904
308.590293871
310.442276419
312.278663962
314.097946479
315.898483575
317.678392956
319.435418113
321.166776851
322.869000897
324.537778589
326.167831533
327.752861765
329.285645761
330.758369189
332.163345612
333.494193747
334.747472546
335.92364221
337.025535911
338.054100312
338.981408267
339.56409316
340.305356698
340.636151291
340.503117528
340.081340838
339.851841111
339.778052047
339.733086067
339.672261422
339.592951759
339.508846924
339.432170604
339.35860473
339.273506794
339.159929841
339.003434906
338.818474508
338.690505383
338.630998807
338.540515801
338.423038282
338.330372306
338.25164186
338.177740901
338.114523617
338.058422163
338.009807134
337.967349581
337.930305963
337.898192324
337.870609091
337.846933581
337.826840284
337.810000762
337.795673038
337.783517394
337.773457996
337.765179112
337.758414834
337.753011492
337.748872275
337.745875123
337.743912479
337.742962343
256.54516275
256.819367342
257.362512254
258.158640977
259.178064128
260.388449811
261.757344885
263.254578726
264.853741963
266.532848686
268.274348968
270.064700698
271.893702007
273.753752478
275.639157941
277.545544398
279.469403676
281.407768398
283.357996669
285.317642572
287.284386083
289.256000138
291.23033611
293.205315268
295.178920633
297.149189433
299.114212403
301.072146825
303.021245748
304.959893854
306.886633103
308.80016762
310.699339276
312.583073609
314.450301299
316.29985352
318.130329926
319.939932156
321.726265111
323.486107613
325.215168697
326.907850478
328.557067472
330.15421137
331.689439397
333.152573225
334.535048461
335.833733787
337.054650758
338.217529934
339.381431468
340.675933504
340.711999561
340.443269956
340.45670045
340.421012224
340.225309417
340.021127675
339.880797144
339.775580083
339.675878774
339.573547873
339.474919014
339.383512837
339.293490424
339.200262247
339.103557216
339.013447678
338.945497599
338.899191489
338.832858073
338.685838071
338.489317618
338.384261191
338.306266571
338.217188077
338.147275701
338.083643373
338.029989666
337.983417253
337.943269342
337.908737938
337.879150626
337.853744054
337.832191245
337.814039765
337.798497954
337.785331813
337.774481382
337.765513517
337.758202236
337.752385469
337.74793347
337.744691331
337.742591078
337.741577197
253.868800863
254.191895699
254.828420501
255.754108045
256.927956998
258.306608723
259.848055638
261.514734242
263.275181101
265.104511511
266.984033242
268.90032982
270.844117511
272.809109031
274.791029061
276.786843598
278.794209088
280.811113648
282.835669976
284.866016496
286.900287583
288.936619545
290.973167552
293.008116582
295.039680585
297.066092982
299.085603821
301.096500589
303.097163075
305.086134897
307.062180849
309.024311721
310.971763119
312.903935102
314.82030322
316.720303783
318.603183503
320.467801116
322.312373514
324.134167741
325.929139801
327.691537641
329.413487543
331.08466377
332.692198572
334.221396813
335.657983081
336.994917473
338.239026212
339.422223391
340.68180545
340.73434653
340.749158411
340.626984513
340.49939514
340.37654602
340.190955377
340.000611849
339.850453585
339.730120858
339.6205474
339.516741789
339.420059034
339.32812138
339.237785839
339.147092982
339.056361615
338.970444061
338.895979388
338.832470019
338.769155873
338.704664634
338.644805162
338.557608736
338.392493659
338.23481308
338.168759367
338.099387302
338.042687886
337.993420085
337.951314514
337.915252637
337.884311954
337.85765368
337.835106703
337.815855486
337.799296364
337.785434995
337.773950571
337.764430659
337.756697662
337.750559395
337.745845805
337.742414902
337.740207527
337.739128204
250.857982538
251.246846149
252.007273598
253.101774728
254.472611502
256.060976216
257.81224014
259.679747762
261.626444393
263.62487061
265.656051687
267.707796694
269.772848863
271.84720686
273.928783285
276.016440362
278.109365363
280.206717451
282.307470169
284.410382628
286.514042184
288.616934859
290.717509674
292.814215683
294.905504402
296.989805796
299.065506805
301.130973562
303.184646968
305.225174728
307.251522266
309.263026653
311.259376386
313.240534127
315.206636772
317.157877698
319.094350216
321.015823176
322.921434265
324.809295101
326.676003819
328.51604494
330.32106242
332.078970303
333.773011518
335.381322771
336.877295264
338.244252942
339.489808134
340.681252748
340.789529948
340.82062266
340.739896544
340.600940953
340.446581283
340.286765332
340.1016875
339.918864931
339.763371688
339.633477082
339.51940038
339.41749288
339.325005768
339.237408222
339.152914632
339.070406332
338.989877399
338.913111531
338.842439799
338.776914408
338.710525718
338.641763663
338.575685141
338.511715803
338.456659573
338.389241313
338.258289318
338.102324972
338.04287484
337.996692746
337.954139503
337.917605396
337.885946696
337.858313797
337.83517723
337.815259653
337.798057238
337.783666535
337.77167825
337.761805073
337.753793817
337.747433388
337.742538742
337.738981361
337.736674389
337.735545706
247.445668025
247.925699273
248.85459037
250.173201672
251.798727469
253.650745977
255.658194929
257.763603905
259.924232863
262.111061151
264.306450511
266.501225826
268.69180501
270.87780588
273.060300175
275.240683445
277.420041607
279.59887515
281.777058539
283.953937153
286.128487573
288.299484978
290.465636555
292.625651089
294.77823682
296.922034428
299.055541789
301.177114382
303.285132877
305.378243359
307.455560949
309.51676631
311.562072408
313.592103825
315.607779576
317.610211122
319.600565576
321.57982961
323.548457031
325.505896817
327.449992294
329.376204402
331.276529062
333.137965293
334.940075753
336.651322032
338.222231465
339.628992177
340.924602685
340.952781016
340.889680544
340.814606171
340.683818
340.512861055
340.329040406
340.142110336
339.950942085
339.769598113
339.611762444
339.478863894
339.366423248
339.269913619
339.183840487
339.10398676
339.028884227
338.957510727
338.889465452
338.82511021
338.76469261
338.706666546
338.647207589
338.584468596
338.520422013
338.456067818
338.394676065
338.333320585
338.281734871
338.227924039
338.128956341
338.00044838
337.949119246