/*--------------------------------*- C++ -*----------------------------------*\
| =========                 |                                                 |
| \\      /  F ield         | OpenFOAM: The Open Source CFD Toolbox           |
|  \\    /   O peration     | Version:  v1906                                 |
|   \\  /    A nd           | Web:      www.OpenFOAM.com                      |
|    \\/     M anipulation  |                                                 |
\*---------------------------------------------------------------------------*/
FoamFile
{
    version     2.0;
    format      ascii;
    class       volVectorField;
    location    "179";
    object      U;
}
// * * * * * * * * * * * * * * * * * * * * * * * * * * * * * * * * * * * * * //

dimensions      [0 1 -1 0 0 0 0];


internalField   nonuniform List<vector> 
9216
(
(0.00185331832007 -0.00185423818435 0)
(0.00157633547969 -0.00494546112867 6.71359807664e-28)
(0.00159854099027 -0.00839655191901 1.14779030394e-31)
(0.00158615316325 -0.0117164619278 0)
(0.00155573820496 -0.014995709489 0)
(0.00151471459473 -0.018198370775 0)
(0.001465718491 -0.0213063524157 0)
(0.0014102540783 -0.0243048641531 0)
(0.00134949195697 -0.0271817802751 0)
(0.00128442200809 -0.0299270932278 0)
(0.0012159662441 -0.0325328563872 0)
(0.0011449868411 -0.0349928791449 0)
(0.00107222870659 -0.0373027712712 0)
(0.000998429888221 -0.0394595511247 0)
(0.000924123427033 -0.0414617233346 0)
(0.000849914378924 -0.043308803099 0)
(0.000776107992366 -0.0450014468997 0)
(0.000703191448805 -0.0465409284199 0)
(0.000631251730188 -0.0479293398741 0)
(0.00056069156602 -0.0491690464958 0)
(0.000491403314442 -0.0502629638221 0)
(0.000423744188554 -0.051214010935 0)
(0.000357441440744 -0.052025454463 0)
(0.000292845084102 -0.0527003701523 0)
(0.000229545159564 -0.0532420414882 0)
(0.000167915759535 -0.0536534380723 0)
(0.000107436352013 -0.0539376506154 0)
(4.853177814e-05 -0.0540973921503 0)
(-9.40522766491e-06 -0.0541354540132 0)
(-6.58830482174e-05 -0.0540542493204 0)
(-0.000121573405252 -0.0538562452961 0)
(-0.000175894332372 -0.0535435762331 0)
(-0.000229553503842 -0.0531184750345 0)
(-0.000281869748662 -0.0525829262109 0)
(-0.000333559980349 -0.0519390789365 0)
(-0.000383831565429 -0.0511889727642 0)
(-0.000433381790935 -0.0503349095478 0)
(-0.000481300541397 -0.0493792712761 0)
(-0.000528236977396 -0.0483248264743 0)
(-0.000573163887288 -0.0471746462491 0)
(-0.000616660619445 -0.0459323292656 0)
(-0.000657595474467 -0.0446020186334 0)
(-0.000696464867023 -0.0431885223867 0)
(-0.00073205821123 -0.0416974206574 0)
(-0.000764792023452 -0.0401350656963 0)
(-0.000793422091829 -0.0385087635233 0)
(-0.000818308539401 -0.0368266299265 0)
(-0.000838241150386 -0.0350978133116 0)
(-0.000853577130032 -0.0333321911351 0)
(-0.000863236082167 -0.0315405904361 0)
(-0.000867655040879 -0.0297343097423 0)
(-0.000865995420181 -0.0279252926492 0)
(-0.000858867087607 -0.0261254943566 0)
(-0.000845765782589 -0.0243469993795 0)
(-0.000827528625068 -0.0226013041871 0)
(-0.000804005128546 -0.0208994193922 0)
(-0.000776234421938 -0.0192511914945 0)
(-0.00074434561271 -0.0176654580543 0)
(-0.000709479668498 -0.0161495167306 0)
(-0.000671913306848 -0.01470936773 0)
(-0.000632768886636 -0.013349371723 0)
(-0.000592341945062 -0.0120725639989 0)
(-0.000551640151184 -0.0108804769518 0)
(-0.000510884966268 -0.00977348681609 0)
(-0.000470915821069 -0.00875075056471 0)
(-0.000431834282239 -0.00781054777333 0)
(-0.000394299529691 -0.00695027378393 0)
(-0.000358286936238 -0.00616674834686 0)
(-0.000324291183058 -0.00545622474106 0)
(-0.000292176421218 -0.00481465726455 0)
(-0.000262297977598 -0.00423770434567 0)
(-0.000234431806669 -0.00372095543865 0)
(-0.000208823746158 -0.00325991606284 0)
(-0.000185190044298 -0.00285019583548 0)
(-0.000163697881026 -0.00248746763039 0)
(-0.000144031883108 -0.00216762015147 0)
(-0.000126307423352 -0.00188669292561 0)
(-0.000110198010771 -0.00164100305637 0)
(-9.57771318704e-05 -0.00142707004016 0)
(-8.26868373981e-05 -0.00124175049673 0)
(-7.08635450425e-05 -0.00108221509318 0)
(-5.94557773416e-05 -0.000947085428516 0)
(-4.69724057262e-05 -0.00082564033284 0)
(-4.10141184439e-05 -0.000741286427557 0)
(-4.03920341325e-05 -0.000664749218529 0)
(-3.66643385924e-05 -0.000584147996512 0)
(-3.11029339861e-05 -0.000512690080196 0)
(-2.56706865532e-05 -0.000457396514063 0)
(-2.48361334369e-05 -0.000412413587883 0)
(-2.59205778867e-05 -0.000362051323835 0)
(-2.50918279351e-05 -0.000313251470609 0)
(-2.42957925698e-05 -0.000263302121726 0)
(-2.637339004e-05 -0.000211755750251 0)
(-2.86138591198e-05 -0.000157914417409 0)
(-3.06973916681e-05 -9.53832450156e-05 0)
(-3.1473028083e-05 -3.00165294978e-05 0)
(0.00496111898255 -0.00159563043691 0)
(0.00517136021765 -0.00521356436532 0)
(0.00517339890805 -0.00888330265111 -6.90339979765e-28)
(0.00510313420907 -0.0124691098771 0)
(0.0049967235228 -0.0159752922298 0)
(0.00486164897184 -0.019390897032 0)
(0.00470277989135 -0.0227015392755 0)
(0.00452378970955 -0.0258932340244 0)
(0.00432802093305 -0.0289536817565 0)
(0.00411855867283 -0.0318725403468 0)
(0.0038983304809 -0.0346415231843 0)
(0.00367007830001 -0.0372542557633 0)
(0.00343624552708 -0.0397062184982 0)
(0.0031991188735 -0.0419944758011 0)
(0.00296052870281 -0.0441175871915 0)
(0.00272224967766 -0.0460752814155 0)
(0.00248546329832 -0.0478683836281 0)
(0.00225146754172 -0.0494984765712 0)
(0.00202084219542 -0.0509678719572 0)
(0.00179450420154 -0.05227928443 0)
(0.00157252280787 -0.0534358569018 0)
(0.00135555156448 -0.054440859583 0)
(0.0011432530322 -0.0552977671764 0)
(0.000936132025187 -0.056009985553 0)
(0.000733541731601 -0.0565809734601 0)
(0.000535935988151 -0.0570139958429 0)
(0.000342444502808 -0.0573122785879 0)
(0.000153551728824 -0.0574787890389 0)
(-3.17607212294e-05 -0.0575164131166 0)
(-0.000212913907952 -0.0574277601065 0)
(-0.000391004248739 -0.0572153740224 0)
(-0.000565292654069 -0.0568815553449 0)
(-0.000736878477421 -0.056428569274 0)
(-0.000904810779555 -0.0558585285973 0)
(-0.00107011661454 -0.0551735947653 0)
(-0.00123158116746 -0.054375909098 0)
(-0.001390082676 -0.0534677883493 0)
(-0.00154410154839 -0.0524517067248 0)
(-0.00169429851243 -0.0513304758608 0)
(-0.0018388275985 -0.0501072776936 0)
(-0.00197808477234 -0.0487858168851 0)
(-0.0021099092385 -0.0473703981366 0)
(-0.00223441796426 -0.0458660353411 0)
(-0.00234918981594 -0.0442785606315 0)
(-0.00245409807565 -0.0426146722474 0)
(-0.00254657467448 -0.0408820570846 0)
(-0.00262635192858 -0.0390893550823 0)
(-0.00269090483528 -0.0372462637419 0)
(-0.00274002005723 -0.0353633921068 0)
(-0.00277150054266 -0.0334523057496 0)
(-0.00278547952766 -0.0315252391549 0)
(-0.00278043941357 -0.0295950406362 0)
(-0.00275718364943 -0.0276747388102 0)
(-0.00271517246728 -0.0257773891243 0)
(-0.00265607223044 -0.0239155539071 0)
(-0.00258038746576 -0.0221011224283 0)
(-0.00249056130023 -0.0203448285191 0)
(-0.00238790099643 -0.0186561502959 0)
(-0.00227528213728 -0.0170429787343 0)
(-0.0021543891957 -0.0155116549067 0)
(-0.00202811738847 -0.0140668192528 0)
(-0.0018981222566 -0.0127115674935 0)
(-0.00176699250946 -0.0114474435561 0)
(-0.00163607038847 -0.0102746673515 0)
(-0.00150745260665 -0.00919221648787 0)
(-0.00138203531632 -0.0081980755521 0)
(-0.00126137870708 -0.00728934804594 0)
(-0.00114592715187 -0.00646248741839 0)
(-0.00103675059327 -0.00571340233129 0)
(-0.000933898592876 -0.00503765551202 0)
(-0.000838027917211 -0.00443054967695 0)
(-0.000748872273914 -0.00388729240796 0)
(-0.000666767796955 -0.00340305461681 0)
(-0.000591226765865 -0.00297309820612 0)
(-0.000522363855193 -0.00259280159127 0)
(-0.00045956355992 -0.00225775129371 0)
(-0.000402807427464 -0.00196373629787 0)
(-0.000351427602054 -0.00170680760404 0)
(-0.000305329829938 -0.00148324079651 0)
(-0.000263809363103 -0.0012895488145 0)
(-0.000226616570322 -0.00112233306923 0)
(-0.000192688162847 -0.000978230521479 0)
(-0.000160175012553 -0.000851154905642 0)
(-0.000134612756863 -0.000729108860368 0)
(-0.0001231011465 -0.000645533495359 0)
(-0.000110909416671 -0.000566449522227 0)
(-9.16676369642e-05 -0.000491766723004 0)
(-7.65827067859e-05 -0.000440748807307 0)
(-7.22983122368e-05 -0.000389181673693 0)
(-7.47457885342e-05 -0.000349586167693 0)
(-7.47051452367e-05 -0.000308748205783 0)
(-7.49719030878e-05 -0.000256950557962 0)
(-7.84874731576e-05 -0.000205328253646 0)
(-9.28503445831e-05 -0.000161419512188 0)
(-0.000108387242576 -0.000101862284879 0)
(-9.32868572489e-05 -2.72783451916e-05 0)
(0.00848587473115 -0.00165434023791 0)
(0.00887908735999 -0.00533260499891 0)
(0.00879264679499 -0.00899389938348 -6.89373519529e-28)
(0.00864692612466 -0.0126210323212 0)
(0.00845553706982 -0.0161686948902 0)
(0.00822142412789 -0.0196227861902 0)
(0.00794911577042 -0.0229677090451 0)
(0.00764363075856 -0.0261893026149 0)
(0.00731016923654 -0.0292752850799 0)
(0.00695386022432 -0.0322154469977 0)
(0.00657964090787 -0.0350016936811 0)
(0.0061921432604 -0.0376279377848 0)
(0.00579556884964 -0.0400899739675 0)
(0.00539370444226 -0.0423852526847 0)
(0.00498976789052 -0.0445127003907 0)
(0.0045865733731 -0.0464724552156 0)
(0.00418631488073 -0.0482656934464 0)
(0.00379088628643 -0.0498943742002 0)
(0.0034015625041 -0.0513611017119 0)
(0.0030194744428 -0.0526689032674 0)
(0.00264515362281 -0.0538211392713 0)
(0.00227916280114 -0.0548213207115 0)
(0.00192147941831 -0.0556730659071 0)
(0.00157228595693 -0.0563799548125 0)
(0.00123117822205 -0.0569455246172 0)
(0.000898120072597 -0.0573731565205 0)
(0.000572471540082 -0.0576661010434 0)
(0.00025411186795 -0.0578273909464 0)
(-5.77103568169e-05 -0.0578598917236 0)
(-0.000363085098504 -0.0577662382559 0)
(-0.000662760768153 -0.0575489014818 0)
(-0.000956689823917 -0.0572101535722 0)
(-0.00124550627922 -0.0567521540231 0)
(-0.00152891841197 -0.056176939645 0)
(-0.00180732996369 -0.0554865274129 0)
(-0.00208010097896 -0.0546829367377 0)
(-0.00234729223857 -0.0537683061001 0)
(-0.00260782266973 -0.0527449489559 0)
(-0.00286131460439 -0.0516154784172 0)
(-0.00310618222558 -0.0503828917871 0)
(-0.00334155170731 -0.0490506957303 0)
(-0.00356531980924 -0.0476230110672 0)
(-0.00377611856109 -0.0461046839826 0)
(-0.00397138613221 -0.0445013962108 0)
(-0.00414934444753 -0.0428197480752 0)
(-0.00430712758006 -0.0410673559472 0)
(-0.00444274401435 -0.0392528838846 0)
(-0.00455331119323 -0.037386100498 0)
(-0.00463697848518 -0.0354778263097 0)
(-0.00469130822905 -0.0335399054038 0)
(-0.00471512421192 -0.0315850192996 0)
(-0.0047070408485 -0.0296265222341 0)
(-0.00466716182194 -0.0276780923406 0)
(-0.00459569538212 -0.0257534260868 0)
(-0.00449439874661 -0.0238657806022 0)
(-0.00436520574926 -0.0220276250173 0)
(-0.0042113729401 -0.0202502213547 0)
(-0.00403612353188 -0.0185433855125 0)
(-0.0038435697171 -0.0169152455438 0)
(-0.00363746414299 -0.0153721902676 0)
(-0.00342201985752 -0.0139188212618 0)
(-0.00320082300363 -0.0125580522021 0)
(-0.00297760637943 -0.0112911964757 0)
(-0.00275531925965 -0.0101181587572 0)
(-0.002536885017 -0.00903759699849 0)
(-0.00232441212963 -0.00804714525415 0)
(-0.00211994245274 -0.00714358509942 0)
(-0.00192476262055 -0.00632304687045 0)
(-0.00174011995953 -0.00558115624822 0)
(-0.00156659227115 -0.00491320191775 0)
(-0.00140476196026 -0.00431425698186 0)
(-0.00125463652341 -0.00377931532557 0)
(-0.00111628853816 -0.00330338268775 0)
(-0.00098932076798 -0.00288157363086 0)
(-0.000873466651848 -0.00250916566727 0)
(-0.000768088947437 -0.00218165863465 0)
(-0.000672735963941 -0.00189479457737 0)
(-0.000586671294501 -0.00164458588943 0)
(-0.000509388965414 -0.00142729931413 0)
(-0.000440180339277 -0.00123943858132 0)
(-0.000378628013511 -0.00107763507553 0)
(-0.00032431727293 -0.000938722380312 0)
(-0.000277650238005 -0.000816332462599 0)
(-0.000236173581667 -0.00070314288568 0)
(-0.000207725213312 -0.000619587986649 0)
(-0.000183562659889 -0.000540553940655 0)
(-0.000159718263434 -0.000481351304465 0)
(-0.000132426410364 -0.000409243466426 0)
(-0.000115037439014 -0.000350061523077 0)
(-0.000115004889458 -0.000315178432383 0)
(-0.000127088971389 -0.000290041249527 0)
(-0.000122582298398 -0.000224440070078 0)
(-0.000133182816289 -0.000182783753369 0)
(-0.000148342033448 -0.000132012259791 0)
(-0.000160346087839 -7.91854604568e-05 0)
(-0.00015050797534 -2.42273350744e-05 0)
(0.0119752497679 -0.00169736378936 0)
(0.0126039050096 -0.00543975706918 0)
(0.0124781121059 -0.00914695013594 6.89279757693e-28)
(0.0122647018387 -0.0128286954172 0)
(0.0119864640288 -0.0164289701862 0)
(0.0116484533206 -0.0199314911384 0)
(0.0112568578572 -0.0233193337136 0)
(0.0108186701993 -0.0265778010313 0)
(0.0103412411505 -0.0296944604091 0)
(0.00983191428472 -0.0326592139721 0)
(0.00929777568329 -0.035464257404 0)
(0.00874545631722 -0.0381039405058 0)
(0.008180980794 -0.040574580842 0)
(0.0076097014538 -0.0428742215936 0)
(0.00703621465 -0.0450023920947 0)
(0.0064644119047 -0.0469598446195 0)
(0.00589742840631 -0.0487483262001 0)
(0.00533778647569 -0.0503703414355 0)
(0.00478733793103 -0.0518289691337 0)
(0.00424747655976 -0.0531276722433 0)
(0.00371904211665 -0.0542701676541 0)
(0.00320258592967 -0.0552602852646 0)
(0.00269821683403 -0.0561018861628 0)
(0.00220591298752 -0.056798764386 0)
(0.00172530038979 -0.0573546033571 0)
(0.00125601107107 -0.0577729096794 0)
(0.000797393336319 -0.0580569995249 0)
(0.000348919507956 -0.0582099570008 0)
(-9.01685336959e-05 -0.0582346446357 0)
(-0.000520398984878 -0.0581336813529 0)
(-0.000942480839081 -0.0579094681075 0)
(-0.00135679023056 -0.0575641950621 0)
(-0.00176383411093 -0.0570998872922 0)
(-0.00216368320552 -0.0565184310903 0)
(-0.00255648233734 -0.0558216437195 0)
(-0.0029418401796 -0.0550113274266 0)
(-0.00331938217902 -0.0540893624584 0)
(-0.00368811059788 -0.0530577884401 0)
(-0.00404699743461 -0.0519189180781 0)
(-0.00439433302203 -0.0506754426051 0)
(-0.00472835672686 -0.0493305569157 0)
(-0.00504661211487 -0.0478880782724 0)
(-0.00534661035872 -0.0463525715092 0)
(-0.00562521249853 -0.0447294683976 0)
(-0.00587932018882 -0.0430251758783 0)
(-0.00610530701757 -0.0412471806531 0)
(-0.00629973778262 -0.0394041214475 0)
(-0.00645888028915 -0.037505853483 0)
(-0.00657946413305 -0.0355634493571 0)
(-0.0066583040529 -0.0335891690782 0)
(-0.0066930917158 -0.0315963207075 0)
(-0.0066821109344 -0.0295990539161 0)
(-0.00662497805084 -0.027612013928 0)
(-0.00652232403345 -0.0256499318567 0)
(-0.00637631912204 -0.0237271173299 0)
(-0.00619018055154 -0.021856979182 0)
(-0.00596839978449 -0.0200515589578 0)
(-0.0057160848748 -0.018321206572 0)
(-0.00543900802767 -0.0166743559955 0)
(-0.00514296928844 -0.0151174604337 0)
(-0.00483385658326 -0.0136550018757 0)
(-0.00451713126361 -0.0122896010903 0)
(-0.00419794303445 -0.0110221680508 0)
(-0.00388074123402 -0.00985211379846 0)
(-0.00356946487451 -0.0087775736369 0)
(-0.0032672821526 -0.00779564736025 0)
(-0.00297684935056 -0.00690261191409 0)
(-0.00270012828191 -0.00609412023584 0)
(-0.00243865314671 -0.00536536518578 0)
(-0.0021933651006 -0.00471123701744 0)
(-0.00196486378404 -0.004126460051 0)
(-0.00175326561309 -0.00360572368475 0)
(-0.00155845663204 -0.00314378591556 0)
(-0.00137997233605 -0.00273556109913 0)
(-0.0012172370467 -0.0023761798611 0)
(-0.00106944701347 -0.00206103587924 0)
(-0.000935787095177 -0.00178581157107 0)
(-0.000815317268366 -0.00154649681317 0)
(-0.000707176583441 -0.0013393884917 0)
(-0.000610491801324 -0.00116108190845 0)
(-0.000524596616551 -0.00100846510099 0)
(-0.000449151084257 -0.000878929526621 0)
(-0.000384824808705 -0.00076262747112 0)
(-0.000335293237027 -0.00067228343831 0)
(-0.000290411463602 -0.000582709884557 0)
(-0.000255676937565 -0.000508444381592 0)
(-0.000222506744305 -0.000440261592043 0)
(-0.0001895887116 -0.0003698542815 0)
(-0.000172672862797 -0.00032393826547 0)
(-0.000157646365829 -0.000266800019976 0)
(-0.000159423371289 -0.000223179686667 0)
(-0.000179577643318 -0.000196668682982 0)
(-0.000176589801139 -0.000138275191725 0)
(-0.000190822872483 -9.51963290593e-05 0)
(-0.000207346187176 -5.83030821889e-05 0)
(-0.000201092985186 -1.91900105851e-05 0)
(0.0155591200441 -0.0017412559711 0)
(0.0163921546293 -0.00557122085051 0)
(0.016227080522 -0.00935589202281 0)
(0.0159438316358 -0.0131140220929 0)
(0.0155743575224 -0.0167858208415 0)
(0.0151264813839 -0.0203534323578 0)
(0.0146087746099 -0.023798708046 0)
(0.0140306951607 -0.0271063051514 0)
(0.0134021028444 -0.0302635895131 0)
(0.012732816907 -0.0332606158694 0)
(0.0120322684752 -0.0360900016863 0)
(0.0113092322826 -0.0387467208535 0)
(0.01057163698 -0.0412278465523 0)
(0.00982645829672 -0.0435322570342 0)
(0.00907965879153 -0.0456603394014 0)
(0.00833620834183 -0.0476136936336 0)
(0.00760010560513 -0.049394864804 0)
(0.00687447961963 -0.0510070956212 0)
(0.00616164372948 -0.05245411898 0)
(0.00546323726304 -0.0537399745417 0)
(0.00478027442496 -0.0548688651057 0)
(0.00411329968904 -0.0558450328967 0)
(0.00346241014944 -0.0566726697663 0)
(0.00282741289775 -0.0573558384119 0)
(0.0022078135572 -0.0578984227237 0)
(0.00160297477358 -0.058304081051 0)
(0.00101207224231 -0.058576224494 0)
(0.000434258921793 -0.0587179918145 0)
(-0.000131405428016 -0.0587322494956 0)
(-0.000685778830428 -0.0586215843042 0)
(-0.00122972363501 -0.0583883143565 0)
(-0.00176391535757 -0.0580345100115 0)
(-0.00228894476609 -0.0575620253813 0)
(-0.00280510560338 -0.0569725351929 0)
(-0.00331250876447 -0.0562675945404 0)
(-0.00381085612361 -0.0554487035558 0)
(-0.00429956855313 -0.0545173945129 0)
(-0.00477755639225 -0.0534753277669 0)
(-0.00524336790908 -0.0523244047794 0)
(-0.00569496976808 -0.0510668896916 0)
(-0.00612992466912 -0.0497055426695 0)
(-0.00654519536914 -0.0482437569011 0)
(-0.00693735570302 -0.046685696197 0)
(-0.00730243036032 -0.0450364334191 0)
(-0.00763614330301 -0.0433020817233 0)
(-0.00793380660873 -0.0414899208716 0)
(-0.00819062003505 -0.0396085095416 0)
(-0.00840164144623 -0.037667782031 0)
(-0.00856217406883 -0.0356791060251 0)
(-0.00866786677915 -0.0336552883106 0)
(-0.00871521574615 -0.0316104805562 0)
(-0.00870177959195 -0.0295599620358 0)
(-0.00862669113791 -0.0275197588771 0)
(-0.00849078623544 -0.0255061216043 0)
(-0.00829685439171 -0.0235348945319 0)
(-0.00804943030861 -0.0216208685623 0)
(-0.00775463718981 -0.0197771970902 0)
(-0.00741964305895 -0.0180149771262 0)
(-0.00705229125512 -0.0163430290563 0)
(-0.00666057258673 -0.014767857953 0)
(-0.00625237062657 -0.0132937269171 0)
(-0.00583508915333 -0.0119228115517 0)
(-0.00541551070782 -0.0106554132285 0)
(-0.00499955921414 -0.00949022581195 0)
(-0.00459229395665 -0.00842462613163 0)
(-0.00419783703726 -0.00745496554179 0)
(-0.00381949730482 -0.00657681903682 0)
(-0.00345978538975 -0.00578519473669 0)
(-0.00312055035699 -0.00507469749556 0)
(-0.00280297510057 -0.00443968113632 0)
(-0.00250769188766 -0.00387439381727 0)
(-0.00223479656852 -0.00337311567897 0)
(-0.00198399151755 -0.00293027121714 0)
(-0.00175462091762 -0.00254051317633 0)
(-0.00154580603421 -0.00219877917326 0)
(-0.00135646683905 -0.00190032960313 0)
(-0.0011854337541 -0.001640769948 0)
(-0.00103145833438 -0.00141606672189 0)
(-0.00089331736719 -0.00122255308751 0)
(-0.000769840044674 -0.00105692549826 0)
(-0.000660043834541 -0.000916312293939 0)
(-0.000563677570936 -0.000798025429073 0)
(-0.000478233305228 -0.000687813196305 0)
(-0.000421738613393 -0.000610630795763 0)
(-0.000372995619426 -0.000533779309502 0)
(-0.000332533829981 -0.000465271202766 0)
(-0.000297460187358 -0.000401943203717 0)
(-0.000256887944941 -0.00033515902074 0)
(-0.000217894318413 -0.000263896436437 0)
(-0.000206645223393 -0.000218389862096 0)
(-0.000196434904261 -0.000167167486582 0)
(-0.000213238681738 -0.000141199132239 0)
(-0.000233237640052 -0.000109873292317 0)
(-0.000227981373291 -6.67568899646e-05 0)
(-0.000233094215792 -3.83339693958e-05 0)
(-0.000226894622412 -1.29225779839e-05 0)
(0.0192411719381 -0.00179365931747 0)
(0.020274497409 -0.00573505710852 0)
(0.0200664448533 -0.00962428357947 0)
(0.019708112689 -0.0134823140463 0)
(0.0192404193954 -0.0172463755472 0)
(0.0186742383321 -0.0208971091652 0)
(0.0180210599129 -0.0244151595576 0)
(0.0172933137237 -0.0277845173509 0)
(0.0165038057587 -0.0309923878354 0)
(0.0156651810223 -0.0340291018949 0)
(0.0147894838268 -0.0368878996778 0)
(0.0138878223334 -0.0395646335576 0)
(0.0129701414071 -0.0420574199953 0)
(0.0120450962227 -0.0443662680177 0)
(0.0111200073048 -0.0464927132544 0)
(0.0102008901428 -0.0484394717386 0)
(0.00929252494291 -0.0502101313349 0)
(0.00839857346569 -0.0518088820898 0)
(0.00752169649066 -0.0532402923037 0)
(0.00666370026006 -0.0545091241696 0)
(0.00582565446815 -0.0556201894429 0)
(0.00500803386603 -0.0565782352539 0)
(0.00421081243271 -0.0573878601287 0)
(0.00343358640852 -0.0580534493566 0)
(0.00267563890618 -0.0585791307592 0)
(0.0019360449543 -0.0589687408131 0)
(0.00121371047996 -0.0592258055928 0)
(0.000507466428837 -0.0593535249816 0)
(-0.000183908535688 -0.0593547719991 0)
(-0.000861595780152 -0.0592320882437 0)
(-0.00152671717551 -0.0589876928511 0)
(-0.00218023721555 -0.0586235034313 0)
(-0.00282294577999 -0.0581411635452 0)
(-0.00345534612224 -0.057542079644 0)
(-0.00407763649303 -0.0568274771052 0)
(-0.00468959096645 -0.0559984684563 0)
(-0.00529054506771 -0.0550561422147 0)
(-0.00587928032971 -0.0540016648827 0)
(-0.0064540262386 -0.0528364063351 0)
(-0.00701236374136 -0.0515620715709 0)
(-0.00755125791964 -0.0501808513603 0)
(-0.00806699561732 -0.0486955749037 0)
(-0.00855525785251 -0.047109869083 0)
(-0.0090110984637 -0.0454283154169 0)
(-0.00942906045764 -0.0436566084203 0)
(-0.00980320419466 -0.0418017106024 0)
(-0.0101272836307 -0.0398720064221 0)
(-0.0103948627361 -0.0378774549461 0)
(-0.0105996166757 -0.035829719191 0)
(-0.0107356283145 -0.0337422524226 0)
(-0.0107978990213 -0.0316302722626 0)
(-0.0107828514581 -0.0295105654394 0)
(-0.0106889358583 -0.0274010545844 0)
(-0.0105170275331 -0.0253201269435 0)
(-0.0102706691337 -0.0232857911385 0)
(-0.00995593188065 -0.0213147899546 0)
(-0.00958102810624 -0.0194217978346 0)
(-0.00915560237281 -0.0176188851957 0)
(-0.00869002828126 -0.0159153082995 0)
(-0.00819480079511 -0.0143175609237 0)
(-0.00768012263366 -0.0128295384377 0)
(-0.00715553156584 -0.011452759853 0)
(-0.00662963437326 -0.0101866553821 0)
(-0.00610987992336 -0.00902891283747 0)
(-0.00560248324308 -0.00797586565505 0)
(-0.00511244015396 -0.00702286336959 0)
(-0.0046436634652 -0.00616457170035 0)
(-0.00419911161375 -0.00539518335609 0)
(-0.00378091419468 -0.00470856377028 0)
(-0.00339041292042 -0.00409838638109 0)
(-0.00302822582961 -0.00355828844528 0)
(-0.00269432041039 -0.00308202937802 0)
(-0.00238814994103 -0.0026636155204 0)
(-0.00210876378173 -0.0022973803417 0)
(-0.00185492860413 -0.00197802985794 0)
(-0.00162520406086 -0.0017006671186 0)
(-0.00141802703333 -0.00146080613056 0)
(-0.0012317603766 -0.00125438305735 0)
(-0.00106476167957 -0.00107777222207 0)
(-0.000915437009032 -0.000927805855846 0)
(-0.000782331738383 -0.000802215265737 0)
(-0.000665179881437 -0.000695238010554 0)
(-0.000572157211015 -0.00060505703121 0)
(-0.000497404385823 -0.000522587927587 0)
(-0.000440916705477 -0.000450535625743 0)
(-0.000395854560615 -0.0003888976824 0)
(-0.000345104085635 -0.000321966538201 0)
(-0.000313351715786 -0.000273939218344 0)
(-0.000287821808476 -0.000223561845628 0)
(-0.000270099836053 -0.000176689018108 0)
(-0.000234750377679 -0.000120299267287 0)
(-0.000233120992713 -8.6113160944e-05 0)
(-0.000259583966068 -7.0186837925e-05 0)
(-0.000260424724282 -4.64397725884e-05 0)
(-0.00025451324704 -2.477553055e-05 0)
(-0.000248824778063 -8.31291025204e-06 0)
(0.0230434352717 -0.00185756266132 0)
(0.0242785794609 -0.00593719580212 0)
(0.0240217230328 -0.00995813577423 6.84422141788e-28)
(0.0235803629877 -0.0139411304627 0)
(0.0230046223245 -0.0178197317832 0)
(0.022308787376 -0.0215727970534 0)
(0.0215078229753 -0.0251796368925 0)
(0.0206177101145 -0.0286235633531 0)
(0.019654729461 -0.0318917260855 0)
(0.0186347901953 -0.0349749414529 0)
(0.0175728837643 -0.0378673638005 0)
(0.0164826807144 -0.0405660665884 0)
(0.0153762712188 -0.0430705755304 0)
(0.0142640373975 -0.0453823936771 0)
(0.0131546330756 -0.0475045478418 0)
(0.0120550499184 -0.0494411780859 0)
(0.0109707398012 -0.0511971833373 0)
(0.0099057767316 -0.0527779257009 0)
(0.00886303078144 -0.0541889935929 0)
(0.00784435042732 -0.0554360176901 0)
(0.0068507293803 -0.0565245325431 0)
(0.0058824677928 -0.0574598763294 0)
(0.00493930569539 -0.0582471187696 0)
(0.00402054999656 -0.0588910135315 0)
(0.00312517145552 -0.0593959655101 0)
(0.00225190115392 -0.0597660109171 0)
(0.00139929888588 -0.0600048044051 0)
(0.000565830450679 -0.0601156119701 0)
(-0.000250079082878 -0.0601013124905 0)
(-0.00104997379112 -0.0599643925832 0)
(-0.00183531139022 -0.0597069550386 0)
(-0.00260738805395 -0.059330737412 0)
(-0.00336727701597 -0.0588371323304 0)
(-0.00411573764298 -0.0582272236498 0)
(-0.00485314475625 -0.0575018365057 0)
(-0.00557938888893 -0.0566616091588 0)
(-0.00629380414039 -0.0557070805293 0)
(-0.00699507248225 -0.0546388045093 0)
(-0.00768116743569 -0.0534574823034 0)
(-0.00834928450103 -0.0521641143248 0)
(-0.00899582053353 -0.0507601670195 0)
(-0.00961634742814 -0.0492477484242 0)
(-0.0102056404447 -0.0476297898431 0)
(-0.0107576998646 -0.0459102261784 0)
(-0.0112658241415 -0.0440941770307 0)
(-0.0117226763437 -0.0421881331098 0)
(-0.0121204100731 -0.0402001566863 0)
(-0.0124508219585 -0.0381401034663 0)
(-0.0127056293607 -0.0360198600383 0)
(-0.0128768723157 -0.0338535595346 0)
(-0.0129575406912 -0.031657692874 0)
(-0.01294236581 -0.0294509883846 0)
(-0.0128287104373 -0.0272539251144 0)
(-0.0126172866344 -0.0250878458605 0)
(-0.0123125061944 -0.0229737908536 0)
(-0.0119223696082 -0.0209312204107 0)
(-0.0114578422873 -0.0189768616617 0)
(-0.0109317195403 -0.0171239724067 0)
(-0.0103575013211 -0.0153822242692 0)
(-0.009748618385 -0.0137579504594 0)
(-0.00911796143562 -0.0122544563329 0)
(-0.00847748032597 -0.0108723229321 0)
(-0.00783782199178 -0.00960976150179 0)
(-0.00720804302468 -0.00846307478742 0)
(-0.00659550086183 -0.00742718677539 0)
(-0.00600594324011 -0.00649614594025 0)
(-0.00544375811142 -0.00566349063264 0)
(-0.00491223310489 -0.00492244564901 0)
(-0.00441372170589 -0.00426599895428 0)
(-0.00394966049835 -0.0036869927617 0)
(-0.00352057686629 -0.00317830121101 0)
(-0.00312618589371 -0.00273303970584 0)
(-0.00276557852156 -0.0023447144484 0)
(-0.00243739429839 -0.00200729172331 0)
(-0.00213996389299 -0.00171521945031 0)
(-0.00187140676346 -0.0014634279403 0)
(-0.00162971028525 -0.00124732614419 0)
(-0.00141278291147 -0.00106280126681 0)
(-0.00121850431336 -0.000906229034204 0)
(-0.00104475925232 -0.000774476750116 0)
(-0.000889491504117 -0.000665492187149 0)
(-0.000751719521404 -0.000570836635376 0)
(-0.000657415967962 -0.000498983513597 0)
(-0.000578343852493 -0.000427239494654 0)
(-0.000509322367801 -0.000360175414903 0)
(-0.000455293678587 -0.000304156193486 0)
(-0.000404383372647 -0.000251231572971 0)
(-0.000358351326842 -0.000198763658468 0)
(-0.000334319932088 -0.000157234721661 0)
(-0.000302370829686 -0.000114095020523 0)
(-0.000288755057732 -8.28578126669e-05 0)
(-0.000260137003994 -4.69971888746e-05 0)
(-0.000261972562407 -3.11174842876e-05 0)
(-0.000276696147111 -2.37341264652e-05 0)
(-0.00026712232003 -1.2345106426e-05 0)
(-0.000261535091708 -4.14458857127e-06 0)
(0.0269923319326 -0.0019351694105 0)
(0.028433323863 -0.00618337595867 0)
(0.0281202540437 -0.010365443257 -6.84312941063e-28)
(0.0275853038085 -0.0145007109599 0)
(0.0268885240645 -0.0185179941094 0)
(0.026048252716 -0.0223939135882 0)
(0.0250836681232 -0.0261062404398 0)
(0.0240150396393 -0.0296376141579 0)
(0.0228627856917 -0.032975310665 0)
(0.0216466219781 -0.0361109500957 0)
(0.0203848900226 -0.0390400113791 0)
(0.0190940839125 -0.0417612478952 0)
(0.0177885717239 -0.0442760645297 0)
(0.0164804864979 -0.0465879070922 0)
(0.0151797546143 -0.0487017012639 0)
(0.013894225268 -0.0506233651332 0)
(0.0126298648673 -0.0523594042902 0)
(0.0113909870649 -0.0539165904443 0)
(0.0101804928697 -0.0553017176651 0)
(0.00900010519841 -0.0565214244076 0)
(0.00785058386755 -0.0575820709889 0)
(0.00673191799471 -0.0584896579765 0)
(0.00564348988828 -0.0592497770531 0)
(0.00458421628468 -0.0598675823614 0)
(0.00355266284321 -0.0603477781539 0)
(0.00254714291194 -0.0606946120473 0)
(0.00156579693919 -0.0609118751322 0)
(0.000606666181019 -0.0610029014968 0)
(-0.000332245329444 -0.0609705739757 0)
(-0.00125290235284 -0.0608173167364 0)
(-0.00215717145268 -0.060545102649 0)
(-0.00304674681816 -0.0601554641658 0)
(-0.00392306998023 -0.0596495080092 0)
(-0.00478723261945 -0.059027941731 0)
(-0.00563987919938 -0.0582911226992 0)
(-0.0064810948204 -0.0574391215413 0)
(-0.00731029965906 -0.0564718181625 0)
(-0.00812613853806 -0.0553890197574 0)
(-0.00892639197766 -0.0541906091325 0)
(-0.00970789652081 -0.0528767145239 0)
(-0.0104665001832 -0.0514479032902 0)
(-0.0111970392134 -0.0499053830531 0)
(-0.0118933545886 -0.048251208628 0)
(-0.0125483265212 -0.0464884858021 0)
(-0.0131539345217 -0.0446215709629 0)
(-0.0137013191103 -0.0426562821925 0)
(-0.014180867016 -0.0406001373352 0)
(-0.0145823258878 -0.0384626593842 0)
(-0.0148950381554 -0.0362557546061 0)
(-0.0151083834464 -0.0339941490271 0)
(-0.0152125663763 -0.0316957518925 0)
(-0.0151997790235 -0.0293817217653 0)
(-0.0150656165745 -0.0270759627703 0)
(-0.0148102957237 -0.0248039109322 0)
(-0.0144392056556 -0.0225908636368 0)
(-0.0139629080196 -0.0204601164909 0)
(-0.0133961621188 -0.0184311397429 0)
(-0.0127559932396 -0.0165185387803 0)
(-0.0120597815567 -0.0147322025732 0)
(-0.011324409103 -0.0130780180017 0)
(-0.0105658671221 -0.0115583978843 0)
(-0.0097988800959 -0.0101726186951 0)
(-0.00903641076009 -0.00891721701537 0)
(-0.00828923287576 -0.00778659093595 0)
(-0.00756576085096 -0.00677376526633 0)
(-0.00687227043207 -0.00587112060695 0)
(-0.00621337464443 -0.00507086144612 0)
(-0.00559252632945 -0.0043651469293 0)
(-0.00501225930802 -0.00374599111342 0)