/*--------------------------------*- C++ -*----------------------------------*\
| =========                 |                                                 |
| \\      /  F ield         | OpenFOAM: The Open Source CFD Toolbox           |
|  \\    /   O peration     | Version:  v1906                                 |
|   \\  /    A nd           | Web:      www.OpenFOAM.com                      |
|    \\/     M anipulation  |                                                 |
\*---------------------------------------------------------------------------*/
FoamFile
{
    version     2.0;
    format      ascii;
    class       surfaceScalarField;
    location    "497";
    object      phi;
}
// * * * * * * * * * * * * * * * * * * * * * * * * * * * * * * * * * * * * * //

dimensions      [0 3 -1 0 0 0 0];
oriented        oriented;


internalField   nonuniform List<scalar> 
18240
(
-0.000198784277257
0.000198820492391
-0.000406972431457
0.000208227735844
-0.000613764226258
0.000206829303734
-0.00081752356262
0.00020379990568
-0.00101720054236
0.00019971422014
-0.00121185618759
0.000194697311296
-0.0014006730531
0.000188853891763
-0.00158291827211
0.000182288252473
-0.00175798325982
0.000175101823552
-0.00192533859326
0.000167399996118
-0.00208458219295
0.000159280192161
-0.00223537624895
0.000150840596041
-0.00237750524998
0.000142165267893
-0.00251079415247
0.000133337549715
-0.00263518059963
0.000124422223329
-0.00275061411362
0.000115484468791
-0.00285714706825
0.000106568053051
-0.00295481404623
9.7720403314e-05
-0.00304374551845
8.89656101234e-05
-0.0031240256312
8.033612712e-05
-0.00319583202596
7.18392855079e-05
-0.00325926965489
6.34963012527e-05
-0.00331453955873
5.53011631184e-05
-0.00336174591502
4.72677060967e-05
-0.00340109640804
3.93797681094e-05
-0.00343267967234
3.16472588013e-05
-0.00345669951661
2.40466953746e-05
-0.00347322010597
1.6587150403e-05
-0.00348243632009
9.24028151392e-06
-0.0034843844705
2.0171491718e-06
-0.0034792503332
-5.11328680428e-06
-0.00346704330411
-1.21357636815e-05
-0.00344794454979
-1.90814264347e-05
-0.00342194359838
-2.59276427634e-05
-0.00338922657604
-3.27035886418e-05
-0.00334977424693
-3.93772400769e-05
-0.0033037910495
-4.59738633524e-05
-0.00325126418296
-5.24503250974e-05
-0.00319243244622
-5.88267768025e-05
-0.00312730644009
-6.5048410766e-05
-0.00305617552057
-7.1130434406e-05
-0.00297909001424
-7.70074227723e-05
-0.00289640323542
-8.2691018232e-05
-0.00280821817436
-8.81073213946e-05
-0.00271496110839
-9.32662178154e-05
-0.00261679766391
-9.80872898386e-05
-0.00251423339232
-0.000102578734557
-0.00240750728293
-0.000106653182133
-0.00229721347298
-0.00011031386215
-0.00218368261293
-0.000113463192643
-0.00206761473811
-0.000116093923591
-0.00194945842093
-0.000118095977588
-0.00183003920583
-0.000119451219168
-0.00170994218397
-0.000120045280511
-0.00159011566769
-0.000119863723264
-0.00147125964361
-0.000118812713043
-0.00135439055547
-0.000116909983735
-0.00124024334179
-0.000114110916087
-0.00112980038892
-0.000110486038619
-0.00102371965342
-0.000106049487779
-0.000922839537078
-0.0001009239564
-0.00082763705402
-9.51742714811e-05
-0.000738715510677
-8.89652364349e-05
-0.00065628709315
-8.24019578931e-05
-0.000580651458814
-7.56789617948e-05
-0.000511710888617
-6.89157421245e-05
-0.000449457978634
-6.2296403081e-05
-0.000393527395633
-5.59081070281e-05
-0.000343687776953
-4.98839359161e-05
-0.000299416387749
-4.42523273548e-05
-0.000260377160319
-3.90849307119e-05
-0.00022600645076
-3.43560765432e-05
-0.000195962451385
-3.00912568015e-05
-0.000169717929997
-2.62350189354e-05
-0.00014697235976
-2.27942972985e-05
-0.000127257772232
-1.97104748327e-05
-0.000110318385162
-1.69891116836e-05
-9.57445479265e-05
-1.45747322887e-05
-8.33249651069e-05
-1.24695282187e-05
-7.27115034721e-05
-1.06183388783e-05
-6.37425587628e-05
-9.01805416697e-06
-5.61412485108e-05
-7.60934992904e-06
-4.98219304754e-05
-6.36690868073e-06
-4.46820452818e-05
-5.14946746407e-06
-4.06054269476e-05
-4.12173951014e-06
-3.69098383531e-05
-3.71054019873e-06
-3.35653859803e-05
-3.39097729896e-06
-3.06605362993e-05
-2.9293291229e-06
-2.78132400792e-05
-2.90014491e-06
-2.46965430632e-05
-3.15669308088e-06
-2.15089152759e-05
-3.25351929861e-06
-1.82150681944e-05
-3.35518867323e-06
-1.44714100975e-05
-3.82030164455e-06
-1.00140889115e-05
-4.54762221793e-06
-4.90397952499e-06
-5.2190848441e-06
-4.95835003126e-06
-0.000210316615774
0.000409175315686
-0.000433152414825
0.000431104007751
-0.000653767276313
0.000427484252287
-0.000870906254048
0.000420979911914
-0.00108356521155
0.00041241349516
-0.00129078959205
0.000401963333874
-0.00149171377544
0.000389818757912
-0.00168556808962
0.000376185020621
-0.0018717003733
0.000361275263873
-0.00204956111969
0.000345304173567
-0.00221871928598
0.00032848007181
-0.00237883532144
0.000311001174363
-0.00252967680541
0.000293049047323
-0.00267108195446
0.000274788453626
-0.00280297895443
0.000256362101589
-0.00292534169404
0.00023789423517
-0.00303821604869
0.000219485797419
-0.00314166873446
0.000201221400238
-0.0032358230063
0.000183163686096
-0.00332080060829
0.000165363288652
-0.00339676855267
0.000147851271499
-0.00346387341442
0.000130651883767
-0.00352230032276
0.000113772159733
-0.00357219844808
9.72175816445e-05
-0.00361375302579
8.09782153804e-05
-0.00364710076031
6.50475979858e-05
-0.00367241561188
4.94049426011e-05
-0.00368981294526
3.40377367966e-05
-0.00369944976619
1.8919708565e-05
-0.00370141655166
4.03759913627e-06
-0.00369585295935
-1.06353433236e-05
-0.00368282697536
-2.5107928389e-05
-0.00366246583985
-3.94024257078e-05
-0.00363482167066
-5.3518116225e-05
-0.00360001892931
-6.74678664535e-05
-0.00355810626773
-8.12366162212e-05
-0.00350922006105
-9.48235909203e-05
-0.00345342202879
-0.000108195790625
-0.00339087824602
-0.000121336316737
-0.00332168211168
-0.000134193033782
-0.00324604759048
-0.000146733275567
-0.00316411724308
-0.000158887766197
-0.00307616802364
-0.000170611510053
-0.00298240488983
-0.000181822631183
-0.00288317760386
-0.000192468369257
-0.00277876208031
-0.000202458149
-0.00266958721816
-0.000211732871741
-0.00255600839292
-0.000220191754925
-0.0024385437015
-0.000227763302076
-0.00231764520613
-0.000234327411874
-0.00219394191987
-0.000239788602598
-0.00206801235895
-0.000243998795516
-0.00194062572894
-0.00024683667671
-0.00181251279073
-0.000248139625082
-0.00168458979341
-0.000247792531294
-0.00155772001261
-0.000245671174279
-0.00143290902793
-0.000241732273211
-0.00131106011267
-0.000235954231152
-0.00119314943807
-0.000228411770235
-0.00107999166879
-0.000219205390138
-0.000972409770041
-0.000208522816834
-0.000871017396745
-0.000196566542794
-0.000776386665234
-0.000183613464038
-0.000688838171019
-0.000169951052618
-0.000608607961144
-0.000155926903393
-0.000535662988302
-0.000141862165907
-0.000469893616626
-0.000128084318084
-0.00041096360596
-0.000114841279782
-0.000358519055587
-0.000102348728386
-0.00031205291379
-9.07243348557e-05
-0.000271108259559
-8.00523073067e-05
-0.000235141610127
-7.03320643064e-05
-0.000203706760379
-6.15517509409e-05
-0.000176308928321
-5.3646156724e-05
-0.000152561266914
-4.65706889122e-05
-0.000132033240583
-4.02557770819e-05
-0.000114390956937
-3.46628447285e-05
-9.92591560167e-05
-2.97272579011e-05
-8.63549114376e-05
-2.54071282924e-05
-7.53615374793e-05
-2.16349165915e-05
-6.60483276787e-05
-1.83655707337e-05
-5.81508984718e-05
-1.55319608462e-05
-5.14641667399e-05
-1.30879469157e-05
-4.56726447109e-05
-1.09667236085e-05
-4.05910436196e-05
-9.23597330953e-06
-3.6175823365e-05
-8.15397487907e-06
-3.26258066984e-05
-6.9773663151e-06
-2.96805173475e-05
-5.90902821496e-06
-2.69794092123e-05
-5.64403609181e-06
-2.42267943493e-05
-5.95735647433e-06
-2.11700180692e-05
-6.36906147598e-06
-1.7887771957e-05
-6.70043430013e-06
-1.43488438439e-05
-7.4349940434e-06
-1.01827322531e-05
-8.80392344918e-06
-5.04566549255e-06
-1.045535107e-05
-1.0053236419e-05
-0.0002131796094
0.00062239335925
-0.000438306631791
0.000656271361378
-0.000661393514883
0.000650611638185
-0.000880927588089
0.000640554840801
-0.00109582361323
0.000627350369953
-0.00130509201126
0.000611273093264
-0.00150784516787
0.000592613265819
-0.00170330605463
0.000571687946463
-0.00189081712205
0.00054882833494
-0.00206983682315
0.000524366733866
-0.00223994024604
0.000498626253637
-0.00240080687756
0.000471911591752
-0.0025522169903
0.000444502749348
-0.00269403404083
0.000416650286199
-0.00282620044935
0.000388572950416
-0.0029487173452
0.000360456934576
-0.00306164254993
0.000332456281436
-0.00316506934706
0.000304695000119
-0.00325912840264
0.00027726878116
-0.00334396617925
0.000250248795272
-0.00341975163954
0.000223683423018
-0.00348665415987
0.000197602940794
-0.00354485525778
0.000172020423997
-0.00359452545204
0.000146936956189
-0.00363584103641
0.000122341251208
-0.00366895923131
9.8215415006e-05
-0.0036940399661
7.45331637254e-05
-0.0037112187558
5.12663615582e-05
-0.00372063359874
2.83818318163e-05
-0.00372239521124
5.84900395608e-06
-0.0037166191885
-1.6364587156e-05
-0.00370339337324
-3.8284266006e-05
-0.00368281565217
-5.99341365525e-05
-0.00365495835628
-8.13265382704e-05
-0.00361991177115
-0.000102469523749
-0.00357774545553
-0.000123354950551
-0.00352855744816
-0.000143968019201
-0.00347243210987
-0.00016427434365
-0.00340949441202
-0.000184232103767
-0.00333986358822
-0.000203778594296
-0.00326371145491
-0.00022284548915
-0.00318121091689
-0.000241345016761
-0.00309259689736
-0.000259188145037
-0.0029981091172
-0.000276269771354
-0.00289805483083
-0.000292488551888
-0.00279274664307
-0.000307729297807
-0.00268256768855
-0.000321882044799
-0.00256790761551
-0.000334819617421
-0.0024492327324
-0.00034641402103
-0.00232702489804
-0.000356509468199
-0.00220185848021
-0.000364938089692
-0.00207434435318
-0.000371495087069
-0.00194520907707
-0.00037596317107
-0.00181523619943
-0.00037810290718
-0.00168533083307
-0.000377696625008
-0.00155644098177
-0.00037455855421
-0.00142959111591
-0.000368586862554
-0.00130578419393
-0.000359764088675
-0.00118602034118
-0.000348184656713
-0.00107120504528
-0.000334026796238
-0.000962175115043
-0.000317563717456
-0.000859622345655
-0.00029912654162
-0.00076412662503
-0.000279120486615
-0.000676068855941
-0.000258016248358
-0.000595656838594
-0.000236350363244
-0.00052286539752
-0.000214661637563
-0.000457506331794
-0.000193455774561
-0.000399212619574
-0.00017314460553
-0.000347533625243
-0.000154042109788
-0.000301928688637
-0.000136341425893
-0.000261857152813
-0.000120141020738
-0.000226762777711
-0.000105441784213
-0.000196146373417
-9.21886189221e-05
-0.000169530342448
-8.02812389451e-05
-0.000146502254702
-6.96227148433e-05
-0.000126659400466
-6.01212960378e-05
-0.000109643299324
-5.17059348017e-05
-9.50995036047e-05
-4.42966314876e-05
-8.27207777271e-05
-3.78151164385e-05
-7.22105722166e-05
-3.21727180345e-05
-6.33176183902e-05
-2.72891828116e-05
-5.57974190755e-05
-2.30812358788e-05
-4.94357971041e-05
-1.94811756378e-05
-4.39942368569e-05
-1.64369102467e-05
-3.9333449356e-05
-1.39277179452e-05
-3.52919120814e-05
-1.22271779838e-05
-3.15341417831e-05
-1.07713316062e-05
-2.80168102865e-05
-9.4636030468e-06
-2.51877524913e-05
-8.5156677998e-06
-2.28902337808e-05
-8.30457789757e-06
-1.990145564e-05
-9.41652508527e-06
-1.6295375482e-05
-1.03708491481e-05
-1.25287855705e-05
-1.1273798744e-05
-8.38543664004e-06
-1.30291968183e-05
-4.32086248077e-06
-1.4606492272e-05
-1.441770948e-05
-0.000216611918441
0.000839043750751
-0.000445106227246
0.000884806022824
-0.000671483562951
0.00087702953442
-0.000894132563219
0.000863244644181
-0.00111190256045
0.00084516132478
-0.00132375897629
0.000823170784449
-0.00152878503171
0.000797680832777
-0.00172619014189
0.000769134982939
-0.00191531421792
0.000737994627204
-0.0020956256659
0.00070472089978
-0.00226671629501
0.000669759924865
-0.00242829123089
0.000633530140757
-0.00258015833805
0.000596413799461
-0.00272221410668
0.000558750627469
-0.00285443159102
0.000520835321771
-0.00297684561123
0.000482916507632
-0.0030895420518
0.00044519853827
-0.003192644356
0.00040784381
-0.00328630567041
0.000370976791017
-0.00337069733778
0.000334687846068
-0.00344600428477
0.000299037831962
-0.0035124153719
0.00026406216729
-0.00357012184308
0.000229774984238
-0.00361930901397
0.000196172860808
-0.00366015738628
0.000163238144106
-0.00369283510499
0.00013094226455
-0.00371750142436
9.92482294309e-05
-0.00373429951541
6.81137566041e-05
-0.00374336213202
3.74931675529e-05
-0.00374480457276
7.34067244419e-06
-0.00373873259665
-2.23881238927e-05
-0.00372523555519
-5.17324263626e-05
-0.00370439683942
-8.07249870827e-05
-0.00367628726925
-0.000109387859153
-0.00364097825208
-0.000137731525487
-0.00359853549463
-0.000165750379417
-0.00354903485106
-0.000193422803276
-0.00349255604611
-0.000220707040708
-0.00342920067408
-0.000247543067972
-0.00335908505585
-0.00027384966554
-0.00328235915055
-0.000299528848825
-0.00319919708773
-0.000324464591927
-0.00310981532257
-0.000348529817769
-0.00301445945855
-0.000371585963809
-0.00291342048761
-0.000393490764854
-0.00280701798914
-0.000414095951188
-0.0026956155992
-0.000433252137794
-0.00257960382447
-0.000450800676304
-0.00245941950296
-0.000466572081647
-0.00233553467298
-0.000480370498135
-0.00220848629418
-0.000491968004552
-0.00207887598478
-0.000501090059503
-0.00194740843202
-0.000507420912519
-0.00181489173195
-0.000510612654542
-0.00168226130228
-0.000510324947977
-0.00155054864378
-0.000506271375185
-0.00142085911477
-0.000498280582261
-0.00129430650452
-0.00048632269747
-0.00117197341427
-0.000470526294465
-0.00105486019831
-0.000451148909473
-0.000943862099435
-0.000428571872011
-0.000839748214551
-0.000403249776922
-0.000743159110426
-0.000375719666726
-0.000654537724111
-0.00034664671149
-0.000574091721983
-0.000316806492922
-0.000501764732986
-0.000286998179475
-0.000437277693421
-0.00025795399779
-0.000380169084342
-0.000230264509848
-0.000329869915387
-0.000204354617003
-0.00028574645546
-0.0001804788334
-0.000247162202472
-0.000158741471535
-0.000213505505284
-0.000139115655977
-0.000184232250549
-0.000121481549957
-0.000158865337292
-0.000105669037758
-0.000136994655063
-9.15167316943e-05
-0.000118236034714
-7.89041697697e-05
-0.000102224018989
-6.77442588574e-05
-8.86065023547e-05
-5.79410675035e-05
-7.70666148841e-05
-4.93834174926e-05
-6.73154157977e-05
-4.19526108194e-05
-5.90994717074e-05
-3.55348402234e-05
-5.21896711729e-05
-3.00210683185e-05
-4.63822930001e-05
-2.53188469416e-05
-4.14421231628e-05
-2.14070803001e-05
-3.72310352797e-05
-1.81691435658e-05
-3.33036003459e-05
-1.61886496584e-05
-2.96509522366e-05
-1.44615372311e-05
-2.64363905183e-05
-1.27180677752e-05
-2.3213285675e-05
-1.17831026471e-05
-1.99051108917e-05
-1.1662192721e-05
-1.74396076574e-05
-1.19375981618e-05
-1.40318451953e-05
-1.38421457806e-05
-1.00389656544e-05
-1.53358467649e-05
-6.64912625043e-06
-1.64901750635e-05
-3.47171228009e-06
-1.78596957625e-05
-1.79293077352e-05
-0.000221194047588
0.00106027625752
-0.000454375030603
0.00111802725687
-0.000685263353394
0.00110795843684
-0.000912152902874
0.00109017496073
-0.00113381801567
0.00106686741368
-0.00134916699997
0.00103856102365
-0.00155724566204
0.00100580103512
-0.00175724550754
0.000969176744621
-0.00194850588072
0.000929297269457
-0.00213051002153
0.000886767761353
-0.00230287640271
0.000842169425626
-0.00246534619587
0.000796043563862
-0.00261776876651
0.000748880427657
-0.00276008568898
0.000701112155415
-0.00289231517672
0.000653109845894
-0.00301453663077
0.000605183563742
-0.00312687710754
0.000557585031216
-0.0032294985145
0.000510511791449
-0.00332258739972
0.000464112619494
-0.00340634531412
0.000418493235123
-0.00348098194277
0.000373722240721
-0.00354670823112
0.000329836716583
-0.00360373227044
0.000286847500785
-0.00365225445637
0.000244743940415
-0.00369246544471
0.000203498142055
-0.00372454267195
0.000163068834082
-0.00374864985451
0.000123404748321
-0.00376493443506
8.44479145033e-05
-0.00377352839033
4.6136566824e-05
-0.00377454647629
8.40833305702e-06
-0.00376808836825
-2.87969404689e-05
-0.00375423788533
-6.55336037184e-05
-0.00373306680499
-0.000101847194004
-0.00370463532933
-0.000137770577927
-0.0036689979189
-0.000173320774
-0.0036262052898
-0.000208495090611
-0.0035763123874
-0.000243268541677
-0.00351938175091
-0.00027759090626
-0.00345549308935
-0.000311385901171
-0.00338474703484
-0.000344550479674
-0.00330727481315
-0.00037695702737
-0.00322324041975
-0.000408455861145
-0.00313284797024
-0.000438880743232
-0.00303633992832
-0.000468053860581
-0.00293400012797
-0.000495792541401
-0.00282614718255
-0.000521912830198
-0.00271313414681
-0.000546231898407
-0.00259534083159
-0.000568563500296
-0.0024731769582
-0.000588709120224
-0.0023470837195
-0.000606440725922
-0.00221755251807
-0.000621480749463
-0.00208514704566
-0.000633481311111
-0.0019505425593
-0.000642015756657
-0.00181455786947
-0.000646591280222
-0.0016781819119
-0.000646698951624
-0.00154255766279
-0.000641896946668
-0.00140892808399
-0.000631915237589
-0.00127856045613
-0.000616697779661
-0.0011526681268
-0.000596428512428
-0.00103237064995
-0.000571456170318
-0.000918641819956
-0.000542311086144
-0.0008123412934
-0.00050956010841
-0.000714227677628
-0.000473843033618
-0.000624844413914
-0.000436039399358
-0.000544419165486
-0.000397241391538
-0.000472832325726
-0.00035859504624
-0.000409669575452
-0.00032112772096
-0.00035430931926
-0.000285636727497
-0.000306015504956
-0.000252661962829
-0.00026400638731
-0.000222502621451
-0.000227516496511
-0.00019524807394
-0.00019584330263
-0.000170806866278
-0.000168392918179
-0.000148952248584
-0.000144692633679
-0.000129391236153
-0.000124365554821
-0.00011186773478
-0.000107057699208
-9.62372414908e-05
-9.23993432335e-05
-8.242922321e-05
-8.00262888983e-05
-7.03416176011e-05
-6.96138676188e-05
-5.98243718012e-05
-6.08772587733e-05
-5.07181080486e-05
-5.35688784956e-05
-4.28727731801e-05
-4.74792669177e-05
-3.61405087317e-05
-4.24463869135e-05
-3.03823580185e-05
-3.83779236953e-05
-2.55054665542e-05
-3.4736499125e-05
-2.18424544241e-05
-3.12840753384e-05
-1.9676640965e-05
-2.78735453496e-05
-1.79110005006e-05
-2.39990298002e-05
-1.66345365084e-05
-2.04124846701e-05
-1.54147493946e-05
-1.70755707076e-05
-1.50493223148e-05
-1.43228341203e-05
-1.47443896014e-05
-1.18936637239e-05
-1.63310401863e-05
-8.45615645144e-06
-1.88367192622e-05
-5.25523403609e-06
-1.97567129933e-05
-2.68128362864e-06
-2.05007217716e-05
-2.06436693307e-05
-0.000227069677898
0.00128738437818
-0.000466322784441
0.00135732065117
-0.000703033527495
0.00134470971893
-0.0009353734073
0.0013225555898
-0.00116202186702
0.00129355683859
-0.00138181559899
0.00125839599095
-0.00159375459455
0.00121778158514
-0.00179701018634
0.0011724742436
-0.00199092492171
0.0011232543128
-0.00217500530008
0.00107089086702
-0.00234890872565
0.00101611604211
-0.00251242673218
0.000959605227426
-0.0026654659249
0.000901963781992
-0.00280802846115
0.000843719348178
-0.00294019296125
0.000785319528159
-0.00306209700858
0.00072713329349
-0.00317392145754
0.000669455683528
-0.00327587707052
0.000612514093698
-0.00336819323714
0.000556475971137
-0.00345110886548
0.000501456496556
-0.0035248650241
0.00044752647829
-0.00358969920792
0.000394719373925
-0.00364584086546
0.000343038012306
-0.00369350794901
0.000292460199976
-0.00373290432247
0.000242943986009
-0.00376421771312
0.000194431934778
-0.00378761831651
0.000146855259358
-0.00380325763321
0.000100137279268
-0.00381126797046
5.41970335725e-05
-0.00381176205439
8.95257908678e-06
-0.00380483351972
-3.56753612721e-05
-0.00379055761802
-7.97594843219e-05
-0.00376899317381
-0.000123361811299
-0.00374018484099
-0.000166529304208
-0.00370416716588
-0.00020928918731
-0.00366096897113
-0.000251644385131
-0.00361061988253
-0.000293569245174
-0.00355315689824
-0.000335006023547
-0.00348863299027
-0.000375862667362
-0.00341712480032
-0.000416012278611
-0.00333874150281
-0.000455294992233
-0.00325363097177
-0.000493522195074
-0.00316198549578
-0.000530483557584
-0.00306404265855
-0.000565955725049
-0.00296008419614
-0.00059971214126
-0.00285042917816
-0.000631531324562
-0.00273542591131
-0.000661201516311
-0.0026154410541
-0.000688517752631
-0.00249085399705
-0.000713269528613
-0.00236205700402
-0.000735215013194
-0.00222947318069
-0.000754046477315
-0.00209359191706
-0.00076934865599
-0.00195502817775
-0.000780569797413
-0.00181459031747
-0.000787023012303
-0.00167333570821
-0.000787951343815
-0.00153256986213
-0.000782664832492
-0.00139374521627
-0.000770745195929
-0.00125835591257
-0.00075209680543
-0.00112779173343
-0.000727002776835
-0.00100333454254
-0.000695923914874
-0.000886012776768
-0.000659642792403
-0.00077678388652
-0.000618798631261
-0.000676619816524
-0.000574016546261
-0.000586253861286
-0.000526414246058
-0.000505962274895
-0.00047754251687
-0.000435515480802
-0.000429051614475
-0.000374282499152
-0.000382371806923
-0.00032139323807
-0.000338538378518
-0.000275874467336
-0.000298194498569
-0.000236736371495
-0.000261656406763
-0.000203035571031
-0.000228965957556
-0.000173939066819
-0.000199922521982
-0.00014878983502
-0.000174122429351
-0.000127144832512
-0.000151059512861
-0.000108720019667
-0.000130317224094
-9.32284670156e-05
-0.000111754843128
-8.02826053362e-05
-9.54021171622e-05
-6.94783712103e-05
-8.11740806331e-05
-6.04782248949e-05
-6.88531723041e-05
-5.3003532628e-05
-5.82220969141e-05
-4.68094640361e-05
-4.90963640541e-05
-4.16936130561e-05
-4.12864304647e-05
-3.74923190603e-05
-3.46142892562e-05
-3.40686269637e-05
-2.89599018354e-05
-3.06910234572e-05
-2.52527314563e-05
-2.74296997951e-05
-2.29736930163e-05
-2.44832322548e-05
-2.08967998981e-05
-2.17494451034e-05
-1.94115099697e-05
-1.84984831337e-05
-1.87142192565e-05
-1.50879882126e-05
-1.8511303103e-05
-1.15353287945e-05
-1.83484757781e-05
-9.16899068639e-06
-1.87519647208e-05
-7.12029908638e-06
-2.09454050462e-05
-4.41392561471e-06
-2.25212835866e-05
-2.22582850591e-06
-2.27469561377e-05
-2.29004231147e-05
-0.000234385010227
0.00152180779211
-0.000481210254856
0.0016041860708
-0.000725164344438
0.00158870432445
-0.000964258089117
0.00156169004068
-0.0011970494601
0.00152638914775
-0.00142228622926
0.00148367397907
-0.00163891414937
0.00143445104212
-0.00184608418637
0.0013796861961
-0.00204314917549
0.00132036161203
-0.00222965145275
0.00125743590971
-0.00240530396045
0.00119181176678
-0.0025699671927
0.00112431218927
-0.00272362447275
0.00105566528178
-0.00286635726793
0.000986496911863
-0.00299832221713
0.00091732975268
-0.00311973050593
0.000848587420896
-0.00323083037516
0.000780601894776
-0.00333189251082
0.000713623126133
-0.00342319853851
0.000647829373411
-0.00350503188169
0.000583337740454
-0.0035776710259
0.000520213958725
-0.00364138429157
0.000458481454021
-0.00369642622109
0.000398129131551
-0.00374303470527
0.000339118289319
-0.00378142912009
0.00028138830945
-0.00381180867504
0.000224861735005
-0.00383435142274
0.000169448467935
-0.00384921321647
0.000115049778371
-0.00385652724507
6.15618847238e-05
-0.00385640351978
8.87981020387e-06
-0.0038489290765
-4.30988505822e-05
-0.00383416848293
-9.44691168789e-05
-0.00381216539581
-0.000145314067179
-0.0037829448134
-0.000195699190317
-0.00374651697351
-0.000245666606307
-0.00370288234353
-0.00029522888544
-0.00365203861975
-0.000344363280996
-0.00359398890243
-0.000393006541925
-0.00352875166338
-0.000441051382961
-0.00345637112456
-0.000488345091314
-0.00337692809605
-0.000534691355716
-0.00329054916108
-0.00057985576474
-0.00319741362434
-0.000623575369199
-0.00309775568434
-0.000665571869009
-0.00299186131215
-0.00070556702475
-0.00288005804758
-0.000743297746569
-0.00276269905651
-0.000778526475665
-0.00264014347562
-0.000811042966536
-0.0025127375417
-0.00084064844944
-0.00238080738601
-0.000867122829945
-0.00224467087795
-0.000890164346421
-0.00210468750524
-0.000909317827519
-0.00196134785494
-0.000923898427993
-0.00181540209257
-0.00093296137239
-0.00166798129885
-0.000935368792318
-0.00152063880822
-0.000930008424786
-0.00137514844254
-0.000916242298514
-0.00123334594745
-0.00089390873775
-0.00109684831148
-0.000863511411624
-0.000967183210033
-0.000825598614614
-0.000845294910893
-0.000781540227742
-0.000732201361513
-0.00073190082092
-0.000629290577084
-0.000676935684576
-0.000537678419732
-0.000618034914925
-0.00045773543762
-0.000557494140074
-0.000389033755985
-0.000497763117996
-0.000330575749698
-0.000440840802885
-0.00028111271279
-0.000388014087409
-0.00023934549232
-0.000339976422062
-0.000204008534712
-0.000297009393347
-0.000173919295066
-0.000259073656372
-0.000148052555248
-0.00022580897083
-0.000125660978149
-0.00019653668847
-0.000106380832379
-0.00017036356574
-9.01570085196e-05
-0.000146567140377
-7.68546832861e-05
-0.000125084173048
-6.60133115576e-05
-0.000106271674429
-5.71159318482e-05
-9.01001635214e-05
-4.98104385561e-05
-7.61883968787e-05
-4.38417193606e-05
-6.42204401651e-05
-3.89654981371e-05
-5.40027123179e-05
-3.49878338744e-05
-4.52947874591e-05
-3.1750460487e-05
-3.78829315096e-05
-2.91257813372e-05
-3.16166630888e-05
-2.63416843173e-05
-2.807066281e-05
-2.38186256729e-05
-2.55341079235e-05
-2.10586741507e-05
-2.36973084644e-05
-1.83310105565e-05
-2.21838666551e-05
-1.54414631471e-05
-2.16523723723e-05
-1.28657618911e-05
-2.11375831054e-05
-9.89537666967e-06
-2.13717344236e-05
-7.07835692348e-06
-2.16205779126e-05
-5.63831260911e-06
-2.24360463537e-05
-3.66637247855e-06
-2.45485045527e-05
-1.844708852e-06
-2.46230762465e-05
-2.47715948207e-05
-0.000243314558593
0.0017651607032
-0.000499376203833
0.00186028788493
-0.000752140740931
0.00184150930054
-0.000999411916908
0.00180900187322
-0.00123959420161
0.00176661232516
-0.00147132668556
0.00171544763803
-0.00169349305365
0.00165665892964
-0.00190522692848
0.00159146196063
-0.00210590328682
0.0015210802946
-0.00229511881413
0.00144669420198
-0.00247266450606
0.00136940072859
-0.00263849429808
0.00129018574279
-0.00279269250803
0.00120990780774
-0.00293544285948
0.00112929210251
-0.00306700037531
0.00104893269115
-0.00318766749199
0.000969300493599
-0.00329777428202
0.000890755230646
-0.00339766312135
0.000813559035467
-0.00348767687375
0.000737890772435
-0.00356815051599
0.000663859525311
-0.00363940502234
0.000591517151989
-0.00370174345236
0.000520869024235
-0.0037554481269
0.000451883443822
-0.00380077902823
0.000384499224586
-0.00383797247636
0.000318632226462
-0.00386724041986
0.000254180474881
-0.0038887695617
0.000191028764861
-0.00390272081857
0.000129052434002
-0.00390922850629
6.81212361937e-05
-0.00390839990027
8.10301341284e-06
-0.00390031471269
-5.11320797519e-05
-0.00388502542047
-0.000109706424108
-0.00386255799775
-0.000167729490613
-0.00383291406147
-0.000225291235349
-0.00379607432583
-0.000282454593364
-0.00375200411176
-0.000339247621193
-0.00370066087614
-0.000395655379611
-0.00364200413763
-0.000451612628055
-0.00357600750243
-0.000506998008612
-0.00350267230937
-0.000561631122816
-0.0034220419848
-0.000615273677726
-0.00333421523832
-0.000667635947718
-0.00323935637745
-0.00071838953722
-0.00313769954233
-0.000767186169585
-0.00302954494794
-0.000813681715518
-0.0029152438305
-0.000857561372415
-0.00279517378509
-0.00089856258158
-0.00266970173478
-0.000936483464804
-0.0025391488248
-0.00097117457319
-0.00240375707369
-0.00100249050745
-0.00226369248702
-0.00103020978837
-0.00211909355874
-0.00105389964554
-0.00197021011704
-0.00107276906843
-0.00181762410264
-0.00108553578006
-0.00166251849768
-0.00109046889129
-0.00150685369164
-0.00108567333388
-0.00135290234467
-0.00107019887886
-0.00120304983193
-0.00104377104228
-0.00105915219167
-0.0010074179382
-0.000923265661647
-0.000961492680422
-0.000795732014546
-0.000909079345048
-0.000677474370924
-0.000850166451409
-0.000570783556639
-0.000783632609746
-0.000477573316234
-0.00071125350263
-0.000398375400345
-0.000636699576083
-0.000332364565608
-0.000563784441499
-0.000277892415316
-0.000495323516199
-0.000233134566538
-0.000432786767756
-0.000196369986706
-0.00037675533748
-0.000166001515335
-0.000327397254822
-0.000140527342522
-0.00028456616677
-0.000118627230204
-0.000247732781579
-9.93785722085e-05
-0.000215808539536
-8.25826262156e-05
-0.000187187749722
-6.87214874606e-05
-0.000160456412727
-5.80248525975e-05
-0.000135810143593
-4.97733464776e-05
-0.000114552718342
-4.31457307665e-05
-9.6758733484e-05
-3.78008694654e-05
-8.15638401428e-05
-3.35794275496e-05
-6.84730836557e-05
-3.02168413765e-05
-5.73966928393e-05
-2.75331783887e-05
-4.80103195904e-05
-2.53697347336e-05
-4.00795096667e-05
-2.34918804692e-05
-3.35283203027e-05
-2.15587755607e-05
-3.00401917072e-05
-1.97432747824e-05
-2.73888477024e-05
-1.77252065812e-05
-2.57582340901e-05
-1.52538479099e-05
-2.47016362748e-05
-1.28479493063e-05
-2.41073608182e-05
-1.02234959822e-05
-2.3812816851e-05
-8.29350739756e-06
-2.3352069785e-05
-6.07633916299e-06
-2.38878808031e-05
-4.32741999753e-06
-2.42357989367e-05
-3.09760382138e-06
-2.58273316519e-05
-1.51941296554e-06
-2.62496628138e-05
-2.63169749862e-05
-0.000254079264859
0.00201927823855
-0.000521257893488
0.00212750653855
-0.000784589060467
0.00210488083068
-0.00104161309814
0.00206606648341
-0.00129054253107
0.00201558257739
-0.00152988578332
0.00195483201126
-0.00175845844256
0.00188527305083
-0.00197538472369
0.00180843010971
-0.00218008083464
0.00172581869833
-0.00237222442988
0.00163888058042
-0.00255171548866
0.00154893505943
-0.00271863332431
0.00145714740544
-0.00287319408375
0.00136451292786
-0.00301571147499
0.00127185445305
-0.00314656293231
0.00117982966582
-0.00326616171405
0.00108894541384
-0.00337493537223
0.000999575590528
-0.00347330964721
0.000911980635207
-0.00356169739687
0.000826326397003
-0.00364049110936
0.000742701719883
-0.00371005854222
0.000661133589453
-0.00377074011719
0.000581600179563
-0.00382284789386
0.000504041282162
-0.00386666502201
0.000428366945328
-0.00390244580808
0.0003544640336
-0.00393041553463
0.000282201694047
-0.00395077039724
0.000211435481212
-0.00396367688165
0.000142011168648
-0.00396927113355