/*--------------------------------*- C++ -*----------------------------------*\
| =========                 |                                                 |
| \\      /  F ield         | OpenFOAM: The Open Source CFD Toolbox           |
|  \\    /   O peration     | Version:  v1906                                 |
|   \\  /    A nd           | Web:      www.OpenFOAM.com                      |
|    \\/     M anipulation  |                                                 |
\*---------------------------------------------------------------------------*/
FoamFile
{
    version     2.0;
    format      ascii;
    class       volVectorField;
    location    "497";
    object      U;
}
// * * * * * * * * * * * * * * * * * * * * * * * * * * * * * * * * * * * * * //

dimensions      [0 1 -1 0 0 0 0];


internalField   nonuniform List<vector> 
9216
(
(0.00155799732791 -0.00155929822161 0)
(0.00159770934169 -0.00485929489229 6.54050076983e-28)
(0.00158629960205 -0.00816714666602 1.08183461177e-31)
(0.00156305400805 -0.0114547037954 0)
(0.00153181938116 -0.014683357821 0)
(0.00149336962938 -0.017839064665 0)
(0.00144859186435 -0.0209077078861 0)
(0.00139824113993 -0.0238769114666 0)
(0.00134315468743 -0.0267359144422 0)
(0.00128407554011 -0.0294756366175 0)
(0.00122182157527 -0.0320886030609 0)
(0.00115706649527 -0.0345689264462 0)
(0.00109054035143 -0.0369121622449 0)
(0.00102278922307 -0.039115223063 0)
(0.000954410653126 -0.0411761933279 0)
(0.000885796724665 -0.0430942098718 0)
(0.000817399777506 -0.0448692707405 0)
(0.00074946033189 -0.0465021109605 0)
(0.000682296007321 -0.0479940312253 0)
(0.000616016076866 -0.0493467867835 0)
(0.000550826381089 -0.0505624494404 0)
(0.000486733165309 -0.0516433162875 0)
(0.000423856848738 -0.0525918098529 0)
(0.000362129574376 -0.0534104066097 0)
(0.00030161132522 -0.0541015741441 0)
(0.000242186674349 -0.0546677156652 0)
(0.000183876795237 -0.0551111418103 0)
(0.000126542172115 -0.0554340273961 0)
(7.01843107883e-05 -0.0556384155625 0)
(1.46619332155e-05 -0.0557261821295 0)
(-4.00274966172e-05 -0.0556990803946 0)
(-9.40104852683e-05 -0.0555586938099 0)
(-0.000147273480818 -0.0553065185776 0)
(-0.00019990159474 -0.0549439444357 0)
(-0.000251850947213 -0.0544723502022 0)
(-0.000303149469819 -0.0538930919692 0)
(-0.000353709223719 -0.0532076290413 0)
(-0.000403485772853 -0.0524175129535 0)
(-0.000452339972174 -0.0515245354203 0)
(-0.000500148806971 -0.0505307096954 0)
(-0.000546725079351 -0.0494384290365 0)
(-0.000591872289956 -0.0482504300487 0)
(-0.000635368417805 -0.0469699483598 0)
(-0.000676956880959 -0.0456006578255 0)
(-0.000716397043484 -0.0441468155895 0)
(-0.000753383481928 -0.0426131858037 0)
(-0.000787661014166 -0.041005178097 0)
(-0.000818869489122 -0.0393287840707 0)
(-0.00084671842352 -0.0375907245481 0)
(-0.000870766832796 -0.0357984354982 0)
(-0.000890653716042 -0.0339602261805 0)
(-0.000905841392259 -0.0320853173768 0)
(-0.000915902608454 -0.0301839605017 0)
(-0.00092026648605 -0.0282674500482 0)
(-0.000918554566711 -0.02634808573 0)
(-0.00091034650253 -0.0244390202882 0)
(-0.000895523262983 -0.022553973344 0)
(-0.000874020315596 -0.0207068689861 0)
(-0.000846127136446 -0.0189113952497 0)
(-0.000812200592147 -0.0171805579628 0)
(-0.000772936056568 -0.0155262732368 0)
(-0.000729052752016 -0.0139589538043 0)
(-0.000681578553811 -0.0124872183118 0)
(-0.000631512627264 -0.0111175262919 0)
(-0.000580121016704 -0.00985400545763 0)
(-0.000528493041853 -0.00869825302483 0)
(-0.000477840605812 -0.00764949001219 0)
(-0.000428998547402 -0.00670473065735 0)
(-0.000382818349138 -0.00585926397276 0)
(-0.000339677373034 -0.00510705433768 0)
(-0.000299980819862 -0.00444129023868 0)
(-0.00026368107845 -0.00385477558838 0)
(-0.000230850329916 -0.00334032248014 0)
(-0.000201202071563 -0.0028909768417 0)
(-0.000174681670018 -0.00250015121689 0)
(-0.000150961263049 -0.00216166950135 0)
(-0.00012998113481 -0.00186974185811 0)
(-0.000111417392484 -0.00161899640342 0)
(-9.51909861556e-05 -0.00140445549518 0)
(-8.09656334186e-05 -0.00122160064984 0)
(-6.8628021421e-05 -0.00106634719087 0)
(-5.77917859756e-05 -0.000935136828673 0)
(-4.81288544623e-05 -0.000825238926077 0)
(-3.8507771409e-05 -0.000732165389523 0)
(-3.08091986429e-05 -0.000654490926727 0)
(-2.84053062257e-05 -0.000602098955573 0)
(-2.61826316108e-05 -0.000543125733224 0)
(-2.25619029379e-05 -0.000494795531093 0)
(-2.25926049327e-05 -0.000454099861188 0)
(-2.44080409593e-05 -0.000407352268997 0)
(-2.4577776803e-05 -0.000360442901903 0)
(-2.51510031933e-05 -0.00031021290378 0)
(-2.87762519945e-05 -0.000255242307355 0)
(-3.29542800742e-05 -0.000194822524309 0)
(-3.75084744062e-05 -0.00012120622797 0)
(-4.0369118373e-05 -3.93118592777e-05 0)
(0.00487172979013 -0.0016155424661 0)
(0.00513256641603 -0.00517194265126 0)
(0.00509306183174 -0.00869694994319 -6.72538647619e-28)
(0.00501677615852 -0.0122026936877 0)
(0.00491533607148 -0.0156422836204 0)
(0.00479124094481 -0.0190025155424 0)
(0.00464692470952 -0.0222686941376 0)
(0.00448480285058 -0.0254277344821 0)
(0.00430747755805 -0.0284682407833 0)
(0.00411742517405 -0.0313806074635 0)
(0.00391719521754 -0.034156983386 0)
(0.00370905625256 -0.0367912215487 0)
(0.00349525776503 -0.0392787462469 0)
(0.00327766286337 -0.0416164269614 0)
(0.00305807726026 -0.0438023975583 0)
(0.00283787352887 -0.0458358993273 0)
(0.00261837667476 -0.0477170924202 0)
(0.00240047731902 -0.0494469012869 0)
(0.0021850583628 -0.0510268453773 0)
(0.00197259430878 -0.0524589061663 0)
(0.00176360374506 -0.0537453903922 0)
(0.00155823481424 -0.0548888256529 0)
(0.00135673016509 -0.0558918594878 0)
(0.00115900269037 -0.0567571828219 0)
(0.00096510208899 -0.0574874625245 0)
(0.000774788252876 -0.0580852885542 0)
(0.000587990046951 -0.058553136198 0)
(0.00040438631875 -0.0588933326985 0)
(0.000223848349166 -0.05910804577 0)
(4.60398122456e-05 -0.0591992679599 0)
(-0.0001291683427 -0.0591688235011 0)
(-0.000302067627444 -0.0590183861971 0)
(-0.000472727389459 -0.0587495055997 0)
(-0.000641326900125 -0.0583636231159 0)
(-0.000807821180583 -0.0578621394172 0)
(-0.000972220974711 -0.0572464451899 0)
(-0.00113431905292 -0.0565180103229 0)
(-0.00129391256014 -0.0556784250041 0)
(-0.00145060505829 -0.0547295050661 0)
(-0.0016039631474 -0.0536733335705 0)
(-0.00175340785076 -0.052512369787 0)
(-0.0018982952864 -0.0512494778104 0)
(-0.00203790541074 -0.0498880245674 0)
(-0.00217143222378 -0.0484318851975 0)
(-0.00229806827467 -0.0468855219308 0)
(-0.0024168864124 -0.0452539702663 0)
(-0.00252700832949 -0.0435429082608 0)
(-0.00262736678639 -0.0417586507899 0)
(-0.0027169466158 -0.039908238424 0)
(-0.0027944439791 -0.0379994801238 0)
(-0.00285858716053 -0.0360410838598 0)
(-0.00290775945858 -0.0340427558868 0)
(-0.00294043677414 -0.0320153310935 0)
(-0.0029548724594 -0.029970837049 0)
(-0.0029496717459 -0.027922475537 0)
(-0.00292356339635 -0.025884467844 0)
(-0.00287600556667 -0.0238717385998 0)
(-0.00280689790011 -0.0218994843555 0)
(-0.00271704902532 -0.0199826654546 0)
(-0.00260774067131 -0.0181355016702 0)
(-0.00248109389176 -0.0163710121287 0)
(-0.00233956447193 -0.0147005893064 0)
(-0.00218632647709 -0.0131336689572 0)
(-0.00202477583226 -0.0116773517839 0)
(-0.00185888464596 -0.0103361110475 0)
(-0.00169240247986 -0.00911158210767 0)
(-0.00152910793958 -0.00800266960633 0)
(-0.0013719232575 -0.00700582340571 0)
(-0.00122339107353 -0.0061155621455 0)
(-0.00108492928421 -0.0053250099891 0)
(-0.000957580922837 -0.00462649270485 0)
(-0.000841378040609 -0.00401202525032 0)
(-0.000736262743525 -0.00347373289837 0)
(-0.000641504455369 -0.00300410727784 0)
(-0.000556659233467 -0.00259612008262 0)
(-0.000480902743073 -0.00224321680848 0)
(-0.000413817783963 -0.00193926243628 0)
(-0.000354598309643 -0.00167853999555 0)
(-0.000302773874501 -0.00145575811448 0)
(-0.000257492254682 -0.00126608867251 0)
(-0.000218224720592 -0.00110514401321 0)
(-0.000184064363209 -0.00096895556787 0)
(-0.000154297748189 -0.000853828648759 0)
(-0.000127284214572 -0.00075603795549 0)
(-0.000104638275006 -0.000664442721918 0)
(-9.19203668289e-05 -0.000591471558329 0)
(-7.91091371098e-05 -0.000529921670501 0)
(-6.80469617551e-05 -0.000483326608327 0)
(-6.64128535393e-05 -0.000435804294518 0)
(-7.07766614141e-05 -0.000397898395284 0)
(-7.33234976624e-05 -0.000357776783907 0)
(-7.7640533059e-05 -0.00030520920981 0)
(-8.57790057859e-05 -0.000249013398368 0)
(-0.000106188050305 -0.000198176106832 0)
(-0.000130124462961 -0.000127406667826 0)
(-0.00011807868371 -3.54093742316e-05 0)
(0.0082447168193 -0.00163684465163 0)
(0.00869057965981 -0.00523722470547 0)
(0.00861620155622 -0.00879906448797 -6.71592946918e-28)
(0.00848387875833 -0.0123441197675 0)
(0.00831002014982 -0.0158208463769 0)
(0.0080981693178 -0.0192153784169 0)
(0.00785215342302 -0.0225125749002 0)
(0.00757610676834 -0.0256991168699 0)
(0.00727439458529 -0.0287635149423 0)
(0.00695134830038 -0.0316961786929 0)
(0.00661124098701 -0.0344893784815 0)
(0.00625804996106 -0.0371371634304 0)
(0.00589550145769 -0.0396352209879 0)
(0.00552687033633 -0.0419807184501 0)
(0.00515509396813 -0.0441721146272 0)
(0.0047826048839 -0.0462089762005 0)
(0.00441149970477 -0.048091785656 0)
(0.00404339114563 -0.0498217682546 0)
(0.00367961244747 -0.0514007237142 0)
(0.00332107463641 -0.0528308826351 0)
(0.00296848888087 -0.0541147733941 0)
(0.00262221948112 -0.0552551132368 0)
(0.00228251162747 -0.0562547113618 0)
(0.00194933668207 -0.0571163921262 0)
(0.00162261797455 -0.0578429298337 0)
(0.00130206992525 -0.0584369985697 0)
(0.00098741810215 -0.0589011335585 0)
(0.000678237041875 -0.0592377027848 0)
(0.000374162631497 -0.059448891091 0)
(7.47345173326e-05 -0.0595366908233 0)
(-0.000220399576789 -0.059502908933 0)
(-0.000511630911833 -0.059349173801 0)
(-0.000799200075216 -0.0590769657435 0)
(-0.00108332749298 -0.0586876465937 0)
(-0.00136404114555 -0.0581825111637 0)
(-0.00164129125088 -0.0575628373467 0)
(-0.00191480568373 -0.0568299601758 0)
(-0.0021841890938 -0.0559853381201 0)
(-0.00244881695032 -0.0550306422726 0)
(-0.00270792099963 -0.0539678282652 0)
(-0.00296053155158 -0.0527992262889 0)
(-0.00320554688367 -0.0515276019497 0)
(-0.00344172530988 -0.0501562287607 0)
(-0.00366772571942 -0.0486889217218 0)
(-0.00388213645157 -0.0471300805639 0)
(-0.00408346159637 -0.0454846949565 0)
(-0.00427016063244 -0.043758369863 0)
(-0.00444055503223 -0.0419573323986 0)
(-0.00459285967527 -0.0400884834975 0)
(-0.00472501863332 -0.0381594641259 0)
(-0.00483475871924 -0.0361787858899 0)
(-0.0049194424864 -0.034155989287 0)
(-0.00497625432728 -0.0321018320934 0)
(-0.00500222607514 -0.0300284396048 0)
(-0.00499466100821 -0.0279493517932 0)
(-0.00495136340689 -0.0258793923664 0)
(-0.00487114200073 -0.0238343059155 0)
(-0.00475390654216 -0.0218302332905 0)
(-0.00460090011336 -0.0198830964537 0)
(-0.00441447434545 -0.0180080224086 0)
(-0.00419814517564 -0.0162188424801 0)
(-0.00395625897077 -0.0145276699032 0)
(-0.00369407016256 -0.0129445999186 0)
(-0.00341762912694 -0.0114772926642 0)
(-0.00313373590122 -0.0101304867069 0)
(-0.00284923168624 -0.00890568467702 0)
(-0.00257057377663 -0.00780122991243 0)
(-0.00230308800637 -0.00681271203681 0)
(-0.00205090358884 -0.00593361908712 0)
(-0.00181661264495 -0.0051560368468 0)
(-0.00160161815947 -0.00447134139968 0)
(-0.00140605328778 -0.00387078610688 0)
(-0.00122936711284 -0.00334597282909 0)
(-0.00107039582128 -0.00288912906254 0)
(-0.000928016677606 -0.00249316509473 0)
(-0.000801065986067 -0.00215154799046 0)
(-0.000688619673689 -0.00185814687632 0)
(-0.000589582425866 -0.0016072021565 0)
(-0.000502925061732 -0.00139338069886 0)
(-0.000427445159926 -0.0012118240827 0)
(-0.000362076795352 -0.00105813852232 0)
(-0.000305663763072 -0.000928356879985 0)
(-0.000257254356219 -0.000818814148081 0)
(-0.000215971458904 -0.000726567911354 0)
(-0.000182225795229 -0.000639342060761 0)
(-0.000158787096434 -0.000572448849436 0)
(-0.000138928441831 -0.000523775882216 0)
(-0.000118702163131 -0.000459293949152 0)
(-0.000106818910874 -0.000404257309722 0)
(-0.000110025215118 -0.000371277230757 0)
(-0.000125566026088 -0.000344832185883 0)
(-0.000129024962066 -0.000276198057998 0)
(-0.000147373934468 -0.000228594241478 0)
(-0.000172490217944 -0.000167423629925 0)
(-0.000194289394899 -0.000101082915244 0)
(-0.000189874154157 -3.16039102468e-05 0)
(0.0116830750419 -0.00166322326882 0)
(0.012319767856 -0.00531982524574 0)
(0.0122124502293 -0.00893433658437 6.71504166623e-28)
(0.0120220197147 -0.0125308408866 0)
(0.011772114124 -0.0160555694493 0)
(0.0114680318913 -0.0194938641481 0)
(0.0111153359705 -0.0228299912351 0)
(0.0107200795349 -0.0260502916865 0)
(0.0102885877573 -0.029143152007 0)
(0.00982718095947 -0.0320990417376 0)
(0.00934200611949 -0.0349104499793 0)
(0.0088388272312 -0.0375717656708 0)
(0.008322945267 -0.0400791074954 0)
(0.00779906725553 -0.0424301282385 0)
(0.0072713124847 -0.0446238008274 0)
(0.00674314795067 -0.0466602059459 0)
(0.00621745911423 -0.0485403238895 0)
(0.00569652673805 -0.0502658441167 0)
(0.00518213465904 -0.0518389905071 0)
(0.00467556347003 -0.0532623701187 0)
(0.00417771237975 -0.0545388405545 0)
(0.00368909264704 -0.0556713998743 0)
(0.00320994918996 -0.0566630933007 0)
(0.00274024573121 -0.0575169383993 0)
(0.00227977993103 -0.0582358637625 0)
(0.00182815921348 -0.0588226617208 0)
(0.00138490870942 -0.0592799518904 0)
(0.000949441148493 -0.059610155354 0)
(0.000521159735369 -0.0598154786242 0)
(9.94270300024e-05 -0.0598979058824 0)
(-0.000316334343482 -0.0598592054731 0)
(-0.000726669358766 -0.0597009357386 0)
(-0.00113199251973 -0.059424475058 0)
(-0.00153261014524 -0.0590310547725 0)
(-0.00192862715063 -0.0585218078775 0)
(-0.00231996716741 -0.0578978275157 0)
(-0.0027062929154 -0.0571602406882 0)
(-0.00308703148019 -0.056310288108 0)
(-0.00346132008817 -0.0553494160073 0)
(-0.00382804578017 -0.0542793660888 0)
(-0.0041858272973 -0.0531022685895 0)
(-0.00453307274963 -0.0518207207695 0)
(-0.00486799719903 -0.0504378561935 0)
(-0.00518868528881 -0.0489573869489 0)
(-0.00549312188015 -0.0473836284234 0)
(-0.00577922269277 -0.0457214962223 0)
(-0.00604483271234 -0.0439764959179 0)
(-0.00628767678957 -0.042154709049 0)
(-0.00650528738153 -0.0402628113902 0)
(-0.0066948673226 -0.0383081377901 0)
(-0.00685318777751 -0.0362988302903 0)
(-0.00697648245202 -0.0342440700004 0)
(-0.00706051173763 -0.0321543803138 0)
(-0.00710075809486 -0.0300419288059 0)
(-0.00709290340044 -0.0279207127371 0)
(-0.00703343459404 -0.0258064833796 0)
(-0.00692031559824 -0.0237162964592 0)
(-0.00675333615011 -0.0216678087738 0)
(-0.00653427324384 -0.019678448042 0)
(-0.00626662063771 -0.0177647310215 0)
(-0.00595549931217 -0.015941693744 0)
(-0.00560718952438 -0.0142224864824 0)
(-0.00522909499373 -0.0126182650487 0)
(-0.00483012705978 -0.0111376877677 0)
(-0.00442047886905 -0.00978602648309 0)
(-0.00401064555513 -0.00856457679271 0)
(-0.00361034301076 -0.00747072655966 0)
(-0.00322755971083 -0.00649859195918 0)
(-0.0028681786037 -0.00563994913536 0)
(-0.00253584154535 -0.00488518470736 0)
(-0.00223218760264 -0.0042241527792 0)
(-0.00195709969982 -0.00364690094655 0)
(-0.00170925068113 -0.00314424414444 0)
(-0.00148663889675 -0.0027080891964 0)
(-0.00128732013969 -0.00233139566199 0)
(-0.00110971124446 -0.0020077961259 0)
(-0.000952539053637 -0.00173121313245 0)
(-0.000814396763797 -0.00149581448851 0)
(-0.000693730210731 -0.00129619239819 0)
(-0.000588882383779 -0.00112747347925 0)
(-0.000498267052856 -0.000985308624597 0)
(-0.000420358790297 -0.000865836439014 0)
(-0.000353870383656 -0.000765626824091 0)
(-0.000298219989827 -0.000682031086844 0)
(-0.000250411629269 -0.000598522269018 0)
(-0.000220999563391 -0.000546838525345 0)
(-0.000194343388319 -0.000490504186179 0)
(-0.000170173801893 -0.000428512685084 0)
(-0.000159473530849 -0.000386872532475 0)
(-0.000152465610492 -0.000331956745211 0)
(-0.000162566200705 -0.000286145108772 0)
(-0.000191328141105 -0.000254626177707 0)
(-0.000201004239358 -0.000185866052786 0)
(-0.000227393537227 -0.000130537344282 0)
(-0.000254073645169 -7.96947065204e-05 0)
(-0.000254097296248 -2.63598741665e-05 0)
(0.0151835895945 -0.0016985381448 0)
(0.0160109387024 -0.00543142288856 0)
(0.0158684447341 -0.0091190437179 0)
(0.0156163363909 -0.0127857637401 0)
(0.0152857630633 -0.0163756906436 0)
(0.0148840240749 -0.0198731733257 0)
(0.0144187109197 -0.0232617177054 0)
(0.0138980509872 -0.0265272239057 0)
(0.0133305791726 -0.0296579342503 0)
(0.0127247976923 -0.0326444359708 0)
(0.012088906343 -0.0354795553511 0)
(0.0114305658413 -0.0381581871875 0)
(0.010756749277 -0.0406770756709 0)
(0.0100736246885 -0.0430345696148 0)
(0.00938652138928 -0.045230367787 0)
(0.00869990920936 -0.0472652706573 0)
(0.00801744600393 -0.0491409469796 0)
(0.00734201505015 -0.0508597236908 0)
(0.00667581450365 -0.0524244007846 0)
(0.00602041732914 -0.0538380935983 0)
(0.00537687211781 -0.0551040999886 0)
(0.00474576195821 -0.0562257916298 0)
(0.00412729921459 -0.0572065254177 0)
(0.00352137260998 -0.0580495731135 0)
(0.00292762994002 -0.0587580654793 0)
(0.00234551213094 -0.0593349492703 0)
(0.00177432525522 -0.0597829545522 0)
(0.00121326581813 -0.0601045713625 0)
(0.000661487055421 -0.0603020348299 0)
(0.000118121658725 -0.0603773175483 0)
(-0.000417652193652 -0.0603321361899 0)
(-0.000946584945719 -0.0601679546494 0)
(-0.00146928746891 -0.0598860147396 0)
(-0.00198620125999 -0.0594873687542 0)
(-0.00249752953943 -0.058972928892 0)
(-0.00300320850699 -0.058343530929 0)
(-0.00350284792542 -0.0576000134303 0)
(-0.00399571571212 -0.056743309462 0)
(-0.00448070402165 -0.0557745501685 0)
(-0.00495634367048 -0.0546951728136 0)
(-0.00542081183228 -0.0535070287876 0)
(-0.00587198689354 -0.0522124801751 0)
(-0.00630749990391 -0.0508144772005 0)
(-0.00672481692635 -0.049316604873 0)
(-0.00712130361587 -0.0477230942376 0)
(-0.00749428252821 -0.04603879536 0)
(-0.00784103930802 -0.0442691226418 0)
(-0.00815877208977 -0.0424199910141 0)
(-0.00844446088283 -0.0404977797852 0)
(-0.00869466624093 -0.0385093690631 0)
(-0.008905289683 -0.0364623018186 0)
(-0.00907136891234 -0.03436510832 0)
(-0.00918703372936 -0.0322277957081 0)
(-0.0092457566711 -0.0300624114203 0)
(-0.00924102370139 -0.0278835006183 0)
(-0.00916737470167 -0.025708169791 0)
(-0.00902157907251 -0.0235554670977 0)
(-0.00880314920991 -0.0214453472118 0)
(-0.00851460407281 -0.0193974368657 0)
(-0.00816071672868 -0.0174302077298 0)
(-0.00774860865347 -0.0155602782809 0)
(-0.00728648739527 -0.0138020450218 0)
(-0.00678368385321 -0.0121682347204 0)
(-0.00625223079583 -0.0106692972971 0)
(-0.0057066026969 -0.00931155535824 0)
(-0.00516197868002 -0.00809603435992 0)
(-0.0046322080255 -0.00701857093985 0)
(-0.00412835465663 -0.00607092160486 0)
(-0.00365817443676 -0.00524222752539 0)
(-0.00322616872835 -0.00452033027207 0)
(-0.00283393537692 -0.00389284663457 0)
(-0.00248060547785 -0.00334806335591 0)
(-0.00216352773748 -0.00287569733817 0)
(-0.00187922423777 -0.00246735864417 0)
(-0.00162460754801 -0.00211637568788 0)
(-0.00139771538659 -0.00181688622994 0)
(-0.00119725513854 -0.00156293542769 0)
(-0.00102157828669 -0.00134848236688 0)
(-0.000868554445328 -0.00116794342832 0)
(-0.000735940116253 -0.00101642786595 0)
(-0.000621588421302 -0.000889673219463 0)
(-0.000523439349698 -0.000784010429515 0)
(-0.000439636500645 -0.000696699943552 0)
(-0.000369287337709 -0.000622717705928 0)
(-0.000314184949164 -0.000556439671775 0)
(-0.000281908315363 -0.000512291190854 0)
(-0.000256162799949 -0.000460481783125 0)
(-0.000229058796277 -0.000402624113194 0)
(-0.00020385193851 -0.000336009679803 0)
(-0.000201734933362 -0.000293301408381 0)
(-0.000204139576199 -0.000238682149121 0)
(-0.000234510943031 -0.000205831490037 0)
(-0.000269096144959 -0.000163038528841 0)
(-0.00027791061665 -0.000104378257318 0)
(-0.000293508711439 -6.10685839077e-05 0)
(-0.000293482092809 -2.03982301399e-05 0)
(0.018767620737 -0.00174375195908 0)
(0.0197881266172 -0.00557499352291 0)
(0.0196070572764 -0.00935724001006 0)
(0.0192881490367 -0.0131143937972 0)
(0.0188704380702 -0.0167879330844 0)
(0.0183635435956 -0.0203609482166 0)
(0.0177774507938 -0.0238160007677 0)
(0.0171229140798 -0.0271384649284 0)
(0.0164110089371 -0.0303164516636 0)
(0.0156526946697 -0.0333407655766 0)
(0.0148584519955 -0.0362047372611 0)
(0.0140379956639 -0.0389039823514 0)
(0.0132000804577 -0.0414361122058 0)
(0.0123523802645 -0.0438004233777 0)
(0.0115014470396 -0.0459975870038 0)
(0.0106527183447 -0.048029355221 0)
(0.00981057779856 -0.0498982948824 0)
(0.00897843463091 -0.0516075551442 0)
(0.00815883071121 -0.0531606702056 0)
(0.0073535435931 -0.0545613966898 0)
(0.00656370036254 -0.0558135820846 0)
(0.00578987431381 -0.0569210606791 0)
(0.00503218510464 -0.0578875720704 0)
(0.00429037704889 -0.0587166983959 0)
(0.00356390025322 -0.0594118160535 0)
(0.00285197061363 -0.0599760591004 0)
(0.00215363572761 -0.0604122915815 0)
(0.00146782320371 -0.0607230874194 0)
(0.000793399362503 -0.0609107169311 0)
(0.000129214660811 -0.0609771387436 0)
(-0.000525836562953 -0.0609240059602 0)
(-0.00117276496758 -0.0607526645513 0)
(-0.00181242074704 -0.0604641844113 0)
(-0.00244543585808 -0.0600593891836 0)
(-0.00307215282874 -0.059538906567 0)
(-0.00369256662843 -0.0589032362484 0)
(-0.00430626070279 -0.0581528369473 0)
(-0.00491236546362 -0.0572882317714 0)
(-0.00550952403113 -0.0563101298532 0)
(-0.00609589285816 -0.055219557918 0)
(-0.00666916304416 -0.0540179937747 0)
(-0.00722662424906 -0.0527074885631 0)
(-0.00776525166583 -0.0512907635266 0)
(-0.00828182424231 -0.0497712653621 0)
(-0.00877304105128 -0.0481531659531 0)
(-0.0092356235811 -0.0464413009007 0)
(-0.00966635562439 -0.0446410513633 0)
(-0.0100620330273 -0.0427581932576 0)
(-0.0104192834382 -0.0407987647963 0)
(-0.0107342436099 -0.0387690223666 0)
(-0.011002134058 -0.0366755852007 0)
(-0.0112168109678 -0.0345258627409 0)
(-0.0113705120853 -0.0323288132733 0)
(-0.0114540406123 -0.0300959605909 0)
(-0.011457701843 -0.0278423693429 0)
(-0.0113730272123 -0.0255870742546 0)
(-0.011195011748 -0.0233521036068 0)
(-0.0109227310966 -0.021160863737 0)
(-0.0105599146641 -0.0190360430553 0)
(-0.0101128362542 -0.0169987607825 0)
(-0.00959156660366 -0.015067487472 0)
(-0.00900607409617 -0.0132575827476 0)
(-0.008366545454 -0.0115840275796 0)
(-0.00768839800871 -0.0100606239129 0)
(-0.00699196085711 -0.00869578996983 0)
(-0.00629896498231 -0.00749019613437 0)
(-0.0056287840737 -0.00643711504375 0)
(-0.00499611490999 -0.00552456944848 0)
(-0.00441057493405 -0.00473777294408 0)
(-0.00387721254296 -0.00406095414098 0)
(-0.00339712542267 -0.00347859688399 0)
(-0.00296801723763 -0.0029764996313 0)
(-0.00258498233744 -0.00254286831102 0)
(-0.00224197792742 -0.00216917361906 0)
(-0.00193411461519 -0.0018498907603 0)
(-0.00165937913272 -0.00158044711809 0)
(-0.0014172848435 -0.0013550789702 0)
(-0.00120614100445 -0.00116711633481 0)
(-0.00102296187508 -0.00101055642906 0)
(-0.000864718166334 -0.000880509363385 0)
(-0.000728668540978 -0.000772809282175 0)
(-0.000612103426158 -0.000683877722554 0)
(-0.000512472597937 -0.000611201728134 0)
(-0.000428017952393 -0.000547367763497 0)
(-0.000367960373183 -0.000493691127412 0)
(-0.000332488039789 -0.000452038563573 0)
(-0.000297996012184 -0.000396461107678 0)
(-0.000279213868204 -0.000355246417245 0)
(-0.000267008804767 -0.00031029713373 0)
(-0.000264566176672 -0.000265505426498 0)
(-0.000249371434511 -0.00020063263461 0)
(-0.000265222043791 -0.000156753686576 0)
(-0.000309287438282 -0.000129818165151 0)
(-0.000325282107232 -8.89131910278e-05 0)
(-0.000330244457881 -5.02299333234e-05 0)
(-0.000331017975171 -1.67745325518e-05 0)
(0.0224569641276 -0.00180003389245 0)
(0.0236742650925 -0.00575384251731 0)
(0.0234500098111 -0.00965398382676 6.66766190972e-28)
(0.0230574402576 -0.0135234357865 0)
(0.0225440089409 -0.0173003287804 0)
(0.0219220956029 -0.0209661627367 0)
(0.0212045595888 -0.024502348546 0)
(0.0204051536366 -0.0278936671586 0)
(0.0195379252665 -0.031128155149 0)
(0.0186166526339 -0.0341969944924 0)
(0.0176543819143 -0.03709425603 0)
(0.0166630788812 -0.0398165604922 0)
(0.0156534003685 -0.0423626929322 0)
(0.0146345721575 -0.0447332049877 0)
(0.0136143613372 -0.0469300317519 0)
(0.012599118203 -0.0489561420281 0)
(0.0115938719506 -0.0508152329018 0)
(0.010602455704 -0.0525114730577 0)
(0.0096276502408 -0.0540492941666 0)
(0.00867132813971 -0.0554332263482 0)
(0.00773459546702 -0.0566677717208 0)
(0.00681791931748 -0.0577573093866 0)
(0.00592124476621 -0.0587060252243 0)
(0.00504409406353 -0.0595178605465 0)
(0.00418565558365 -0.0601964745355 0)
(0.00334485767912 -0.0607452164565 0)
(0.00252043691753 -0.0611671046645 0)
(0.00171099676512 -0.0614648104745 0)
(0.000915066899237 -0.0616406461489 0)
(0.000131159199604 -0.0616965554649 0)
(-0.000642170075277 -0.061634118188 0)
(-0.00140625425018 -0.0614545410727 0)
(-0.00216224378511 -0.061158687794 0)
(-0.00291102800259 -0.060747102906 0)
(-0.00365314978165 -0.0602200616181 0)
(-0.00438872209492 -0.0595776406232 0)
(-0.00511734600028 -0.058819813928 0)
(-0.0058380438989 -0.0579465742731 0)
(-0.00654921177449 -0.0569580788431 0)
(-0.00724860656668 -0.0558548128805 0)
(-0.00793337319294 -0.0546377609812 0)
(-0.00860012399631 -0.0533085693213 0)
(-0.00924506661638 -0.051869677409 0)
(-0.00986417809897 -0.0503243941287 0)
(-0.0104533979858 -0.0486768930589 0)
(-0.0110088112141 -0.0469321089787 0)
(-0.0115267560566 -0.0450955306412 0)
(-0.012003810479 -0.0431729168307 0)
(-0.0124365572255 -0.0411699877669 0)
(-0.0128211264428 -0.0390922164406 0)
(-0.0131524539331 -0.0369448652877 0)
(-0.0134234369153 -0.0347334818575 0)
(-0.0136241805835 -0.0324650203706 0)
(-0.0137419007873 -0.03014959587 0)
(-0.0137620801855 -0.0278024817855 0)
(-0.0136712909468 -0.0254454743067 0)
(-0.0134619372631 -0.0231051658708 0)
(-0.0131323780313 -0.0208102454456 0)
(-0.0126888549361 -0.0185875379594 0)
(-0.0121389959653 -0.016461856235 0)
(-0.0114986832888 -0.0144535134981 0)
(-0.010778895473 -0.0125770220062 0)
(-0.00998718333927 -0.0108505573361 0)
(-0.00914254633207 -0.00929471193465 0)
(-0.00827421523814 -0.00792212209231 0)
(-0.00741392021037 -0.00673285777292 0)
(-0.00658876856457 -0.00571572133689 0)
(-0.00581761902498 -0.0048527130534 0)
(-0.00511157078068 -0.00412332576001 0)
(-0.00447562925864 -0.00350688130869 0)
(-0.00390980427564 -0.00298365177588 0)
(-0.00340952020828 -0.00253592057963 0)
(-0.00296618433831 -0.00214965818073 0)
(-0.0025691542632 -0.00181649094152 0)
(-0.00221033028265 -0.00153377685684 0)
(-0.00188862813212 -0.00130005643134 0)
(-0.00160657963508 -0.00110969728152 0)
(-0.00136275667455 -0.000954159378624 0)
(-0.00115239721143 -0.000826520572582 0)
(-0.000971284320283 -0.000722134507657 0)
(-0.000816239559118 -0.000637057996477 0)
(-0.000683842371911 -0.000567798692574 0)
(-0.000570975659552 -0.000512092003409 0)
(-0.000475486111884 -0.000460726313024 0)
(-0.000417080748919 -0.000423758175906 0)
(-0.000378113005697 -0.000385411253125 0)
(-0.000345688994803 -0.000344146743603 0)
(-0.000319281857806 -0.000299467561591 0)
(-0.00031215712128 -0.000262694054864 0)
(-0.000302924193513 -0.000214916995369 0)
(-0.000311179082165 -0.000178093414303 0)
(-0.000304640359995 -0.000126881141875 0)
(-0.000326461082407 -9.64708651452e-05 0)
(-0.000358457975191 -7.30132590662e-05 0)
(-0.000360509437365 -4.14574529232e-05 0)
(-0.000361772749855 -1.38756805468e-05 0)
(0.0262760045679 -0.00186873845686 0)
(0.0276946058901 -0.00597212674263 0)
(0.0274211605547 -0.0100158970099 -6.66663833301e-28)
(0.0269459972891 -0.0140216536979 0)
(0.0263257224605 -0.0179233159723 0)
(0.0255760896384 -0.021700399023 0)
(0.0247134777155 -0.0253329430132 0)
(0.0237552618328 -0.0288050994214 0)
(0.0227190200815 -0.0321049527669 0)
(0.0216218095197 -0.0352243089728 0)
(0.0204795892568 -0.0381583110171 0)
(0.0193068067644 -0.0409049638746 0)
(0.0181161454911 -0.0434646188935 0)
(0.0169184150747 -0.0458394623683 0)
(0.0157225591024 -0.0480330409184 0)
(0.0145357491674 -0.0500498445709 0)
(0.0133635374003 -0.0518949573485 0)
(0.0122100401992 -0.0535737768237 0)
(0.0110781340688 -0.0550917977414 0)
(0.00996964676883 -0.0564544514357 0)
(0.00888553557635 -0.0576669908797 0)
(0.0078260454024 -0.0587344113543 0)
(0.00679084656693 -0.0596613973027 0)
(0.00577915081008 -0.0604522875644 0)
(0.00478980956873 -0.0611110524369 0)
(0.00382139573344 -0.0616412777851 0)
(0.00287227467137 -0.062046152542 0)
(0.00194066670188 -0.062328457521 0)
(0.00102470738857 -0.062490554603 0)
(0.000122507912574 -0.0625343748092 0)
(-0.000767779120311 -0.0624614189158 0)
(-0.0016478830708 -0.0622727376293 0)
(-0.00251933263249 -0.0619689574694 0)
(-0.00338335845832 -0.0615502944099 0)
(-0.00424078694968 -0.061016599798 0)
(-0.00509192887237 -0.0603674314988 0)
(-0.00593646861904 -0.0596021576598 0)
(-0.00677336572066 -0.0587200963144 0)
(-0.00760078065487 -0.0577206911334 0)
(-0.008416041834 -0.0566037177758 0)
(-0.0092156693815 -0.0553695094523 0)
(-0.00999547100844 -0.0540191800223 0)
(-0.0107507180613 -0.0525548154265 0)
(-0.0114763973595 -0.0509795942561 0)
(-0.0121675193569 -0.0492977962746 0)
(-0.0128194291068 -0.0475146558016 0)
(-0.0134280581566 -0.0456360470084 0)
(-0.013989986927 -0.0436679902737 0)
(-0.0145022379983 -0.0416160759842 0)
(-0.0149616143272 -0.039484913597 0)
(-0.0153635961372 -0.0372778894496 0)
(-0.0157007450085 -0.0349975824486 0)
(-0.0159610686959 -0.0326472696131 0)
(-0.0161269652276 -0.0302338522973 0)
(-0.0161763878088 -0.0277717515483 0)
(-0.016087063234 -0.0252869234481 0)
(-0.0158478099297 -0.0228131832746 0)
(-0.0154556652678 -0.0203877745967 0)
(-0.0149228855058 -0.0180426551241 0)
(-0.0142559401152 -0.0158085840263 0)
(-0.0134858862388 -0.0137073831026 0)
(-0.012622039557 -0.0117460799342 0)
(-0.0116590481498 -0.00994767617553 0)
(-0.0106198517938 -0.00834765427412 0)
(-0.00954912247368 -0.00696716317823 0)
(-0.00849513525614 -0.00580474950405 0)
(-0.00749618758499 -0.00484081426677 0)
(-0.00657524674257 -0.00404737218726 0)
(-0.00574348285593 -0.00339578371412 0)
(-0.00500484043055 -0.00285918813702 0)