/*--------------------------------*- C++ -*----------------------------------*\
| =========                 |                                                 |
| \\      /  F ield         | OpenFOAM: The Open Source CFD Toolbox           |
|  \\    /   O peration     | Version:  v1906                                 |
|   \\  /    A nd           | Web:      www.OpenFOAM.com                      |
|    \\/     M anipulation  |                                                 |
\*---------------------------------------------------------------------------*/
FoamFile
{
    version     2.0;
    format      ascii;
    class       volVectorField;
    location    "397";
    object      U;
}
// * * * * * * * * * * * * * * * * * * * * * * * * * * * * * * * * * * * * * //

dimensions      [0 1 -1 0 0 0 0];


internalField   nonuniform List<vector> 
9216
(
(0.0027125803701 -0.00271487962543 0)
(0.00286004685186 -0.00876128744705 1.17069793107e-27)
(0.00285193140783 -0.014901910634 1.84264274203e-31)
(0.00281470135058 -0.0210430647488 0)
(0.00276300423768 -0.027081535056 0)
(0.00269831624716 -0.0329930859825 0)
(0.00262230667987 -0.0387519198349 0)
(0.00253633872047 -0.0443350859009 0)
(0.00244169232153 -0.0497224362507 0)
(0.00233966250042 -0.0548965935438 0)
(0.00223148938685 -0.059842935714 0)
(0.00211840368713 -0.064549513724 0)
(0.00200153457148 -0.0690069467344 0)
(0.00188196767658 -0.0732082492726 0)
(0.00176065487795 -0.0771486499955 0)
(0.00163849009376 -0.0808253709043 0)
(0.00151622309884 -0.0842374167009 0)
(0.00139454944203 -0.0873853507308 0)
(0.0012740266899 -0.0902710923975 0)
(0.00115517286669 -0.0928977197657 0)
(0.00103838317535 -0.0952692965473 0)
(0.000924031745057 -0.097390715359 0)
(0.000812387911946 -0.0992675609059 0)
(0.000703716983494 -0.100905995137 0)
(0.000598196300002 -0.102312653708 0)
(0.000496011966396 -0.103494567052 0)
(0.00039727607447 -0.104459082046 0)
(0.000302117265179 -0.105213809996 0)
(0.000210601329333 -0.105766565205 0)
(0.000122815210818 -0.106125332996 0)
(3.87955633318e-05 -0.106298207837 0)
(-4.14139163604e-05 -0.106293425777 0)
(-0.000117831469436 -0.106119207404 0)
(-0.000190441966238 -0.105783766449 0)
(-0.0002592626877 -0.105295340522 0)
(-0.00032430396847 -0.104662131913 0)
(-0.000385612538225 -0.103892269505 0)
(-0.000443228079344 -0.102993798787 0)
(-0.000497217877418 -0.101974637939 0)
(-0.000547646082091 -0.100842573276 0)
(-0.000594596742986 -0.0996052193557 0)
(-0.00063815470073 -0.0982700180093 0)
(-0.000678417001526 -0.0968442033972 0)
(-0.000715484915736 -0.0953348042676 0)
(-0.000749464463845 -0.093748615225 0)
(-0.000780468680086 -0.0920922018581 0)
(-0.000808608482992 -0.0903718790207 0)
(-0.000834003887298 -0.0885937181492 0)
(-0.000856766865434 -0.086763533064 0)
(-0.000877019837827 -0.084886888678 0)
(-0.000894872496587 -0.0829690942172 0)
(-0.000910445617422 -0.0810152123002 0)
(-0.000923844027991 -0.0790300591082 0)
(-0.000935183617974 -0.0770182128377 0)
(-0.000944562702625 -0.0749840197726 0)
(-0.0009520900664 -0.0729316010554 0)
(-0.000957856906277 -0.0708648633523 0)
(-0.000961963835135 -0.0687875031006 0)
(-0.000964495355424 -0.0667030201015 0)
(-0.000965543972884 -0.0646147185456 0)
(-0.000965188825317 -0.0625257219357 0)
(-0.000963515370974 -0.0604389706234 0)
(-0.000960599344458 -0.0583572364828 0)
(-0.000956520906397 -0.0562831170055 0)
(-0.000951354650446 -0.0542190485998 0)
(-0.000945177533675 -0.0521672978134 0)
(-0.000938065163026 -0.0501299724358 0)
(-0.00093009331358 -0.0481090106921 0)
(-0.000921340326439 -0.0461061899316 0)
(-0.000911882429592 -0.0441231149957 0)
(-0.000901801696968 -0.042161224555 0)
(-0.000891175789437 -0.0402217798621 0)
(-0.000880090686306 -0.03830586925 0)
(-0.000868625720813 -0.0364143985248 0)
(-0.000856870091324 -0.0345480941787 0)
(-0.000844904284541 -0.0327074964022 0)
(-0.000832819306626 -0.0308929617524 0)
(-0.000820695645257 -0.0291046595727 0)
(-0.000808624118554 -0.0273425746945 0)
(-0.000796683546985 -0.0256065076937 0)
(-0.000784962163929 -0.0238960782515 0)
(-0.00077353504065 -0.0222107295521 0)
(-0.00076248500218 -0.020549732868 0)
(-0.000751880617454 -0.0189121965292 0)
(-0.000741795346779 -0.0172970730207 0)
(-0.000732286045994 -0.0157031745801 0)
(-0.000723407382346 -0.0141291876778 0)
(-0.000715186316955 -0.0125737061466 0)
(-0.000707617350036 -0.0110352799318 0)
(-0.000700596734356 -0.00951253267492 0)
(-0.000693797297934 -0.00800440470581 0)
(-0.000686298749203 -0.00651085180146 0)
(-0.000675571795508 -0.00503502765069 0)
(-0.000650297126837 -0.00359951280094 0)
(-0.000606210804182 -0.00204069361744 0)
(-0.00102804808873 -0.00102774879566 0)
(0.0087816133435 -0.00289004754395 0)
(0.00971012297486 -0.00977997434726 0)
(0.00968786871688 -0.0166571702299 -1.22936785581e-27)
(0.00955858632958 -0.0235399168506 0)
(0.00937965500449 -0.03029827314 0)
(0.00915845496327 -0.0369105270256 0)
(0.00889936183521 -0.0433492917893 0)
(0.0086066164818 -0.0495893586099 0)
(0.00828449493621 -0.0556083578787 0)
(0.00793735104601 -0.0613869799132 0)
(0.00756943700725 -0.0669090117532 0)
(0.00718491177375 -0.0721612714576 0)
(0.0067876563678 -0.0771334763909 0)
(0.00638132614359 -0.0818180494507 0)
(0.00596919371973 -0.0862098959542 0)
(0.00555425114125 -0.090306154015 0)
(0.00513907941976 -0.0941059428142 0)
(0.00472598886267 -0.0976101112034 0)
(0.00431690536802 -0.100821001298 0)
(0.00391353284803 -0.103742229057 0)
(0.00351724593934 -0.10637848671 0)
(0.00312926015234 -0.108735369708 0)
(0.00275052401106 -0.110819224336 0)
(0.00238188619545 -0.112637021137 0)
(0.00202398423037 -0.11419624303 0)
(0.00167740197337 -0.115504797185 0)
(0.00134255572557 -0.116570933643 0)
(0.00101983853576 -0.117403184678 0)
(0.000709507142967 -0.11801030292 0)
(0.000411812262006 -0.118401216572 0)
(0.000126892761225 -0.118584983629 0)
(-0.000145124674477 -0.118570714216 0)
(-0.000404227018026 -0.118367620541 0)
(-0.000650387654719 -0.117984972244 0)
(-0.000883660810277 -0.117431981153 0)
(-0.00110411096747 -0.116717818651 0)
(-0.00131188029692 -0.115851572292 0)
(-0.00150712162088 -0.114842227456 0)
(-0.00169005100715 -0.113698631083 0)
(-0.00186089820316 -0.112429474966 0)
(-0.00201994167475 -0.111043263121 0)
(-0.00216747582165 -0.109548298874 0)
(-0.00230382859457 -0.107952657364 0)
(-0.00242934490831 -0.106264176886 0)
(-0.00254438805443 -0.104490437499 0)
(-0.00264933813884 -0.102638756707 0)
(-0.00274457921634 -0.100716174676 0)
(-0.00283051103247 -0.0987294539777 0)
(-0.00290752446628 -0.0966850715326 0)
(-0.00297602424741 -0.0945892218329 0)
(-0.00303639572002 -0.0924478152364 0)
(-0.00308903582085 -0.0902664838023 0)
(-0.00313431451179 -0.0880505851831 0)
(-0.00317261097887 -0.0858052099933 0)
(-0.00320427312034 -0.0835351901378 0)
(-0.00322965587194 -0.0812451065055 0)
(-0.00324908202626 -0.0789393003182 0)
(-0.00326287962054 -0.0766218799357 0)
(-0.00327134693756 -0.0742967336418 0)
(-0.00327478619155 -0.0719675344786 0)
(-0.00327347503193 -0.0696377529675 0)
(-0.0032676941261 -0.0673106591755 0)
(-0.00325770674462 -0.0649893340892 0)
(-0.00324377843917 -0.0626766685277 0)
(-0.00322616559535 -0.060375372325 0)
(-0.00320512600433 -0.0580879701895 0)
(-0.00318091652104 -0.0558168083155 0)
(-0.00315379408102 -0.0535640477458 0)
(-0.00312402204423 -0.0513316685617 0)
(-0.00309186184823 -0.0491214616776 0)
(-0.00305758710031 -0.0469350311225 0)
(-0.00302146672496 -0.0447737853967 0)
(-0.0029837855784 -0.0426389386527 0)
(-0.00294482038998 -0.0405315027918 0)
(-0.00290486543204 -0.0384522884084 0)
(-0.00286420293157 -0.0364018986698 0)
(-0.00282313227755 -0.034380730882 0)
(-0.00278193669544 -0.0323889729832 0)
(-0.00274091443519 -0.0304266064056 0)
(-0.00270034352885 -0.0284934057244 0)
(-0.00266051346343 -0.0265889433525 0)
(-0.00262168960847 -0.0247125926746 0)
(-0.00258414379439 -0.0228635349549 0)
(-0.00254811949687 -0.0210407661825 0)
(-0.00251385915466 -0.0192431066344 0)
(-0.00248156944304 -0.0174692117661 0)
(-0.00245143984974 -0.0157175846967 0)
(-0.0024235995939 -0.0139865900373 0)
(-0.00239810429599 -0.0122744629127 0)
(-0.00237483317205 -0.010579298353 0)
(-0.00235331606951 -0.00889895280471 0)
(-0.002332273262 -0.00723068398964 0)
(-0.00230843379414 -0.00556969666109 0)
(-0.00227260236945 -0.00390465735587 0)
(-0.0021820908195 -0.00217715525461 0)
(-0.00203927089829 -0.000604058118042 0)
(0.015033275016 -0.00293591003372 0)
(0.0166456838886 -0.0099407309023 0)
(0.0165852296326 -0.0169081387496 -1.22732715308e-27)
(0.016354510921 -0.0238914999618 0)
(0.016043149497 -0.0307468060577 0)
(0.0156609310456 -0.0374508363232 0)
(0.0152143506354 -0.0439751643096 0)
(0.014710356256 -0.0502940314221 0)
(0.0141562604528 -0.0563847431706 0)
(0.0135595327037 -0.0622278553817 0)
(0.0129275517421 -0.067807183794 0)
(0.0122674592939 -0.073109718619 0)
(0.0115859783765 -0.0781254612562 0)
(0.0108893477965 -0.0828472040942 0)
(0.010183214372 -0.087270275481 0)
(0.00947264330702 -0.0913922666805 0)
(0.0087620717118 -0.0952127558779 0)
(0.00805537362116 -0.098733041332 0)
(0.00735585214973 -0.101955890807 0)
(0.00666633358238 -0.104885314933 0)
(0.00598917609254 -0.107526364495 0)
(0.0053263712399 -0.109884956253 0)
(0.00467955335496 -0.111967721822 0)
(0.00405009390175 -0.113781883206 0)
(0.00343910305416 -0.11533514587 0)
(0.00284750949159 -0.116635613457 0)
(0.00227605206348 -0.117691712862 0)
(0.00172534296245 -0.118512135487 0)
(0.00119585154209 -0.119105782236 0)
(0.000687951734361 -0.119481720155 0)
(0.000201900489624 -0.11964913979 0)
(-0.000262120208623 -0.119617318974 0)
(-0.000704022437069 -0.119395583259 0)
(-0.00112379509069 -0.118993279133 0)
(-0.00152151655053 -0.118419732645 0)
(-0.00189733233173 -0.117684223228 0)
(-0.00225146326808 -0.116795947681 0)
(-0.00258419659963 -0.11576399438 0)
(-0.00289588368286 -0.114597311828 0)
(-0.00318693761818 -0.113304685775 0)
(-0.00345782197456 -0.111894711645 0)
(-0.00370905520235 -0.110375775718 0)
(-0.00394119090135 -0.10875603257 0)
(-0.00415482890438 -0.107043391064 0)
(-0.00435058805572 -0.10524549759 0)
(-0.00452912364496 -0.103369727173 0)
(-0.00469109401951 -0.101423172866 0)
(-0.00483718382516 -0.0994126419037 0)
(-0.00496806605233 -0.0973446511625 0)
(-0.00508443027347 -0.0952254279082 0)
(-0.00518694188878 -0.0930609108205 0)
(-0.00527627434985 -0.0908567545485 0)
(-0.00535306745572 -0.0886183354208 0)
(-0.00541796237465 -0.0863507587299 0)
(-0.00547156079067 -0.0840588679111 0)
(-0.00551446142932 -0.0817472532672 0)
(-0.00554722167677 -0.0794202631743 0)
(-0.00557039422614 -0.0770820128621 0)
(-0.00558449246389 -0.0747363961026 0)
(-0.00559002583426 -0.0723870927285 0)
(-0.00558746987322 -0.0700375793839 0)
(-0.00557729891215 -0.0676911347125 0)
(-0.00555996117514 -0.065350848033 0)
(-0.00553590758617 -0.0630196215433 0)
(-0.00550557193256 -0.0607001762723 0)
(-0.00546939476629 -0.0583950511627 0)
(-0.00542780830205 -0.0561066061604 0)
(-0.00538125476004 -0.0538370185531 0)
(-0.00533017547447 -0.0515882836019 0)
(-0.00527502341882 -0.0493622089457 0)
(-0.00521625590633 -0.0471604135339 0)
(-0.00515434147088 -0.0449843211618 0)
(-0.00508975555299 -0.0428351587192 0)
(-0.00502298226334 -0.0407139500118 0)
(-0.00495451248622 -0.0386215143345 0)
(-0.00488484134055 -0.0365584616291 0)
(-0.00481446820426 -0.0345251923188 0)
(-0.00474389082604 -0.032521894647 0)
(-0.00467360680855 -0.0305485464475 0)
(-0.00460410535572 -0.028604915218 0)
(-0.00453586975562 -0.0266905622764 0)
(-0.00446936759121 -0.0248048458309 0)
(-0.00440505360448 -0.0229469276457 0)
(-0.00434335878042 -0.0211157790038 0)
(-0.00428469240479 -0.0193101895338 0)
(-0.00422942923402 -0.0175287750029 0)
(-0.00417790766574 -0.0157699858387 0)
(-0.00413041099319 -0.0140321109096 0)
(-0.00408715413763 -0.0123132718603 0)
(-0.00404825126205 -0.0106113902334 0)
(-0.00401369321298 -0.0089240935568 0)
(-0.00398336953153 -0.00724848392036 0)
(-0.00395727616794 -0.00558053890235 0)
(-0.00393588339517 -0.00391328344065 0)
(-0.00390563827106 -0.0022549738009 0)
(-0.00359057951366 -0.000644463625927 0)
(0.0214327513797 -0.00298120965543 0)
(0.0237497782448 -0.0100910103156 0)
(0.0236604242202 -0.0171538527861 1.22675669195e-27)
(0.0233262218648 -0.02423336344 0)
(0.0228760710891 -0.0311794681819 0)
(0.0223244342614 -0.0379674529698 0)
(0.0216807542566 -0.0445677132114 0)
(0.0209551258813 -0.050953786085 0)
(0.0201582054604 -0.0571026246703 0)
(0.0193008518829 -0.062994732278 0)
(0.0183937882601 -0.0686141234741 0)
(0.017447336695 -0.073948191324 0)
(0.0164711980237 -0.0789874936216 0)
(0.0154743113372 -0.0837254842443 0)
(0.0144647539775 -0.0881582123505 0)
(0.0134497117909 -0.0922840102092 0)
(0.0124354737174 -0.0961031848256 0)
(0.0114274783943 -0.0996177266774 0)
(0.0104303659271 -0.102831042336 0)
(0.00944806272734 -0.105747717479 0)
(0.00848385592411 -0.108373310242 0)
(0.00754048578455 -0.110714176813 0)
(0.00662021841971 -0.112777324804 0)
(0.00572492643836 -0.114570294084 0)
(0.0048561469665 -0.116101058352 0)
(0.00401514183637 -0.117377946768 0)
(0.00320293730209 -0.118409578278 0)
(0.00242036287286 -0.119204808848 0)
(0.00166807523238 -0.119772684561 0)
(0.000946579289553 -0.120122402419 0)
(0.000256241205845 -0.120263270848 0)
(-0.000402699471601 -0.120204687025 0)
(-0.00103011980543 -0.119956076407 0)
(-0.0016260170559 -0.119526880663 0)
(-0.00219049821707 -0.118926522439 0)
(-0.00272378009295 -0.118164371822 0)
(-0.00322617720488 -0.117249713888 0)
(-0.00369810679148 -0.116191719707 0)
(-0.00414007184657 -0.114999416344 0)
(-0.00455266745949 -0.113681661108 0)
(-0.00493655916772 -0.112247115469 0)
(-0.0052924907276 -0.110704223656 0)
(-0.00562125831247 -0.10906119163 0)
(-0.00592371999534 -0.10732597092 0)
(-0.00620076665537 -0.105506243425 0)
(-0.00645333348183 -0.103609410933 0)
(-0.00668236864119 -0.101642586033 0)
(-0.00688884705184 -0.099612587315 0)
(-0.0070737379467 -0.0975259362468 0)
(-0.00723802104631 -0.0953888576242 0)
(-0.00738265417948 -0.0932072818467 0)
(-0.00750859186571 -0.0909868498266 0)
(-0.00761675412428 -0.0887329197245 0)
(-0.00770804734195 -0.0864505751845 0)
(-0.00778333529153 -0.0841446352534 0)
(-0.00784346200547 -0.0818196645513 0)
(-0.00788922580677 -0.079479984858 0)
(-0.00792140369502 -0.0771296856703 0)
(-0.00794072886691 -0.074772635846 0)
(-0.00794791589142 -0.0724124930454 0)
(-0.00794364180439 -0.0700527139433 0)
(-0.00792857112263 -0.067696561289 0)
(-0.00790334021002 -0.0653471115395 0)
(-0.0078685810604 -0.0630072587396 0)
(-0.00782490834066 -0.0606797189516 0)
(-0.00777294087433 -0.0583670307211 0)
(-0.00771329062106 -0.0560715562782 0)
(-0.00764658098319 -0.0537954789598 0)
(-0.00757343700778 -0.0515408017214 0)
(-0.00749449993456 -0.0493093423591 0)
(-0.00741041805739 -0.0471027302785 0)
(-0.00732185732286 -0.0449224006675 0)
(-0.00722949251491 -0.0427695906866 0)
(-0.00713401406235 -0.040645333816 0)
(-0.00703611942882 -0.0385504566245 0)
(-0.006936516591 -0.0364855744135 0)
(-0.0068359156941 -0.0344510895635 0)
(-0.00673502982368 -0.0324471893471 0)
(-0.00663456707723 -0.0304738465614 0)
(-0.00653522931525 -0.0285308200599 0)
(-0.00643770479978 -0.0266176580533 0)
(-0.00634266550462 -0.0247337015328 0)
(-0.00625076033381 -0.0228780902048 0)
(-0.00616261131757 -0.0210497684661 0)
(-0.00607880710918 -0.0192474932239 0)
(-0.00599989794524 -0.0174698408761 0)
(-0.0059263887917 -0.0157152140943 0)
(-0.00585873322174 -0.0139818442898 0)
(-0.00579732823028 -0.0122677873891 0)
(-0.00574251674269 -0.0105709045937 0)
(-0.0056946147704 -0.00888882284549 0)
(-0.00565400699213 -0.00721886626516 0)
(-0.00562133495916 -0.00555797950512 0)
(-0.00559680801258 -0.00390151327306 0)
(-0.00555531480251 -0.00227133726873 0)
(-0.00500817305985 -0.000663989422722 0)
(0.0279389445154 -0.00304069230938 0)
(0.0309624533519 -0.0102885924457 0)
(0.0308415894648 -0.0174838310611 0)
(0.0303985669788 -0.0246925732374 0)
(0.0298023438958 -0.0317598916261 0)
(0.029072512419 -0.0386593611091 0)
(0.028221950784 -0.0453599446173 0)
(0.0272643391984 -0.0518342650443 0)
(0.0262140549197 -0.0580588331684 0)
(0.0250856781879 -0.0640141298422 0)
(0.0238935409362 -0.0696845018215 0)
(0.0226513593293 -0.0750579571038 0)
(0.0213719535045 -0.0801258767156 0)
(0.0200670582291 -0.0848826742095 0)
(0.018747213492 -0.0893254297629 0)
(0.0174217280253 -0.0934535224768 0)
(0.0160986986786 -0.0972682778868 0)
(0.0147850746501 -0.100772643869 0)
(0.0134867502734 -0.103970901707 0)
(0.0122086760878 -0.106868416761 0)
(0.0109549767113 -0.109471428061 0)
(0.00972906762478 -0.111786875801 0)
(0.008533765563 -0.113822261895 0)
(0.00737138654856 -0.11558554018 0)
(0.00624383235394 -0.117085029886 0)
(0.00515265997346 -0.118329348644 0)
(0.00409914035524 -0.11932735887 0)
(0.00308429991924 -0.12008812481 0)
(0.00210895584721 -0.120620875279 0)
(0.00117373604082 -0.120934971109 0)
(0.000279098636721 -0.121039870184 0)
(-0.000574661591016 -0.120945115199 0)
(-0.00138739640358 -0.120660260422 0)
(-0.00215911123629 -0.120194879942 0)
(-0.00288995159721 -0.119558521707 0)
(-0.00358020502527 -0.118760675843 0)
(-0.00423028890154 -0.117810742761 0)
(-0.00484075192278 -0.116718002452 0)
(-0.00541225875242 -0.115491584358 0)
(-0.00594559022707 -0.114140439808 0)
(-0.00644162459945 -0.112673315853 0)
(-0.00690133664774 -0.111098732302 0)
(-0.00732577612962 -0.109424960858 0)
(-0.00771606642258 -0.107660007812 0)
(-0.00807338114489 -0.105811599304 0)
(-0.00839894308117 -0.10388717019 0)
(-0.008694000037 -0.101893855693 0)
(-0.00895982478473 -0.099838486462 0)
(-0.00919769121336 -0.0977275864195 0)
(-0.00940887594386 -0.0955673735786 0)
(-0.00959463579348 -0.0933637634643 0)
(-0.00975621161718 -0.0911223748721 0)
(-0.00989480802168 -0.0888485378522 0)
(-0.0100115998628 -0.0865473032191 0)
(-0.0101077149964 -0.0842234537262 0)
(-0.0101842436641 -0.0818815158181 0)
(-0.010242224794 -0.0795257723409 0)
(-0.0102826582001 -0.0771602748257 0)
(-0.0103064945589 -0.0747888559602 0)
(-0.010314649959 -0.0724151406927 0)
(-0.0103079992117 -0.0700425568168 0)
(-0.0102873918854 -0.0676743434402 0)
(-0.0102536481804 -0.0653135584255 0)
(-0.0102075752848 -0.0629630832771 0)
(-0.0101499647484 -0.0606256267919 0)
(-0.010081607886 -0.0583037260807 0)
(-0.0100032935176 -0.0559997464803 0)
(-0.00991582127225 -0.0537158791138 0)
(-0.00981999871533 -0.0514541377651 0)
(-0.00971665172456 -0.0492163539385 0)
(-0.00960662035294 -0.0470041718451 0)
(-0.00949076588396 -0.0448190422558 0)
(-0.00936996516727 -0.0426622169626 0)
(-0.00924511439046 -0.0405347427982 0)
(-0.00911712198777 -0.038437456886 0)
(-0.00898690952089 -0.0363709820552 0)
(-0.00885540352415 -0.0343357239754 0)
(-0.00872353410433 -0.0323318689045 0)
(-0.00859222622773 -0.0303593834451 0)
(-0.00846239673498 -0.0284180151791 0)
(-0.0083349455906 -0.0265072953904 0)
(-0.00821075195647 -0.0246265427102 0)
(-0.00809066583762 -0.0227748686774 0)
(-0.00797550373933 -0.0209511839752 0)
(-0.00786604106016 -0.0191542060334 0)
(-0.0077630079137 -0.0173824664674 0)
(-0.007667083146 -0.0156343185319 0)
(-0.00757889254054 -0.0139079425734 0)
(-0.00749900951127 -0.0122013490372 0)
(-0.00742796740782 -0.0105123782321 0)
(-0.00736629133352 -0.00883870435256 0)
(-0.00731456669711 -0.00717784875843 0)
(-0.00727346841816 -0.00552725603247 0)
(-0.00724210318021 -0.00388295715364 0)
(-0.00718475195726 -0.0022689904594 0)
(-0.00645157689446 -0.000666986596059 0)
(0.0345897276824 -0.00311606252939 0)
(0.038330661111 -0.0105415256573 0)
(0.0381736749778 -0.0179086340165 0)
(0.0376138105132 -0.0252839217802 0)
(0.0368611410705 -0.0325067657377 0)
(0.035940887163 -0.039548645585 0)
(0.0348699237597 -0.046376785157 0)
(0.0336660756441 -0.0529627063222 0)
(0.0323479548575 -0.0592824324039 0)
(0.030934312653 -0.0653165100024 0)
(0.0294434553064 -0.0710498173594 0)
(0.027892773746 -0.0764712590951 0)
(0.0262983974789 -0.0815733742251 0)
(0.0246749693775 -0.0863518966606 0)
(0.0230355305617 -0.0908053015317 0)
(0.0213914974081 -0.094934364233 0)
(0.0197527122292 -0.0987417513302 0)
(0.0181275461408 -0.102231655882 0)
(0.0165230373078 -0.105409483213 0)
(0.0149450462529 -0.108281588838 0)
(0.0133984175565 -0.110855066093 0)
(0.0118871348697 -0.113137579207 0)
(0.0104144653976 -0.115137235423 0)
(0.00898308535055 -0.116862489753 0)
(0.00759518834087 -0.118322075113 0)
(0.00625257122899 -0.119524951682 0)
(0.00495670378886 -0.120480269181 0)
(0.00370877801104 -0.121197337536 0)
(0.00250974638873 -0.12168560154 0)
(0.00136034466993 -0.12195461722 0)
(0.000261110152894 -0.122014022876 0)
(-0.000787614445465 -0.121873539442 0)
(-0.00178566016552 -0.121542878198 0)
(-0.00273304483668 -0.121031779816 0)
(-0.00362995848181 -0.120349948677 0)
(-0.00447676406606 -0.119507026894 0)
(-0.00527398841521 -0.118512560884 0)
(-0.0060223186369 -0.11737596918 0)
(-0.00672258963211 -0.116106511161 0)
(-0.00737577754421 -0.1147132579 0)
(-0.00798298370289 -0.113205064978 0)
(-0.00854542555679 -0.111590548293 0)
(-0.00906441790859 -0.109878062565 0)
(-0.00954136233332 -0.108075683341 0)
(-0.00997772688885 -0.106191192072 0)
(-0.0103750351568 -0.104232064881 0)
(-0.0107348456591 -0.10220546448 0)
(-0.0110587416136 -0.100118235677 0)
(-0.0113483112197 -0.0979769039146 0)
(-0.011605139121 -0.0957876770388 0)
(-0.0118307886408 -0.0935564497967 0)
(-0.0120267958499 -0.0912888110022 0)
(-0.0121946547357 -0.0889900529189 0)
(-0.0123358146435 -0.0866651825422 0)
(-0.0124516691995 -0.0843189343958 0)
(-0.012543557654 -0.0819557842644 0)
(-0.0126127580579 -0.0795799635823 0)
(-0.0126604926344 -0.0771954736774 0)
(-0.0126879252265 -0.0748060997557 0)
(-0.0126961702811 -0.0724154236862 0)
(-0.0126862939981 -0.0700268356895 0)
(-0.0126593259365 -0.0676435439696 0)
(-0.0126162627461 -0.0652685826619 0)
(-0.012558080961 -0.062904817219 0)
(-0.0124857418366 -0.060554947881 0)
(-0.0124002037081 -0.0582215105151 0)
(-0.0123024263945 -0.0559068757096 0)
(-0.0121933816415 -0.0536132455907 0)
(-0.012074055804 -0.0513426493996 0)
(-0.0119454572978 -0.0490969374561 0)
(-0.0118086167431 -0.0468777746018 0)
(-0.0116645909122 -0.0446866328491 0)
(-0.0115144600618 -0.0425247842853 0)
(-0.0113593284159 -0.0403932939952 0)
(-0.0112003189092 -0.0382930139364 0)
(-0.0110385706879 -0.0362245775224 0)
(-0.0108752318407 -0.0341883956855 0)
(-0.0107114546698 -0.0321846541338 0)
(-0.0105483871746 -0.0302133123972 0)
(-0.0103871669566 -0.0282741043227 0)
(-0.0102289122571 -0.0263665404333 0)
(-0.0100747153301 -0.0244899117481 0)
(-0.00992563378071 -0.0226432953005 0)
(-0.00978268418264 -0.0208255608611 0)
(-0.00964683447803 -0.019035378922 0)
(-0.00951899881711 -0.0172712293022 0)
(-0.00940003241779 -0.0155314103142 0)
(-0.00929073006013 -0.0138140479076 0)
(-0.00919182771584 -0.0121171055669 0)
(-0.00910401209735 -0.0104383965533 0)
(-0.0090279400947 -0.00877560679998 0)
(-0.00896426564857 -0.00712633150858 0)
(-0.00891354617463 -0.00548815567984 0)
(-0.00887394020618 -0.00385713778693 0)
(-0.00880046748021 -0.00225710569367 0)
(-0.0078938374339 -0.000664769201895 0)
(0.0414221291532 -0.00320942498031 0)
(0.0458963535464 -0.0108555232128 0)
(0.0456968032691 -0.018436581299 1.21717819303e-27)
(0.0450092363733 -0.0260185320309 0)
(0.0440863182788 -0.0334336099008 0)
(0.042959569319 -0.0406506631323 0)
(0.04165057776 -0.0476348071195 0)
(0.0401820349429 -0.0543562893265 0)
(0.0385774582458 -0.0607906578581 0)
(0.0368603510964 -0.0669186972926 0)
(0.0350534620701 -0.0727261145991 0)
(0.0331782038063 -0.0782030945326 0)
(0.031254242274 -0.0833437661643 0)
(0.0292992477586 -0.0881456314188 0)
(0.027328789164 -0.0926089969531 0)
(0.0253563449141 -0.096736440661 0)
(0.0233934032921 -0.100532333327 0)
(0.0214496235395 -0.104002426967 0)
(0.019533034397 -0.107153513452 0)
(0.0176502479787 -0.109993151727 0)
(0.0158066743702 -0.112529457697 0)
(0.0140067231818 -0.114770948934 0)
(0.0122539859089 -0.116726434802 0)
(0.0105513921147 -0.118404942738 0)
(0.00890133972574 -0.119815671333 0)
(0.00730579702484 -0.120967962066 0)
(0.00576638100132 -0.121871282232 0)
(0.00428441215749 -0.122535213368 0)
(0.00286095285699 -0.122969440519 0)
(0.00149682978398 -0.123183739378 0)
(0.000192650012659 -0.123187955277 0)
(-0.00105120385623 -0.122992018252 0)
(-0.00223454604579 -0.1226058227 0)
(-0.00335741052825 -0.122039309479 0)
(-0.00442003628804 -0.121302371321 0)
(-0.00542286785411 -0.120404835153 0)
(-0.00636654815575 -0.119356425537 0)
(-0.00725191202963 -0.118166730553 0)
(-0.00807997442788 -0.116845168688 0)
(-0.00885191939475 -0.115400957712 0)
(-0.00956908386924 -0.11384308599 0)
(-0.0102329430335 -0.112180286815 0)
(-0.0108450909849 -0.110421016024 0)
(-0.0114072238857 -0.108573433175 0)
(-0.011921119044 -0.10664538642 0)
(-0.0123886173636 -0.10464440109 0)
(-0.0128116023302 -0.102577672049 0)
(-0.013191983144 -0.100452059632 0)
(-0.013531674965 -0.0982740891942 0)
(-0.0138325839721 -0.0960499538787 0)
(-0.0140965901071 -0.0937855206426 0)
(-0.0143255352108 -0.0914863389524 0)
(-0.0145212094137 -0.0891576521368 0)
(-0.0146853433893 -0.0868044106554 0)
(-0.0148195993709 -0.0844312871697 0)
(-0.0149255683058 -0.0820426925551 0)
(-0.0150047661015 -0.0796427926335 0)
(-0.0150586359761 -0.0772355247334 0)
(-0.0150885499264 -0.074824613769 0)
(-0.015095815868 -0.0724135870503 0)
(-0.0150816835536 -0.0700057874854 0)
(-0.0150473553278 -0.0676043846366 0)
(-0.0149939950044 -0.0652123833439 0)
(-0.0149227404464 -0.0628326297212 0)
(-0.0148347134475 -0.0604678143686 0)
(-0.0147310320777 -0.0581204729641 0)
(-0.0146128195593 -0.0557929842568 0)
(-0.014481214486 -0.0534875659083 0)
(-0.0143373770422 -0.0512062683745 0)
(-0.0141824957365 -0.0489509674273 0)
(-0.0140177899641 -0.046723355635 0)
(-0.013844512619 -0.0445249334069 0)
(-0.0136639487307 -0.0423569999873 0)
(-0.0134774140304 -0.0402206448883 0)
(-0.0132862500336 -0.038116740155 0)
(-0.0130918191866 -0.0360459337714 0)
(-0.0128954972069 -0.0340086445631 0)
(-0.0126986657723 -0.0320050586984 0)
(-0.0125027031539 -0.0300351280787 0)
(-0.0123089755392 -0.028098570527 0)
(-0.0121188270349 -0.0261948719789 0)
(-0.011933570689 -0.0243232904287 0)
(-0.011754478873 -0.0224828617334 0)
(-0.0115827749966 -0.0206724069121 0)
(-0.0114196252542 -0.0188905409695 0)
(-0.0112661321311 -0.0171356827953 0)
(-0.0111233288549 -0.0154060662724 0)
(-0.0109921765182 -0.0136997525014 0)
(-0.0108735637127 -0.0120146438867 0)
(-0.0107683103312 -0.0103485021443 0)
(-0.010677174283 -0.00869897720553 0)
(-0.0106008504297 -0.00706363936362 0)
(-0.0105398104338 -0.0054400312216 0)
(-0.010491526687 -0.00382405429674 0)
(-0.0104024683935 -0.0022389544087 0)
(-0.00932751207214 -0.000659865630837 0)
(0.0484772385503 -0.00332289245991 0)
(0.0537046953384 -0.0112372202779 0)
(0.0534542188876 -0.0190781844276 -1.21652968818e-27)
(0.0526248654347 -0.0269104476267 0)
(0.0515138818759 -0.0345573427522 0)
(0.0501600325571 -0.0419844366834 0)
(0.0485905774576 -0.0491543208917 0)
(0.0468340208377 -0.0560358239531 0)
(0.044919651801 -0.0626041138078 0)
(0.042876462774 -0.0688405034472 0)
(0.0407322235406 -0.0747319617857 0)
(0.0385127808788 -0.080270476046 0)
(0.0362415900083 -0.0854523275866 0)
(0.033939460142 -0.0902773473632 0)
(0.0316244829379 -0.0947482023436 0)
(0.0293121049268 -0.0988697485184 0)
(0.0270153044009 -0.102648471614 0)
(0.0247448352076 -0.106092024214 0)
(0.0225095060505 -0.109208858755 0)
(0.0203164692228 -0.112007949396 0)
(0.0181715001483 -0.11449859197 0)
(0.016079253689 -0.11669026929 0)
(0.014043489394 -0.118592568643 0)
(0.0120672604903 -0.120215138609 0)
(0.0101530661957 -0.121567673384 0)
(0.00830296788523 -0.12265991408 0)
(0.00651867339329 -0.123501658199 0)
(0.00480159324099 -0.124102770292 0)
(0.00315287533757 -0.124473188949 0)
(0.00157342247921 -0.124622925163 0)
(6.39070175328e-05 -0.124562055608 0)
(-0.00137525461852 -0.124300740572 0)
(-0.00274386365589 -0.123849089959 0)
(-0.00404196975136 -0.123217274971 0)
(-0.00526986491488 -0.122415410719 0)
(-0.00642808126769 -0.121453543277 0)
(-0.00751738552379 -0.12034160937 0)
(-0.00853877082015 -0.119089399556 0)
(-0.00949344436028 -0.117706522424 0)
(-0.0103828129499 -0.116202371036 0)
(-0.0112084649949 -0.11458609211 0)
(-0.0119721513366 -0.112866558707 0)
(-0.012675763463 -0.111052346525 0)
(-0.0133213116104 -0.109151714323 0)
(-0.0139109011632 -0.107172588295 0)
(-0.014446709925 -0.105122550741 0)
(-0.0149309645015 -0.10300883267 0)
(-0.0153659184074 -0.100838310565 0)
(-0.0157538299844 -0.0986175068449 0)
(-0.016096942811 -0.0963525941395 0)
(-0.0163974665674 -0.0940494028564 0)
(-0.0166575611317 -0.0917134319982 0)
(-0.0168793217514 -0.0893498626606 0)
(-0.0170647681422 -0.0869635739416 0)
(-0.017215835193 -0.0845591606382 0)
(-0.0173343681217 -0.0821409522091 0)
(-0.0174221195304 -0.0797130323586 0)
(-0.0174807510796 -0.0772792585045 0)
(-0.017511836961 -0.0748432805495 0)
(-0.0175168716424 -0.072408558119 0)
(-0.0174972788427 -0.069978375862 0)
(-0.0174544238851 -0.0675558560444 0)
(-0.0173896263047 -0.0651439683195 0)
(-0.0173041745261 -0.0627455361203 0)
(-0.0171993396149 -0.060363239894 0)
(-0.0170763896407 -0.0579996169367 0)
(-0.016936602005 -0.0556570583603 0)
(-0.0167812750867 -0.0533378032535 0)
(-0.0166117370607 -0.0510439307723 0)
(-0.0164293531452 -0.0487773504474 0)
(-0.0162355296835 -0.0465397915054 0)
(-0.0160317162702 -0.0443327915931 0)
(-0.0158194048212 -0.0421576856348 0)
(-0.0156001267642 -0.0400155952008 0)
(-0.015375447629 -0.0379074189637 0)
(-0.015146960166 -0.0358338245385 0)
(-0.0149162755243 -0.0337952420882 0)
(-0.0146850135491 -0.0317918598745 0)
(-0.0144547918748 -0.0298236219362 0)
(-0.0142272147814 -0.0278902279558 0)
(-0.0140038615622 -0.025991135316 0)
(-0.0137862752635 -0.0241255633006 0)
(-0.0135759515756 -0.022292499304 0)
(-0.0133743286336 -0.0204907069198 0)
(-0.0131827775404 -0.018718735715 0)
(-0.0130025943037 -0.0169749325419 0)
(-0.0128349930744 -0.0152574543202 0)
(-0.0126811013117 -0.0135642823658 0)
(-0.0125419567328 -0.0118932389964 0)
(-0.012418505995 -0.010242007369 0)
(-0.0123116030992 -0.00860815843907 0)
(-0.0122219948231 -0.0069891765144 0)