/*--------------------------------*- C++ -*----------------------------------*\
| =========                 |                                                 |
| \\      /  F ield         | OpenFOAM: The Open Source CFD Toolbox           |
|  \\    /   O peration     | Version:  v1906                                 |
|   \\  /    A nd           | Web:      www.OpenFOAM.com                      |
|    \\/     M anipulation  |                                                 |
\*---------------------------------------------------------------------------*/
FoamFile
{
    version     2.0;
    format      ascii;
    class       volScalarField;
    location    "931";
    object      p;
}
// * * * * * * * * * * * * * * * * * * * * * * * * * * * * * * * * * * * * * //

dimensions      [0 2 -2 0 0 0 0];


internalField   nonuniform List<scalar> 
9216
(
273.65680963
273.736566938
273.901603984
274.153324352
274.490309634
274.910971059
275.41334316
275.995113467
276.653673039
277.386143513
278.189428956
279.060239586
279.995144239
280.990588357
282.042944415
283.148522142
284.303615459
285.504504226
286.747497435
288.028926882
289.345187191
290.692722402
292.068063761
293.467810449
294.88866611
296.327414858
297.780957295
299.246282769
300.720505398
302.200833278
303.684604847
305.169255061
306.652352115
308.131562482
309.60468744
311.069625456
312.524409221
313.967166628
315.396157734
316.809734409
318.206377175
319.584653821
320.943256009
322.280957188
323.596648895
324.889298269
326.157983979
327.401853674
328.620159473
329.812215657
330.977433647
332.115280246
333.225312029
334.30713439
335.360435247
336.384945132
337.380470112
338.346853095
339.284005829
340.191871589
341.070456109
341.919791751
342.739967201
343.531093221
344.293330944
345.026859262
345.731901563
346.408694804
347.057514567
347.678645862
348.27240637
348.839119045
349.379133469
349.892800303
350.3804907
350.842572684
351.279428596
351.691433474
352.078970525
352.442411596
352.782130685
353.098486579
353.391834429
353.662510632
353.910842524
354.137135576
354.341681272
354.524746775
354.686581206
354.82740823
354.947431835
355.046834175
355.125787274
355.184480904
355.223453187
355.240529899
273.577104685
273.657224536
273.82260524
274.075327809
274.413748518
274.83620497
275.34068563
275.924842325
276.586028352
277.321331946
278.1276201
279.001571865
279.939721611
280.938488049
281.994213647
283.103187118
284.261677547
285.465949656
286.712292537
287.99702813
289.316535294
290.667252536
292.045698499
293.448470158
294.872260806
296.313854812
297.770143986
299.238119757
300.71488851
302.197661763
303.683770759
305.170655325
306.65587798
308.137110755
309.612149091
311.07889794
312.53538493
313.979745275
315.410234522
316.825212545
318.223155833
319.602640729
320.962355271
322.301081875
323.617708778
324.91121235
326.180668202
327.425233333
328.64415696
329.836762692
331.002459139
332.140722292
333.251105943
334.333224435
335.386762907
336.411460533
337.407120591
338.373594281
339.310790577
340.218660684
341.097207612
341.946471296
342.766537813
343.557525165
344.319592048
345.05292429
345.757743073
346.434292017
347.082844779
347.703692766
348.297152051
348.863551723
349.403240081
349.916573645
350.403922604
350.865660533
351.302169109
351.71382857
352.101021725
352.464125222
352.803512884
353.119547846
353.412585262
353.682965366
353.931015607
354.157044694
354.361344207
354.544183696
354.705811821
354.846452482
354.966305216
355.065541202
355.144298855
355.202662404
355.240557631
355.257608897
273.411326894
273.492595185
273.659508525
273.914536031
274.256001612
274.682198544
275.191053445
275.780150982
276.446772205
277.187933477
278.000428773
278.880868499
279.825719992
280.831342028
281.894020131
283.009994492
284.175488746
285.386730781
286.639975112
287.931517225
289.25771052
290.614975405
291.999812081
293.408805697
294.838636197
296.286080656
297.748021138
299.221445043
300.703451615
302.191250818
303.682168842
305.173645869
306.663240808
308.148627892
309.627600695
311.098067929
312.55805669
314.005707368
315.43927624
316.857129613
318.257745804
319.639708639
321.001708891
322.342537267
323.661085424
324.956338581
326.227376223
327.473364505
328.693556747
329.887285788
331.053964374
332.193077589
333.304183244
334.38690448
335.440930222
336.466008049
337.461944738
338.428599454
339.365884385
340.273758272
341.152227103
342.001337974
342.821179789
343.611877413
344.373592327
345.106517012
345.810875489
346.486917904
347.134920883
347.755182286
348.348021334
348.913773513
349.452790461
349.965435017
350.452080875
350.913107806
351.348901092
351.759846968
352.146331875
352.508738165
352.847443223
353.162815495
353.455213524
353.724982352
353.972452524
354.197936914
354.401729727
354.584103775
354.745309458
354.885572357
355.00509181
355.104037889
355.182547581
355.240713906
355.278503039
355.296527855
273.156448704
273.239004005
273.408314717
273.666946615
274.013162272
274.445179419
274.960830625
275.557595846
276.23264461
276.982879954
277.804983068
278.695456133
279.650663766
280.666870497
281.740275622
282.867043147
284.04332893
285.265302906
286.529169032
287.831180804
289.167655344
290.534983727
291.929640761
293.34819162
294.787298694
296.243725733
297.714342772
299.196128626
300.686174509
302.181685351
303.679982461
305.178503807
306.674805914
308.166563433
309.651570087
311.127737329
312.593094583
314.045787108
315.484075501
316.906332829
318.311043465
319.69679958
321.062299417
322.40634327
323.727831319
325.025759231
326.299215695
327.547377798
328.769508385
329.964951359
331.133128988
332.273537257
333.385743232
334.469380558
335.524146969
336.549800003
337.546154707
338.513079604
339.450494602
340.358367229
341.236710717
342.085580473
342.905072294
343.695319024
344.456488837
345.188782008
345.892429207
346.567688322
347.214842701
347.834197986
348.426080258
348.990832863
349.528814445
350.040395758
350.5259576
350.985887635
351.420578254
351.83042345
352.215816645
352.577147673
352.914800628
353.229151008
353.520563633
353.789390006
354.035966357
354.260611251
354.463623794
354.645281502
354.80583865
354.945524296
355.064540534
355.163060449
355.241225742
355.299142508
355.336803581
355.35500022
272.81138919
272.895593337
273.068193416
273.331779015
273.684519249
274.124521107
274.649485044
275.256744481
275.943313921
276.705938764
277.541144535
278.445284019
279.414581448
280.445172484
281.533139952
282.674544714
283.865452274
285.101954858
286.380189962
287.696355225
289.04672077
290.427638829
291.835551782
293.26699831
294.718618697
296.187158825
297.669473808
299.162530658
300.663410847
302.169312048
303.677549894
305.18555878
306.690892978
308.191226996
309.684355606
311.168193217
312.640773284
314.10024689
315.544881384
316.973058214
318.383270864
319.774122041
321.14432102
322.492680309
323.818112541
325.119626762
326.396325021
327.647398431
328.872123608
330.069858649
331.240039557
332.382176271
333.495849193
334.580705373
335.636455226
336.662868953
337.659773492
338.627049215
339.564627131
340.472485844
341.350648997
342.199182447
343.018191888
343.807820191
344.568245129
345.2996768
346.002355385
346.676548579
347.322549319
347.940673168
348.531255966
349.094651146
349.631227289
350.141365372
350.625456237
351.083897799
351.517092469
351.92544436
352.30935671
352.669229149
353.005455183
353.318419568
353.608495923
353.876044268
354.121408804
354.344915671
354.546870925
354.727558535
354.887238567
355.026145405
355.144486097
355.242438828
355.320151756
355.377741158
355.415212144
355.433391043
272.374365762
272.460661476
272.637497187
272.907469498
273.268618459
273.718900163
274.255838448
274.876572365
275.57791218
276.356396653
277.208348614
278.12992739
279.117176829
280.166067989
281.272536235
282.432512634
283.641950078
284.896844484
286.193251829
287.527301522
288.895206901
290.293273309
291.717904427
293.165607163
294.632995614
296.116794211
297.613840422
299.121086967
300.635603785
302.154579628
303.675323444
305.195265158
306.711956587
308.223071997
309.726407777
311.219881961
312.70153341
314.169520468
315.622119347
317.057722006
318.4748338
319.872070687
321.248156254
322.601918384
323.932285819
325.238284447
326.519033555
327.773741898
329.001703817
330.202295237
331.374969797
332.519254926
333.634748105
334.721113133
335.778076625
336.805424539
337.802998967
338.770694966
339.708457644
340.616279289
341.494196729
342.342288699
343.160673408
343.949506075
344.708976606
345.43930721
346.140750102
346.813585107
347.458117312
348.074674603
348.66360521
349.225275143
349.760065624
350.268370418
350.750593165
351.207144639
351.638440027
352.044896162
352.426928804
352.784949914
353.119365001
353.430570499
353.718951247
353.984878025
354.228705222
354.450768583
354.651383106
354.830841039
354.989410038
355.127331451
355.244818774
355.34205652
355.419199242
355.47637
355.513580142
355.531657534
271.843101338
271.931987787
272.114087663
272.391997866
272.76358949
273.226621386
273.778388582
274.415780152
275.135345574
275.933361632
276.805896187
277.748867173
278.758095348
279.829350013
280.958387545
282.140982966
283.37295518
284.650186618
285.968638213
287.324360528
288.713501923
290.132314445
291.577158112
293.044504074
294.530937054
296.033157343
297.547982539
299.07234913
300.603313946
302.138055478
303.673874995
305.208197271
306.738571431
308.262671553
309.77829616
311.283367775
312.775931986
314.254156062
315.71632717
317.160850176
318.586245073
319.99114407
321.374288371
322.734524699
324.070801593
325.382165542
326.667756981
327.926806207
329.158629255
330.36262377
331.538264922
332.685101384
333.802751423
334.890899113
335.949290707
336.977731163
337.976080863
338.944252489
339.882208094
340.789956324
341.667549793
342.515082585
343.332687859
344.120535534
344.878830013
345.607807939
346.307735935
346.978908322
347.62164479
348.236288005
348.823201147
349.382765371
349.915377203
350.42144586
350.901390515
351.355637521
351.784617601
352.188763023
352.568504789
352.92426984
353.256478307
353.565540818
353.851855887
354.115807384
354.357762127
354.578067571
354.777049646
354.955010729
355.112227769
355.248950612
355.36540052
355.461768985
355.538216987
355.594873291
355.631753099
355.649678211
271.214773471
271.306808301
271.495308049
271.782862397
272.167126156
272.645605488
273.215304246
273.87279569
274.614302485
275.435775944
276.33297016
277.301508984
278.336944314
279.434805045
280.590636811
281.80003315
283.058659113
284.362268481
285.706715817
287.087964526
288.502091967
289.945292511
291.413879292
292.904285212
294.413063614
295.936888901
297.472557252
299.016987482
300.567222038
302.12042805
303.673898149
305.225051409
306.771434108
308.310720185
309.840710857
311.359334088
312.864643593
314.354817357
315.828155723
317.283079022
318.718124819
320.131944776
321.523301212
322.891063365
324.23420346
325.551792564
326.842996354
328.107070775
329.343357691
330.551280536
331.730340034
332.880109996
334.00023327
335.090417819
336.150433012
337.180106083
338.179318827
339.148004481
340.086144833
340.993767497
341.870943392
342.717784334
343.53444077
344.32109958
345.077981931
345.805341143
346.503460546
347.17265128
347.813250038
348.425616717
349.010131987
349.567194751
350.097219516
350.600633674
351.077874713
351.529387362
351.955620698
352.357025234
352.734050004
353.087139672
353.416731679
353.723253453
354.007119702
354.268729799
354.508465282
354.726687478
354.923735273
355.099923033
355.255538703
355.390842095
355.506063383
355.60140204
355.677025757
355.733068448
355.769549619
355.787283464
270.485952039
270.581763262
270.777935533
271.077039412
271.476454999
271.973367619
272.564413889
273.245772003
274.013259575
274.862428685
275.788652875
276.787203659
277.85331501
278.98223547
280.169268495
281.409802244
282.699330414
284.033465813
285.407948353
286.81864898
288.261570842
289.73284878
291.228747968
292.745662349
294.280113257
295.828748506
297.38834202
298.955793996
300.528131494
302.102509325
303.676210682
305.246648345
306.811365507
308.368036148
309.91446474
311.448585716
312.968462399
314.47228543
315.958370691
317.425156752
318.871201873
320.295180627
321.695880161
323.072196186
324.42312872
325.747777667
327.045338257
328.315096439
329.556424239
330.768775165
331.951679676
333.104740786
334.227629816
335.320082346
336.381894377
337.412918744
338.413061756
339.382280115
340.320578048
341.228004691
342.104651657
342.950650781
343.766171996
344.551421295
345.306638744
346.032096499
346.728096789
347.394969836
348.033071678
348.642781886
349.224501149
349.778648744
350.30565987
350.805982886
351.280076437
351.728406516
352.151443464
352.549658945
352.923522913
353.273500598
353.600049535
353.903616658
354.184635477
354.443523359
354.68067893
354.896479613
355.09127932
355.265406309
355.41916122
355.552815342
355.66660907
355.760750616
355.835415084
355.890742323
355.926756357
355.944263314
269.652523571
269.75282746
269.958119506
270.270931982
270.688296546
271.206992069
271.823193576
272.532587339
273.330492068
274.211974066
275.17195
276.205274529
277.30681137
278.47148804
279.694335635
280.970515703
282.295336629
283.664261919
285.072912627
286.517065844
287.992650857
289.495744209
291.022564623
292.569468414
294.132945836
295.709618508
297.296237987
298.889685316
300.486971375
302.085237746
303.68175735
305.273936002
306.859313571
308.435564182
310.000496155
311.552051467
313.088304646
314.607461073
316.107854734
317.587945426
319.0463155
320.481666158
321.8928134
323.278683646
324.63830914
325.970823154
327.275455092
328.551525526
329.798441246
331.015690339
332.202837404
333.359518887
334.485438635
335.580363666
336.644120216
337.676590053
338.677707111
339.647454401
340.585861232
341.493000683
342.368987332
343.213975163
344.028155639
344.811755862
345.565036788
346.288291428
346.981842997
347.646042976
348.281269037
348.887922829
349.466427597
350.017225643
350.540775628
351.037549732
351.508030699
351.952708772
352.372078578
352.766635956
353.136874789
353.483283836
353.80634363
354.106523425
354.384278243
354.640046037
354.874244975
355.087270879
355.279494822
355.451260906
355.602884242
355.734649121
355.8468074
355.939577318
356.013142171
356.06764803
356.103124867
356.120370153
268.70959608
268.815221453
269.031303367
269.360306423
269.7988189
270.343103877
270.988755946
271.730849595
272.564090898
273.482958118
274.481823581
275.555053855
276.69708728
277.902490062
279.165993493
280.482515579
281.84717061
283.255269949
284.702316955
286.183998459
287.696174629
289.23486868
290.796257392
292.376663115
293.972547597
295.58050776
297.197273306
298.819705876
300.444799398
302.06968122
303.691612972
305.307992674
306.91635648
308.514378692
310.099872032
311.670787159
313.225211508
314.761367469
316.277609916
317.772423148
319.244417292
320.692324246
322.114993216
323.511385942
324.880571664
326.221721923
327.53410524
328.817081771
330.070097954
331.292681262
332.484435064
333.645033693
334.774217735
335.871789607
336.937609443
337.971591333
338.973699903
339.943947274
340.882390354
341.789128463
342.66430123
343.508086735
344.320699814
345.102390482
345.853442386
346.57417125
347.264923225
347.926073122
348.558022464
349.161197358
349.736046139
350.283036831
350.802654383
351.295397755
351.76177683
352.202309226
352.617517007
353.007923359
353.374049238
353.716410045
354.035512346
354.331850662
354.605904364
354.858134692
355.088981914
355.298862641
355.488167323
355.657257938
355.806465871
355.936090047
356.046395257
356.1376107
356.209928911
356.263503449
356.298370567
356.315318335
267.651377656
267.763297945
267.992125756
268.340213631
268.803582378
269.37783751
270.057841593
270.837907397
271.711989455
272.673856655
273.717236856
274.835930624
276.023894189
277.275294456
278.584540472
279.946296406
281.355481023
282.807258091
284.297021424
285.82037742
287.373127241
288.951250134
290.550888894
292.168338072
293.800035197
295.442554976
297.092606207
298.7470309
300.402805049
302.05704038
303.706985864
305.350030571
306.983706308
308.605687408
310.213791508
311.805979117
313.380352423
314.935153292
316.468760552
317.979686594
319.466573384
320.928187962
322.36341752
323.771264127
325.150839224
326.501357919
327.822133206
329.11257014
330.372160072
331.600474966
332.797161902
333.961937789
335.094584374
336.194943571
337.262913186
338.298443028
339.301531478
340.272222468
341.210602897
342.116800426
342.990981618
343.833350349
344.644146428
345.423644331
346.172151975
346.890009444
347.577587608
348.235286553
348.863533794
349.462782233
350.03350785
350.576207124
351.091394222
351.579597944
352.041358508
352.47722417
352.887747757
353.273483136
353.634981661
353.972788647
354.28743989
354.579458277
354.849350504
355.097603934
355.324683603
355.531029411
355.717053496
355.883137813
356.029631944
356.156851105
356.265074397
356.354543485
356.425461105
356.477988703
356.512170347
356.528783695
266.471020566
266.590396771
266.83429584
267.204892208
267.697474331
268.30680387
269.026815732
269.850871746
270.772004289
271.783128773
272.877214672
274.047412863
275.287141416
276.590135314
277.950467269
279.362547158
280.821107008
282.321177344
283.858059446
285.427296805
287.02464807
288.646062962
290.287662057
291.945720934
293.616658793
295.297031359
296.983527551
298.672969166
300.362312668
302.048652054
303.729221571
305.401399829
307.062713176
308.710835613
310.343590103
311.958948235
313.555028937
315.130096287
316.682556455
318.210953911
319.713966949
321.190402675
322.639191512
324.05938138
325.450131592
326.81070661
328.140469696
329.438876583
330.705469182
331.939869452
333.141773444
334.310945637
335.447213586
336.550462989
337.620633184
338.657713153
339.661738036
340.632786179
341.570976681
342.476467424
343.3494535
344.190165989
344.998870949
345.775868564
346.521492302
347.236108015
347.920112859
348.573933992
349.19802696
349.792873774
350.358980617
350.89687525
351.407104078
351.890228965
352.346823816
352.777470992
353.182757601
353.563271731
353.919598654
354.252317066
354.561995378
354.849188118
355.114432442
355.358244814
355.58111785
355.783517351
355.965879556
356.128608603
356.272074226
356.396609719
356.502510114
356.590030579
356.65938524
356.710744844
356.744161507
356.760401403
265.160419356
265.288658138
265.550435466
265.947649349
266.474633566
267.125057934
267.891674614
268.766653927
269.741895847
270.809291657
271.960924465
273.189208364
274.486971914
275.847495677
277.264515066
278.732199412
280.245116678
281.798191198
283.386659793
285.006029818
286.652041341
288.320634708
290.007924159
291.710177761
293.423803639
295.14534206
296.871462622
298.598965366
300.324784537
302.045992799
303.759806917
305.463593033
307.154870042
308.831311008
310.49074456
312.131154644
313.750679142
315.347607375
316.920376662
318.467567999
319.987901032
321.480228389
322.94352956
324.376904381
325.77956629
327.15083542
328.490131643
329.796967622
331.070941973
332.311732569
333.519090101
334.692831938
335.832836385
336.9390374
338.011419855
339.050015379
340.054898838
341.026185442
341.964028483
342.868617641
343.740177801
344.578968255
345.385282204
346.159446391
346.901820767
347.612798032
348.292802956
348.942291376
349.561748811
350.151688645
350.712649878
351.245194454
351.749904202
352.227377448
352.678225361
353.103068093
353.502530797
353.877239558
354.227817324
354.554879863
354.859031802
355.140862776
355.400943724
355.639823358
355.858024823
356.056042573
356.23433947
356.393344134
356.533448543
356.655005867
356.758328571
356.843686978
356.911307653
356.961371023
356.993938862
357.009764583
263.709946883
263.848780715
264.131878318
264.560714713
265.128364398
265.827071141
266.648068613
267.582028048
268.619457816
269.751024465
270.967784173
272.261328547
273.623856586
275.048189178
276.527743307
278.056481451
279.628848631
281.239706135
282.884267846
284.558042583
286.256784179
287.976449992
289.71316805
291.46321284
293.222989528
294.989026041
296.757971862
298.526601891
300.291823432
302.050682897
303.800375164
305.538250564
307.261818258
308.968749379
310.656878432
312.324203126
313.968882757
315.589235348
317.183733651
318.751000229
320.289801702
321.799042355
323.277757217
324.725104789
326.140359513
327.52290415
328.872222101
330.187889806
331.469569242
332.71700064
333.929995443
335.108429645
336.252237557
337.361406135
338.435969925
339.476006731
340.481634032
341.453006181
342.390312365
343.293775282
344.163650416
345.000225817
345.803822208
346.574793269
347.313525907
348.020440375
348.695990067
349.3406609
349.954970175
350.539464902
351.094719554
351.621333306
352.119926778
352.5911384
353.035620442
353.454034824
353.847048785
354.215330473
354.559544536
354.880347771
355.178384857
355.454284235
355.70865415
355.942078892
356.155115252
356.348289223
356.522092946
356.67698193
356.813372523
356.93163971
357.032115146
357.115085412
357.180790783
357.229422885
357.261053313
357.276421423
262.108104996
262.259704574
262.568412855
263.03506146
263.651041762
264.406715628
265.291352707
266.293730452
267.402646968
268.607311623
269.897605132
271.264220995
272.698710369
274.193456878
275.741606977
277.336977307
278.973954974
280.64740121
282.352564307
284.085004386
285.84053057
287.615150155
289.405029297
291.206464875
293.015867331
294.829753851
296.644750426
298.457600338
300.265176189
302.064490946
303.852711138
305.627166635
307.385354049
309.124941182
310.843768594
312.539849332
314.211366978
315.856672208
317.474278135
319.062854599
320.621221585
322.148341918
323.643313438
325.105360798
326.533827079
327.928165312
329.287930036
330.612768934
331.902414639
333.15667674
334.375434092
335.558627511
336.706252982
337.818355481
338.895023564
339.936384781
340.942602031
341.913870857
342.850417702
343.752499015
344.620401147
345.454440829
346.254966069
347.022357238
347.757028124
348.459426755
349.130035793
349.769372371
350.377987259
350.95646332
351.505413261
352.025476708
352.517316704
352.981615719
353.419071297
353.830391441
354.216289864
354.577481169
354.914676054
355.228576589
355.519871622
355.789232347
356.037308064
356.264722175
356.472068413
356.659907352
356.828763193
356.97912084
357.111423286
357.226069272
357.323411244
357.403753826
357.467352095
357.514409232
357.545008365
357.559873291
260.341055882
260.508191267
260.847950986
261.360188148
262.03401154
262.857272317
263.81668089
264.898613838
266.089770156
267.377639229
268.750779911
270.198936892
271.713033082
273.28507982
274.908042244
276.575688657
278.282443385
280.023254194
281.793478979
283.588792181
285.40510924
287.238526888
289.08527769
290.941698317
292.804211691
294.669322794
296.533626301
298.393822569
300.246737258
302.089339035
303.918757668
305.732296583
307.527436174
309.301839294
311.053352791
312.780006993
314.480013155
316.151759253
317.793804437
319.404872395
320.983843739
322.529747647
324.041752927
325.519158772
326.961385343
328.36796439
329.738529924
331.072809073
332.370613089
333.631828598
334.856409141
336.044367131
337.195766363
338.310715243
339.389360887
340.431884242
341.438496325
342.409435649
343.344966804
344.245380157
345.110992475
345.942148332
346.739221981
347.502619478
348.23278071
348.930181117
349.595332815
350.228784998
350.831123441
351.402969108
351.944975834
352.457827183
352.942232576
353.398922856
353.828645417
354.232159084
354.610228838
354.963620519
355.293095578
355.599405948
355.883289069
356.14546311
356.386622434
356.607433302
356.808529881
356.990510529
357.153934426
357.299318499
357.427134689
357.537807571
357.631712263
357.709172572
357.770459717
357.815790034
357.845258314
357.859571263
258.391983131
258.578259853
258.956098197
259.523855269
260.26749547
261.171482935
262.219169932
263.393882098
264.679751406
266.062262363
267.528527041
269.067339823
270.669077056
272.325506197
274.029557528
275.77509585
277.556714379
279.369560754
281.209196553
283.071486688
284.952513104
286.848507674
288.755801219
290.670788247
292.589908845
294.509648964
296.426557028
298.337271778
300.238552807
302.12730928
304.000623907
305.85576581
307.690195147
309.501568154
311.287738479
313.046756208
314.776864442
316.476493951
318.144256552
319.778937347
321.379485922
322.945006683
324.474748641
325.968094893
327.424552082
328.843739958
330.225381176
331.569291271
332.875368863
334.143586042
335.373979051
336.566639349
337.721705288
338.839354562
339.919797713
340.963272826
341.970041626
342.940387012
343.874612083
344.773040517
345.636018177
346.463915646
347.257131386
348.016095149
348.741271274
349.433161509
350.092307071
350.7192897
351.314731583
351.879294073
352.413675257
352.918606465
353.394847904
353.843183611
354.264415936
354.659359761
355.028836614
355.3736688
355.694673648
355.99265791
356.26841238
356.522706743
356.756284695
356.969859357
357.164109014
357.339673196
357.49714911
357.63708844
357.75999452
357.866319829
357.956463838
358.030771415
358.089531047
358.132972541
358.161204166
358.17491379
256.240204565
256.450418916
256.875592592
257.51177263
258.34051957
259.341679134
260.494171423
261.777443496
263.172510577
264.662566067
266.233206284
267.87236166
269.570041376
271.317989251
273.10932431
274.938211971
276.799588209
278.688942003
280.60215061
282.535356992
284.484877541
286.447130524
288.418580181
290.395696911
292.374938249
294.352755691
296.32562523
298.29009389
300.242826921
302.180653381
304.10059585
305.999880792
307.875944301
309.726434599
311.549213102
313.342353005
315.104134477
316.8330377
318.527734885
320.187081335
321.810105211
323.395996327
324.944094355
326.453876831
327.924947274
329.357023673
330.749927325
332.103571994
333.417953245
334.693137942
335.929253907
337.126479946
338.28503644
339.405176853
340.487180398
341.531346205
342.537989152
343.507437545
344.440032628
345.336129866
346.196101747
347.020341793
347.809269342
348.563334636
349.283023701
349.968862595
350.621420601
351.241312109
351.829196977
352.385779363
352.91180505
353.408057458
353.875352578
354.314533107
354.726462092
355.112016329
355.472079736
355.807536827
356.119266384
356.408135359
356.674993041
356.920665497
357.145950333
357.351611781
357.538376161
357.706927724
357.857904909
357.991897002
358.109441188
358.211020043
358.297059356
358.367926215
358.423927735
358.465308865
358.49219143
358.50524267
253.859914093
254.100604089
254.585570549
255.30724104
256.240902442
257.360043115
258.637711375
260.048436336
261.569496112
263.181548184
264.868718769
266.618308683
268.420288261
270.266727306
272.151257766
274.068620626
276.014313668
277.984334539
279.975001594
281.982830412
284.004444683
286.036505114
288.075648451
290.118439306
292.161346426
294.200758089
296.23303404
298.254581768
300.261932245
302.251805946
304.221149977
306.167142598
308.087193054
309.978940618
311.840256043
313.669240239
315.46421722
317.223724523
318.946503766
320.631490627
322.27780299
323.884727783
325.451707291
326.978325309
328.464293764
329.909440045
331.313694979
332.677081213
333.999701773
335.281728583
336.523390984
337.724964447
338.886759841
340.009113638
341.092379537
342.136921827
343.14311088
344.111320903
345.041930075
345.935322908
346.791894609
347.612056962
348.396245219
349.144925316
349.858600825
350.537818974
351.183175285
351.795316429
352.374941107
352.922798905
353.439687239
353.926446623
354.383954621
354.813118892
355.214869726
355.59015243
355.93991981
356.265124905
356.566714038
356.845620188
357.102756678
357.3390112
357.555240162
357.752263442
357.930859535
358.09176116
358.235651323
358.363159841
358.474860344
358.571267655
358.652835599
358.719955406
358.772953937
358.812091522
358.837505449
358.849840273
251.218353344
251.49868438
252.060607254
252.890769984
253.95537102
255.21908801
256.647186864
258.208004102
259.874428351
261.624457438
263.441004644
265.311215109
267.225569468
269.176989929
271.160071222
273.170483814
275.204548535
277.258956135
279.330594527
281.416444833
283.513511057
285.618756991
287.729037974
289.841034161
291.951210711
294.055843546
296.151104459
298.233186437
300.298426334
302.343401388
304.364970385
306.360263163
308.326662584
310.261798367
312.163552431
314.030059965
315.859697938
317.651070785
319.402999752
321.114512691
322.784830217
324.413349994
325.999630631
327.543375534
329.04441771
330.502706038
331.918292528
333.291320211
334.622011039
335.910653442
337.157589481
338.363201952
339.527901882
340.652117077
341.736282254
342.78083136
343.786192471
344.752785608
345.681023568
346.571315673
347.424074075
348.239722097
349.01870381
349.761494062
350.46860804
351.140609605
351.778117701
352.381810416
352.952426408
353.4907637
353.997675985
354.474066825
354.920882225
355.339102186
355.729731795
356.093792347
356.432312781
356.746321605
357.036839307
357.304871193
357.551400604
357.777382474
357.98373727
358.171345342
358.341041751
358.493611611
358.629785967
358.750238199
358.855580943
358.946363516
359.023069758
359.086116147
359.135850621
359.17255058
359.196368775
359.207924968
248.273077279
248.606327338
249.269478305
250.239734577
251.46992628
252.912499248
254.522452952
256.260428085
258.094326516
259.999623456
261.958644309
263.959229496
265.993237752
268.055202862
270.14127994
272.248500874
274.374298939
276.516239899
278.671893359
280.838782316
283.014356976
285.195951227
287.380700714
289.565434457
291.746589208
293.920247895
296.082277137
298.228534992
300.355078292
302.458301382
304.534970978
306.582184302
308.597304078
310.57794783
312.522009057
314.427667203
316.293365365
318.117785982
319.899840837
321.63866356
323.333592961
324.984153405
326.590035815
328.151078296
329.667248764
331.138630398
332.565408656
333.947859107
335.286335102
336.581254334
337.833084399
339.042327762
340.209506957
341.335150841
342.419782762
343.46391134
344.468024532
345.432587362
346.358043593
347.244821161
348.093341025
348.904028634
349.677327072
350.413710702
351.113698161
351.777863622
352.406845466
353.001351765
353.562162312
354.090127167
354.586162001
355.051240712
355.486386064
355.892659194
356.271148802
356.622960684
356.949207982
357.251002269
357.529445362
357.785621685
358.020591019
358.235381599