/*--------------------------------*- C++ -*----------------------------------*\
| =========                 |                                                 |
| \\      /  F ield         | OpenFOAM: The Open Source CFD Toolbox           |
|  \\    /   O peration     | Version:  v1906                                 |
|   \\  /    A nd           | Web:      www.OpenFOAM.com                      |
|    \\/     M anipulation  |                                                 |
\*---------------------------------------------------------------------------*/
FoamFile
{
    version     2.0;
    format      ascii;
    class       volScalarField;
    location    "302";
    object      pa;
}
// * * * * * * * * * * * * * * * * * * * * * * * * * * * * * * * * * * * * * //

dimensions      [0 2 -2 0 0 0 0];


internalField   nonuniform List<scalar> 
9216
(
996.036561696
995.669294791
994.913869441
993.774233233
992.252546874
990.353047806
988.080762081
985.442183124
982.444279084
979.095443794
975.4043048
971.380898078
967.035254359
962.378796695
957.422706282
952.179546728
946.661413959
940.881790387
934.853486701
928.590724154
922.106876391
915.416774383
908.53425933
901.474697645
894.252356465
886.88311161
879.381661148
871.764401729
864.046497306
856.244895135
848.375272712
840.455156841
832.500771303
824.530222418
816.560278214
808.609572824
800.695348989
792.836635298
785.050989191
777.357597406
769.774058755
762.319360944
755.010745796
747.866517352
740.90303085
734.137294726
727.584122612
721.258501593
715.172941087
709.339600334
703.767867081
698.466266221
693.440302856
688.694209279
684.22908593
680.044562081
676.137246094
672.50235597
669.132446478
666.019011135
663.151414864
660.518430338
658.10730868
655.90521581
653.898391365
652.07345773
650.41662515
648.914853764
647.555080421
646.325229717
645.213458696
644.209023699
643.301550624
642.481772247
641.740837181
641.070937016
640.464666025
639.915557234
639.417499466
638.965196068
638.553632658
638.178444526
637.835386143
637.519264553
637.237115023
636.996856254
636.794901034
636.629727772
636.500972222
636.404836869
636.336340592
636.289065199
636.257119537
636.237552295
636.227624465
636.22414719
996.40292577
996.034508912
995.280327553
994.138250987
992.612569733
990.707792676
988.429236708
985.783350522
982.777332555
979.419470872
975.718650896
971.68476732
967.328142828
962.660022496
957.691909616
952.436148453
946.905182769
941.112231042
935.070473159
928.793819876
922.296032883
915.591587247
908.694729267
901.62042703
894.383369962
886.998999216
879.482452544
871.849662891
864.116252696
856.298686444
848.413119113
840.476584965
832.505806738
824.518402107
816.531658828
808.563737634
800.632422042
792.756295097
784.953473833
777.242737871
769.642260809
762.170670775
754.845793434
747.685626989
740.707112463
733.927009535
727.360709779
721.023004976
714.926959547
709.084574766
703.50574304
698.198833269
693.169763782
688.422562685
683.958609467
679.777238351
675.875186744
672.247283131
668.886090031
665.782655955
662.926286061
660.305299638
657.906865529
655.717724303
653.724047835
651.91209139
650.268038433
648.778556149
647.430604438
646.211889637
645.110637084
644.115950388
643.217557266
642.406088696
641.672813746
641.009857551
640.409940794
639.866553856
639.373712619
638.926103875
638.518869538
638.147748339
637.808965467
637.499199929
637.219355004
636.979093685
636.780325143
636.618961773
636.491499732
636.395840525
636.329054474
636.283086232
636.251512627
636.232937079
636.224004486
636.220363875
997.158728787
996.784723765
996.026392065
994.878147415
993.344262736
991.429229517
989.138511349
986.478606302
983.456891816
980.081702162
976.362123632
972.3080882
967.93013473
963.239528134
958.247994134
952.967870163
947.411819539
941.593019292
935.524859045
929.221168816
922.695906246
915.963425467
909.038154919
901.934905088
894.668536982
887.254304471
879.70751254
872.043887241
864.279221761
856.429766
848.511859117
840.542327784
832.538102077
824.516613776
816.495392677
808.492451435
800.525860225
792.614106114
784.775644945
777.029223687
769.393410248
761.886870315
754.527878581
747.334543596
740.324305302
733.51410399
726.919869497
720.556631784
714.43800797
708.576259309
702.981791646
697.663182573
692.626734348
687.876527983
683.414095712
679.238582233
675.346598787
671.732541876
668.388625308
665.305317031
662.471466652
659.87476718
657.501914538
655.339054429
653.37194119
651.586334605
649.968109618
648.503572366
647.179499792
645.983370941
644.903343669
643.928408379
643.048315657
642.253667005
641.53581217
640.886898826
640.299757537
639.767928394
639.285547136
638.847363079
638.448642221
638.085200097
637.753386284
637.449800375
637.175390946
636.941170527
636.751517102
636.597474714
636.472426913
636.378985235
636.315449413
636.270775145
636.24104425
636.223874691
636.214706852
636.210112305
998.304399289
997.926188817
997.161374196
996.003520482
994.456932969
992.526151802
990.216778902
987.535440565
984.489703156
981.088054373
977.339794069
973.255014416
968.844476333
964.119595908
959.09231355
953.77509353
948.180792307
942.322676912
936.214297659
929.869529605
923.302453307
916.527421153
909.558947285
902.411797874
895.100889076
887.641397743
880.04866426
872.338318502
864.526183597
856.628410781
848.661380431
840.641837252
832.586782085
824.513602399
816.43994834
808.383847374
800.363558681
792.397662548
784.504887297
776.704165372
769.014429468
761.454630196
754.04350119
746.799536122
739.740724582
732.884487195
726.247383123
719.845000155
713.691633097
707.800127622
702.181536853
696.844937254
691.797102222
687.042354158
682.582344195
678.41604885
674.539758081
670.947289262
667.630191434
664.578115957
661.779101515
659.219957353
656.886552191
654.764191662
652.837900796
651.092752007
649.514076896
648.087700879
646.800063667
645.6383659
644.590613483
643.645689397
642.793336785
642.024171808
641.329628711
640.701940851
640.134069942
639.619673451
639.153031075
638.729009894
638.342999688
637.990888024
637.66903557
637.373559895
637.108580701
636.886784719
636.707534875
636.560677904
636.443868392
636.356064823
636.293459044
636.250926586
636.223336007
636.206644957
636.197239032
636.192597018
999.844171143
999.461103409
998.687558681
997.516665503
995.952834784
994.000719055
991.666091597
988.955771683
985.877557116
982.440170346
978.653173881
974.526910846
970.072412232
965.301338051
960.22588376
954.858729019
949.212950211
943.301983286
937.139548393
930.739631683
924.11642595
917.284333813
910.257925486
903.051962433
895.681370231
888.161279173
880.50700814
872.734116881
864.858395817
856.895924185
848.863061852
840.776504932
832.653271542
824.510751776
816.366679539
808.239165144
800.146645384
792.107889396
784.141919002
776.267979845
768.505426776
760.873656334
753.391956228
746.079399016
738.954657151
732.035858182
725.340363753
718.88458028
712.68369251
706.751418115
701.099689045
695.738355748
690.674850391
685.913910332
681.45734527
677.303938713
673.449482322
669.886985754
666.607001583
663.598053978
660.847017733
658.339500321
656.060192809
653.993256317
652.122681561
650.432622688
648.907651787
647.532975002
646.294565495
645.179284109
644.174928193
643.270274102
642.455056938
641.719948394
641.056497205
640.45708123
639.914836099
639.423599737
638.977839532
638.572595917
638.20341309
637.866285478
637.557548897
637.27309965
637.022366098
636.816112035
636.649188857
636.512676995
636.402498922
636.320188496
636.262235386
636.22231724
636.195820227
636.179617443
636.170231373
636.165548566
1001.78273915
1001.39378293
1000.6092256
999.421792432
997.83606118
995.856858723
993.490181137
990.743104822
987.623719784
984.141058757
980.3050153
976.126265432
971.616179594
966.78674321
961.650469941
956.220328933
950.509667017
944.532150047
938.301700834
931.832460531
925.138746964
918.235038975
911.135956188
903.85626537
896.410878913
888.814878899
881.083529037
873.232310677
865.276942482
857.233422485
849.118051676
840.947473706
832.738693719
824.509113935
816.276538598
808.059192478
799.875702662
791.745089225
783.686713659
775.720232706
767.86550693
760.142513849
752.571216191
745.171436407
737.962688255
730.964014984
724.193782408
717.669470784
711.407410116
705.422497159
699.727844175
694.33439992
689.250527968
684.481605945
680.029691765
675.893341972
672.067647668
668.544489378
665.313024436
662.360262591
659.671540478
657.230901558
655.021476707
653.02592412
651.226872377
649.607296227
648.150802862
646.841831357
645.665783417
644.609116091
643.659388685
642.805277457
642.03653913
641.343950088
640.719228752
640.154960411
639.6445175
639.18198413
638.762078395
638.380078417
638.031744465
637.713250265
637.420842609
637.152574512
636.920684864
636.730968432
636.574781058
636.446788192
636.346574707
636.274135952
636.220151718
636.182449809
636.157792714
636.140849428
636.131148187
636.126238077
1004.12586605
1003.72980895
1002.93185157
1001.72424056
1000.11177594
998.099514334
995.693734461
992.901838469
989.732279623
986.194481125
982.298746798
978.056171539
973.478545891
968.578264934
963.368235112
957.861789955
952.072607889
946.014643328
939.702063679
933.149202987
926.370523864
919.380597355
912.194091059
904.825773854
897.29052646
889.603365435
881.77946954
873.834216077
865.783216534
857.642359267
849.42785137
841.1562592
832.844547696
824.510118494
816.170836628
807.845051113
799.55159816
791.309791057
783.139387115
775.060535462
767.093699537
759.259558693
751.57888705
744.072414348
736.760669255
729.663807126
722.801418475
716.192311809
709.854256643
703.803670742
698.055228098
692.621386353
687.511832546
682.732901824
678.287071993
674.172635831
670.383728068
666.910640621
663.740593651
660.85861257
658.24810367
655.891152273
653.768888582
651.86203636
650.151486752
648.61875247
647.246272338
646.017587313
644.917435988
643.931824534
643.048060023
642.254750954
641.541733014
640.899962307
640.321401852
639.798923702
639.32621285
638.897677916
638.508361905
638.153858581
637.830219474
637.533867418
637.260824128
637.013233717
636.802122361
636.628166566
636.48465218
636.369001685
636.280312688
636.214044623
636.164001119
636.128594477
636.105665149
636.08890432
636.079159662
636.074309977
1006.88050978
1006.47603114
1005.6621502
1004.43054321
1002.786281
1000.73470726
998.282449101
995.437308943
992.208184885
988.604977543
984.638491997
980.320334731
975.662809102
970.67881035
965.381723575
959.785326381
953.90369927
947.751146082
941.34212673
934.691204526
927.8130086
920.722212903
913.43352983
905.961718983
898.321606789
890.528117362
882.596309214
874.541419538
866.378910521
858.124521028
849.794320669
841.404760991
832.97272912
824.51560026
816.051279576
807.598238544
799.175531849
790.802801025
782.500249532
774.288598784
766.189010437
758.222989706
750.41225743
742.778611122
735.343763345
728.129178205
721.155885888
714.444287275
708.013903797
701.883068587
696.068488899
690.584675261
685.443197406
680.65184183
676.213792132
672.127068251
668.384508144
664.97410439
661.880336623
659.085671949
656.571247622
654.316785449
652.300880812
650.501769584
648.898157043
647.4697895
646.197758502
645.064602365
644.054335813
643.152474688
642.346084012
641.623763738
640.975534377
640.392638428
639.867385638
639.393028219
638.963656737
638.574091045
638.219787947
637.896749102
637.601433371
637.330693637
637.081039036
636.856448641
636.667175668
636.510224437
636.38142863
636.278652768
636.199599802
636.138408742
636.093880478
636.060690161
636.038110741
636.023647575
636.013791417
636.009198693
1010.0549229
1009.64059885
1008.80811788
1007.54847293
1005.8670625
1003.7695776
1001.26306671
998.355816392
995.057260283
991.377875105
987.32906832
982.923063191
978.172779032
973.091713793
967.693827005
961.993430316
956.005084637
949.743510739
943.223513032
936.45992193
929.467554046
922.261192839
914.855587357
907.26546837
899.505578168
891.590711286
883.535762986
875.355783055
867.066034034
858.682052389
850.219716811
841.695310591
833.125593727
824.527870848
815.920054854
807.320719892
798.749140215
790.225306492
781.76991758
773.404339357
765.150533868
757.030953089
749.068409619
741.285922794
733.706560461
726.353273621
719.248741162
712.415200564
705.874252872
699.646579718
693.751500615
688.206309077
683.025274925
678.218409764
673.790124463
669.738188412
666.053745698
662.721263517
659.721164209
657.03268036
654.634603943
652.503956412
650.616058578
648.945891865
647.469410505
646.164285711
645.010144844
643.988487941
643.082576466
642.277411702
641.559817827
640.918506355
640.343850552
639.827544632
639.362365433
638.942055799
638.561217917
638.215180028
637.899901937
637.611880021
637.34805545
637.105721898
636.881829458
636.683230103
636.516980469
636.377900945
636.264368625
636.174235546
636.103966824
636.049902458
636.008982811
635.979171076
635.957687152
635.945188715
635.935193325
635.930995706
1013.65874001
1013.23304207
1012.37909904
1011.08710638
1009.36284983
1007.21243599
1004.64341727
1001.66465774
998.286230777
994.51929892
990.375988311
985.869255978
981.012755957
975.820703401
970.307742813
964.488820528
958.379068064
951.993697687
945.34791663
938.456861328
931.335555994
923.998894841
916.461648212
908.73848883
900.844034564
892.792902658
884.599771117
876.279444827
867.846924521
859.317480024
850.706730648
842.030723338
833.306022495
824.549800843
815.779925219
807.015036722
798.274611343
789.579000879
780.949437657
772.408006893
763.977571846
755.681664666
747.544336212
739.589990504
731.843207935
724.328591394
717.070634129
710.093622142
703.42152883
697.077834692
691.085169266
685.464559141
680.234211021
675.407610746
670.99132069
666.982982099
663.371734006
660.136239154
657.250395013
654.689474164
652.430807489
650.448504614
648.713441709
647.196136766
645.869046479
644.707529488
643.689770453
642.796336509
642.009767
641.314469539
640.697016492
640.146396899
639.653663033
639.211194358
638.812364103
638.451520418
638.123902722
637.825447641
637.55271315
637.302780648
637.073151947
636.861507642
636.66634465
636.495409346
636.351157473
636.230284145
636.132994929
636.056356461
635.99604288
635.948791662
635.911008863
635.883118236
635.86459421
635.853000267
635.843777285
635.839718715
1017.70307975
1017.26435241
1016.38587173
1015.05690166
1013.28368658
1011.07282614
1008.43246982
1005.37216707
1001.90274765
998.03618666
993.785458872
989.164390215
984.187502721
978.869861558
973.226921299
967.27438032
961.028043083
954.503699661
947.717024435
940.683502007
933.418381514
925.936662857
918.253111902
910.382301637
902.338672104
894.136602221
885.790487219
877.314817512
868.724259124
860.033736978
851.258528367
842.414355859
833.517500056
824.584914811
815.63434472
806.684435573
797.754829276
788.866231019
780.040439825
771.30032969
762.669779132
754.173542409
745.837077215
737.686337945
729.747576642
722.047172635
714.61154385
707.467140382
700.640503756
694.15833027
688.04727595
682.333421165
677.040658609
672.188102624
667.786155686
663.832421265
660.314821684
657.201339378
654.454228661
652.044300803
649.951139109
648.145985986
646.592877698
645.255771297
644.102694327
643.106630492
642.244724663
641.496980813
640.845281799
640.273286212
639.767056993
639.316201611
638.913063116
638.551069961
638.224262099
637.927667044
637.65734639
637.40993457
637.182680632
636.973364596
636.780174379
636.601447325
636.437078224
636.293635837
636.171568417
636.070736069
635.990113846
635.925556158
635.873668043
635.832633024
635.80019456
635.775170134
635.757870354
635.747239844
635.73970744
635.735697396
1022.20065411
1021.74709788
1020.84074846
1019.46979319
1017.64101582
1015.36159774
1012.64039415
1009.48776141
1005.91542139
1001.93630374
997.56438248
992.814503944
987.702213043
982.24357545
976.455002701
970.353079983
963.954405849
957.275447131
950.332420026
943.141201751
935.71728125
928.075749116
920.231327222
912.198430023
903.991249131
895.623848566
887.110261758
878.46458425
869.701062952
860.83418757
851.878793466
842.850170848
833.764201086
824.637504135
815.487592591
806.333025502
797.193543829
788.090179939
779.045316629
770.08269134
761.227320971
752.505355586
743.94385387
735.570520518
727.413434293
719.500844432
711.861101828
704.522768201
697.514962851
690.867747319
684.612588413
678.782034928
673.408489808
668.520187636
664.134711726
660.248806434
656.854806794
653.89870028
651.3191945
649.083218269
647.184813168
645.59188175
644.256009632
643.130827573
642.178802242
641.371207678
640.685260086
640.101260527
639.600664133
639.165726119
638.781313704
638.438105594
638.131204041
637.855615877
637.605806944
637.377457314
637.16779959
636.974199485
636.794666527
636.627801618
636.472565816
636.328084504
636.195244112
636.079507537
635.981007106
635.90063592
635.834895361
635.781053488
635.737368323
635.703115723
635.675962874
635.655562637
635.639938567
635.629640095
635.624358847
635.620880219
1027.16590703
1026.69554736
1025.75769877
1024.33930425
1022.4477802
1020.09099447
1017.27863126
1014.02199677
1010.33385782
1006.22826381
1001.72035659
996.826178545
991.56247216
985.946479938
979.995739435
973.727883555
967.160446909
960.310692217
953.195463461
945.831080566
938.233281676
930.417220541
922.397514873
914.188338698
905.803541356
897.256776251
888.561622118
879.731689396
870.780713537
861.722647561
852.571769186
843.342803808
834.051087914
824.712754049
815.344933429
805.965963231
796.595580372
787.255084161
777.967444571
768.757333283
759.651055837
750.676370446
741.862198111
733.238245858
724.834614242
716.681483778
708.809010849
701.247585587
694.028458202
687.184873548
680.753258369
674.774444693
669.292961819
664.352811628
659.985444283
656.180298402
652.958815381
650.215436338
647.8356222
645.786934803
644.115427169
642.780309067
641.706592742
640.830565168
640.108808002
639.51296149
639.023084351
638.621523051
638.289559571
638.006572035
637.7537931
637.523749035
637.318127408
637.134207088
636.96570465
636.808511804
636.662099389
636.524328216
636.393943215
636.270588587
636.154046217
636.044462163
635.943870255
635.85528728
635.780394162
635.71796667
635.666299186
635.623989666
635.590077778
635.563086229
635.541221316
635.524665362
635.512364335
635.502801622
635.499832341
635.496894249
1032.61516434
1032.12582171
1031.15249238
1029.68067861
1027.71854148
1025.27475447
1022.35997805
1018.98663052
1015.1687031
1010.92155014
1006.26167638
1001.20651662
995.774213712
989.983388198
983.852904773
977.401633701
970.648219306
963.610863272
956.307142628
948.753875558
940.967053661
932.96184614
924.752678038
916.353366546
907.777293553
899.037581606
890.147248335
881.119323482
871.966936649
862.70339711
853.342294486
843.897630903
834.384014131
824.816889163
815.212802017
805.589678094
795.967091481
786.36650618
776.811450901
767.327603363
757.942734709
748.686499313
739.590038446
730.685440289
722.005114334
713.581246631
705.44555513
697.629574312
690.165710764
683.089094298
676.440473213
670.269672973
664.638571351
659.618975523
655.271801962
651.54456442
648.586483675
646.156029943
644.006483354
642.123953894
640.721801675
639.715182616
638.964874574
638.381284494
637.918020546
637.553924841
637.276807342
637.074863138
636.92962362
636.81500604
636.702257613
636.585225955
636.483493745
636.396868667
636.31387139
636.228965887
636.147648181
636.066974621
635.986159612
635.906519432
635.828426958
635.753509796
635.68433944
635.622016866
635.568568063
635.523764575
635.48644261
635.456951914
635.433314232
635.413683341
635.397667367
635.385371852
635.375876493
635.368786885
635.367045427
635.364815829
1038.56682584
1038.05607661
1037.04286791
1035.51103811
1033.46961748
1030.92823037
1027.8986819
1024.39469627
1020.43169223
1016.02654427
1011.1973365
1005.96312122
1000.34366894
994.359213819
988.030182422
981.376913954
974.419374224
967.176884767
959.667885406
951.909760481
943.91874961
935.709963168
927.297500436
918.694656014
909.914172135
900.96848963
891.869945957
882.630899405
873.263789101
863.781178601
854.195828323
844.520830278
834.769833114
824.957334024
815.099020199
805.212139454
795.315870752
785.431671165
775.583554854
765.798260343
756.105242221
746.536433239
737.125727979
727.908184957
718.919030166
710.192664121
701.762020152
693.658743013
685.914470979
678.563511482
671.647595717
665.223765838
659.375571707
654.227654752
649.921832246
646.198189394
643.706567087
641.791185142
639.814935483
637.761772269
636.611920248
636.061443042
635.753762921
635.542198349
635.389469768
635.298691411
635.279472285
635.334655617
635.448222942
635.578556745
635.647229557
635.63616175
635.637321812
635.655669182
635.662944441
635.646629146
635.632140607
635.609552845
635.577274457
635.540754244
635.499553573
635.457657095
635.417269344
635.380004646
635.347452333
635.320692977
635.298959255
635.282443023
635.268112633
635.255509294
635.246028864
635.238650589
635.233059259
635.228748764
635.226766162
635.225925348
1045.04157152
1044.50669904
1043.44873197
1041.84956184
1039.71924584
1037.06852412
1033.91055273
1030.26058518
1026.13570812
1021.55455623
1016.53703914
1011.10407306
1005.27731509
999.078880759
992.531039661
985.655880531
978.474959678
971.008949166
963.277322899
955.298115853
947.087801944
938.661316204
930.032234786
921.21308478
912.215728227
903.051728801
893.732619019
884.27001656
874.675620498
864.961168829
855.138450884
845.219428662
835.216504288
825.142888409
815.013045748
804.843180586
794.651738934
784.459900313
774.29200767
764.175878473
754.142894529
744.227783498
734.467970805
724.902447396
715.570184998
706.5083527
697.750868889
689.328159311
681.268262555
673.599777239
666.35791096
659.597523878
653.418207042
648.039584407
643.811688984
639.171618586
637.677335711
637.031223814
636.227611108
635.767581952
635.58317404
635.513798561
635.465534357
635.402625275
635.330051181
635.267922954
635.223829011
635.181156239
635.096443833
634.909430737
634.65397709
634.567839136
634.682524057
634.869820877
635.021386693
635.066366314
635.124063615
635.161399733
635.173066895
635.179147187
635.171610186
635.160485255
635.145702687
635.13226119
635.120756084
635.111337866
635.105685481
635.100464885
635.094654907
635.090699124
635.088594484
635.086503257
635.08491057
635.083259186
635.081859347
635.082285889
1052.06262529
1051.5005706
1050.39238906
1048.7177043
1046.4877691
1043.71464649
1040.41308461
1036.60013999
1032.29484274
1027.51786383
1022.29120406
1016.63791499
1010.58182153
1004.14722856
997.358579464
990.240062811
982.815168844
975.106229101
967.133982682
958.91723424
950.472666261
941.814865291
932.956583386
923.909214318
914.683386248
905.289529088
895.738247146
886.0404092
876.206999716
866.248909639
856.176824388
846.001320329
835.733187198
825.383912171
814.966256145
804.494884291
793.987028002
783.463168832
772.947688229
762.469405335
752.061868759
741.76325606
731.615648478
721.663505781
711.95122689
702.520060901
693.405126742
684.634328393
676.228914317
668.205046458
660.577116586
653.365175896
646.57107979
640.189928313
637.273955808
636.712010995
636.716326907
636.734433571
636.584884845
636.407295638
636.261700999
636.146797842
636.039647997
635.924814105
635.80543744
635.688247487
635.572865168
635.452088582
635.309815235
635.140967738
634.985599715
634.908715468
634.891160488
634.804503114
634.537593219
634.41540139
634.589466911
634.729434024
634.776589242
634.82935894
634.848421281
634.866558638
634.87450146
634.883965897
634.891738146
634.899669327
634.907924795
634.913159238
634.918246956
634.923581352
634.928284823
634.931515621
634.933340498
634.934845437
634.934836029
634.936215006
1059.6560366
1059.06332226
1057.89881758
1056.13944008
1053.79785803
1050.88769406
1047.42559587
1043.43075156
1038.92446698
1033.92975396
1028.47099156
1022.57364457
1016.26400748
1009.56891493
1002.51537932
995.130125067
987.439030201
979.466506239
971.234889527
962.763930011
954.070490517
945.168550349
936.069581806
926.783276086
917.318492261
907.684166468
897.889879761
887.945868366
877.862587124
867.650167785
857.318091368
846.875236884
836.330312231
825.69250971
814.972263801
804.182039434
793.337182005
782.456840142
771.564918506
760.69097237
749.870863266
739.146967713
728.567568318
718.184977651
708.051966121
698.216609071
688.716239476
679.575816631
670.808184599
662.413531936
654.374124549
646.595955848
638.468492817
637.690365918
637.511632141
637.483071141
637.550991234
637.58721181
637.539341978
637.434309863
637.293891726
637.145158606
636.997172666
636.84940631
636.702003913
636.551269085
636.391021284
636.210831548
635.995159311
635.743566723
635.491001213
635.283543828
635.118723224
634.958798089
634.823174802
634.761399053
634.671244239
634.40795957
634.336759413
634.491933769
634.529611869
634.580475671
634.607515405
634.639445317
634.66431674
634.688860395
634.709628265
634.726268437
634.74246165
634.755890322
634.766591875
634.774997119
634.780948902
634.785286619
634.787265381
634.789556668
1067.8510375
1067.2237096
1065.99598679
1064.14157149
1061.67476635
1058.61105804
1054.96937396
1050.77146041
1046.04129465
1040.80457269
1035.08833593
1028.92073177
1022.3308195
1015.34833425
1008.00332008
1000.32559182
992.344020672
984.085692523
975.575029845
966.83301302
957.876668412
948.718999207
939.369493788
929.835241931
920.122474555
910.238105418
900.190660109
889.990125286
879.646909848
869.170684508
858.569669116
847.850647024
837.019606072
826.082702705
815.047250652
803.922667086
792.721496039
781.460613769
770.162592753
758.857106417
747.582183672
736.385099688
725.322269235
714.457415637
703.85666831
693.580189116
683.669531982
674.147196705
665.019456677
656.275094876
647.835263478
639.092717218
637.991324989
638.330087596
638.509877881
638.591828112
638.642725939
638.67537576
638.660961062
638.59359117
638.479642532
638.337297971
638.177823835
638.008384097
637.829200724
637.636187511
637.425963665
637.190529186
636.920260202
636.617290447
636.306075277
636.015529702
635.744489901
635.472742088
635.213327538
634.99860377
634.821762274
634.700307342
634.616018315
634.40355474
634.174260287
634.296876994
634.343564254
634.402367031
634.439614994
634.480877502
634.511663458
634.539577799
634.565321313
634.586732166
634.604131051
634.618054466
634.629017571
634.63604084
634.640657436
634.64352799
1076.68041755
1076.01394892
1074.71524663
1072.75407846
1070.14664799
1066.9106548
1063.06782928
1058.64303904
1053.66343627
1048.15777014
1042.15600232
1035.68917129
1028.78935712
1021.48956924
1013.82342502
1005.82453449
997.525588594
988.957198954
980.146622677
971.116549477
961.884216968
952.461138244
942.85374045
933.065045889
923.097227433
912.954318496
902.643912761
892.17665629
881.563976293
870.815735105
859.938894249
848.937549944
837.814059947
826.570565902
815.210302964
803.738596069
792.16398868
780.499743216
768.765729496
756.990521806
745.213571297
733.487255258
721.878222839
710.46657968
699.339984438
688.58117685
678.237773109
668.328742161
658.853128253
649.745905954
640.434648865
639.229793805
639.440512048
639.703016003
639.7643055
639.822918936
639.879163707
639.92468479
639.932552475
639.890513404
639.797408606
639.661540089
639.491441619
639.296640973
639.079827328
638.839657017
638.575952187
638.285149988
637.963918253
637.616464106
637.258466205
636.906614651
636.562523775
636.218235148
635.87885646
635.558659003
635.257667416
634.989127874
634.767660097
634.601866569
634.487219036
634.296304949
634.058810499
634.168561351
634.213484498
634.276782527
634.314039149
634.352281888
634.387694316
634.417379834
634.441801161
634.461672201
634.477561817
634.488201665
634.495317106
634.4987513
1086.18096965
1085.47024863
1084.09177104
1082.01057829
1079.24493564
1075.81519678
1071.74662624
1067.06803427
1061.81040504
1056.00593504
1049.68766703
1042.88960215
1035.64697836
1027.99642058
1019.97573615
1011.62323615
1002.9765645
994.071101902
984.938101665
975.602797579
966.082855309
956.387642279
946.518877024
936.473096883
926.245905523
915.836952371
905.253327919
894.508343487
883.616589616
872.589385115
861.432434765
850.146147779
838.727824853
827.174311303
815.483693843
803.656040467
791.694385546
779.606513716
767.407529663
755.122785448
742.791203493
730.469262442
718.235127692
706.191528266
694.460922476
683.172024809
672.37673284
662.080737291
652.220982369
642.227389306
640.998641835
641.226741907
641.329357908
641.292724254
641.25533096
641.274738582
641.312759315
641.345082578
641.345094043
641.297866936
641.197438882
641.046140792
640.850362523
640.620159854
640.360244806
640.071529289
639.756438025
639.414804244
639.046992157
638.657552081
638.256270062
637.852764822
637.450173744
637.048061523
636.650635695
636.26434866
635.889388161
635.529150069
635.1918455
634.887215683
634.634686174
634.450866118
634.332832751
634.15573498
633.960567919
634.080772434
634.11547642
634.166090518
634.21247876
634.250216514
634.281291339
634.306763043
634.327434942
634.342550897
634.351820236
634.356212379
1096.39389949
1095.63328559
1094.1651031
1091.94888221
1089.00485394
1085.35649678
1081.03376955
1076.07069925
1070.50302944
1064.36678534
1057.69803815
1050.53352887
1042.9115515
1034.87257716
1026.45928973
1017.71586027
1008.68645292
999.413035659
989.932679472
980.274621614
970.45758471
960.488068178
950.360638336
940.061297589
929.574519274
918.89263308
908.02331006
896.98681712
885.805116523
874.493217387
863.055384781
851.486394279
839.776075828
827.914284949
815.893040971
803.706069851
791.349096093
778.821944329
766.131979145
753.298016936
740.354622241
727.35851765
714.397682565
701.603128549
689.151992002
677.278816681
666.020324035
655.290107294
644.496231206
643.182502133
643.479314676
643.525667396
643.270907033
643.055448888
642.943166498
642.909130395
642.903876202
642.895065699
642.856096539
642.771008233
642.63200036
642.439008973
642.197738426
641.918535476
641.607142534
641.266148154
640.899714279
640.509776608
640.098452975
639.669784416
639.229947901
638.784666021
638.33693618
637.888551587
637.442943223
637.004039122
636.573918882
636.155553238
635.752604509
635.3678634
635.011463993
634.700066708