/*--------------------------------*- C++ -*----------------------------------*\
| =========                 |                                                 |
| \\      /  F ield         | OpenFOAM: The Open Source CFD Toolbox           |
|  \\    /   O peration     | Version:  v1906                                 |
|   \\  /    A nd           | Web:      www.OpenFOAM.com                      |
|    \\/     M anipulation  |                                                 |
\*---------------------------------------------------------------------------*/
FoamFile
{
    version     2.0;
    format      ascii;
    class       volScalarField;
    location    "500";
    object      pa;
}
// * * * * * * * * * * * * * * * * * * * * * * * * * * * * * * * * * * * * * //

dimensions      [0 2 -2 0 0 0 0];


internalField   nonuniform List<scalar> 
24444
(
18.1902209771
-3.85857205727
-7.12733773512
-2.66028686895
-2.67936535101
-6.95264646936
-10.5758734719
22.1978398252
-16.6579101769
-31.3115484354
-7.55596643441
8.97530278302
8.96533774876
-4.87868005237
0.241988284089
16.7376676937
-14.099026296
-8.63189587542
-1.13749338488
-1.11160530275
-16.1057501487
23.1112279988
24.4622863115
-4.16357344837
-4.20265064477
-16.2247422418
-16.1008453324
2.52928992467
2.33408439746
-6.13260563785
-22.8117141907
-14.4848879193
-6.91923692401
-25.6825140092
-13.0948228612
-6.05666616203
-3.29557400713
-3.63800394673
-19.1095854483
7.6143760326
-18.9809005362
7.86989517841
-8.11178369399
-8.09088824173
-22.6304540652
-3.42238267973
-2.28594173116
-9.19514686192
-11.6853435566
-8.31278817893
6.32915796996
-1.1425240935
-8.26893672962
0.121735756825
-7.21810670772
-4.53338289989
-1.96863536641
-12.6353144238
-26.023578915
-6.26347123687
-6.21179073381
-6.231569182
-7.69864376964
-7.8636315944
-5.70984571619
-7.43875731355
-5.44855130636
-8.45626330489
-3.38859396395
-8.87300453016
-8.88609256082
6.22622104096
-21.6349309545
-3.16582001323
-8.32030928762
-4.94587983932
-11.3019843627
-7.88311259942
2.05888594586
-7.18177509215
-8.94951995626
-33.6238851866
-10.1951799539
-6.86998250756
-0.111283531406
3.2986963698
21.6887784844
-3.99170977555
-16.9719433258
-4.05810781149
-4.83245446478
0.285867162588
18.2510048882
-14.213220347
-1.16595767143
-6.21112644557
-11.9263509694
-0.14870391173
-4.58871848067
-6.03697648783
-4.15656076955
-2.48878961196
-2.48783602175
-11.2668304289
-9.14566838931
-20.0037892738
-20.077942852
-8.10560373027
-8.09862227966
-4.10569346776
-7.11407081046
-3.67625530684
3.94889236167
-4.36343824383
-6.23382326111
-12.5251432157
-0.134439537282
-29.8340966253
-29.5454432796
-2.51329306451
-2.52661803721
-8.68120226393
-8.67698675214
-7.83337751261
-7.83076149647
-8.14765563829
-20.403799696
-2.31521996493
-8.62733836907
-13.1905819164
-3.82476383614
-8.70236666199
-9.220826047
5.74064627952
5.62626505225
-16.0564168164
-15.8549859958
-11.6852571494
-8.39008893326
-3.06527497794
15.6329196079
-4.04070963408
-16.5741698848
3.82345751098
-8.84463247914
-4.6134358964
-9.16893341708
-8.88094520174
-0.482482752349
-5.48498552446
-6.12988656263
-3.9667775221
-2.98632454121
-9.39689391168
-1.11294075751
-10.8992100711
-10.8712140542
-3.50046055215
-3.58473907824
-0.293183968273
-0.0713028644689
-7.22105373088
-8.88949998011
-0.724688205441
-5.57595182057
-10.1056988532
-12.0407016096
-9.69046088383
-9.45151866243
-7.9546722126
-11.8325056239
-8.90477110801
-8.77587957859
-21.4984724431
-21.3852994412
5.41228863532
5.61834389279
-8.38856551295
-8.36318530919
-3.1199056008
-3.08667061999
-21.0806318059
-8.25692242125
0.360946431327
-5.01853388499
-3.28171870973
-8.2764111868
-8.2855043354
-0.489858761193
-10.5155386719
-10.4690357789
-8.37596998585
-3.08204912756
-1.4864729964
-7.46386625266
-7.49437338816
-3.89938595852
-4.7212087298
-5.69171910057
-2.22465437808
-7.71637060577
-1.55945009465
-5.41948232225
26.3590103674
-16.0827424436
1.83159362015
2.03064154345
-13.610102531
-13.6851429755
-2.87390106007
-1.66614127818
-9.09471858391
-8.45997619302
-10.570569784
-5.49590126914
-7.15121230037
1.92711938312
-10.482347291
22.1907387737
-16.7463490147
-28.4866410896
-8.909789077
5.13055435308
-5.79721094009
-8.29845060568
-8.30403428006
2.65987498
-5.83841513838
3.97284669416
3.74005560936
-14.9195519857
-14.7122222221
1.22783482359
1.35152502687
-3.20243592726
-23.2129917669
7.65862540507
-7.04947423137
-4.93006089221
-6.0926021461
-23.4990630882
-7.81529208591
-3.5835109559
-19.005820942
-8.32710251199
-10.6175729534
-4.09311666358
-8.49231859693
-4.07916068752
3.71353808834
-4.10391969849
-10.6434292453
-7.71540043083
-6.39769889914
-4.59523122565
-8.34651307612
-8.34937924405
-10.9206381432
-8.27154105812
-7.57729536489
-11.7865959469
2.77280159162
11.832327953
-4.14726927864
-16.006095005
-9.76719973835
-1.06754177211
-7.16670621794
-8.28492190551
-7.98603500362
-8.4788023521
-2.87092317078
6.13042230042
-21.8662219979
-3.14298075916
-8.33556608032
-2.77251872773
-21.4082240607
-7.89356091972
-7.74813662511
-24.884239225
-24.9510416917
-15.870079156
-8.22605572285
-22.1394282935
-3.26964989293
8.54537250189
2.21496909657
-8.1771463321
-8.10777810948
-8.21710032678
-20.4904198489
-19.9800927827
8.38322729408
-7.95509206766
-2.41771530309
-7.03128672704
-1.69536311268
-1.767047919
-4.25211505641
-4.15079539996
-16.0828889262
-25.158686548
-23.903364937
-10.6053863705
-9.43526059136
-9.46388721208
-12.1261537144
-8.67034042812
-10.1898481913
-21.42261365
-3.22519201147
-1.9340836542
-12.396592298
-10.2669341787
-7.39396059848
3.16664039289
1.82626155562
-10.7259443617
-2.79579769255
-0.705015835643
16.1281594623
-4.02528895946
-16.6636612618
-4.81644751128
-7.49799557401
-5.48357882378
-3.78992721738
-3.80694676876
-1.25767899985
-1.4000900435
-3.22722819997
-7.37592530532
-10.1789072169
-20.608451192
-20.4983564664
6.28833590116
6.45748506711
-8.26347920841
-8.26861832893
-7.08475692944
-10.9895885973
-17.8148287513
-5.43053921243
-7.44756028621
-4.73308636052
-4.70696771312
-6.49831758339
-8.47879912372
-8.47499580939
-3.40845259565
-5.69921433461
-18.1102992263
-8.71618134931
-3.3797133929
-8.99171800675
-0.662689016361
-27.4500649832
-8.56337380352
-7.69980542585
-13.9848052626
-13.7743037853
-1.93042953901
0.89821373345
-4.6904822358
0.797229251519
-4.6471223301
-7.45637308298
-7.85673668874
-2.81617627461
-2.76294871944
-7.21487379405
-8.49664724769
-3.70376645044
-5.03556756232
-6.69101123321
-7.9484180683
-1.46943143371
-1.54186467515
-5.3062364088
-5.29690276729
-3.68253400905
5.72380150229
13.4204669387
-9.02430389575
9.71844438923
-15.3515301363
-7.67554120888
-7.69936441095
-5.02252909065
-9.35140431472
-4.28728023137
-6.52420458446
-2.72974100021
-2.87109890562
-21.385441247
-1.89564649831
-26.831092291
-8.75215083341
-4.1460557712
-16.1158037017
-3.73922916184
-3.79081603103
5.8966575103
-5.17060483835
-15.3319574512
-6.23637269134
-6.42360183324
-6.37825914348
-3.24018795741
-3.21220745126
-2.22007058502
-28.450869532
-9.37826071734
-9.34630511829
-8.18296372546
-6.92779784761
-5.6534142258
3.17355206367
-16.3747404644
-5.86703715624
-3.93179009802
-15.0229756156
-21.1373008424
-9.74820365254
-9.76371576656
-20.4502394473
-10.1950744481
-8.30736583102
-11.6982812095
-5.93649722383
-12.4537831139
-21.2830949661
-3.2639061123
-2.79013967368
-4.91273675973
-15.3546621914
-15.1650138239
5.61876371928
13.6343762188
10.1395638056
-3.4289194316
-10.0437473112
-5.30205168794
-5.24619414225
-3.1019575815
6.58047576843
-19.0010864925
-8.15259311547
2.96247896988
-10.7818791693
-4.54220521873
-0.761142901143
-4.23323978125
-4.27467104833
32.3978064136
30.6017769517
2.03423902863
1.82686152747
-15.8914744109
-16.0300895107
-3.3724604611
-0.512108049823
-8.97989053414
3.21614366753
3.27403616692
-14.3197624386
-8.82598117047
-5.9841998586
-9.75035596922
2.86312969847
-18.9127536223
-19.5362697813
-7.83159469155
-0.855621991656
-8.25887927496
-3.22162822885
-23.0001494461
7.86973965404
-3.92297714258
-5.51899101566
-6.86543910694
-9.64630176384
-9.71675762406
-3.45962977365
-26.6489869164
-8.50906041288
-8.59650903106
-8.74924330269
-8.69546150422
-7.93336948263
-0.124075651313
-7.98932046436
-1.49051422314
-1.53103048038
-6.4362508847
-6.49264696666
-13.2388172754
-5.64633004711
-10.4458197265
-3.62658341876
4.47043747823
-10.3982466983
-7.96674449617
-9.30584649785
-3.84418074964
-15.3128320809
-6.14975515239
-4.01680194834
-14.095181654
-8.09940158738
-9.6389015441
-24.9665291112
6.43357358415
-24.8064422578
6.55771126368
-3.04210381776
-3.06088082878
5.22670725059
5.45135913903
-19.7892313495
-19.7466041786
-8.31366169154
-8.2869320827
-1.5832532397
-6.29080373
-8.94716658946
-7.19334982417
-2.12465531501
-6.0262912126
0.627027379823
-12.9827466994
4.34400388938
-4.51957537204
-10.3738501827
-3.21231984822
-23.0804386271
7.7595155846
-6.20803416234
-8.00149831026
-5.30235596649
-9.83657882694
-4.01115170971
-7.26785306231
-4.22890478044
-10.2654459601
-30.9367387676
-8.7443490103
-2.37971389059
-7.78041326801
6.0186944017
-25.8382761936
-8.42730104361
-2.96000031151
-1.71056467712
-1.51780542312
-26.8797577862
-2.14298719975
-6.38870809364
-8.08903186147
-11.087310587
-7.82181523508
-10.6191733803
-6.58369609333
-10.6549598926
-6.56927065356
6.09321442042
-17.1210164693
-31.5981439389
-8.77585488502
-2.31066948699
-7.7550853565
-7.13269603955
-5.26256525211
0.381992364851
0.333004886996
-1.98120191476
-8.25785488717
-8.76253625729
-8.72015180874
-25.4522543131
-10.4866336963
-6.69693508099
-0.0804392689869
-18.6769154883
-6.49901501825
-3.40609252002
-8.68201319638
-8.72779334004
12.2936546563
-15.931527487
0.331455513041
-1.97880669297
-8.02039078911
-2.95470786456
-9.51567363572
-2.08765725905
-5.08484993778
11.7111194721
-14.3931214
-5.84368120708
-5.60618401894
-4.48303769445
-14.3246328684
-13.9875370714
-2.37043342788
-7.07386609227
-18.2416087542
-9.59456957904
-9.54913068676
11.0567233141
-17.6894811629
-3.75124216281
-8.37763120195
-8.27515037494
-11.1310900678
-4.81233158856
-4.19133378745
-4.02521877783
15.1381111836
-16.6183137426
-6.51872696571
-8.68246136989
-7.81779783611
3.66866273118
3.46032360732
-10.9505635988
-9.90044653001
-9.69762214046
-0.23916770322
-3.29348456234
-5.09691746269
-10.6934498856
20.6176955934
19.7069157357
-12.3793477027
-11.518461708
-3.6855301052
0.0995576627572
-4.27815734931
-2.72153294775
-2.67591064716
-3.96007225886
10.397246197
9.78340422316
-15.205112022
-15.2168862725
-9.38774349202
-3.7862906568
6.29062515318
-17.3038175851
-3.41797541179
-8.74043467466
-27.4462265394
-8.66258531533
-3.5372117785
-5.88027188735
-21.4078147785
-11.0953619631
-3.22744424005
-8.63165831352
2.79726590795
-4.20990373246
-0.220500865551
-0.213696243567
-11.7545486426
-11.8145324401
-5.88321191078
-5.91615433644
19.7695169269
-4.14343594065
-9.90157156158
-5.12384074178
-9.62727507764
5.15351755974
-9.67271529067
3.38546371702
5.31759927344
-16.6496557152
-0.69704445942
-2.6346125651
-3.72920285796
-5.90784981993
-3.23313925266
-19.1275262014
-5.57421256688
-11.392340081
-11.7464196309
-8.37249474245
-8.80119258721
-2.28770859478
15.9533676025
-8.2366070429
-22.4909614101
8.30297209331
-13.4218817354
-5.93697579698
-1.39542163648
-8.37381789983
-3.46100114238
-19.1761704279
-2.97300171125
10.8379585848
-16.8281184535
-3.91618676504
-8.13681314389
-20.2834688404
0.178522915385
-5.01642019196
0.203215764049
-4.95294741494
-1.72754685962
-26.1524688758
-8.81614493647
-6.09192372937
-6.15548654302
-8.23245271093
-22.3785853584
8.40108555732
3.21222023809
-12.5431054065
-6.68486800536
-27.4872829128
-8.55482953684
-11.5555295562
-7.18391157888
12.5522323344
13.198276847
-16.6966028103
-16.6648032109
-10.4820478053
-5.63485708846
-29.233712511
-29.2117778795
-8.95954134734
-9.01396614727
16.1749054035
-7.11969450585
-10.6748212557
-1.33325358705
-1.41512240819
-5.6267694853
-5.65584429803
-6.31959630702
-2.25025398676
-7.42779794951
4.86647894264
-10.9132779257
10.4731820936
-16.7843513406
-3.91753147333
1.73225342869
-3.67100427555
-5.55262202565
-6.55587034279
-4.68212123112
-27.9247403351
-7.17676102286
-15.6164484826
-14.5490757022
-22.5086855369
-4.04583449282
-2.3159256834
-24.8084591149
6.45892788801
-3.04951639496
1.70585193347
4.38862952984
-4.64008686581
-5.82923746392
-8.58058011753
-0.0467216828693
2.7489937233
-0.338704705929
2.71377397277
-0.741275067474
0.518198493968
-4.08561203467
-2.08094932811
-7.58843672041
-10.3373991028
-5.43086151357
1.68239919689
-19.1648197135
11.0324475068
-18.1289775242
-3.68086539553
-5.89742645052
-21.6720840447
-19.4078594039
6.3454042389
-8.1972465566
-10.4049781908
-6.15475281632
-6.13016208131
-7.44139638678
-6.74006865754
-7.47469437486
-5.05736082236
-4.93739939199
-7.08925956355
-7.14344078512
-4.12035112072
-17.3611887195
-2.89043028943
-4.14675926851
-12.1831066318
-2.38434648673
-8.23498606586
-8.29771639155
-25.9619939178
-25.7295246894
-0.364868018821
-3.28338508109
-7.14312796869
-7.18289829284
11.2003690156
-5.0487893714
13.4026907912
-3.7571826571
-17.8651577051
-11.2884594409
-11.1389037828
-0.140257461982
-0.157201849533
-8.25000860379
-8.25751037973
-5.60775900666
-4.92128830949
-27.4794708468
-5.23923059211
-6.73933859524
0.378809960383
-8.4207108884
-10.4763013491
2.38417168586
-7.62951264381
-2.74113761936
-12.822081427
-21.5276981618
-3.84141882181
-8.48104648927
-5.77277190399
-4.27976115842
-4.23122295418
-1.65896400063
-6.05616289338
-8.2261132641
-8.23430506311
-3.67425704246
-7.98846434701
-7.95854625153
-8.15458678913
6.08147733159
6.44079054329
-16.2859593656
-16.2455993903
-4.98436764997
5.23431189978
5.30571691997
-8.25875356484
-3.22205713118
-22.9699707697
7.8739822256
-7.65472077569
0.29957039064
0.191889528325
-5.13329139922
-5.07531816835
-13.7350392993
-5.66010673281
-2.95942425814
-14.1988482227
-7.10823152977
-10.2835913591
-8.38349102715
-3.21500241501
-6.72303351483
-9.13109343012
-6.50834714718
-4.79351935724
-6.67259534503
-1.97364214468
-19.878139065
-19.7610240244
-8.1033529433
-8.09098071959
-13.9707613243
-13.214619627
-15.1187772181
1.35943481246
1.47442666214
18.7918114719
-16.9962357182
5.04487671114
-27.6841025254
-20.2490310224
-19.5602531001
7.7710167948
-14.4889079896
1.77219623537
-29.8812045072
-30.5702948694
13.6468715867
-16.7563373975
-3.97032135386
-8.47316859327
3.45366095636
-9.75511908072
-7.17898322352
-23.9305788582
7.01953338001
-17.9146225086
-3.62002124276
-8.76495977163
-4.34308399762
-8.12150340757
-9.3197902083
-11.4259378647
-0.298547052088
-5.67982188779
-8.24436981293
2.49246559891
-6.70218766706
-9.74102066365
13.6867838445
-3.78703205111
-17.7219677665
-5.27789063099
-2.80587666383
-3.00478765391
-19.6461503193
-0.984042786509
-16.8727903242
-10.2949140209
-8.84874915933
5.0777421204
-20.5081217408
2.32185424988
10.6077471176
-3.38653400671
-12.254998441
-4.12991224394
-5.88017225691
-7.99753734019
-12.8447880534
-5.02372045777
1.27950668093
1.07160733308
2.29367050577
-0.0404540724
-10.4803198693
-11.3598065595
-6.18719716951
-2.99819948382
-6.49163784535
-13.2566627417
-6.56880464097
-13.1169705753
8.16673667469
-7.9421779304
-3.54618375647
26.4613889104
-16.1905220196
-20.6694372499
1.64080245799
4.33528689971
4.33036370201
-14.3039319578
-14.2214220836
-0.732046647621
-5.6050191635
-6.39632232069
-4.20425428473
-0.863415522249
-6.11021986685
-0.0721962823454
-13.1971389796
-11.854881981
27.1309575121
-4.13005700657
2.55905730857
-16.4182922581
2.58831361729
-6.13568851566
-0.090597948202
3.0277337295
2.97857059049
-2.3795499495
-12.1658808677
-11.9952690485
-19.6842095861
-6.13910911385
-0.560997899358
-5.50936305306
-6.67121210518
-14.0891123765
-10.1914269201
-6.48618427065
-7.10904077206
-7.1673887315
-7.24626096626
-4.18047575181
-4.16561891909
28.6017914579
2.3756644833
-16.2893302234
-8.22651068654
-6.01669811071
-6.62491236335
-3.03917054764
-7.48241975213
-2.12706419935
-8.19767965108
-3.97730249775
-4.09391308924
-7.76988658482
-3.98044737697
-0.275384644805
-4.17968373551
-10.7737863797
-0.630061265054
-8.38672248938
-8.30623199919
-16.7683881195
-4.86758857758
-3.88788002651
-28.8052869097
4.26499825223
-21.6739899976
7.24031343204
-3.22825209806
-7.35506173925
-5.35195271099
-7.64226955675
-14.1782130803
-3.37838512926
-7.09074059334
-3.4222588772
-5.1675144183
-9.98031037562
-6.98634774385
-2.70352041667
-10.2530535316
-22.4031917278
7.82417857134
-3.23081716867
-1.51333427887
-1.57081437721
-1.59868961082
-6.42019782725
-6.39915433096
-6.44851972424
9.818812091
-3.38631641027
-16.9643802622
-7.91411304509
-3.54516515531
-20.5546938893
10.5679529915
-3.38200118589
-10.3501405839
4.99614578647
-7.5401725495
-9.44601585689
-0.700428853275
-2.86276466917
-8.16980968903
3.45782697178
-4.5498075318
-7.85828613886
-3.69167141498
-10.9518462898
-4.1423711808
-7.51166294883
-0.499428653326
-9.77075205118
-7.12664969839
0.148156119561
-3.38259116635
-1.55359325094
-1.76361187381
-5.03377521871
-5.09973126472
-0.339200837367
-10.6668092786
1.92929890785
-13.1568957874
-13.0021514576
1.3134871329
-4.62240586883
-7.11090725373
4.96011246816
5.20850301588
-17.351595454
-17.3645252453
-15.9351631664
-8.22647849483
-7.43836447663
-24.8483776983
-9.41701257399
6.98170824908
-16.8355289979
-3.22354375563
0.894303861292
-4.79175416529
-9.37259399271
8.93624150844
-17.331729145
-7.87110493288
-4.29229193613
10.9755093347
-7.86648522946
-19.7512841197
-11.0252131161
-11.096657816
-6.30872532922
-6.2741530852
0.506638389263
-8.10498045233
-8.08423809722
-8.42760276023
-11.6826589451
-11.3337591205
-0.101688593072
-6.19769361715
3.42424038763
-6.52188452685
-10.9023337719
-24.4795346218
-13.4861589443
-8.52602449683
-5.74013448043
-0.354274081991
-7.91442158306
-10.2720105051
-10.3915053707
-10.4355878682
-24.5698608171
0.483713145685
-16.2460482466
-0.307542159134
-8.539371856
-7.86642815628
-13.2267808049
-8.90122056771
-9.28166930572
8.82931679321
-10.7282764249
-10.6364493354
-4.39652630914
-11.1188587514
2.70219103658
-8.49743210693
-11.123003874
-2.79442729756
-0.0169613557679
7.24541676635
-14.4090769739
-3.24831113872
-3.41523289286
-9.42500539928
-7.63201905823
17.6066503517
-4.14713734197
-16.2156205601
-3.40870944632
10.0079213704
-3.39979668224
-19.0225451932
8.17534781154
-8.08342117294
-5.1105585105
-5.50941316718
-7.25708853984
-8.07886037514
-10.7761780742
-25.9425975356
5.91921182254
-8.43996902524
-2.94041623702
-10.8763426624
15.8108734281
-4.11098117803
-16.2932305369
-10.9381179757
-6.36482553857
-3.28369811444
-1.31844699928
11.6997930339
-2.81358891314
13.5615355968
-16.948472405
-3.92976921273
-17.5836261556
-17.3648582254
-10.851264642
-8.93453155549
-20.1362867669
-8.27246219125
-9.08227004413
-7.33472888009
-3.15274059109
-18.2007452092
6.48936208438
-14.9857975663
-4.46884638059
-4.4574753229
11.9555832005
-3.72104585127
-17.9674341216
-1.58448058506
-2.2136514081
16.4051491982
17.5663419994
-24.1170977985
-4.48509630243
-6.41106540169
-6.35155024164
-4.50525013652
0.139672771484
-10.1211180373
-6.9189479839
0.189514815603
-10.2149406938
-10.0600355475
-9.98234608181
-3.10609456202
-3.04766072062
-5.07585828792
-11.4950482527
-9.33654315572
-11.1248460686
-5.46825508632
-23.1262284979
-5.63370342017
-2.5558830896
-18.8917050443
-24.469758956
-9.47226392119
-8.73208446986
-0.843843679946
2.187806903
2.20664555637
-1.24170322059
-8.68629243465
-1.09738023758
-2.08405790104
-12.417743509
-4.07126366122
-3.11976784067
-3.0910650838
-7.18320360129
-11.944569192
9.52232632204
8.60630552809
-13.6812037793
-13.560900134
-4.79111288489
-7.64533037938
2.58916251731
-2.93232438657
-0.289919746846
-12.4773744583
-19.4361132356
6.13821260399
-8.2135434062
-2.06038084647
-2.0635824594
9.25254613861
4.58901323216
-4.10932875721
-6.41608789489
-4.32198381332
-6.97578858647
-1.2738782444
-1.1658692796
-5.25145015792
-5.20771769778
-3.05420690381
-3.04720032088
-9.55453652273
-7.87758200921
-1.03808568428
-26.9901346539
-8.47224664136
-11.2567039775
-9.34568485488
10.5244747405
-3.93881079794
8.26073048397
-7.98187672415
-1.43635311421
16.5269052867
-7.62422406302
-5.73163066202
3.75221976552
-3.88583429293
-2.08733543123
-3.96015956161
-3.98844854742
-3.96091964437
-7.64883682449
-1.41529860877
-1.50373491759
-9.01089808423
-10.1807143805
-6.71767537051
-3.67228307489
-6.31471827032
-6.26193278533
-8.2939812488
0.151548363592
0.0740303124472
3.42427811301
-6.05027807197
-13.4087683845
-4.40615094976
-6.53876244162
-6.88553031566
-6.94411976845
-4.27094515318
-4.2844046153
-20.8946684198
-5.36277232028
7.11636931748
-23.8315351735
-11.504264004
-7.90694047336
6.55139578205
-2.25947552688
-5.33280193484
-0.981635924
-8.9864778023
-8.66099962819
-8.67573626623
-5.46199430619
-3.30774877541
9.30815496246
-7.59742080669
-5.55488925835
-11.405042465
-25.484800181
6.2045732901
-8.40433635361
-2.9983401129
-15.8536057076
-6.85426594207
-6.23034689462
-11.3455548181
-7.12133749664
-16.4131018786
-3.86254453358
-4.18973834179
-5.3915687249
-5.34777714257
-1.27850341002
-9.70163643856
-3.41551470654
-8.5494416038
-11.4981604347
-10.6679349789
-4.52222840756
-7.55186679716
-1.66975982775
-9.07899404992
-4.34143187144
-23.2150789152
7.57583922578
-3.19578353575
18.4096977663
-17.1333755304
-7.18150366644
-8.12092997277
-9.04196090034
-9.0476826666
-3.7030811658
-8.21532845391
-21.8996834998
8.95367451692
-3.45937529124
-3.44341998835
4.36007755722
21.7292825331
-16.9186758401
-31.369776514
-6.31474961634
-3.58796053575
-4.16574096557
1.65498965032
-7.30109154854
-4.12429007012
-8.17525644901
-9.88308842617
0.825851552288
-9.00723869614
2.74054367768
-31.7457984582
-0.30422182608
-4.08117989886
-14.4825491241
-11.2466787361
-10.0019049652
-6.98103025411
-9.89016973573
-9.83538363148
-5.96146772058
-4.1109457194
-8.22834441219
-6.81962507506
-1.81777702593
-1.84271653718
-13.4939386853
-7.12752110235
-5.28615510776
-5.37886015418
-8.52884074438
-7.40069113285
-2.88564723871
1.69253857021
-3.14443762952
-2.85516680065
-7.16215207927
-8.40997163649
-14.5135451957
-8.46168681741
-2.90048127555
-3.56649799424
-8.00092772606
-19.1239634307
-8.24047435722
-9.25375951221
3.60919251385
8.81351772778
-17.5020412351
-27.3195947591
-8.5071013998
-2.82192323839
-7.96291722451
2.2191311656
-7.89578439056
-5.2943554515
-2.9041869463
-0.155570983891
-29.2469976885
-1.69456104415
20.978236887
-1.11375053018
-1.91795310924
16.0420493687
-4.08371931363
-16.4089116368
-8.37242125036
-19.7959585672
-5.37821488237
-10.7086921757
-14.0819792137
-7.402731099
-7.60537609891
10.2505931858
-15.0423208048
-5.91763736776
-1.12524225367
-3.84732082376
11.8124642428
-17.7996483288
-3.74635642903
-9.14374907965
-8.38263079671
-7.93197349872
-4.87543700968
-6.01286429958
-6.00606756466
8.85071385307
-14.6407056023
3.87749187113
-5.38177552107
-4.94895545112
-4.9476358494
0.108354877147
0.11528387322
-5.15930738268
-5.13442838871
-0.899179705301
-19.1739915029
-8.03270334189
-6.95357767968
2.64938350746
-6.98192321515
-8.61981270406
-8.57564744593
2.98501513971
8.07423142858
-3.24594850062
-1.57449482661
10.9766798992
3.04087005431
-14.1523838109
-7.93034243495
-7.91820921265
-4.16073561644
-3.39767843114
-6.18374277427
-4.32346221391
-1.95148003688
-8.04406887193
-8.08126201809
-8.88799341435
-8.93520206667
-4.92674295299
-4.97124268496
-8.44379683604
-4.07975340206
-22.5068956531
-22.7344214674
7.6530750191
7.50992061461
-3.21815125355
-3.20228645025
-5.39284278556
-3.30139800879
-11.369476352
-5.86885938704
-15.6929553231
-8.24752503048
-0.182713014303
-1.8998597095
-1.0519067673
5.09141705842
-14.5927138364
-7.65699735089
-2.70191896291
-13.3582598064
-0.941683800842
-3.68616500561
-17.0570870465
-7.75403972868
-7.77179203317
-8.99110766907
-2.99144491022
-2.95093255706
-6.01051545207
12.0617863687
-17.6535806895
-3.77759335294
1.30454376163
1.45672917705
5.9316413421
-9.73068851874
2.74960044008
-9.58095505787
-9.69560665473
-0.0412939781473
-20.7096139789
-4.82366499016
-5.58156727837
-6.03745825496
-5.0244979694
-9.06874328719
-21.5917150095
8.65199924854
-3.29046166802
-9.01666590158
-9.34016951321
-7.05019591604
-8.13915554121
8.54777276987
-14.5010729404
-0.144558525529
-6.57359987397
-20.7169434459
-10.6926466091
-8.55888219453
-12.5781723504
-3.73729305153
-10.1293420449
-7.35227404422
-10.3294778898
-20.672318593
-0.959336379014
0.669240311238
11.2952765624
-18.1944971869
-3.67717402684
-25.6514187431
-8.80456743558
2.98936386521
3.00040937402
-32.0984346325
-1.4161742532
-2.22662904057
1.61327620653
-5.7074116686
-4.38205641512
-4.5722556907
-8.9026393719
-9.34621249946
-9.40652215606
-10.5384209541
-18.5790941765
-18.4751977736
-18.4201104212
-4.12784863859
6.24577578459
-14.1751821288
-15.3469727583
-6.84634583758
-23.9076365444
-10.5674129799
-0.101175882133
-6.64817076683
-3.06115474347
15.6436823978
-7.07383672943
-15.2958205356
-3.30442920502
-8.2657430604
-7.49954918512
2.33536403809
-7.38785491843
-8.08101781071
-8.10411813597
3.23086365053
-4.00544007022
-0.0663308056984
-5.27582163217
-12.8344950365
-7.89210652228
-19.0658504189
-5.62842822454
-8.18761666677
-5.10272330028
-7.48108312072
-7.85284321348
7.56026654614
-19.3284532007
-8.13086397651
-19.5637284806
-3.30014453911
-7.08565244651
-7.08660762127
-2.31250118394
-0.499404084128
-0.456164359061
2.90773355129
2.76347713759
-0.635127977108
-21.7856972587
7.29436656594
-3.22698031745
-3.97795524408
-4.12237842533
-7.62766188281
-7.68102916961
9.78821479423
9.85498904513
-7.4043358105
-7.24212575551
4.73527230509
4.38185358702
-3.79345836973
16.9608443604
-2.37306559764
-2.74588541317
-7.92243708192
-10.6113368953
-7.41212194728
10.7339453864
-6.85447416545
-6.8852947449
-9.30302738767
5.14200327237
-4.09256026331
-9.11886545045
-8.23863078587
-4.20581316545
-7.30640855142
-5.98859040391
-6.06056985115
-4.99615304859
-12.0139718429
-12.0442460221
-22.0886575029
-15.0408355014
-9.30325990066
1.03384894579
-8.24129017604
-23.7820522374
-0.219057741425
-6.66779767419
-10.5342588053
-3.91550436517
-4.96009805081
-3.62583995681
-3.63050673562
-10.0075512466
0.910824814223
-4.97172554135
-5.01156854697
-7.37881398751
-12.0772459489
-11.2904429901
-0.0852547052219
-6.22381036315
-2.14075354828
-10.1037872834
-10.0414797107
-10.0735509899
-8.20941167351
-21.7127879318
9.17985572644
1.38160499211
-4.60322540732
-8.24328122135
-4.44483601468
-4.51814892937
14.2409599905
-15.2587945974
2.7054346718
-1.25923164767
-2.12438323139
-12.0155395396
8.68427272704
-2.97732088153
-13.6050390024
-6.66021453929
-10.4451086712
-5.55721695706
-17.463937619
-9.68093634272
-5.50890037746
-0.571717276154
1.33020629735
-13.3147409181
-7.91054492501
-3.39521591012
-4.47508801643
-3.31649532388
9.39841177263
-5.1149680549
-7.19867822852
-1.08215574997
-2.94935181604
-15.292407289
22.7209430458
23.4263992651
-16.3957987663
-16.4608526363
-7.47164884598
-4.22741591719
-15.9092841406
-7.29846667434
3.37678660222
-8.21279586595
-8.22508925781
-21.8229207031
-22.2637398582
-3.26956736711
-3.28663890284
8.60274560754
9.06197840776
5.48474023808
-16.8535516098
-10.318088156
-22.4782112989
-8.25182792629
1.71067833554
4.53664082825
16.3521434632
-3.76475850636
-17.9936740104
-9.24285349005
2.75307374181
-9.01342744002
-8.92830403049
-3.65578049764
-27.4810273206
-2.79976568163
-8.51907092843
-7.95226142009
-5.30157750773
7.85910228222
-13.4931510839
-7.31751539683
-4.28932430995
-3.31489401205
9.41957926327
-3.16282535728
-23.6100339968
7.2662601533
-8.37879274318
20.5186963758
1.55123044575
-0.937390995053
-3.78228627192
-3.76056925983
-3.72470740178
-8.06073205451
8.5961583399
-22.2692778207
-8.22519140666
-3.28671177321
-3.26948233089
-10.4091295553
1.68870390566
-2.4173363037
-1.54406511122
-6.94719984851
-7.63775635873
-3.36654186136
-0.862876900253
-0.9912576718
-4.31304426152
-4.2396393385
-40.1843016603
-9.82599471162
-0.406793860829
-7.09376670357
-32.2255190528
-8.88438991867
-4.18770175844
-4.02623869934
-13.4381704851
-4.13694803285
-3.45373203674
3.78139614677
-3.17132605041
-23.4850941539
7.32186306767
6.87574202099
-24.4868909436
-3.10593685541
11.3051145686
-8.33554134565
-3.42600122447
-20.148719397
-8.11001401827
-8.37511687456
-3.19114176982
-5.37337885907
2.03243525228
-3.36836451013
-3.38626025842
-8.26063251636
-2.19376180819
-2.19016205696
-12.6218813634
-2.7709839484
-0.144178028816
4.24511251184
10.1717341785
-15.5496669851
-8.28575616073
7.45258662691
-23.5953066955
-3.78206017372
-5.43599335673
-3.51197951552
-9.59636320933
-9.54475658211
3.62702077664
-9.77184295418
-30.7652235873
-15.8134491925
-3.58610975541
-13.9774033895
-9.28786890504
-0.0591379879906
-10.1185170639
-11.3665290077
-6.18202134332
-11.4798064866
5.94600585104
-14.0674164678
-1.12445964587
-0.77940122942
-7.52036273486
-7.56263436912
1.03258936122
-0.312049161974
7.204047804
-16.7780400624
-34.4050016454
-7.5741722418
-7.10131236112
11.2369555856
-18.614360368
-3.61154397954
0.259846703504
-2.72170371254
-12.9735516976
1.94970882871
-7.39029133696
-8.32852302656
-10.9344494376
12.2597054658
-16.843133686
-9.29379612401
-9.53583324844
-7.10469638539
-7.08397519302
-9.80658557151
-4.36338873536
2.10619215196
2.08881626345
-18.1327164638
-3.69008751607
11.6749650465
-6.47678463377
-6.70449266097
-7.84985776324
-9.09519866871
-9.15492290829
-3.63456530203
-0.832054585229
-5.14854932885
-1.76549029257
-6.46235449047
-0.874532797547
-13.3402172571
-12.126090376
-10.9755988656
14.89163822
-12.6522862238
-9.84221173655
12.3536251919
-7.8213481236
-21.8458152897
13.0845781654
-17.042595213
-3.90313534213
-9.03888046419
-3.58789187319
-9.74551094009
-3.90047688449
-3.93040231865
-9.81076833487
-2.73643763723
-7.91497694585
-7.36660252951
-13.3439130525
-2.26913647956
-14.155420473
-12.1813856074
-7.31512446352
-19.9238145433
-21.0332708772
12.1013662624
-22.5016338373
-22.3889409927
7.45422158044
7.63329874089
-3.22101019232
-3.20666447339
-6.66904409216
-0.230612823326
-9.15792480935
-4.03100621321
-4.34843958208
-42.4659293546
-9.77098018864
-7.12542532106
-18.8154711908
-10.3372250355
-7.9712204848
-3.13003990675
-38.0912436282
-15.9284809525
1.73812531488
-22.3997951782
-4.60124824792