/*--------------------------------*- C++ -*----------------------------------*\
| =========                 |                                                 |
| \\      /  F ield         | OpenFOAM: The Open Source CFD Toolbox           |
|  \\    /   O peration     | Version:  v1906                                 |
|   \\  /    A nd           | Web:      www.OpenFOAM.com                      |
|    \\/     M anipulation  |                                                 |
\*---------------------------------------------------------------------------*/
FoamFile
{
    version     2.0;
    format      ascii;
    class       volVectorField;
    location    "500";
    object      Ua;
}
// * * * * * * * * * * * * * * * * * * * * * * * * * * * * * * * * * * * * * //

dimensions      [0 1 -1 0 0 0 0];


internalField   nonuniform List<vector> 
9216
(
(-0.006628467174 0.00663038763549 0)
(-0.00681407147302 0.0206773039949 2.38332579843e-27)
(-0.00679962934783 0.0348030305779 -4.58659413664e-31)
(-0.00675118660949 0.0489189708471 0)
(-0.00668334915935 0.0628886183702 0)
(-0.00659782763328 0.0766764995654 0)
(-0.00649582810797 0.0902431764812 0)
(-0.00637860873164 0.10355189379 0)
(-0.00624682726344 0.116568423154 0)
(-0.00610174034971 0.129260779128 0)
(-0.00594398499043 0.14159961553 0)
(-0.00577490491065 0.153557958246 0)
(-0.00559509784011 0.165111528892 0)
(-0.00540592804761 0.176238410337 0)
(-0.00520788177372 0.186919251381 0)
(-0.00500226265943 0.197136857533 0)
(-0.00478937386418 0.206876287157 0)
(-0.00457038767478 0.216124387141 0)
(-0.00434537199899 0.224869803604 0)
(-0.00411532241636 0.233102489622 0)
(-0.00388004683852 0.240813667756 0)
(-0.0036403497107 0.247995347377 0)
(-0.00339578856659 0.254640275767 0)
(-0.00314699714288 0.260741498302 0)
(-0.00289332264457 0.266292336618 0)
(-0.00263527663236 0.271286023394 0)
(-0.00237206255995 0.275715733134 0)
(-0.00210414174903 0.279574310287 0)
(-0.00183065826984 0.282854375947 0)
(-0.00155211306817 0.28554815547 0)
(-0.00126768483744 0.287647722983 0)
(-0.000977988246304 0.289144848558 0)
(-0.000682344913898 0.290031343709 0)
(-0.000381622277539 0.290299149446 0)
(-7.5390050466e-05 0.289940696704 0)
(0.000235157078691 0.288949105359 0)
(0.000550110211718 0.287318623815 0)
(0.000867873051928 0.285044934101 0)
(0.00118813138472 0.282125613191 0)
(0.00150885407337 0.278560521412 0)
(0.00182929486801 0.274352224141 0)
(0.00214699955663 0.269506452283 0)
(0.00246078978878 0.264032412763 0)
(0.00276782705894 0.257943340931 0)
(0.00306649881127 0.251256652658 0)
(0.00335361717066 0.243994660476 0)
(0.00362709692933 0.236184541392 0)
(0.00388341484012 0.227859305595 0)
(0.00411995421101 0.219057558558 0)
(0.00433290352598 0.209824730843 0)
(0.00451915420722 0.200212526875 0)
(0.00467484918702 0.190280197849 0)
(0.00479674009241 0.180093406286 0)
(0.00488155227445 0.169725036068 0)
(0.00492669997555 0.15925313174 0)
(0.00493045955925 0.148760706393 0)
(0.00489190688609 0.138332728052 0)
(0.00481169472852 0.128054884032 0)
(0.00469117657274 0.118010210991 0)
(0.00453359915821 0.108277297616 0)
(0.00434265610053 0.0989272730162 0)
(0.00412394908677 0.0900218016721 0)
(0.00388324081666 0.0816107560267 0)
(0.00362778126788 0.0737304590319 0)
(0.00336411039506 0.0664030011194 0)
(0.00309905067074 0.0596364277547 0)
(0.00283775527167 0.0534265982807 0)
(0.00258488559538 0.0477590977378 0)
(0.00234330774298 0.0426120824745 0)
(0.0021153965513 0.0379582754212 0)
(0.00190215038613 0.0337672816882 0)
(0.00170437658498 0.0300068672766 0)
(0.00152198763237 0.0266443476209 0)
(0.00135497315038 0.0236471521759 0)
(0.00120273907075 0.0209835360588 0)
(0.00106485255742 0.018622802034 0)
(0.000940416090884 0.0165357822991 0)
(0.000828695636361 0.014694980704 0)
(0.000728584124477 0.0130749304678 0)
(0.000639118797943 0.011652259194 0)
(0.00055892002527 0.0104060489939 0)
(0.000486353256283 0.00931817652082 0)
(0.000417836585805 0.00837722522829 0)
(0.000343741294298 0.00755235434112 0)
(0.00028183222036 0.00683653749523 0)
(0.000269838457775 0.00635407489761 0)
(0.000256628163252 0.00577813179744 0)
(0.000226108728301 0.00529622710437 0)
(0.00023216381714 0.00488195456269 0)
(0.000256143555495 0.00439159153402 0)
(0.000260127457715 0.00389216026687 0)
(0.000267549163164 0.00335197236977 0)
(0.000306986672121 0.00275786847743 0)
(0.000351068507527 0.00210175036388 0)
(0.000398094713859 0.00130194313805 0)
(0.000428058968662 0.000417553901247 0)
(-0.0207113914053 0.0068529373238 0)
(-0.0218655470761 0.0219632269269 0)
(-0.0217912751153 0.0369857389906 -2.44981954879e-27)
(-0.0216048238267 0.0520106594597 0)
(-0.0213508880005 0.0668679927672 0)
(-0.0210348840634 0.0815280411346 0)
(-0.0206601015225 0.0959504743303 0)
(-0.0202304162687 0.110096779055 0)
(-0.0197490694604 0.123930631009 0)
(-0.0192203291038 0.137418112962 0)
(-0.0186476606968 0.150528007314 0)
(-0.0180355977422 0.163231756385 0)
(-0.0173875819721 0.175503610494 0)
(-0.0167081057334 0.187320471591 0)
(-0.016000280699 0.198661917754 0)
(-0.0152682526564 0.209509947908 0)
(-0.0145145314061 0.219848900523 0)
(-0.0137426694349 0.229665121571 0)
(-0.0129543821016 0.23894680534 0)
(-0.0121524772707 0.247683618527 0)
(-0.0113377888872 0.255866501461 0)
(-0.0105123429412 0.26348728831 0)
(-0.00967612288384 0.270538510718 0)
(-0.00883045156768 0.277013054284 0)
(-0.00797459880022 0.282904003414 0)
(-0.00710935811938 0.288204366923 0)
(-0.0062335049805 0.292906992566 0)
(-0.00534754669342 0.297004384119 0)
(-0.00445003832232 0.300488703776 0)
(-0.00354149062082 0.303351698298 0)
(-0.00262055405352 0.305584774675 0)
(-0.00168803842416 0.307179124864 0)
(-0.000743008487831 0.3081258723 0)
(0.000213059439264 0.308416241296 0)
(0.00118034407207 0.308041889514 0)
(0.00215641829375 0.306995193727 0)
(0.0031404227833 0.305269663341 0)
(0.00412874741076 0.302860325521 0)
(0.00511930468563 0.299764187222 0)
(0.00610719447199 0.295980680305 0)
(0.00708903895084 0.291512114843 0)
(0.00805867506133 0.286364147442 0)
(0.00901146750839 0.280546168986 0)
(0.00994008803417 0.274071786951 0)
(0.0108386715227 0.266959125964 0)
(0.011698778186 0.259231369314 0)
(0.0125132198574 0.250916994412 0)
(0.0132723874045 0.242050453576 0)
(0.0139675889314 0.232672376717 0)
(0.0145880505834 0.222830413923 0)
(0.0151236821187 0.212579323861 0)
(0.0155631621306 0.201981767739 0)
(0.0158961109578 0.191107949168 0)
(0.0161125786947 0.180035813431 0)
(0.0162044958462 0.168849694819 0)
(0.016166436988 0.157639311905 0)
(0.0159959028018 0.146497191869 0)
(0.0156947358399 0.135516523163 0)
(0.0152679064093 0.12478800983 0)
(0.0147252352945 0.114397382398 0)
(0.0140791938824 0.104422484096 0)
(0.0133469484854 0.0949308345307 0)
(0.0125477343054 0.0859770175138 0)
(0.0117042479913 0.0776003409317 0)
(0.010838336845 0.0698237607418 0)
(0.00997124824175 0.0626543298047 0)
(0.00911996215735 0.0560853696655 0)
(0.0082985070392 0.0500991754283 0)
(0.0075161482212 0.0446701747991 0)
(0.00677954412251 0.0397674792917 0)
(0.00609187401595 0.0353572195536 0)
(0.00545492670545 0.0314040861962 0)
(0.00486846102094 0.0278725783896 0)
(0.00433186725907 0.0247276426387 0)
(0.00384338622074 0.0219351890387 0)
(0.0034012251903 0.0194623610235 0)
(0.00300267620657 0.0172779250844 0)
(0.00264506399083 0.0153525141809 0)
(0.00232504501194 0.0136588910776 0)
(0.00203941536823 0.0121719873337 0)
(0.00178438102576 0.0108688805936 0)
(0.00155588856095 0.00972835149304 0)
(0.00134813197683 0.00872980603131 0)
(0.00114891394083 0.00785036863693 0)
(0.000975233041289 0.00698605076745 0)
(0.000885421709002 0.00627650838839 0)
(0.000780257557965 0.00566663113733 0)
(0.000684847347834 0.00519791768824 0)
(0.000684880244265 0.00470533971866 0)
(0.000744083739177 0.00430590930689 0)
(0.000778491690093 0.00387648357789 0)
(0.000829629088519 0.00330827515166 0)
(0.000919844128712 0.00269833632566 0)
(0.0011402645009 0.00214273333369 0)
(0.00139762011794 0.00137208963158 0)
(0.00126392403308 0.000375827886345 0)
(-0.0350004125433 0.00690826997049 0)
(-0.0369722445282 0.0221459726482 0)
(-0.0368203815553 0.0372607516283 -2.45317174455e-27)
(-0.0364995048338 0.0523952376545 0)
(-0.036071481294 0.0673600356381 0)
(-0.035541551106 0.0821240936479 0)
(-0.0349143001754 0.0966460736358 0)
(-0.0341952680807 0.110886967661 0)
(-0.0333902145756 0.124810032001 0)
(-0.0325056406711 0.138381075402 0)
(-0.0315479281121 0.151568663974 0)
(-0.0305239843191 0.164344176081 0)
(-0.0294402612492 0.176681866919 0)
(-0.028303514695 0.18855879227 0)
(-0.0271197242863 0.199954746419 0)
(-0.0258949757384 0.210852073253 0)
(-0.024634305951 0.221235497858 0)
(-0.0233427161413 0.231091849362 0)
(-0.0220239640761 0.240409815239 0)
(-0.0206817128591 0.249179610683 0)
(-0.0193182867679 0.257392697073 0)
(-0.0179359539518 0.265041442295 0)
(-0.0165356530524 0.272118848181 0)
(-0.015118398483 0.27861824533 0)
(-0.013683974875 0.284533071221 0)
(-0.0122324472745 0.289856634956 0)
(-0.0107628161536 0.294581973799 0)
(-0.0092746147907 0.298701709173 0)
(-0.0077665197624 0.302207999968 0)
(-0.00623802187006 0.305092499862 0)
(-0.00468800960878 0.307346434489 0)
(-0.00311647517123 0.308960659194 0)
(-0.00152305519744 0.309925837327 0)
(9.1178712535e-05 0.31023265505 0)
(0.00172525573789 0.309872117982 0)
(0.00337649179432 0.308835876125 0)
(0.00504209433082 0.307116632148 0)
(0.00671735629255 0.304708565968 0)
(0.00839734450533 0.301607808289 0)
(0.0100751334218 0.297812914038 0)
(0.0117435664589 0.293325339734 0)
(0.0133935412706 0.288149908155 0)
(0.0150157875786 0.282295228689 0)
(0.016599193067 0.275774122171 0)
(0.0181324937169 0.268603971672 0)
(0.0196026312992 0.260807145064 0)
(0.0209962440454 0.252411335856 0)
(0.0222981233843 0.243450091937 0)
(0.0234924796581 0.233963250331 0)
(0.0245617399387 0.223997655003 0)
(0.025487750895 0.213607674303 0)
(0.0262513558182 0.20285594147 0)
(0.0268338406157 0.191813573296 0)
(0.0272176730865 0.180560287442 0)
(0.0273882230864 0.169183511555 0)
(0.027335356332 0.157776989243 0)
(0.0270545943273 0.146438250529 0)
(0.026548348031 0.135265784451 0)
(0.0258255692526 0.124355781837 0)
(0.0249023027014 0.113799228226 0)
(0.0238005546868 0.103679036547 0)
(0.0225489234895 0.0940674851211 0)
(0.0211818224569 0.0850230946422 0)
(0.0197387900552 0.0765870702796 0)
(0.0182595716709 0.0687814261637 0)
(0.0167809511798 0.0616098302963 0)
(0.0153330330392 0.0550606439671 0)
(0.0139389531165 0.0491108183998 0)
(0.0126144578902 0.0437297566937 0)
(0.0113696426434 0.0388823808814 0)
(0.0102096154392 0.0345315203713 0)
(0.00913634052538 0.030639507506 0)
(0.00814928176901 0.0271692202992 0)
(0.00724675554284 0.0240845427454 0)
(0.00642598589625 0.0213505706678 0)
(0.00568359771549 0.018933748776 0)
(0.00501523239505 0.0168022117052 0)
(0.00441603572078 0.0149261184161 0)
(0.00388057969644 0.0132778893676 0)
(0.00340337222512 0.0118322472432 0)
(0.0029787791774 0.0105661147864 0)
(0.00260151931603 0.0094582040405 0)
(0.00226677862212 0.00848792239753 0)
(0.00197146018394 0.00764015260214 0)
(0.00172350076399 0.00679806012515 0)
(0.00154688034685 0.00613511632094 0)
(0.00138375081998 0.00564957379462 0)
(0.00120807150631 0.00497627883277 0)
(0.00110851546847 0.00439139911567 0)
(0.00115962477981 0.00403617354423 0)
(0.00133809761022 0.00374638004466 0)
(0.00138404544834 0.00299833702735 0)
(0.00158415880639 0.00247555607935 0)
(0.0018571620683 0.00180724977278 0)
(0.00209443422867 0.00108747069155 0)
(0.00203830685306 0.000335458611182 0)
(-0.0494866961252 0.00696577716992 0)
(-0.0522981740829 0.0223499097531 0)
(-0.0520810058498 0.037588743437 2.45284708271e-27)
(-0.0516229175231 0.0528525197893 0)
(-0.0510126517022 0.0679429715094 0)
(-0.0502579103893 0.0828278536252 0)
(-0.0493653039885 0.0974646526258 0)
(-0.0483425286195 0.111813558516 0)
(-0.0471980012349 0.12583721956 0)
(-0.0459408530628 0.139501036287 0)
(-0.0445804823695 0.152773328293 0)
(-0.0431265959807 0.165625416062 0)
(-0.041588730516 0.178031654125 0)
(-0.0399763396035 0.189969374409 0)
(-0.0382982984763 0.201418786915 0)
(-0.0365630521529 0.212362800028 0)
(-0.0347781259139 0.222786807177 0)
(-0.0329503535785 0.232678408158 0)
(-0.031085417078 0.242027112996 0)
(-0.0291881708844 0.250824002782 0)
(-0.0272622270246 0.259061395618 0)
(-0.0253103820265 0.266732496329 0)
(-0.0233342500161 0.273831076231 0)
(-0.0213347824559 0.280351162034 0)
(-0.0193119363449 0.286286774688 0)
(-0.0172652661562 0.291631694668 0)
(-0.0151936081854 0.296379288502 0)
(-0.0130957239719 0.300522370641 0)
(-0.0109699875176 0.304053132021 0)
(-0.00881506945093 0.306963100124 0)
(-0.0066296385135 0.309243208727 0)
(-0.00441304424574 0.310883846318 0)
(-0.00216502849897 0.311875028819 0)
(0.000113535473701 0.312206632706 0)
(0.00242098898586 0.311868689298 0)
(0.00475415368783 0.310851739724 0)
(0.00710873339907 0.309147259893 0)
(0.00947863133276 0.306748127089 0)
(0.0118564460953 0.303649125476 0)
(0.0142328761187 0.29984746197 0)
(0.016597318397 0.295343274931 0)
(0.0189373566459 0.290140116721 0)
(0.0212394121785 0.284245385932 0)
(0.0234882553805 0.277670719954 0)
(0.0256675930176 0.270432330824 0)
(0.0277595092078 0.262551344985 0)
(0.0297448677063 0.254054141369 0)
(0.0316026637274 0.244972805485 0)
(0.0333102656672 0.235345676114 0)
(0.0348429095928 0.225218123777 0)
(0.0361741311127 0.214643420578 0)
(0.0372760050724 0.203683776373 0)
(0.0381204268581 0.192411141941 0)
(0.0386807737775 0.18090768124 0)
(0.0389343264728 0.169265272415 0)
(0.038864984156 0.157583940373 0)
(0.0384653915097 0.14596891756 0)
(0.0377384425633 0.134526983889 0)
(0.0366970647029 0.123362634298 0)
(0.035364062814 0.112574802151 0)
(0.0337710688557 0.102254018829 0)
(0.0319585258586 0.0924803273728 0)
(0.029977685129 0.0833193466371 0)
(0.0278888560389 0.0748157867067 0)
(0.0257534294361 0.066989892551 0)
(0.0236267112373 0.0598390928199 0)
(0.021552960101 0.053343053705 0)
(0.019564389271 0.0474696847619 0)
(0.0176821465425 0.0421803307699 0)
(0.0159186643283 0.0374334121242 0)
(0.0142796166692 0.0331868698331 0)
(0.0127661083259 0.0293996886375 0)
(0.0113763249165 0.0260326576271 0)
(0.01010708649 0.0230484219977 0)
(0.00895434338729 0.0204111406866 0)
(0.00791317668695 0.0180863169987 0)
(0.00697734696784 0.0160411836496 0)
(0.00613964326591 0.0142452526537 0)
(0.00539225061125 0.0126706010525 0)
(0.0047272099186 0.0112919103799 0)
(0.00413669086403 0.0100864295428 0)
(0.0036137177163 0.00903372198943 0)
(0.00315302581863 0.00811526516243 0)
(0.00275690731602 0.00731819105928 0)
(0.00239860456898 0.00647945786616 0)
(0.0021777031598 0.00595496646646 0)
(0.00196168651183 0.00536430416319 0)
(0.00175532333726 0.00469571202208 0)
(0.00167433279571 0.00423917104054 0)
(0.00162199668803 0.00363207201962 0)
(0.001744988746 0.00312173139989 0)
(0.00206224696627 0.00276631432056 0)
(0.0021703731753 0.00201052518797 0)
(0.00245535549469 0.00140374803492 0)
(0.00274243557076 0.00085320757516 0)
(0.00273010672974 0.000279277742591 0)
(-0.0641200299333 0.0070400492699 0)
(-0.0677675450783 0.0226193999537 0)
(-0.0674836333633 0.038030355586 0)
(-0.0668850948162 0.0534686851579 0)
(-0.0660877722909 0.068728075654 0)
(-0.065102111094 0.083775068355 0)
(-0.063936993993 0.0985657643737 0)
(-0.0626025886469 0.11305926947 0)
(-0.0611101136565 0.127217399904 0)
(-0.0594716195798 0.141004979933 0)
(-0.0576996372246 0.154389996309 0)
(-0.0558069676951 0.167343685171 0)
(-0.0538063251234 0.179840550833 0)
(-0.0517101503994 0.191858306705 0)
(-0.0495302679113 0.203377752054 0)
(-0.0472777452363 0.214382577655 0)
(-0.0449625907148 0.224859117005 0)
(-0.0425936868543 0.234796040415 0)
(-0.0401785581572 0.24418401279 0)
(-0.03772340444 0.253015317855 0)
(-0.0352329608575 0.261283473707 0)
(-0.0327106430818 0.268982845312 0)
(-0.0301585009496 0.276108278785 0)
(-0.027577463663 0.282654761341 0)
(-0.0249673652128 0.288617126905 0)
(-0.0223272595686 0.293989804914 0)
(-0.0196554865804 0.298766625137 0)
(-0.0169500288718 0.302940670986 0)
(-0.014208598771 0.306504192123 0)
(-0.0114290259923 0.309448554616 0)
(-0.00860937810551 0.31176430745 0)
(-0.00574833774525 0.313441212642 0)
(-0.00284536202713 0.314468416604 0)
(9.88872241497e-05 0.314834691239 0)
(0.00308243316329 0.314528737055 0)
(0.00610156773417 0.313539566415 0)
(0.00915079979822 0.311856963604 0)
(0.0122225225875 0.309472003321 0)
(0.0153070837829 0.306377611755 0)
(0.0183925898455 0.302569142427 0)
(0.0214651261883 0.298044937711 0)
(0.0245086949255 0.292806845254 0)
(0.0275055300818 0.286860662149 0)
(0.0304360673129 0.280216495768 0)
(0.0332791936927 0.272889044607 0)
(0.0360120659134 0.264897835307 0)
(0.0386101009017 0.256267474868 0)
(0.0410465230923 0.247028018199 0)
(0.0432920873416 0.237215545948 0)
(0.0453145881857 0.226873071753 0)
(0.0470788198448 0.216051805218 0)
(0.0485469017303 0.204812741293 0)
(0.0496796572094 0.193228301127 0)
(0.0504389799791 0.181383589405 0)
(0.0507915793741 0.169376558148 0)
(0.0507131343281 0.157316318409 0)
(0.0501922214728 0.145319399725 0)
(0.0492319938553 0.13350457933 0)
(0.0478497914158 0.12198796459 0)
(0.0460758171625 0.110879250772 0)
(0.0439513857564 0.100278993104 0)
(0.0415274055874 0.090279091651 0)
(0.0388743019008 0.0809579359563 0)
(0.0360800538522 0.0723668745066 0)
(0.0332345706239 0.064522922096 0)
(0.0304162780083 0.0574126175886 0)
(0.02768487154 0.051001230643 0)
(0.02508074388 0.0452426006542 0)
(0.0226283911133 0.0400863475171 0)
(0.0203405632677 0.0354819164082 0)
(0.0182214567807 0.0313808057899 0)
(0.0162696050348 0.0277378564674 0)
(0.0144805153249 0.0245116590708 0)
(0.0128488921135 0.0216638602603 0)
(0.0113694040593 0.0191578154343 0)
(0.0100358492251 0.0169577784199 0)
(0.00883990060585 0.0150295906306 0)
(0.00777159937106 0.0133418340992 0)
(0.00682032749351 0.0118661797444 0)
(0.00597528534694 0.0105773335821 0)
(0.00522573399677 0.00945320029496 0)
(0.00456179469011 0.00847504989813 0)
(0.0039750568065 0.00763139727228 0)
(0.00346728692778 0.00688250587702 0)
(0.00305325967777 0.00618099735626 0)
(0.00282042718567 0.00570856769125 0)
(0.00263070869621 0.00513266549186 0)
(0.00240447518156 0.00447915720506 0)
(0.00217435516593 0.00372510008681 0)
(0.0021726359068 0.00323373181182 0)
(0.00221035382336 0.00261338362278 0)
(0.00254337122937 0.0022359934848 0)
(0.00291557938535 0.00175624658827 0)
(0.00300662970879 0.00111488785642 0)
(0.00316907751376 0.000648024443575 0)
(0.00315356907752 0.000214568892901 0)
(-0.0789504159608 0.00713267793339 0)
(-0.0834408875661 0.0229598190791 0)
(-0.08308696138 0.0385909672957 0)
(-0.0823426356435 0.0542514865 0)
(-0.0813511328119 0.0697253935098 0)
(-0.0801258159514 0.0849778575667 0)
(-0.0786780779035 0.0999633189542 0)
(-0.0770208604042 0.114639530902 0)
(-0.0751684390335 0.128967254743 0)
(-0.0731360963158 0.142910576651 0)
(-0.070939746394 0.15643706272 0)
(-0.0685955967276 0.16951784668 0)
(-0.0661197716263 0.182127639589 0)
(-0.0635279915581 0.19424465954 0)
(-0.060835222205 0.20585048648 0)
(-0.058055400023 0.216929841926 0)
(-0.0552011399972 0.227470301882 0)
(-0.0522835446174 0.237461948022 0)
(-0.0493120102002 0.246896971505 0)
(-0.0462941572682 0.255769241662 0)
(-0.0432357670699 0.264073859921 0)
(-0.0401408525226 0.271806715901 0)
(-0.0370117274217 0.278964067025 0)
(-0.0338492011814 0.285542155656 0)
(-0.0306527470562 0.29153687785 0)
(-0.0274207755484 0.2969435082 0)
(-0.0241508539388 0.301756484586 0)
(-0.0208400171633 0.305969249063 0)
(-0.0174850119503 0.309574145823 0)
(-0.0140826352136 0.312562355284 0)
(-0.0106300236227 0.314923956912 0)
(-0.00712498256622 0.316647929863 0)
(-0.00356634007505 0.31772232228 0)
(4.56576133109e-05 0.318134493635 0)
(0.00370903351365 0.317871429505 0)
(0.00741969552867 0.316920157148 0)
(0.0111711893513 0.315268254245 0)
(0.0149544263468 0.312904437349 0)
(0.0187575984251 0.309819204355 0)
(0.0225661038352 0.306005500355 0)
(0.026362681738 0.301459359876 0)
(0.0301275464861 0.296180484369 0)
(0.0338386835479 0.290172706591 0)
(0.0374720519867 0.283444317636 0)
(0.0410018111049 0.276008251473 0)
(0.0444002916728 0.26788216537 0)
(0.0476378207245 0.259088507174 0)
(0.0506821796279 0.249654701393 0)
(0.0534978998347 0.239613657805 0)
(0.0560453720702 0.229004786549 0)
(0.0582802109527 0.217875684032 0)
(0.0601532445732 0.206284587488 0)
(0.0616117345802 0.19430321919 0)
(0.0626026577971 0.182019625591 0)
(0.0630779083113 0.169539466947 0)
(0.0630015733119 0.156984633711 0)
(0.0623561412937 0.144487832648 0)
(0.0611455281383 0.132184608641 0)
(0.0593924127752 0.120206508641 0)
(0.057136281867 0.108676442322 0)
(0.0544281624701 0.0977056470379 0)
(0.0513224744456 0.0874032727056 0)
(0.0479115290613 0.0778720067868 0)
(0.0443243188215 0.0691760458139 0)
(0.040691775601 0.0613260864777 0)
(0.037122495476 0.0542893485182 0)
(0.033692584222 0.0480074673166 0)
(0.0304476905021 0.0424131527655 0)
(0.0274118559646 0.0374401052267 0)
(0.0245948972772 0.0330264430391 0)
(0.0219966967485 0.0291158881456 0)
(0.0196106181652 0.0256587340621 0)
(0.0174274073726 0.0226119395055 0)
(0.0154388705334 0.0199373105193 0)
(0.0136389887675 0.0175981001997 0)
(0.0120212542689 0.0155568173831 0)
(0.0105749764119 0.0137769388024 0)
(0.00928659329461 0.0122256856525 0)
(0.00814217348807 0.0108742940649 0)
(0.00712772084131 0.0096973245504 0)
(0.00622887364223 0.00867294470361 0)
(0.00543196399826 0.00778297358064 0)
(0.00472398097721 0.00701813137087 0)
(0.0041004235018 0.00630934203713 0)
(0.00364918111389 0.00568994078259 0)
(0.00339749949794 0.00519790151756 0)
(0.00312609584217 0.00453297134575 0)
(0.00298926528792 0.00402890571423 0)
(0.00289584400521 0.00348588278725 0)
(0.00288876200487 0.00294919724994 0)
(0.00272859826632 0.00220071687947 0)
(0.00289589968041 0.00169499600473 0)
(0.00336220522388 0.00138449564626 0)
(0.0035218673949 0.000937256110274 0)
(0.00356285975319 0.000524523653316 0)
(0.00355209166947 0.000173570226877 0)
(-0.0940240032855 0.00724520593845 0)
(-0.0993683897737 0.0233753229156 0)
(-0.0989399014527 0.0392760031123 2.47067952986e-27)
(-0.0980426497424 0.0552082042762 0)
(-0.096847707129 0.0709440332602 0)
(-0.0953715432689 0.086446966222 0)
(-0.0936283290351 0.101669431862 0)
(-0.0916341076379 0.116567528748 0)
(-0.0894065472899 0.131100727182 0)
(-0.0869645254475 0.14523220987 0)
(-0.0843276871444 0.158929034643 0)
(-0.0815160092649 0.172162222861 0)
(-0.0785493581514 0.184906760985 0)
(-0.075447070047 0.197141516355 0)
(-0.0722275387504 0.208849067938 0)
(-0.0689078455124 0.22001545348 0)
(-0.0655034167983 0.230629837351 0)
(-0.0620277516386 0.240684106104 0)
(-0.0584922036104 0.250172404781 0)
(-0.0549058603584 0.259090630873 0)
(-0.0512754969936 0.26743590919 0)
(-0.0476056380033 0.275206071591 0)
(-0.0438986874541 0.282399167355 0)
(-0.0401551497154 0.289013024066 0)
(-0.0363738859061 0.29504487449 0)
(-0.0325524244395 0.300491054051 0)
(-0.0286872705952 0.305346768143 0)
(-0.0247742457257 0.309605920853 0)
(-0.020808813835 0.313261000299 0)
(-0.0167864428748 0.316302991857 0)
(-0.012702985625 0.31872143396 0)
(-0.00855503914244 0.320504374783 0)
(-0.00434042230946 0.32163853451 0)
(-5.86298555093e-05 0.32210953828 0)
(0.00428871606259 0.321902241317 0)
(0.00869740752051 0.32100117921 0)
(0.0131602689037 0.319391140299 0)
(0.0176668384681 0.317057846087 0)
(0.0222031991609 0.313988710241 0)
(0.0267519363153 0.3101736341 0)
(0.0312922875231 0.30560577672 0)
(0.0358004221726 0.30028223264 0)
(0.0402498612461 0.294204544356 0)
(0.0446119040705 0.287378993892 0)
(0.0488559975669 0.279816652527 0)
(0.052949854467 0.271533215939 0)
(0.0568592166774 0.262548743291 0)
(0.060547133455 0.252887495504 0)
(0.0639727019674 0.242578163953 0)
(0.0670894968649 0.23165484604 0)
(0.0698438621005 0.220159188061 0)
(0.072173926175 0.208143829525 0)
(0.0740103028588 0.195677335976 0)
(0.0752796178581 0.182849438917 0)
(0.0759125648978 0.169775195341 0)
(0.0758553205223 0.156594307911 0)
(0.0750818935902 0.143463135544 0)
(0.073598534011 0.130540649458 0)
(0.0714356283259 0.117978531447 0)
(0.0686471399171 0.105914828475 0)
(0.0652964461519 0.0944650321066 0)
(0.0614163378954 0.0837623154253 0)
(0.0571238142198 0.0739596333447 0)
(0.0526171359848 0.0651469587707 0)
(0.0480910738374 0.0573209193854 0)
(0.0436947175445 0.050413236872 0)
(0.039519369339 0.0443262376856 0)
(0.0356083924862 0.0389616966975 0)
(0.0319783407696 0.0342333989923 0)
(0.0286316187334 0.0300666268205 0)
(0.0255602213566 0.0263964222484 0)
(0.0227485798891 0.0231684864688 0)
(0.0201793599068 0.0203398499808 0)
(0.0178404062739 0.0178753935265 0)
(0.0157271382842 0.0157401593937 0)
(0.0138356424664 0.0138937321635 0)
(0.0121522275009 0.0122949011683 0)
(0.0106576353481 0.0109090079136 0)
(0.00933406799894 0.00970728863421 0)
(0.00816443104708 0.00866401881808 0)
(0.00712999337316 0.00775742715375 0)
(0.00621331250368 0.00696999096823 0)
(0.00539790551713 0.00629466368939 0)
(0.00467703297652 0.00563696946225 0)
(0.00424953307582 0.00514021043318 0)
(0.00397087895144 0.00462160298706 0)
(0.00372002726521 0.00406515560396 0)
(0.00349481156621 0.00347852855409 0)
(0.00345048977186 0.0029936095174 0)
(0.00335941817058 0.00239849855241 0)
(0.00344047252007 0.00194345222722 0)
(0.00334750182768 0.00135136738646 0)
(0.00355915137 0.00100432017198 0)
(0.00387930369957 0.000747905215176 0)
(0.00388050229875 0.000418836157768 0)
(0.00387050457373 0.000138631171521 0)
(-0.109390308638 0.00737887548264 0)
(-0.115602546165 0.0238703975511 0)
(-0.115093897309 0.0400922242427 -2.4702998886e-27)
(-0.114034781133 0.0563480180417 0)
(-0.11262482559 0.0723954007734 0)
(-0.110883887564 0.0881957761545 0)
(-0.108829254021 0.103699133793 0)
(-0.10648046168 0.118859580993 0)
(-0.103858988026 0.13363503821 0)
(-0.100987742369 0.147987610609 0)
(-0.0978905365185 0.161883759433 0)
(-0.0945915550836 0.175294390934 0)
(-0.091114827028 0.188194850452 0)
(-0.0874837122605 0.200564822534 0)
(-0.0837204038327 0.212388136637 0)
(-0.0798454648072 0.223652476935 0)
(-0.0758774068687 0.234348997863 0)
(-0.0718323382979 0.244471851072 0)
(-0.0677236929738 0.254017636985 0)
(-0.0635620685421 0.262984801947 0)
(-0.059355177388 0.27137300961 0)
(-0.055107923825 0.279182520094 0)
(-0.050822589264 0.286413610662 0)
(-0.0464991157805 0.293066066522 0)
(-0.0421354494614 0.299138759686 0)
(-0.0377279240467 0.304629320659 0)
(-0.0332716489008 0.309533894497 0)
(-0.0287608992864 0.313846964699 0)
(-0.0241894985461 0.317561229378 0)
(-0.0195512166779 0.320667490766 0)
(-0.0148402136704 0.323154696382 0)
(-0.0100514505979 0.325009833517 0)
(-0.00518127635115 0.326218070976 0)
(-0.000227979927165 0.326762966427 0)
(0.00480761753144 0.326626792888 0)
(0.00992157344922 0.325791024819 0)
(0.0151062966704 0.324236986777 0)
(0.0203501226567 0.321946654575 0)
(0.0256370589666 0.318903573877 0)
(0.0309467368088 0.315093845073 0)
(0.0362546143846 0.310507087391 0)
(0.0415324179377 0.305137286327 0)
(0.0467487933046 0.298983405341 0)
(0.0518700418968 0.292049662437 0)
(0.0568608049332 0.284345406306 0)
(0.0616844230196 0.275884590945 0)
(0.0663028054204 0.266685002912 0)
(0.0706754268743 0.25676742442 0)
(0.0747575684012 0.246155292919 0)
(0.0784974322872 0.234875266752 0)
(0.0818329752218 0.222959495779 0)
(0.0846887627876 0.210450483916 0)
(0.0869748349071 0.197408444228 0)
(0.0885900255183 0.183921494016 0)
(0.0894324849363 0.170114834982 0)
(0.0894199084989 0.156153668124 0)
(0.0885131927722 0.142230775757 0)
(0.0867273631472 0.128538088263 0)
(0.0841021804191 0.115254871928 0)
(0.0807226767503 0.102537035589 0)
(0.0766821904807 0.0904746601393 0)
(0.0719089430039 0.0792304839803 0)
(0.0665492542896 0.0690726448955 0)
(0.0609364074404 0.0601431178773 0)
(0.0553705880376 0.0524034465259 0)
(0.0500547037654 0.0457173998091 0)
(0.0450873173131 0.0399208942397 0)
(0.0404913522168 0.0348718900266 0)
(0.0362636139444 0.030463124012 0)
(0.0323943172155 0.026608150293 0)
(0.0288641798764 0.0232327125711 0)
(0.0256432335228 0.020277770333 0)
(0.0227000106827 0.017703691454 0)
(0.0200164697878 0.0154850325541 0)
(0.0175951230184 0.0135932890841 0)
(0.0154427112362 0.0119818643898 0)
(0.01354047956 0.010598895255 0)
(0.0118575653418 0.00940749635033 0)
(0.0103722082563 0.0083810658762 0)
(0.00906575235429 0.00749323063134 0)
(0.0079132395535 0.0067218030657 0)
(0.00689364645018 0.00605060794044 0)
(0.00598846991615 0.00547307745546 0)
(0.00518059205117 0.00487112871982 0)
(0.004798421284 0.00447822219449 0)
(0.00447796613552 0.00396596623423 0)
(0.0042938658608 0.00352335020942 0)
(0.00409860930905 0.00299636031048 0)
(0.00396795174164 0.00248013841343 0)
(0.00382334065579 0.0019388144863 0)
(0.00379879659197 0.00150004814174 0)
(0.00389321291604 0.00113970467852 0)
(0.0038260243194 0.000753950919698 0)
(0.00416382398261 0.000555454502128 0)
(0.00413139451372 0.000329423534784 0)
(0.00410804760377 0.00010503557278 0)
(-0.125102041088 0.00753497084577 0)
(-0.132198705223 0.0244503076606 0)
(-0.131603114165 0.0410479404999 0)
(-0.130371213891 0.0576822387765 0)
(-0.128732100491 0.0740935443352 0)
(-0.126709394855 0.0902407240562 0)
(-0.124323929701 0.106070850022 0)
(-0.121599214147 0.12153565683 0)
(-0.118561043934 0.136591233709 0)
(-0.115236885544 0.151198423189 0)
(-0.111655246125 0.165323000441 0)
(-0.107845043623 0.178935761472 0)
(-0.103834982813 0.192012509145 0)
(-0.0996529419509 0.204533938905 0)
(-0.0953253754795 0.21648541966 0)
(-0.0908767452881 0.22785666475 0)
(-0.0863289985879 0.238641288764 0)
(-0.0817011195537 0.248836252661 0)
(-0.0770087837941 0.25844120974 0)
(-0.0722641462376 0.267457777451 0)
(-0.0674757827226 0.275888773047 0)
(-0.0626487945817 0.283737458921 0)
(-0.0577850638102 0.29100684645 0)
(-0.0528836308829 0.297699098573 0)
(-0.0479411494062 0.303815056518 0)
(-0.0429523713992 0.309353892599 0)
(-0.0379106215556 0.314312870885 0)
(-0.0328082430121 0.318687181714 0)
(-0.0276370179051 0.322469819089 0)
(-0.0223885914912 0.325651443987 0)
(-0.0170549566954 0.328220399758 0)
(-0.0116289163745 0.330162516266 0)
(-0.00610478148348 0.331461208439 0)
(-0.00047904748233 0.332097629726 0)