/*--------------------------------*- C++ -*----------------------------------*\
| =========                 |                                                 |
| \\      /  F ield         | OpenFOAM: The Open Source CFD Toolbox           |
|  \\    /   O peration     | Version:  v1906                                 |
|   \\  /    A nd           | Web:      www.OpenFOAM.com                      |
|    \\/     M anipulation  |                                                 |
\*---------------------------------------------------------------------------*/
FoamFile
{
    version     2.0;
    format      ascii;
    class       volVectorField;
    location    "230";
    object      Ua;
}
// * * * * * * * * * * * * * * * * * * * * * * * * * * * * * * * * * * * * * //

dimensions      [0 1 -1 0 0 0 0];


internalField   nonuniform List<vector> 
9216
(
(-0.00775813281076 0.00777165536566 0)
(-0.00708928593119 0.0219550417638 2.51327450175e-27)
(-0.00717824317228 0.0372047671817 -4.99872768547e-31)
(-0.00717372241182 0.0521677643583 0)
(-0.00712650030312 0.0670669702683 0)
(-0.00705541425939 0.0818151194781 0)
(-0.00696682655332 0.0963678166596 0)
(-0.00686234863191 0.110687682142 0)
(-0.00674417782175 0.124739998327 0)
(-0.00661202912553 0.13849363536 0)
(-0.00646795277635 0.151918213633 0)
(-0.00631105531667 0.164986718157 0)
(-0.0061437894274 0.177672436731 0)
(-0.00596470660105 0.189952185705 0)
(-0.00577675366482 0.201802706854 0)
(-0.0055778075804 0.213204354226 0)
(-0.00537133696789 0.224136936328 0)
(-0.0051544231279 0.234583774529 0)
(-0.00493106443205 0.244527089557 0)
(-0.00469744292846 0.253952376348 0)
(-0.00445811068509 0.262843453923 0)
(-0.00420830650015 0.271187049693 0)
(-0.00395316159205 0.27896770157 0)
(-0.00368697214486 0.286172470782 0)
(-0.00341549811866 0.292785863149 0)
(-0.00313216631057 0.29879452331 0)
(-0.0028434078084 0.304182397492 0)
(-0.00254189468059 0.308935298878 0)
(-0.00223478847292 0.313036474034 0)
(-0.0019141891617 0.316470882932 0)
(-0.00158801308538 0.319221407057 0)
(-0.00124797669478 0.321272595693 0)
(-0.000902825461947 0.322607741653 0)
(-0.000544188359611 0.323212123909 0)
(-0.00018164198293 0.323070900073 0)
(0.000193021318579 0.322171744899 0)
(0.000569372288181 0.320503715498 0)
(0.000955177661401 0.318059122608 0)
(0.00133919347518 0.314833430377 0)
(0.00172852219076 0.310826315563 0)
(0.00211118364257 0.306042512541 0)
(0.00249344869919 0.300491991003 0)
(0.00286276322159 0.294191652093 0)
(0.00322451238937 0.287164641187 0)
(0.00356580192606 0.279442657986 0)
(0.00389120704781 0.271064389893 0)
(0.00418786439836 0.262078174109 0)
(0.00445982946047 0.252539555895 0)
(0.00469481389317 0.242513889597 0)
(0.00489689687232 0.232072925337 0)
(0.00505513594369 0.221296963345 0)
(0.00517441292598 0.210270416396 0)
(0.00524598038405 0.199083247115 0)
(0.00527626062839 0.187825626012 0)
(0.00525929584753 0.176588869157 0)
(0.0052033278578 0.165459748402 0)
(0.00510512303914 0.154521555594 0)
(0.00497430888512 0.143848824999 0)
(0.00480967770154 0.133509196763 0)
(0.00462137928639 0.123559031294 0)
(0.00440935640556 0.114046190205 0)
(0.00418347282701 0.105006476966 0)
(0.00394410389387 0.096467096669 0)
(0.00370020877889 0.0884438163361 0)
(0.00345201071463 0.0809448480164 0)
(0.00320711638206 0.0739686619112 0)
(0.00296519827821 0.0675080136298 0)
(0.00273231245154 0.0615482777063 0)
(0.00250741309285 0.0560712767549 0)
(0.00229505376522 0.0510539405545 0)
(0.00209351631354 0.0464716910106 0)
(0.0019060845892 0.0422972551213 0)
(0.00173054821325 0.0385034736373 0)
(0.00156922947236 0.0350621453824 0)
(0.00141964749545 0.0319462783722 0)
(0.00128345409659 0.0291289363505 0)
(0.00115807229568 0.0265850289549 0)
(0.00104465646436 0.0242902014278 0)
(0.000940488434057 0.0222224017855 0)
(0.000845837328224 0.020361255442 0)
(0.000756352309175 0.0186903902552 0)
(0.000665767101633 0.0172083014199 0)
(0.000548298616929 0.0158414820626 0)
(0.000461125654341 0.0146754824007 0)
(0.000486997032817 0.0139197602325 0)
(0.000498219093812 0.0128487501953 0)
(0.000444595381249 0.0118093017046 0)
(0.000383445482661 0.0109948583325 0)
(0.00041780400133 0.0103076392906 0)
(0.000497438016622 0.00938662966704 0)
(0.00052293061827 0.00841067500829 0)
(0.000554964438471 0.00730259955864 0)
(0.000661726976209 0.00603602193593 0)
(0.000766601776139 0.00459963185592 0)
(0.000861151015681 0.00282264974897 0)
(0.000914270382661 0.000890400454804 0)
(-0.021953052795 0.00713590563891 0)
(-0.0230410555782 0.0231649444585 0)
(-0.0231134101691 0.039350094783 -2.58337601683e-27)
(-0.0229869888868 0.0553910091327 0)
(-0.0227757559101 0.071261969786 0)
(-0.0224963649406 0.086948775198 0)
(-0.0221582559213 0.102418934704 0)
(-0.0217651676587 0.117637555026 0)
(-0.0213221008763 0.132569823453 0)
(-0.0208305896387 0.147182887488 0)
(-0.0202956065504 0.161445163253 0)
(-0.0197178839505 0.17532759457 0)
(-0.019102987015 0.188802446657 0)
(-0.0184507870993 0.201844649513 0)
(-0.0177674382084 0.214430270535 0)
(-0.0170516353016 0.226537976947 0)
(-0.0163100148685 0.238147223532 0)
(-0.0155397838332 0.249239823148 0)
(-0.0147479641909 0.259797898794 0)
(-0.0139300427822 0.269805545466 0)
(-0.0130934012929 0.279246625077 0)
(-0.0122317155831 0.288106510348 0)
(-0.0113527808644 0.296369819551 0)
(-0.0104485156961 0.304022223553 0)
(-0.00952727478434 0.311048224742 0)
(-0.00857942955812 0.317433002235 0)
(-0.00761409542944 0.323160339771 0)
(-0.00662042601593 0.328214468659 0)
(-0.0056085524573 0.332578238638 0)
(-0.00456686795424 0.336234907687 0)
(-0.00350678846285 0.33916666091 0)
(-0.00241645158949 0.341356382558 0)
(-0.00130887017527 0.342786479143 0)
(-0.000172596051968 0.343440506584 0)
(0.000977480725793 0.343302576939 0)
(0.00215177331726 0.342358766408 0)
(0.00333325603067 0.340597038729 0)
(0.00453069637349 0.338008428148 0)
(0.00572479964541 0.334587465022 0)
(0.00692221893087 0.330333079361 0)
(0.00810141884894 0.325249461995 0)
(0.00926666740421 0.319346625734 0)
(0.0103944492664 0.312641606686 0)
(0.0114866685158 0.305158628626 0)
(0.0125183620925 0.29693049449 0)
(0.0134894723236 0.287998285282 0)
(0.0143745396491 0.278412738558 0)
(0.0151725385818 0.268233365475 0)
(0.0158590794361 0.257529501938 0)
(0.0164339529322 0.246378630195 0)
(0.0168761677127 0.234866730832 0)
(0.0171888465397 0.223085581847 0)
(0.01735709085 0.211132161287 0)
(0.0173897801155 0.199104952083 0)
(0.0172799944877 0.187102637633 0)
(0.0170432785327 0.175220008097 0)
(0.0166804357909 0.163546767941 0)
(0.0162122179942 0.152163988419 0)
(0.0156447893432 0.14114387094 0)
(0.01500126487 0.130547305099 0)
(0.0142903359456 0.120424688593 0)
(0.0135349561496 0.110814381354 0)
(0.0127441448153 0.101744253204 0)
(0.0119387658479 0.093230828681 0)
(0.0111264038398 0.0852813888115 0)
(0.0103243989123 0.0778937157452 0)
(0.00953771872889 0.0710585050752 0)
(0.00877950094299 0.0647594873687 0)
(0.0080516813214 0.05897582222 0)
(0.00736329028807 0.0536823402896 0)
(0.00671349643877 0.0488516617555 0)
(0.00610789673723 0.044454354376 0)
(0.00554358205986 0.0404606266567 0)
(0.00502364103797 0.0368402972286 0)
(0.00454388148716 0.0335640574182 0)
(0.00410575656646 0.0306032504858 0)
(0.00370445372849 0.0279307629422 0)
(0.00334040284794 0.0255206208217 0)
(0.00300842256329 0.0233485045273 0)
(0.00270765921639 0.0213909621748 0)
(0.00243076158328 0.0196248067699 0)
(0.00217031988583 0.0180245537592 0)
(0.00189533663183 0.0165485447278 0)
(0.00165786979528 0.0149894089812 0)
(0.00158716958944 0.013732038736 0)
(0.00154689442765 0.0126910393616 0)
(0.00132340528979 0.0115462496595 0)
(0.00114867953507 0.0108154450067 0)
(0.00121544076678 0.00994611066969 0)
(0.00142201138208 0.00926126239319 0)
(0.00155820121643 0.00847306864051 0)
(0.00172772268818 0.00729460970375 0)
(0.00198224698345 0.00599353349551 0)
(0.00251919705271 0.00480749626439 0)
(0.00309905869292 0.00307877178104 0)
(0.00275271452775 0.000826792595226 0)
(-0.0373279354623 0.00728563744261 0)
(-0.0392788070143 0.0234687713338 0)
(-0.0391473640615 0.0396025404276 -2.58693518042e-27)
(-0.0388643631782 0.0557417549464 0)
(-0.0384848724475 0.0717174743988 0)
(-0.0380093205681 0.087507512955 0)
(-0.0374415048394 0.103076734381 0)
(-0.0367851904177 0.118389925541 0)
(-0.0360454833163 0.133412460118 0)
(-0.0352263889982 0.148111305784 0)
(-0.0343335091777 0.16245501853 0)
(-0.0333707674938 0.176414303384 0)
(-0.0323440922152 0.189961668596 0)
(-0.0312569791869 0.203071887912 0)
(-0.0301153696537 0.215721454349 0)
(-0.0289218868602 0.227889002609 0)
(-0.0276821287214 0.239554595538 0)
(-0.0263974277621 0.250700114527 0)
(-0.0250727478735 0.261308417287 0)
(-0.023707840254 0.271363717891 0)
(-0.0223068910559 0.280850662351 0)
(-0.0208679759384 0.289754718791 0)
(-0.0193945490675 0.298061242198 0)
(-0.0178831382161 0.3057559083 0)
(-0.0163367023795 0.312823825703 0)
(-0.0147505548782 0.319250026174 0)
(-0.0131275512373 0.325018691859 0)
(-0.0114622903635 0.33011371649 0)
(-0.00975803561304 0.334518082832 0)
(-0.00800931884012 0.338214494154 0)
(-0.00622043590914 0.341184977973 0)
(-0.00438658664699 0.343411552266 0)
(-0.00251376939237 0.344876077964 0)
(-0.000598736126101 0.345561024233 0)
(0.00135006226048 0.345449588914 0)
(0.0033334548768 0.344526529012 0)
(0.00533984980646 0.342778567893 0)
(0.00736687089151 0.340195256447 0)
(0.00939926737539 0.336769649715 0)
(0.0114309031268 0.332499154391 0)
(0.0134426409239 0.327386397337 0)
(0.0154243764049 0.321439983366 0)
(0.0173532482694 0.314675481402 0)
(0.0192154250273 0.307116028422 0)
(0.0209849702563 0.298793313829 0)
(0.0226451659542 0.289747940617 0)
(0.0241683649761 0.280030266887 0)
(0.0255367359835 0.269700376046 0)
(0.0267234121021 0.258828491687 0)
(0.0277125962117 0.247494248302 0)
(0.0284821607113 0.23578626974 0)
(0.0290228785844 0.223800345066 0)
(0.0293222112854 0.211637794085 0)
(0.0293820432542 0.199402413023 0)
(0.0292029700707 0.187197868728 0)
(0.0287997717875 0.175124087639 0)
(0.02818573514 0.163274746454 0)
(0.0273858302275 0.151734397453 0)
(0.0264215641759 0.140577234945 0)
(0.0253227997651 0.129865660866 0)
(0.0241141824869 0.119650327258 0)
(0.0228261369537 0.109969594974 0)
(0.0214827865258 0.10085024414 0)
(0.0201118620384 0.092307587635 0)
(0.0187339772484 0.0843467972522 0)
(0.0173716158867 0.0769636293282 0)
(0.0160398936652 0.0701461605419 0)
(0.0147548105249 0.0638758211333 0)
(0.0135254006881 0.0581291730258 0)
(0.0123612985833 0.0528789420796 0)
(0.011266067767 0.0480955700793 0)
(0.0102440978335 0.0437480106219 0)
(0.0092948379598 0.0398048945019 0)
(0.00841898713529 0.0362349869349 0)
(0.00761337133 0.0330079740697 0)
(0.00687645214552 0.0300946293316 0)
(0.00620370780406 0.0274672734203 0)
(0.00559253465866 0.0250996714797 0)
(0.005038067131 0.0229671041309 0)
(0.004537571697 0.0210457346106 0)
(0.00408681186001 0.0193115382467 0)
(0.00368450343451 0.0177383597395 0)
(0.0033364844065 0.0162943428109 0)
(0.00301210784871 0.0147529723458 0)
(0.00279354742402 0.0135969637504 0)
(0.00259330453603 0.0125049121334 0)
(0.00234765933915 0.0116870629525 0)
(0.00206653952645 0.0104395041523 0)
(0.00194957722543 0.0093399715707 0)
(0.00215379569973 0.00875232614315 0)
(0.00268139485619 0.00832875684334 0)
(0.00288007384381 0.00668746445875 0)
(0.00341389605209 0.00560851978275 0)
(0.00410443227587 0.00414565305677 0)
(0.00468126228815 0.00251771174459 0)
(0.00451842384654 0.000768741989332 0)
(-0.0526021764808 0.00737411693092 0)
(-0.0555666357522 0.0236945717983 0)
(-0.0553761414199 0.0399032910338 2.58658859628e-27)
(-0.0549632942088 0.0561524926639 0)
(-0.0544151982732 0.0722416597219 0)
(-0.0537347277041 0.0881441618488 0)
(-0.0529256051481 0.103822168589 0)
(-0.0519926843756 0.119239351693 0)
(-0.0509420196296 0.134360593498 0)
(-0.0497797844578 0.149152485911 0)
(-0.0485129843158 0.163583470107 0)
(-0.0471482295435 0.177624109617 0)
(-0.0456928307183 0.191247046833 0)
(-0.0441531932177 0.204427151644 0)
(-0.0425363182195 0.217141319887 0)
(-0.0408477553554 0.229368521672 0)
(-0.0390935967833 0.241089464471 0)
(-0.0372779533427 0.252286560658 0)
(-0.0354055273309 0.262943481513 0)
(-0.0334785914295 0.273045069833 0)
(-0.0315002108576 0.28257683337 0)
(-0.0294707023671 0.291524849646 0)
(-0.0273915415903 0.299875256641 0)
(-0.025261283601 0.307614194226 0)
(-0.0230801594575 0.314727351016 0)
(-0.0208454392332 0.321199982991 0)
(-0.0185566894118 0.327016558936 0)
(-0.0162105867049 0.332160874683 0)
(-0.013806796519 0.336615821803 0)
(-0.0113422807883 0.340363624033 0)
(-0.00881772730387 0.34338578647 0)
(-0.00623137245233 0.345663397961 0)
(-0.00358596999254 0.347177292064 0)
(-0.000882228561015 0.347908544588 0)
(0.00187387941738 0.34783881993 0)
(0.00467799163337 0.346951030104 0)
(0.0075198136901 0.345229911815 0)
(0.0103902632121 0.34266282621 0)
(0.0132738602509 0.339240533594 0)
(0.0161560708924 0.334958077248 0)
(0.0190157830532 0.32981568677 0)
(0.0218327731797 0.323819670063 0)
(0.024580404635 0.316983365675 0)
(0.0272331319861 0.30932796629 0)
(0.0297595578289 0.300883445531 0)
(0.0321299575443 0.291689246999 0)
(0.0343098965095 0.281795083268 0)
(0.0362678730209 0.271261350828 0)
(0.037969771533 0.260159540213 0)
(0.0393867892129 0.248572008666 0)
(0.0404908869334 0.236591455878 0)
(0.0412628457617 0.224319409061 0)
(0.0416882882269 0.211864126005 0)
(0.041764929547 0.199337395906 0)
(0.0414979420741 0.186850969968 0)
(0.0409050810375 0.174512496107 0)
(0.0400104702897 0.162422026505 0)
(0.0388474445454 0.150668996017 0)
(0.0374516051293 0.139330626164 0)
(0.0358631926492 0.12847105246 0)
(0.0341214076234 0.118141323404 0)
(0.0322672694808 0.108379344472 0)
(0.0303386884382 0.0992103413656 0)
(0.0283729592194 0.0906473586982 0)
(0.0264023693936 0.0826924444773 0)
(0.0244566642749 0.0753378799523 0)
(0.0225595934014 0.0685678621491 0)
(0.0207315830602 0.0623600125925 0)
(0.0189871317208 0.0566870901345 0)
(0.0173375934845 0.0515184112539 0)
(0.0157892671139 0.0468213041887 0)
(0.0143461688549 0.0425621709591 0)
(0.0130085539355 0.0387074778056 0)
(0.0117754492688 0.0352243672185 0)
(0.0106433253277 0.0320812420864 0)
(0.00960831973768 0.0292480475026 0)
(0.00866500009723 0.0266965573993 0)
(0.00780834630201 0.0244004084318 0)
(0.00703269348975 0.0223351093415 0)
(0.00633369853706 0.0204777982507 0)
(0.00570796102148 0.0188067010367 0)
(0.00515607118873 0.0173063151408 0)
(0.00469728089837 0.0159051523452 0)
(0.00428379457811 0.0145333292684 0)
(0.00394828792403 0.0134323559092 0)
(0.00365107088348 0.0123758778749 0)
(0.0033634493907 0.0113172403346 0)
(0.00306486866927 0.0100319164215 0)
(0.00301306109041 0.00922741057491 0)
(0.0030195721961 0.00799747406034 0)
(0.0034451288494 0.00698495648888 0)
(0.00433126334004 0.00635712813443 0)
(0.00467512873949 0.00465643663702 0)
(0.00543583463393 0.00330602038979 0)
(0.00620485823113 0.00204686822349 0)
(0.00617449915876 0.00066899737609 0)
(-0.0680767666256 0.00745120856832 0)
(-0.0719644172759 0.0239551939437 0)
(-0.0717219880311 0.0403060590952 0)
(-0.0711831493616 0.0567079685079 0)
(-0.0704663967181 0.0729490858267 0)
(-0.0695780565862 0.0890007541304 0)
(-0.0685232442426 0.104823130189 0)
(-0.0673083706454 0.120378584556 0)
(-0.0659410372053 0.135631166429 0)
(-0.0644294888689 0.150546888557 0)
(-0.0627826464155 0.165093866231 0)
(-0.061009546509 0.17924249445 0)
(-0.0591195074002 0.19296548185 0)
(-0.057121454339 0.206237906491 0)
(-0.0550242129712 0.21903711284 0)
(-0.052835703907 0.231342640179 0)
(-0.0505634070301 0.24313598667 0)
(-0.048213442027 0.254400420071 0)
(-0.0457912615362 0.265120633717 0)
(-0.0433006410012 0.275282476201 0)
(-0.0407446472907 0.284872547685 0)
(-0.0381245511002 0.293877904036 0)
(-0.0354410920884 0.302285660651 0)
(-0.0326933044964 0.310082736454 0)
(-0.0298800653978 0.317255524059 0)
(-0.0269988093349 0.323789718725 0)
(-0.0240473306121 0.329670095112 0)
(-0.0210223698426 0.334880447375 0)
(-0.0179216437658 0.339403478813 0)
(-0.0147423250253 0.343220879202 0)
(-0.0114832630806 0.346313386617 0)
(-0.00814334057933 0.348660937444 0)
(-0.00472393972714 0.350242933188 0)
(-0.00122720880707 0.351038624633 0)
(0.00234137375329 0.35102755542 0)
(0.00597481915963 0.350190160815 0)
(0.00966202463942 0.34850844384 0)
(0.013389731006 0.345966770486 0)
(0.0171399866375 0.342552744311 0)
(0.0208922749976 0.338258140958 0)
(0.0246211370539 0.333079898102 0)
(0.028298471651 0.327021097618 0)
(0.0318913686276 0.320091987465 0)
(0.0353645634796 0.312310945991 0)
(0.0386785338966 0.303705484814 0)
(0.0417921530694 0.294313172284 0)
(0.0446612187478 0.28418259121 0)
(0.0472415390177 0.273374146947 0)
(0.0494882780244 0.261960764009 0)
(0.051359874535 0.250028156388 0)
(0.0528185559507 0.237674534373 0)
(0.05383510594 0.225009352444 0)
(0.054390011085 0.212150868302 0)
(0.0544777550056 0.199222433217 0)
(0.0541065611868 0.186347759511 0)
(0.0532998816205 0.173645731678 0)
(0.0520930255692 0.161225612113 0)
(0.05053140063 0.149183436732 0)
(0.048665249815 0.13760031052 0)
(0.0465480310982 0.126542238341 0)
(0.0442334188899 0.116060653265 0)
(0.0417753683818 0.106192627283 0)
(0.0392255300265 0.096961216496 0)
(0.0366328125155 0.0883761115502 0)
(0.034040875958 0.0804349348918 0)
(0.0314881212823 0.0731249046816 0)
(0.0290061995918 0.0664247780965 0)
(0.0266207355628 0.0603067335368 0)
(0.0243506357597 0.0547382596475 0)
(0.0222092829959 0.0496838811946 0)
(0.0202044605041 0.0451067005469 0)
(0.0183398811328 0.0409696261164 0)
(0.0166154153342 0.0372362977321 0)
(0.0150284816909 0.0338716942738 0)
(0.0135741694641 0.0308426110808 0)
(0.0122463877977 0.028117917265 0)
(0.0110378832225 0.0256687744432 0)
(0.00994123409042 0.023468714008 0)
(0.0089489101124 0.0214936923018 0)
(0.00805431758831 0.0197221340091 0)
(0.00725204787886 0.0181348884169 0)
(0.00654012080098 0.0167266204544 0)
(0.00592390187059 0.0153602962096 0)
(0.00545143811611 0.0142192956037 0)
(0.00509691083448 0.0132601746361 0)
(0.00481526417296 0.0122557455959 0)
(0.00463459220868 0.011215124607 0)
(0.00434621959379 0.0099057900004 0)
(0.00400722635132 0.00830168173228 0)
(0.00412946015476 0.007346590367 0)
(0.00435901295844 0.00602224867047 0)
(0.00531787437359 0.00529974353564 0)
(0.00639062854777 0.00427986103634 0)
(0.00672556822529 0.00274341255648 0)
(0.00722113896801 0.00161659055989 0)
(0.00720858202484 0.000536243305692 0)
(-0.0837406426066 0.00753639636347 0)
(-0.0885388521137 0.0242680549047 0)
(-0.0882434170661 0.0408115810759 0)
(-0.087577381498 0.0574111793486 0)
(-0.0866890500102 0.0738459027663 0)
(-0.0855879455733 0.090086194353 0)
(-0.0842810637081 0.106090610803 0)
(-0.082776711473 0.12182023078 0)
(-0.081084440525 0.13723809848 0)
(-0.079214721702 0.152309483823 0)
(-0.0771787436173 0.167002032733 0)
(-0.0749880511631 0.181285906843 0)
(-0.0726543606265 0.195133855325 0)
(-0.0701891507028 0.208521235856 0)
(-0.0676035041822 0.221425944526 0)
(-0.0649076654412 0.233828293076 0)
(-0.0621109522397 0.245710786479 0)
(-0.0592213208795 0.257057861361 0)
(-0.0562454081888 0.267855530953 0)
(-0.0531881542159 0.278091021911 0)
(-0.0500530279342 0.287752345395 0)
(-0.0468417373077 0.296827905043 0)
(-0.0435546562709 0.305306074588 0)
(-0.0401906141601 0.313174855918 0)
(-0.0367474998672 0.320421537029 0)
(-0.033222090217 0.327032456453 0)
(-0.0296107867572 0.33299277685 0)
(-0.0259094499941 0.338286371899 0)
(-0.0221142450272 0.342895709184 0)
(-0.0182214981846 0.346801887729 0)
(-0.0142286240992 0.349984681377 0)
(-0.0101339893795 0.352422638901 0)
(-0.0059380215954 0.354093342597 0)
(-0.0016430825906 0.354973773254 0)
(0.00274538075457 0.355040755455 0)
(0.00721897395997 0.354271577899 0)
(0.0117652192108 0.352644707737 0)
(0.0163678084786 0.350140658423 0)
(0.0210055972227 0.346742933833 0)
(0.0256530558448 0.342439071016 0)
(0.0302794763656 0.337221715765 0)
(0.034849654036 0.33108972595 0)
(0.0393233241709 0.324049277381 0)
(0.0436560413126 0.316114951363 0)
(0.0477988354877 0.307310859422 0)
(0.0516993161227 0.297671765453 0)
(0.0553017009057 0.287244316394 0)
(0.0585484892591 0.276088274436 0)
(0.0613814274409 0.264277759159 0)
(0.0637445221501 0.251902189267 0)
(0.0655867080122 0.239066606932 0)
(0.0668666144546 0.225890796552 0)
(0.0675565056465 0.212506714219 0)
(0.0676469270602 0.19905388569 0)
(0.0671486657254 0.185673031324 0)
(0.0660932223549 0.172498886948 0)
(0.0645296538108 0.159653463038 0)
(0.0625195498351 0.147241131034 0)
(0.0601301779971 0.135347164581 0)
(0.0574304857703 0.124039131039 0)
(0.0544894738561 0.113368575305 0)
(0.0513758969418 0.103371377552 0)
(0.048156291179 0.0940677156966 0)
(0.0448929405584 0.0854626431531 0)
(0.0416415259537 0.0775476997273 0)
(0.0384499903119 0.0703031575991 0)
(0.0353577197018 0.063700437666 0)
(0.0323957173623 0.0577044170487 0)
(0.0295865960824 0.0522756128053 0)
(0.0269454014819 0.0473722179687 0)
(0.0244803243227 0.04295189059 0)
(0.0221941679678 0.0389731196844 0)
(0.0200853951248 0.0353960770997 0)
(0.0181493382786 0.0321831241241 0)
(0.0163788950225 0.0292991542382 0)
(0.0147653986618 0.026711769899 0)
(0.0132990814285 0.02439141435 0)
(0.0119697662116 0.0223114474997 0)
(0.0107673055822 0.0204482059198 0)
(0.00968240308821 0.01878094381 0)
(0.0087072041288 0.0172923240347 0)
(0.00784243069661 0.0159719767871 0)
(0.00705124326875 0.0146161776284 0)
(0.00649974223948 0.0135716694159 0)
(0.00610880716609 0.0125321746163 0)
(0.00587873985341 0.0115573207124 0)
(0.0055712142189 0.0102251881089 0)
(0.00552469850742 0.00927174574472 0)
(0.00550727999886 0.008180507049 0)
(0.00566621794414 0.00707867401578 0)
(0.00547642119325 0.00534191249721 0)
(0.00605142575448 0.00421069863142 0)
(0.00741851034011 0.00356177300043 0)
(0.0080140279809 0.00245340837113 0)
(0.00822330714953 0.00138515962429 0)
(0.00823764023973 0.00045956719634 0)
(-0.0996268456472 0.0076352955497 0)
(-0.105339023451 0.0246419409147 0)
(-0.104986694128 0.0414236899957 2.6055222782e-27)
(-0.104189229939 0.0582659913871 0)
(-0.103124017385 0.0749372829457 0)
(-0.101803314371 0.0914071321023 0)
(-0.10023610325 0.107632569919 0)
(-0.0984327798327 0.123573279171 0)
(-0.0964051455339 0.139191139809 0)
(-0.0941661260244 0.154450524043 0)
(-0.0917295040568 0.169318468221 0)
(-0.089109561171 0.183764833817 0)
(-0.0863207678107 0.197762389463 0)
(-0.0833773750141 0.211286840544 0)
(-0.080293090386 0.224316760116 0)
(-0.0770806547772 0.236833447347 0)
(-0.0737515568233 0.248820684133 0)
(-0.0703156595991 0.260264415573 0)
(-0.0667810309154 0.271152348449 0)
(-0.0631536960466 0.281473497037 0)
(-0.0594376533413 0.29121769201 0)
(-0.0556348022198 0.300375083126 0)
(-0.0517451662848 0.30893566361 0)
(-0.0477669838938 0.316888836898 0)
(-0.0436970957256 0.324223047791 0)
(-0.0395311346413 0.330925478748 0)
(-0.035264009019 0.33698182072 0)
(-0.030890136317 0.342376104711 0)
(-0.0264039906782 0.347090578281 0)
(-0.0218004055541 0.351105689484 0)
(-0.0170751677912 0.35440010902 0)
(-0.0122253947244 0.356950757184 0)
(-0.0072503195334 0.35873305501 0)
(-0.00215173396506 0.359721235317 0)
(0.00306517811287 0.35988881008 0)
(0.00839136359218 0.359209184842 0)
(0.0138131020793 0.357656450249 0)
(0.0193116437613 0.355206306914 0)
(0.024862595003 0.351837138114 0)
(0.0304358029213 0.347531157441 0)
(0.0359950305656 0.342275628625 0)
(0.0414981335268 0.336064078003 0)
(0.0468970075628 0.328897513779 0)
(0.0521379742018 0.320785609877 0)
(0.0571618863741 0.31174793327 0)
(0.061904653695 0.301815240169 0)
(0.0662975961902 0.291031002924 0)
(0.070268507845 0.279453154403 0)
(0.0737430805234 0.267156124356 0)
(0.0766478338897 0.254232812365 0)
(0.0789141606032 0.240796047927 0)
(0.0804843578877 0.226978611669 0)
(0.0813183876932 0.21293067468 0)
(0.0814006804977 0.198814110147 0)
(0.0807444880147 0.184793586655 0)
(0.0793921966523 0.171026261426 0)
(0.077411584396 0.157651490149 0)
(0.0748866010865 0.144783523866 0)
(0.0719054526346 0.132510828109 0)
(0.0685543316022 0.120901141025 0)
(0.0649183954482 0.110005700985 0)
(0.0610830385052 0.0998591128659 0)
(0.0571317447438 0.0904779597836 0)
(0.0531423496426 0.0818610757386 0)
(0.0491837157217 0.0739917415683 0)
(0.0453140723854 0.0668408806225 0)
(0.0415805079961 0.0603703107649 0)
(0.0380192461531 0.054535437556 0)
(0.0346559513127 0.0492877923013 0)
(0.0315064924965 0.0445774776809 0)
(0.0285781947046 0.040355353513 0)
(0.0258718100584 0.0365745998323 0)
(0.0233832716573 0.0331913854292 0)
(0.021105038941 0.0301651241195 0)
(0.0190270206059 0.0274586122305 0)
(0.0171374295494 0.0250380537027 0)
(0.0154233585188 0.022873099964 0)
(0.0138713408144 0.0209369028952 0)
(0.0124678409254 0.0192062990631 0)
(0.0111998462418 0.0176619896637 0)
(0.0100552412564 0.0162943951324 0)
(0.0090336592732 0.0150576945442 0)
(0.00817436403058 0.0138596213132 0)
(0.00767071481848 0.0129676095598 0)
(0.00722532244158 0.0118506741917 0)
(0.00699256400477 0.0108227140904 0)
(0.00676199248244 0.00970030522913 0)
(0.0065279005552 0.00845719812723 0)
(0.00667256286407 0.00747639026918 0)
(0.00671616754808 0.00611359942592 0)
(0.00713724398522 0.00510094217645 0)
(0.00711916553309 0.00362573643941 0)
(0.00787722937089 0.00276987144515 0)
(0.00894506974144 0.00211534225508 0)
(0.00908310871341 0.00119519108109 0)
(0.00911324537158 0.000396994823369 0)
(-0.115774689736 0.0077505120975 0)
(-0.122411497762 0.0250821700821 0)
(-0.121997970311 0.0421471267539 -2.60511569727e-27)
(-0.121063325119 0.0592781284435 0)
(-0.119814044872 0.0762302487098 0)
(-0.118264951436 0.0929720870691 0)
(-0.116427051279 0.109458895168 0)
(-0.114313010396 0.125648775596 0)
(-0.111937132652 0.141502235569 0)
(-0.109315090002 0.156982558647 0)
(-0.106463586664 0.172056028194 0)
(-0.103399982399 0.186692110365 0)
(-0.100141872788 0.200863576693 0)
(-0.0967066437843 0.214546539765 0)
(-0.0931110052902 0.227720398555 0)
(-0.0893705240925 0.240367677392 0)
(-0.0854991801681 0.252473753696 0)
(-0.0815089647509 0.264026480634 0)
(-0.0774095647933 0.275015705952 0)
(-0.0732081351173 0.285432723324 0)
(-0.0689092126215 0.295269668031 0)
(-0.0645147353728 0.30451891725 0)
(-0.0600242180712 0.313172504986 0)
(-0.0554349979923 0.321221615546 0)
(-0.0507426030722 0.328656142162 0)
(-0.0459411214924 0.335464355559 0)
(-0.0410236505194 0.341632633832 0)
(-0.0359827014203 0.347145285407 0)
(-0.0308106855047 0.351984374528 0)
(-0.0255003954891 0.356129694883 0)
(-0.020045528185 0.359558702446 0)
(-0.0144412917651 0.362246501445 0)
(-0.00868517542737 0.364166014773 0)
(-0.00277766706862 0.365288273958 0)
(0.00327687666342 0.365582843461 0)
(0.00946944210686 0.365018476798 0)
(0.0157855119672 0.363563945892 0)
(0.0222044129911 0.361189092587 0)
(0.0286987009398 0.357866019267 0)
(0.0352338391545 0.353570421271 0)
(0.0417679686395 0.348282954378 0)
(0.0482519819343 0.341990610605 0)
(0.0546296351161 0.334688032941 0)
(0.0608378283007 0.32637876101 0)
(0.0668067831031 0.317076495198 0)
(0.0724602410965 0.306806466951 0)
(0.0777155849515 0.295607207341 0)
(0.0824843031807 0.283532849261 0)
(0.0866731634972 0.270656235536 0)
(0.090187047711 0.25707248189 0)
(0.0929339783364 0.242902403089 0)
(0.0948333436014 0.22829434756 0)
(0.0958263819941 0.213422400474 0)
(0.0958872914584 0.198479375693 0)
(0.0950316336785 0.183663951047 0)
(0.0933162644053 0.169165392831 0)
(0.0908368573544 0.155147281964 0)
(0.0877101683086 0.14173442562 0)
(0.0840510760035 0.129014344887 0)
(0.0799631210301 0.117051558503 0)
(0.0755469656681 0.105896809143 0)
(0.0709068257998 0.0955842986392 0)
(0.0661465893674 0.0861266422505 0)
(0.061362679287 0.0775142698551 0)
(0.0566388421568 0.0697191145109 0)
(0.0520440847698 0.0626996745255 0)
(0.0476330101633 0.0564053657321 0)
(0.0434467097255 0.0507796423692 0)
(0.0395131284142 0.0457626676148 0)
(0.0358477657509 0.0412942951015 0)
(0.0324552017259 0.0373170654234 0)
(0.0293324410119 0.0337780750418 0)
(0.0264715087904 0.0306292028373 0)
(0.0238610118819 0.0278267857771 0)
(0.0214870680836 0.0253314710954 0)
(0.0193341605609 0.0231080456088 0)
(0.0173856765986 0.0211252732524 0)
(0.0156243668059 0.0193558858491 0)
(0.0140327355378 0.0177766707499 0)
(0.0125934369599 0.0163681879169 0)
(0.011289321171 0.0151220090463 0)
(0.010114000729 0.0139570048089 0)
(0.00919154033285 0.0128635938381 0)
(0.00862686064991 0.011909913031 0)
(0.0083013983276 0.0110134827034 0)
(0.00800410397421 0.00994900005786 0)
(0.00796665614611 0.00907171498057 0)
(0.00784488945127 0.00790986431389 0)
(0.00785200248824 0.00673317026491 0)
(0.00779694139957 0.00541123994141 0)
(0.00801359550588 0.00432895637765 0)
(0.00852083775176 0.00341130375007 0)
(0.0085970936111 0.00232217183958 0)
(0.0097489326573 0.00177000484778 0)
(0.0098298570019 0.00105358428093 0)
(0.00983092534783 0.000337876460484 0)
(-0.132227605962 0.00788319795304 0)
(-0.139803609072 0.0255931664652 0)
(-0.139324390948 0.0429876721152 0)
(-0.138245613956 0.0604547705006 0)
(-0.136803413469 0.0777336950781 0)
(-0.13501514065 0.0947916227092 0)
(-0.132893939381 0.111581732948 0)
(-0.130454929788 0.128060228032 0)
(-0.127715201175 0.14418597272 0)
(-0.124693490736 0.159920931825 0)
(-0.121409814289 0.175230444781 0)
(-0.117885012255 0.190083471379 0)
(-0.114140266141 0.20445274348 0)
(-0.110196543914 0.218314842006 0)
(-0.106074038661 0.231650150037 0)
(-0.101791567359 0.244442688835 0)
(-0.0973660137549 0.256679809444 0)
(-0.0928117958427 0.268351744989 0)
(-0.0881404561526 0.279451034941 0)
(-0.0833603551805 0.289971840981 0)
(-0.0784765574312 0.299909208755 0)
(-0.0734908631054 0.309258309046 0)
(-0.0684020395326 0.318013735185 0)
(-0.0632061606437 0.326168876991 0)
(-0.0578970737449 0.333715428203 0)
(-0.0524668797522 0.340643001928 0)
(-0.0469064529722 0.346938866157 0)
(-0.0412059169307 0.352587738498 0)
(-0.0353551519524 0.357571600999 0)
(-0.0293443358007 0.361869622534 0)
(-0.0231644767713 0.365458016361 0)
(-0.0168081468504 0.36830991828 0)
(-0.0102703443093 0.37039548464 0)
(-0.00354941068471 0.371682082401 0)
(0.00335192656069 0.372134699164 0)
(0.0104255012998 0.371716581392 0)
(0.0176566715982 0.370390161917 0)