/*--------------------------------*- C++ -*----------------------------------*\
| =========                 |                                                 |
| \\      /  F ield         | OpenFOAM: The Open Source CFD Toolbox           |
|  \\    /   O peration     | Version:  v1906                                 |
|   \\  /    A nd           | Web:      www.OpenFOAM.com                      |
|    \\/     M anipulation  |                                                 |
\*---------------------------------------------------------------------------*/
FoamFile
{
    version     2.0;
    format      ascii;
    class       volVectorField;
    location    "965";
    object      U;
}
// * * * * * * * * * * * * * * * * * * * * * * * * * * * * * * * * * * * * * //

dimensions      [0 1 -1 0 0 0 0];


internalField   nonuniform List<vector> 
9216
(
(0.00156715661582 -0.00156861337873 0)
(0.00160717247397 -0.00488840385889 6.54268007548e-28)
(0.00159585792096 -0.00821635893379 1.08831096432e-31)
(0.00157271526315 -0.0115243245889 0)
(0.00154161799362 -0.0147736247142 0)
(0.00150333236938 -0.0179502957072 0)
(0.00145875643476 -0.0210402829625 0)
(0.00140863319101 -0.0240312832675 0)
(0.00135381302578 -0.0269125963216 0)
(0.00129502269382 -0.0296752132521 0)
(0.0012330967261 -0.0323117158197 0)
(0.00116868792383 -0.0348162848566 0)
(0.00110254701939 -0.0371845268709 0)
(0.00103519400153 -0.0394134175606 0)
(0.00096725145993 -0.0415010845847 0)
(0.000899079476182 -0.0434467204185 0)
(0.000831160143782 -0.0452503558711 0)
(0.00076369542235 -0.0469127707789 0)
(0.00069703752369 -0.0484352843873 0)
(0.000631249823279 -0.0498196815785 0)
(0.000566577702046 -0.0510680337283 0)
(0.000502973533257 -0.052182646429 0)
(0.000440602072537 -0.0531659163476 0)
(0.000379332909037 -0.0540202999824 0)
(0.000319275056929 -0.0547482058239 0)
(0.000260241480603 -0.0553519794853 0)
(0.000202306857323 -0.0558338299494 0)
(0.000145250846179 -0.0561958270615 0)
(8.91330807919e-05 -0.056439860391 0)
(3.3722714109e-05 -0.0565676449259 0)
(-2.09179577716e-05 -0.0565807175638 0)
(-7.50115521042e-05 -0.0564804465862 0)
(-0.000128474721326 -0.0562680520487 0)
(-0.000181491733962 -0.0559446443656 0)
(-0.000233937239088 -0.0555112816329 0)
(-0.000285937538935 -0.0549690019073 0)
(-0.000337308720619 -0.0543189241069 0)
(-0.000388098694858 -0.0535622814399 0)
(-0.000438054977096 -0.0527005516799 0)
(-0.000487139121499 -0.0517354812524 0)
(-0.00053503596112 -0.0506692275152 0)
(-0.00058163266002 -0.049504352545 0)
(-0.000626580335973 -0.048243953017 0)
(-0.000669727904505 -0.0468915986304 0)
(-0.000710743520703 -0.0454514251055 0)
(-0.000749489638358 -0.0439280008625 0)
(-0.000785705905458 -0.0423263772761 0)
(-0.000819306634702 -0.0406518985988 0)
(-0.000850120403912 -0.0389102446802 0)
(-0.000878088951051 -0.0371072528957 0)
(-0.000903057670952 -0.0352490436493 0)
(-0.000924863419932 -0.0333419746718 0)
(-0.000943184288026 -0.0313929653711 0)
(-0.000957536598784 -0.0294096850441 0)
(-0.000967231985768 -0.0274010928452 0)
(-0.000971362659418 -0.0253777631942 0)
(-0.000968947690378 -0.0233523364988 0)
(-0.000958994463426 -0.0213395178023 0)
(-0.000940805841492 -0.0193558674613 0)
(-0.000913968231347 -0.0174190959531 0)
(-0.000878525612483 -0.0155473720668 0)
(-0.000834974649037 -0.0137582758222 0)
(-0.00078425230614 -0.0120679140867 0)
(-0.000727776341897 -0.0104898780542 0)
(-0.000667292844965 -0.00903425735913 0)
(-0.000603651999709 -0.00770840159493 0)
(-0.000538067824304 -0.0065177750885 0)
(-0.000472235791913 -0.00546481635313 0)
(-0.000408330947401 -0.00454782763864 0)
(-0.000348178805365 -0.00376075821081 0)
(-0.00029324097121 -0.00309408220775 0)
(-0.000244231173853 -0.00253598558568 0)
(-0.000201575816566 -0.00207351993678 0)
(-0.000165181414021 -0.001693405176 0)
(-0.000134849178414 -0.00138268711882 0)
(-0.000109902777865 -0.00112932731397 0)
(-8.95689805928e-05 -0.000922822279242 0)
(-7.26972864784e-05 -0.000754760482407 0)
(-5.84111801019e-05 -0.00061895301093 0)
(-4.61551100749e-05 -0.000510765595967 0)
(-3.5993025003e-05 -0.00042593234349 0)
(-2.77155135095e-05 -0.000360263158608 0)
(-2.11052089546e-05 -0.000309985215129 0)
(-1.56711530953e-05 -0.000272281981404 0)
(-1.07733648403e-05 -0.000241456132338 0)
(-8.40094302371e-06 -0.000224233014679 0)
(-7.47677312047e-06 -0.000207991914541 0)
(-6.15300756714e-06 -0.000194469985987 0)
(-6.41907142611e-06 -0.00018362017788 0)
(-7.5807659574e-06 -0.000169821244573 0)
(-8.27738213279e-06 -0.000154962045244 0)
(-9.3429672714e-06 -0.000137351271881 0)
(-1.17749984017e-05 -0.000115900882674 0)
(-1.44740222084e-05 -9.04073869089e-05 0)
(-1.73786194526e-05 -5.74549012146e-05 0)
(-1.94241965051e-05 -1.89939219649e-05 0)
(0.00490031731877 -0.00162511654845 0)
(0.00516291848309 -0.00520264852245 0)
(0.00512370045395 -0.00874889240104 -6.72762333933e-28)
(0.00504774046661 -0.0122762134694 0)
(0.00494673309938 -0.0157376189314 0)
(0.00482316837275 -0.0191199992135 0)
(0.00467949476243 -0.0224087303737 0)
(0.00451810957055 -0.0255908027146 0)
(0.00434163277105 -0.0286548888789 0)
(0.00415251596722 -0.0315914556734 0)
(0.00395333094922 -0.034392716585 0)
(0.00374631425949 -0.0370525930743 0)
(0.00353374267689 -0.0395665686644 0)
(0.00331743893667 -0.0419315755461 0)
(0.00309924133983 -0.0441457992867 0)
(0.00288047243599 -0.046208535623 0)
(0.00266249522724 -0.048119986 0)
(0.00244613927315 -0.0498811176665 0)
(0.00223233065485 -0.051493477109 0)
(0.00202147017314 -0.0529590723962 0)
(0.00181412430216 -0.0542802178658 0)
(0.00161035321715 -0.0554594454441 0)
(0.00141045130522 -0.0564993840484 0)
(0.00121422755494 -0.0574026988551 0)
(0.00102178637004 -0.05817200329 0)
(0.000832766598965 -0.0588098218892 0)
(0.000647154086083 -0.0593185315404 0)
(0.000464489173349 -0.0597003436653 0)
(0.000284702854105 -0.0599572721031 0)
(0.00010730447225 -0.0600911324997 0)
(-6.77688600603e-05 -0.0601035340205 0)
(-0.000240973423434 -0.0599959002747 0)
(-0.000412302226354 -0.0597694992948 0)
(-0.000582099735915 -0.0594254644418 0)
(-0.000750220886751 -0.058964855215 0)
(-0.000916828276255 -0.0583887098269 0)
(-0.0010815773208 -0.0576981305356 0)
(-0.00124438789745 -0.056894351658 0)
(-0.00140467764979 -0.0559788475738 0)
(-0.00156210039687 -0.054953403009 0)
(-0.00171584895181 -0.0538202259319 0)
(-0.00186535270988 -0.0525819967541 0)
(-0.00200966832588 -0.0512419582389 0)
(-0.00214812288429 -0.0498039133404 0)
(-0.00227980019618 -0.0482722620984 0)
(-0.00240410253765 -0.0466519243726 0)
(-0.00252032205386 -0.0449483121208 0)
(-0.00262807525897 -0.0431671861371 0)
(-0.00272692905394 -0.0413145986555 0)
(-0.00281665088307 -0.0393967557793 0)
(-0.00289685424067 -0.0374200353975 0)
(-0.00296703042989 -0.0353909982708 0)
(-0.00302622353058 -0.0333166392474 0)
(-0.00307290937914 -0.0312046970841 0)
(-0.00310485102638 -0.0290642193445 0)
(-0.00311908372659 -0.0269061046039 0)
(-0.0031122770445 -0.0247436656292 0)
(-0.00308112050528 -0.0225927938909 0)
(-0.0030231960872 -0.020471662871 0)
(-0.00293719143541 -0.018399841142 0)
(-0.00282306824363 -0.0163975637374 0)
(-0.00268260346839 -0.0144844275448 0)
(-0.00251860256286 -0.0126784960841 0)
(-0.00233608177366 -0.0109950237106 0)
(-0.00214116450462 -0.00944411953183 0)
(-0.00193602634268 -0.00803302218807 0)
(-0.00172408546705 -0.00676840939092 0)
(-0.00151111687541 -0.00565388413097 0)
(-0.00130442329347 -0.00468778972538 0)
(-0.00111031222352 -0.00386295493261 0)
(-0.000933400650182 -0.00316809686756 0)
(-0.00077603647272 -0.00258958169421 0)
(-0.000639320943045 -0.00211281432741 0)
(-0.000523059014949 -0.00172304060463 0)
(-0.000426438894733 -0.00140590024019 0)
(-0.000347430134986 -0.00114801466 0)
(-0.000283275738368 -0.0009377454941 0)
(-0.000230180665979 -0.000766072721385 0)
(-0.000184854847386 -0.000627072837313 0)
(-0.00014572582078 -0.000516827186045 0)
(-0.000113270139996 -0.00043118208797 0)
(-8.70807029479e-05 -0.000365398766293 0)
(-6.63090390848e-05 -0.000315217229034 0)
(-4.98916568492e-05 -0.000277088202034 0)
(-3.66653371534e-05 -0.000246731900583 0)
(-2.78503072946e-05 -0.000219104988121 0)
(-2.23922781974e-05 -0.000203404680692 0)
(-1.82921813164e-05 -0.000191139769045 0)
(-1.85555763012e-05 -0.000178144474705 0)
(-2.16200435755e-05 -0.000167938250274 0)
(-2.45299871086e-05 -0.000155949747793 0)
(-2.88837577082e-05 -0.000137278267298 0)
(-3.50852194242e-05 -0.000114917475548 0)
(-4.66374000126e-05 -9.3265970968e-05 0)
(-6.01448325553e-05 -6.10139467573e-05 0)
(-5.67154081604e-05 -1.73478820115e-05 0)
(0.00829282279367 -0.00164638254237 0)
(0.00874168624967 -0.0052677960628 0)
(0.00866774870517 -0.0088507405401 -6.7181089522e-28)
(0.00853596611966 -0.0124172638932 0)
(0.00836282971351 -0.0159157007829 0)
(0.00815187719189 -0.0193322774343 0)
(0.00790694078678 -0.0226519260018 0)
(0.00763214409383 -0.0258614017208 0)
(0.00733185839328 -0.028949286191 0)
(0.00701040050528 -0.0319060603487 0)
(0.00667205035484 -0.0347240620603 0)
(0.00632076599494 -0.0373974078751 0)
(0.00596028105564 -0.0399218478269 0)
(0.00559384554347 -0.0422946109452 0)
(0.00522440428281 -0.0445142116508 0)
(0.00485435818005 -0.0465802702992 0)
(0.00448581058692 -0.0484933152714 0)
(0.0041203343374 -0.05025461419 0)
(0.00375926750329 -0.0518659991904 0)
(0.00340347112766 -0.0533297275692 0)
(0.00305365770121 -0.0546483416002 0)
(0.00271012925558 -0.0558245636163 0)
(0.00237312679457 -0.0568611913853 0)
(0.00204254477789 -0.0577610249855 0)
(0.00171829477589 -0.0585267932032 0)
(0.0013999976723 -0.0591611065763 0)
(0.0010873582518 -0.0596664099354 0)
(0.000779840221016 -0.0600449569442 0)
(0.000477050205879 -0.0602987852819 0)
(0.000178402284575 -0.0604297102457 0)
(-0.000116489439472 -0.0604393233725 0)
(-0.000408149229998 -0.0603290052783 0)
(-0.000696843246912 -0.060099947831 0)
(-0.000982916360155 -0.0597531924824 0)
(-0.00126639591137 -0.0592896800842 0)
(-0.00154732338479 -0.0587103132304 0)
(-0.0018253722897 -0.0580160362319 0)
(-0.00210017747817 -0.0572079206165 0)
(-0.00237098230803 -0.0562872683981 0)
(-0.00263697249294 -0.0552557092661 0)
(-0.00289697178065 -0.0541153088359 0)
(-0.00314978707768 -0.0528686521813 0)
(-0.00339396772909 -0.0515189251807 0)
(-0.00362815879713 -0.0500699471032 0)
(-0.00385092198639 -0.0485261856242 0)
(-0.00406106979528 -0.0468927026288 0)
(-0.00425751444316 -0.0451750779094 0)
(-0.00443951943452 -0.0433792639807 0)
(-0.00460650621005 -0.0415114445809 0)
(-0.00475812967195 -0.0395778667827 0)
(-0.00489396139124 -0.0375847534817 0)
(-0.00501331469324 -0.0355382858508 0)
(-0.00511479466632 -0.0334447932212 0)
(-0.00519595729794 -0.031311135201 0)
(-0.00525296720907 -0.0291453807397 0)
(-0.00528057329857 -0.0269576626448 0)
(-0.00527254398327 -0.0247610580474 0)
(-0.00522269609154 -0.0225720987155 0)
(-0.00512639011999 -0.0204103762275 0)
(-0.00498143554163 -0.0182970872966 0)
(-0.00478713712303 -0.0162546285775 0)
(-0.00454721157456 -0.0143045262488 0)
(-0.00426541175348 -0.0124671379446 0)
(-0.00395183430354 -0.0107602244133 0)
(-0.00362001764457 -0.00919165268695 0)
(-0.00327026905517 -0.00776651418658 0)
(-0.00290669458159 -0.00649422113552 0)
(-0.00254021899335 -0.00538126089065 0)
(-0.00218494280061 -0.00442636682046 0)
(-0.00185287654891 -0.0036204190362 0)
(-0.00155181830501 -0.00294932727579 0)
(-0.00128545592104 -0.00239701429756 0)
(-0.00105500827133 -0.00194717363772 0)
(-0.000860146429325 -0.00158377817417 0)
(-0.000699345683872 -0.00129122619181 0)
(-0.00056934643503 -0.0010547792841 0)
(-0.000464993148908 -0.000861513238231 0)
(-0.000379018550288 -0.00070196309925 0)
(-0.0003042548021 -0.000571790074629 0)
(-0.0002383715172 -0.000469852089873 0)
(-0.000183989218096 -0.000392787907712 0)
(-0.00014085301359 -0.00033481696674 0)
(-0.000106953899162 -0.000291271704756 0)
(-8.08151934074e-05 -0.000258812758215 0)
(-6.15083617475e-05 -0.000233143158824 0)
(-4.7373677872e-05 -0.000210528243759 0)
(-3.82049786742e-05 -0.000201519034139 0)
(-3.14610134565e-05 -0.000184438307306 0)
(-2.90324642328e-05 -0.00016960657005 0)
(-3.24981574731e-05 -0.000162200950505 0)
(-4.20754224296e-05 -0.000155943145583 0)
(-4.86167976876e-05 -0.000129588426629 0)
(-6.10671908444e-05 -0.000110370607337 0)
(-7.70403235032e-05 -8.26902895525e-05 0)
(-9.10916021139e-05 -5.06093402804e-05 0)
(-9.21001271867e-05 -1.60890865749e-05 0)
(0.0117506563735 -0.00167266767154 0)
(0.0123916017523 -0.00535008644066 0)
(0.0122849043607 -0.00898547748821 6.71721620486e-28)
(0.0120952369047 -0.0126032299923 0)
(0.0118463490213 -0.0161494518013 0)
(0.0115435376235 -0.0196095765231 0)
(0.0111923653671 -0.0229679442938 0)
(0.0107988787277 -0.0262109703908 0)
(0.0103694017546 -0.0293271137842 0)
(0.00991024527449 -0.0323069157119 0)
(0.00942755372222 -0.0351429346866 0)
(0.008927077975 -0.0378296276679 0)
(0.00841411432124 -0.0403631782829 0)
(0.00789335204598 -0.0427413020537 0)
(0.00736890261775 -0.0449630304965 0)
(0.00684420932033 -0.0470284995287 0)
(0.00632214528575 -0.0489387390964 0)
(0.00580495981526 -0.0506954833943 0)
(0.00529441798493 -0.0523009935189 0)
(0.00479175881828 -0.0537579066342 0)
(0.00429785381267 -0.0550691002741 0)
(0.00381315961547 -0.0562375822949 0)
(0.00333788137545 -0.0572663939316 0)
(0.00287191181605 -0.0581585344773 0)
(0.00241499350861 -0.0589168956544 0)
(0.00196664339701 -0.059544213226 0)
(0.00152631366137 -0.0600430255624 0)
(0.00109330553847 -0.0604156461456 0)
(0.000666931505999 -0.0606641421177 0)
(0.000246424117939 -0.0607903248916 0)
(-0.000168896879755 -0.0607957500441 0)
(-0.00057971536993 -0.0606817265706 0)
(-0.000986545351629 -0.0604493376313 0)
(-0.00138981870859 -0.0600994797764 0)
(-0.00178970853285 -0.0596329110448 0)
(-0.00218621499324 -0.059050317788 0)
(-0.00257899561424 -0.0583523976586 0)
(-0.00296746001098 -0.0575399571675 0)
(-0.00335062411317 -0.0566140242456 0)
(-0.00372723098164 -0.0555759673271 0)
(-0.00409565214618 -0.0544276195341 0)
(-0.00445405370904 -0.0531713917352 0)
(-0.00480036410369 -0.0518103705757 0)
(-0.00513249229105 -0.0503483781323 0)
(-0.00544835799413 -0.0487899895667 0)
(-0.00574613363342 -0.0471404838994 0)
(-0.00602428465876 -0.045405733508 0)
(-0.00628174990778 -0.0435920185081 0)
(-0.00651787639373 -0.0417057931248 0)
(-0.00673239824528 -0.0397534245904 0)
(-0.00692511101981 -0.0377409606164 0)
(-0.00709551068189 -0.0356740073995 0)
(-0.00724212684902 -0.0335578153071 0)
(-0.00736186141052 -0.0313976969377 0)
(-0.00744928964262 -0.0291999094104 0)
(-0.00749638136586 -0.0269729747987 0)
(-0.00749303166074 -0.0247292973322 0)
(-0.00742879637823 -0.0224863879687 0)
(-0.00729600685057 -0.0202664437229 0)
(-0.00709190544832 -0.018093010715 0)
(-0.00681351425644 -0.015992265101 0)
(-0.00646883293531 -0.0139882852971 0)
(-0.00605871165903 -0.0121055448099 0)
(-0.00560160045735 -0.0103691092364 0)
(-0.00512929933139 -0.0087793170119 0)
(-0.00462897561414 -0.00733398735034 0)
(-0.00410206902905 -0.0060504261639 0)
(-0.00356757952802 -0.00494223585935 0)
(-0.00305088168214 -0.0040088424177 0)
(-0.0025719355877 -0.00323676061868 0)
(-0.00214173835171 -0.00260636686544 0)
(-0.00176407427327 -0.0020974257838 0)
(-0.00143931894655 -0.00169130107605 0)
(-0.00116676049123 -0.00137046988289 0)
(-0.000944446134247 -0.00111761684537 0)
(-0.000768112944634 -0.000915709901459 0)
(-0.000629968554619 -0.00074908338189 0)
(-0.000517278937179 -0.00060668940043 0)
(-0.00041521793329 -0.000487530199737 0)
(-0.000320829363893 -0.000397467112088 0)
(-0.000244445752189 -0.00033441400193 0)
(-0.000185885456422 -0.000288994526492 0)
(-0.000140191026882 -0.000255718794136 0)
(-0.000105259788955 -0.000232081484843 0)
(-7.9899290314e-05 -0.000212564186321 0)
(-6.24397763401e-05 -0.000199590039024 0)
(-5.07317744777e-05 -0.000190704344448 0)
(-4.32709901224e-05 -0.000176831453256 0)
(-4.20931615479e-05 -0.000169093526849 0)
(-4.44769840162e-05 -0.000153679331234 0)
(-5.49318040099e-05 -0.000138926458089 0)
(-7.35671728306e-05 -0.000127981282 0)
(-8.55983472043e-05 -9.71035439557e-05 0)
(-0.00010416284685 -7.01686864754e-05 0)
(-0.000121666856841 -4.33270528051e-05 0)
(-0.000125412828317 -1.44338579887e-05 0)
(0.0152704000664 -0.00170785102885 0)
(0.016103222727 -0.00546125806377 0)
(0.0159615309537 -0.00916946254338 0)
(0.015710410332 -0.0128571342225 0)
(0.0153811532097 -0.0164682611101 0)
(0.0149810595835 -0.0199872834982 0)
(0.0145177182922 -0.0233977821942 0)
(0.0139993511715 -0.0266857322323 0)
(0.0134344885623 -0.0298394497247 0)
(0.0128316244338 -0.0328495946792 0)
(0.0121989514362 -0.0357090645198 0)
(0.0115441184044 -0.0384128236041 0)
(0.0108740876868 -0.0409576833476 0)
(0.0101950106121 -0.0433420574249 0)
(0.00951220083615 -0.0455657061952 0)
(0.00883010506198 -0.0476294883032 0)
(0.00815235875051 -0.0495351261582 0)
(0.0074818134489 -0.0512849954812 0)
(0.00682063567227 -0.0528819388026 0)
(0.00617035509736 -0.0543291070959 0)
(0.00553197606413 -0.0556298251666 0)
(0.00490602297674 -0.0567874818231 0)
(0.00429264712948 -0.0578054389262 0)
(0.00369165862563 -0.0586869592658 0)
(0.00310262269959 -0.0594351475727 0)
(0.00252487714995 -0.0600529049035 0)
(0.00195761995036 -0.0605428919447 0)
(0.00139991699477 -0.0609075021749 0)
(0.000850786719846 -0.0611488420789 0)
(0.000309205384702 -0.0612687196254 0)
(-0.000225804437367 -0.0612686436138 0)
(-0.000755164716437 -0.0611498286318 0)
(-0.00127964456977 -0.0609132138465 0)
(-0.00179984409271 -0.0605594998857 0)
(-0.00231609034327 -0.0600891959422 0)
(-0.00282841694006 -0.0595026891069 0)
(-0.0033364634811 -0.0588003331912 0)
(-0.00383946667636 -0.0579825582069 0)
(-0.00433618470925 -0.0570499996856 0)
(-0.00482492641603 -0.0560036430275 0)
(-0.00530353265861 -0.0548449769975 0)
(-0.00576947613049 -0.0535761437321 0)
(-0.00621993069804 -0.0522000721269 0)
(-0.00665196176862 -0.0507205729571 0)
(-0.00706268678014 -0.0491423775727 0)
(-0.00744952899531 -0.0474710938583 0)
(-0.00781040595247 -0.0457130682883 0)
(-0.00814393339333 -0.0438751352577 0)
(-0.00844948307107 -0.0419642740967 0)
(-0.0087271240031 -0.0399871807698 0)
(-0.00897730865151 -0.0379498403411 0)
(-0.00920029534751 -0.0358571684302 0)
(-0.00939523062584 -0.0337129006957 0)
(-0.00955896319383 -0.0315199428906 0)
(-0.00968470219126 -0.0292814324564 0)
(-0.00976106879916 -0.027002822657 0)
(-0.00977235664769 -0.024694777378 0)
(-0.00970118752115 -0.0223762653645 0)
(-0.00953517881103 -0.0200745653739 0)
(-0.00927360358688 -0.0178155663931 0)
(-0.00890519837282 -0.0156324223827 0)
(-0.00845205531502 -0.0135504898378 0)
(-0.00789623905542 -0.0116005766357 0)
(-0.00727109911283 -0.00983139490157 0)
(-0.00666373360363 -0.00821952773926 0)
(-0.00601015980532 -0.00673970782865 0)
(-0.0053026412283 -0.00543318132564 0)
(-0.00457687731175 -0.0043303705419 0)
(-0.00387977505006 -0.00343096790671 0)
(-0.00324292569868 -0.00271147550561 0)
(-0.00267940903583 -0.00214162752335 0)
(-0.00218975078567 -0.00169472554604 0)
(-0.00177147277269 -0.0013499660114 0)
(-0.00142335224225 -0.00108899180035 0)
(-0.00114407649827 -0.00089264903358 0)
(-0.000929340054102 -0.000740359031203 0)
(-0.000769456717969 -0.000610726008698 0)
(-0.000642831703054 -0.000487250988058 0)
(-0.000516628481689 -0.000375372889931 0)
(-0.000386666531653 -0.000299106907656 0)
(-0.000287766687901 -0.00025786644282 0)
(-0.000217639194964 -0.000230581036645 0)
(-0.000162563455801 -0.000210659301362 0)
(-0.000120368162309 -0.000198438070222 0)
(-8.99145406772e-05 -0.000186877618085 0)
(-7.20093423225e-05 -0.000186070617655 0)
(-6.11166058926e-05 -0.000182350575023 0)
(-5.49429338718e-05 -0.00017342858073 0)
(-5.28565097601e-05 -0.000157388478827 0)
(-5.9083238744e-05 -0.000148384178034 0)
(-6.97626119434e-05 -0.000129266590041 0)
(-9.28234097098e-05 -0.000116030890982 0)
(-0.000118209343342 -9.48952431896e-05 0)
(-0.000131311818919 -6.31475847484e-05 0)
(-0.000144924117798 -3.76278076034e-05 0)
(-0.000148984659371 -1.25719194124e-05 0)
(0.018873348888 -0.00175289776076 0)
(0.0199005266184 -0.00560428991965 0)
(0.0197204421848 -0.00940674939505 0)
(0.019402748383 -0.0131844831747 0)
(0.0189866552067 -0.0168788533637 0)
(0.0184817839209 -0.0204730427207 0)
(0.0178981159766 -0.023949688516 0)
(0.0172464002696 -0.0272942410045 0)
(0.0165377060362 -0.0304948863079 0)
(0.0157829840926 -0.033542503316 0)
(0.0149927056013 -0.0364304956717 0)
(0.0141765727939 -0.0391545506208 0)
(0.013343326393 -0.0417123492962 0)
(0.0125006223654 -0.0441032559 0)
(0.0116549925285 -0.0463280065773 0)
(0.0108118492703 -0.048388415431 0)
(0.00997554783452 -0.0502871075703 0)
(0.00914946245592 -0.0520272861292 0)
(0.00833609535913 -0.0536125340845 0)
(0.00753717569983 -0.0550466507717 0)
(0.00675377548983 -0.0563335190083 0)
(0.00598640143167 -0.0574769996949 0)
(0.00523509728119 -0.0584808483787 0)
(0.00449951662181 -0.0593486504122 0)
(0.00377900651469 -0.0600837698334 0)
(0.00307266154902 -0.0606893096666 0)
(0.00237939299976 -0.0611680801965 0)
(0.00169797139073 -0.0615225744426 0)
(0.00102709006983 -0.0617549491854 0)
(0.000365406294315 -0.0618670114635 0)
(-0.00028839061487 -0.0618602155268 0)
(-0.000935530495441 -0.0617356618098 0)
(-0.00157708126052 -0.0614941116799 0)
(-0.00221388748357 -0.0611360195877 0)
(-0.00284647696186 -0.0606615770972 0)
(-0.00347498926343 -0.0600707831027 0)
(-0.0040990806853 -0.0593635383478 0)
(-0.00471786228705 -0.0585397679331 0)
(-0.0053298304324 -0.0575995719158 0)
(-0.00593285055528 -0.0565434014151 0)
(-0.00652415796584 -0.0553722534106 0)
(-0.00710043710555 -0.0540878717836 0)
(-0.00765794267835 -0.0526929358932 0)
(-0.00819271547265 -0.0511912113963 0)
(-0.00870084403045 -0.0495876313085 0)
(-0.00917880193355 -0.0478882747583 0)
(-0.00962378091874 -0.0461002066003 0)
(-0.0100340165211 -0.0442311611711 0)
(-0.0104089794525 -0.0422890459716 0)
(-0.0107494000097 -0.0402813089503 0)
(-0.0110569629512 -0.0382141871384 0)
(-0.0113335966206 -0.0360919808275 0)
(-0.0115802251817 -0.0339165307941 0)
(-0.0117948629154 -0.0316872123267 0)
(-0.0119701985945 -0.0294020551403 0)
(-0.0120910248862 -0.0270606659554 0)
(-0.0121332977733 -0.024669449715 0)
(-0.0120669827984 -0.0222492409819 0)
(-0.0118707949358 -0.0198388870449 0)
(-0.0115579152353 -0.0174630553189 0)
(-0.0110855699729 -0.0151707370081 0)
(-0.0105303401319 -0.0129793412559 0)
(-0.00979655537115 -0.0109245962749 0)
(-0.00894295208231 -0.00913659776758 0)
(-0.00824111005187 -0.0075182963636 0)
(-0.00744133090365 -0.00597276069638 0)
(-0.00652165519803 -0.00461697298037 0)
(-0.00556143544654 -0.00351917108492 0)
(-0.00465252171327 -0.00267465275192 0)
(-0.0038431594806 -0.00203610581016 0)
(-0.00314389848513 -0.00155286617227 0)
(-0.00254390051155 -0.00118917179317 0)
(-0.00203336622798 -0.000924629037792 0)
(-0.00161142517007 -0.00074284965883 0)
(-0.00127992129696 -0.000623423556121 0)
(-0.00103719631297 -0.000540945608644 0)
(-0.000876064667053 -0.000462464548245 0)
(-0.000762533611152 -0.000353789458067 0)
(-0.000616496571611 -0.000231343410513 0)
(-0.000426662448554 -0.00016859969816 0)
(-0.000304206485576 -0.00016538429072 0)
(-0.000232789597192 -0.000163790358797 0)
(-0.000171997207123 -0.00015844213847 0)
(-0.000124026977272 -0.000159250804838 0)
(-9.17355356978e-05 -0.000158093370265 0)
(-7.2347413574e-05 -0.000165311004041 0)
(-6.20601698687e-05 -0.000165120242185 0)
(-6.09643148776e-05 -0.000166249427139 0)
(-6.64197167985e-05 -0.000162294154174 0)
(-7.86100686051e-05 -0.000152908861584 0)
(-8.86024885298e-05 -0.000125572531302 0)
(-0.000109157116161 -0.000104291803767 0)
(-0.00014152514806 -8.83191476882e-05 0)
(-0.000159624420821 -6.17741852935e-05 0)
(-0.000169063466862 -3.57456948065e-05 0)
(-0.000173765322798 -1.19520251889e-05 0)
(0.0225812245888 -0.00180897659441 0)
(0.0238063708426 -0.00578248783729 0)
(0.023583283784 -0.00970239606145 6.6695599835e-28)
(0.0231921573324 -0.01359197904 0)
(0.0226806485471 -0.0173892575117 0)
(0.0220611400862 -0.0210758239075 0)
(0.0213464871445 -0.0246331661943 0)
(0.0205504366569 -0.0280461425871 0)
(0.0196870290195 -0.0313028664127 0)
(0.0187700332844 -0.0343945957294 0)
(0.0178124846835 -0.0373154765491 0)
(0.0168263353911 -0.0400622036669 0)
(0.0158222261307 -0.0426336347631 0)
(0.0148093630549 -0.0450303924127 0)
(0.013795490222 -0.0472544805526 0)
(0.0127869302203 -0.0493089343962 0)
(0.0117886798688 -0.0511975145062 0)
(0.0108045336063 -0.0529244496184 0)
(0.00983722701728 -0.0544942273435 0)
(0.00888857886333 -0.0559114288649 0)
(0.00795963227164 -0.0571806014438 0)
(0.00705077961083 -0.0583061621423 0)
(0.00616187862173 -0.0592923259433 0)
(0.00529234841787 -0.0601430523302 0)
(0.00444125740067 -0.0608620050308 0)
(0.00360739362378 -0.0614525208874 0)
(0.00278933219812 -0.0619175846544 0)
(0.00198549082354 -0.0622598077374 0)
(0.00119418942721 -0.0624814098837 0)
(0.000413704732081 -0.0625842027617 0)
(-0.000357663688361 -0.0625695828767 0)
(-0.00112152651412 -0.0624385215543 0)
(-0.00187931989159 -0.0621915730342 0)
(-0.00263221816647 -0.0618288976919 0)
(-0.00338102782344 -0.0613502997146 0)
(-0.00412608072203 -0.0607552946929 0)
(-0.00486711755662 -0.0600432079292 0)
(-0.00560318364295 -0.059213309503 0)
(-0.00633253482545 -0.0582649893204 0)
(-0.0070525825301 -0.0571979717301 0)
(-0.0077598826526 -0.0560125645047 0)
(-0.00845020188933 -0.0547099291761 0)
(-0.00911866797863 -0.0532923509852 0)
(-0.00976003078565 -0.0517634745442 0)
(-0.0103690275253 -0.0501284639896 0)
(-0.0109408488041 -0.0483940303956 0)
(-0.0114716615993 -0.0465682821776 0)
(-0.0119591313608 -0.0446603326975 0)
(-0.0124028391842 -0.0426796560315 0)
(-0.0128044919224 -0.0406351621795 0)
(-0.013167732018 -0.0385340342388 0)
(-0.0134974386821 -0.0363804272226 0)
(-0.0137981439599 -0.0341741627418 0)
(-0.0140713979724 -0.0319099112187 0)
(-0.0143115731422 -0.0295775886849 0)
(-0.0145001994589 -0.0271659159023 0)
(-0.0146010743985 -0.0246707300497 0)
(-0.0145587686458 -0.0221137585987 0)
(-0.0143288461491 -0.0195654909187 0)
(-0.0139870227472 -0.0170303335364 0)
(-0.013368794613 -0.0146048181233 0)
(-0.0127693635827 -0.0122613521258 0)
(-0.011794002583 -0.0100129434296 0)
(-0.010523591633 -0.00827530464392 0)
(-0.00987357199405 -0.0067147149615 0)
(-0.00895340153509 -0.00501544532161 0)
(-0.00775796524314 -0.00354734685151 0)
(-0.00648783325762 -0.00245439637262 0)
(-0.00533198017251 -0.00170453331444 0)
(-0.00435013097927 -0.0011929787851 0)
(-0.00352816256784 -0.000831232327537 0)
(-0.00282382522249 -0.00057336245553 0)
(-0.00221633692697 -0.000408213705136 0)
(-0.00171556384067 -0.000327972408261 0)
(-0.00133231074233 -0.000312299459668 0)
(-0.00107211686935 -0.000331614670253 0)
(-0.000943854292256 -0.000332313036168 0)
(-0.000907111513272 -0.00022521910943 0)
(-0.000745973188064 -3.87708810066e-05 0)
(-0.000415959126977 1.33953849678e-05 0)
(-0.000272381582545 -6.38898804832e-05 0)
(-0.000230661266788 -9.83270274936e-05 0)
(-0.000168686237082 -0.000101865228732 0)
(-0.000113072433984 -0.000117421472583 0)
(-8.68246405336e-05 -0.000130827876036 0)
(-6.33869939193e-05 -0.000144925341177 0)
(-5.81932266867e-05 -0.00015771957472 0)
(-5.91842539089e-05 -0.000162611504532 0)
(-7.40402127294e-05 -0.00016498821782 0)
(-9.30552207625e-05 -0.000149702732017 0)
(-0.000117000388399 -0.000133645287977 0)
(-0.000132516731023 -0.000102894295104 0)
(-0.000157259468393 -8.07945422761e-05 0)
(-0.00018400687992 -6.07359089295e-05 0)
(-0.000192549512896 -3.50030928944e-05 0)
(-0.00019762526246 -1.17173704434e-05 0)
(0.0264183388739 -0.00187744362218 0)
(0.0278459309873 -0.00600000800236 0)
(0.0275738372993 -0.0100630214936 -6.6685320099e-28)
(0.027100347977 -0.0140883833219 0)
(0.0264823035733 -0.0180099079751 0)
(0.0257354615677 -0.0218072044877 0)
(0.0248761964957 -0.0254603911205 0)
(0.0239218775305 -0.0289536981977 0)
(0.022890075168 -0.03227528869 0)
(0.0217978368902 -0.0354170466257 0)
(0.0206611099981 -0.0383741925269 0)
(0.0194943274662 -0.0411448081458 0)
(0.0183101552472 -0.0437293206343 0)
(0.0171193819153 -0.0461299908545 0)
(0.0159309260046 -0.0483504385118 0)
(0.0147519293018 -0.0503952249438 0)
(0.0135879087423 -0.0522695034064 0)
(0.0124429390494 -0.0539787382655 0)
(0.011319847582 -0.0555284881745 0)
(0.0102204039117 -0.0569242449248 0)
(0.00914549659752 -0.0581713177276 0)
(0.00809528911967 -0.0592747528696 0)
(0.00706935557238 -0.0602392791544 0)
(0.00606679383344 -0.0610692712743 0)
(0.00508632120206 -0.061768724329 0)
(0.0041263527998 -0.0623412346337 0)
(0.00318506972309 -0.0627899828287 0)
(0.00226047821973 -0.0631177171178 0)
(0.00135046782199 -0.0633267352524 0)
(0.000452869918794 -0.0634188641871 0)
(-0.000434475054533 -0.0633954464273 0)
(-0.00131364090371 -0.0632573173754 0)
(-0.00218652197323 -0.0630048026281 0)
(-0.00305472573651 -0.0626377267374 0)
(-0.00391944500013 -0.06215543878 0)
(-0.0047813170319 -0.0615568718593 0)
(-0.00564027077876 -0.0608406401753 0)
(-0.00649537518836 -0.0600051839796 0)
(-0.00734469891257 -0.059048969441 0)
(-0.00818520497726 -0.0579707477324 0)
(-0.009012701619 -0.0567698711062 0)
(-0.00982188344103 -0.0554466552886 0)
(-0.0106064904776 -0.0540027628074 0)
(-0.0113596184683 -0.0524415687936 0)
(-0.0120741940061 -0.0507684469974 0)
(-0.0127436149401 -0.0489909062989 0)
(-0.0133625197417 -0.0471184863812 0)
(-0.013927606441 -0.0451623356825 0)
(-0.0144383995726 -0.0431344030849 0)
(-0.0148977753498 -0.0410461978634 0)
(-0.0153121339515 -0.0389071293698 0)
(-0.0156908637314 -0.0367223874614 0)
(-0.016044864588 -0.0344904837686 0)
(-0.0163832762335 -0.0322006339561 0)
(-0.016707397593 -0.029830847864 0)
(-0.0169995713198 -0.0273501577296 0)
(-0.0172087451671 -0.0247280103635 0)
(-0.0172252595898 -0.0219770047437 0)
(-0.0169259086319 -0.0192670969589 0)
(-0.0166414776445 -0.016502813105 0)
(-0.0157055553892 -0.0139523766508 0)
(-0.0152971500561 -0.0114006022173 0)
(-0.0139791546724 -0.00867142718245 0)
(-0.0118074946937 -0.00719684560476 0)
(-0.0121485106877 -0.00584136761225 0)
(-0.0112155089905 -0.00369820699314 0)
(-0.00950284045612 -0.00195526684889 0)
(-0.00762062799758 -0.000867336603535 0)
(-0.00591560203402 -0.000266539250962 0)