/*--------------------------------*- C++ -*----------------------------------*\
| =========                 |                                                 |
| \\      /  F ield         | OpenFOAM: The Open Source CFD Toolbox           |
|  \\    /   O peration     | Version:  v1906                                 |
|   \\  /    A nd           | Web:      www.OpenFOAM.com                      |
|    \\/     M anipulation  |                                                 |
\*---------------------------------------------------------------------------*/
FoamFile
{
    version     2.0;
    format      ascii;
    class       volScalarField;
    location    "67";
    object      p;
}
// * * * * * * * * * * * * * * * * * * * * * * * * * * * * * * * * * * * * * //

dimensions      [0 2 -2 0 0 0 0];


internalField   nonuniform List<scalar> 
9216
(
303.03263848
303.118344516
303.314651869
303.604485851
303.989734308
304.468884849
305.040273678
305.701172882
306.449197355
307.28101233
308.193732745
309.183320338
310.246752228
311.379679631
312.578810809
313.839987595
315.160194767
316.535066731
317.961220841
319.433871097
320.950265758
322.505265456
324.095669033
325.717192945
327.367123973
329.040940479
330.735705825
332.446585857
334.171451157
335.905234382
337.645570096
339.38695398
341.127095285
342.862806733
344.591219451
346.306978811
348.007927781
349.68863325
351.347042127
352.97843432
354.580856464
356.149678226
357.682674366
359.17566204
360.627892502
362.035646519
363.39761007
364.710647529
365.974294956
367.185947523
368.345832643
369.452377108
370.506422445
371.507034788
372.455629143
373.352139692
374.198622249
374.995526386
375.745160947
376.448268549
377.107750183
377.725282742
378.304119238
378.846090393
379.354133264
379.829471324
380.27476189
380.692028979
381.084141918
381.452116623
381.798217221
382.123338576
382.429278435
382.71701156
382.988054285
383.242134625
383.48041951
383.703930969
383.914002679
384.109089584
384.287652204
384.449471945
384.597015102
384.73016028
384.847848906
384.951725626
385.044021253
385.122679497
385.185122392
385.232040363
385.265379532
385.288511244
385.304777937
385.315077216
385.320329647
385.322045847
302.947520809
303.033686658
303.224613252
303.514221614
303.900533315
304.381520468
304.955122101
305.618667237
306.369475261
307.20439971
308.120264498
309.113431352
310.180387323
311.317006681
312.519716594
313.784742334
315.108624423
316.487232713
317.916858016
319.393111365
320.91282971
322.471754114
324.065886547
325.691144662
327.344296161
329.021511186
330.719435266
332.433995532
334.162235123
335.8997997
337.643142032
339.388392627
341.132622422
342.872051873
344.603556372
346.322861281
348.026847693
349.710997898
351.372382216
353.00707459
354.612103113
356.183888522
357.719688431
359.215758896
360.670076451
362.080000389
363.443609033
364.758393988
366.023154746
367.23593949
368.396226133
369.503138686
370.556928867
371.557169043
372.504618431
373.400043458
374.245015455
375.040591255
375.788341736
376.489482833
377.146611593
377.761956458
378.338307841
378.878083138
379.383922549
379.8573286
380.300400679
380.715548072
381.105552225
381.472111838
381.816886697
382.140922198
382.44559116
382.732180136
383.002060973
383.254966643
383.491704145
383.713802038
383.92293201
384.117725222
384.296204082
384.456945364
384.602508891
384.734937724
384.853039677
384.956798539
385.047819302
385.12499979
385.187999857
385.235864006
385.268540961
385.291178863
385.307696463
385.317494626
385.322093309
385.323947023
302.751711689
302.844914031
303.037550745
303.329532516
303.719008067
304.203981226
304.782250825
305.451153714
306.207814174
307.049083904
307.971567423
308.971631661
310.045697136
311.189905023
312.400069862
313.672522276
315.003942719
316.390044479
317.827024654
319.310828291
320.837775164
322.403839445
324.005279275
325.637895747
327.298184186
328.982608733
330.687385156
332.408811761
334.143619241
335.888218523
337.638739727
339.391521753
341.143002591
342.889447579
344.627827592
346.354125716
348.06468641
349.75557176
351.423445819
353.064669659
354.67591935
356.253810025
357.794988733
359.296459837
360.755657594
362.16992868
363.537212187
364.855246774
366.122630582
367.337182564
368.498316395
369.60560666
370.658866571
371.657989074
372.60368247
373.496787109
374.33871483
375.130848155
375.874825559
376.572122899
377.224859066
377.835659222
378.407349364
378.942564432
379.443766403
379.912804203
380.351814209
380.763355845
381.149957217
381.513146133
381.854184342
382.175263872
382.477053286
382.761461475
383.029861339
383.280800235
383.515941212
383.736965723
383.943941801
384.136118052
384.312799433
384.472274412
384.616125747
384.747067023
384.864473913
384.967647923
385.054849194
385.129165411
385.19311383
385.241911148
385.273678644
385.296528645
385.312565659
385.321775567
385.3268399
385.329469497
302.460195426
302.556250741
302.751781289
303.047735982
303.44235471
303.933608279
304.519182885
305.19633042
305.962003334
306.81290335
307.745587463
308.756326153
309.84135427
310.996593609
312.218098009
313.50216173
314.84496953
316.242471629
317.690771956
319.185874142
320.724044747
322.301178029
323.913474752
325.557078405
327.227996143
328.922876453
330.638102054
332.370307516
334.115786903
335.870782953
337.631984087
339.395600828
341.157952344
342.915370885
344.664479227
346.401590991
348.122505981
349.823516932
351.501419202
353.152764407
354.773476495
356.359939857
357.909218597
359.41838784
360.884911776
362.305814058
363.678878972
365.001859773
366.272972135
367.490813173
368.653923781
369.761765221
370.814518193
371.811981456
372.754996608
373.64444881
374.481719021
375.268398407
376.006461489
376.697602828
377.343633133
377.947357995
378.511653964
379.039467979
379.533478896
379.99571926
380.428285387
380.833798655
381.214804848
381.572855134
381.909498322
382.226440274
382.524392188
382.80552433
383.070186771
383.317704925
383.550228032
383.769183226
383.974656126
384.165986985
384.340557959
384.495979645
384.636394039
384.765320439
384.881367014
384.982099829
385.066588773
385.139745343
385.200808146
385.248034309
385.282389759
385.305541063
385.320869696
385.330360688
385.335690159
385.338326865
302.068581544
302.167033565
302.366431546
302.667890984
303.0696387
303.569553736
304.16516286
304.853547527
305.631502138
306.495592006
307.442153828
308.467367141
309.567078767
310.737287187
311.974141472
313.273640695
314.631842261
316.044673892
317.508274092
319.018512373
320.571516891
322.163565749
323.790527451
325.448470474
327.133486715
328.842529902
330.572080879
332.318364757
334.078135252
335.847651545
337.623290608
339.401530434
341.178345912
342.950021631
344.7134443
346.464661663
348.199739806
349.915074632
351.606298434
353.269546873
354.902207663
356.50100942
358.062302906
359.583030911
361.05967153
362.489368956
363.870385757
365.2000988
366.476456373
367.698063897
368.863659938
369.972934782
371.025059352
372.020056102
372.959420657
373.843907901
374.674942279
375.454346419
376.184245175
376.866497824
377.503129472
378.09699277
378.650990074
379.168647056
379.652848581
380.105614243
380.529324662
380.926866649
381.300480797
381.651474159
381.981686446
382.293091331
382.586566789
382.862875284
383.122011505
383.364721518
383.594091048
383.81063467
384.013533314
384.202448547
384.374315332
384.52722297
384.666004313
384.792589649
384.905287048
385.002157332
385.083488796
385.153665817
385.214081818
385.260804138
385.294641487
385.318404751
385.33403919
385.343620328
385.349013315
385.351783416
301.574601466
301.675627219
301.87987873
302.188427751
302.599363203
303.110443046
303.718955322
304.421766218
305.215476701
306.096405591
307.060680044
308.104149506
309.222615311
310.411938478
311.668097482
312.987002116
314.364655176
315.796774701
317.279354177
318.808606631
320.38062418
321.991195321
323.636242012
325.312011253
327.014809597
328.741620292
330.489117387
332.253528482
334.031264388
335.818920385
337.612522843
339.408418139
341.20333056
342.99334329
344.775059698
346.544419677
348.296295887
350.027949795
351.735859253
353.415905015
355.065186053
356.68000185
358.256223963
359.790483446
361.280001489
362.721605971
364.113136273
365.451373233
366.734279486
367.960879413
369.129562165
370.240029828
371.291210033
372.283337828
373.218256661
374.096145811
374.919138714
375.688889303
376.407987021
377.078977031
377.70269298
378.282847594
378.823147331
379.327877544
379.799672287
380.240918859
380.653781879
381.041110489
381.405379534
381.747709784
382.07038746
382.374744533
382.661520099
382.93110612
383.183917492
383.422637916
383.649174905
383.86155178
384.060408141
384.246695425
384.416456875
384.566886736
384.701327437
384.823537786
384.933271128
385.026798056
385.107832544
385.178132291
385.235386574
385.277868997
385.311363775
385.336054383
385.351663194
385.362581387
385.368441108
385.37152374
300.975618187
301.079663873
301.289867081
301.607226564
302.029601027
302.554544269
303.179058658
303.899705127
304.712836907
305.614481423
306.600468578
307.666313015
308.80764834
310.020347509
311.299979056
312.642285504
314.04325615
315.498662599
317.004402706
318.556550718
320.151267106
321.784046673
323.450586038
325.147662781
326.872100494
328.620674929
330.389789764
332.175905763
333.975070994
335.783849653
337.599035208
339.416827594
341.233713448
343.045474856
344.848690545
346.638873833
348.411317199
350.163753796
351.89248497
353.59359592
355.262804224
356.896228482
358.4907711
360.042867101
361.548223394
363.003817477
364.407587965
365.756456057
367.048313014
368.280997847
369.45318552
370.564839609
371.61475791
372.603422173
373.532048548
374.401485436
375.214353455
375.972806286
376.678057911
377.331043362
377.936843676
378.500722486
379.025195215
379.515870048
379.97318312
380.400376913
380.800529778
381.176586219
381.529192593
381.860856333
382.1743363
382.46985003
382.748535552
383.011109419
383.257977007
383.491759089
383.713014851
383.92050955
384.116817095
384.300285673
384.464107473
384.610869447
384.742323494
384.860577265
384.967041004
385.059191265
385.138960186
385.206727804
385.260723569
385.302668292
385.335854451
385.360451578
385.376425276
385.387991022
385.394338826
385.397503516
300.26851
300.376153976
300.593556347
300.921629653
301.357857702
301.89962072
302.543557005
303.28578704
304.122294129
305.048840847
306.060730586
307.153283281
308.321940125
309.562192376
310.869502343
312.239565918
313.668075747
315.150792631
316.683603127
318.262583992
319.883486123
321.5419061
323.233699301
324.95599621
326.705866738
328.479699668
330.274032114
332.084945606
333.908931474
335.742962165
337.583431592
339.42668897
341.268678463
343.105856014
344.933839018
346.748018598
348.545694759
350.323714608
352.077064334
353.801897693
355.494824131
357.151495182
358.768200854
360.340517266
361.864588888
363.337776118
364.756882899
366.118409393
367.419910432
368.660043744
369.836843446
370.949546229
371.997692856
372.981747722
373.902678965
374.762039855
375.563357818
376.303085633
376.985587858
377.61842779
378.206189232
378.752223814
379.259751975
379.732852776
380.173379083
380.58478195
380.970231649
381.331559164
381.670674553
381.990827909
382.292694509
382.577771056
382.84747115
383.102282628
383.342522557
383.56967229
383.78463532
383.98739606
384.180242732
384.358378923
384.517807044
384.660747728
384.78796964
384.904197345
385.007605761
385.098134345
385.175930554
385.240695558
385.292890138
385.33539538
385.367527503
385.392344912
385.40955963
385.419851318
385.427247986
385.430412868
299.449489166
299.561434143
299.787453825
300.128358895
300.581258179
301.143096036
301.810162915
302.578089462
303.442333303
304.398234113
305.440688517
306.564618599
307.765061387
309.037355884
310.376851694
311.778952695
313.239224341
314.753362519
316.317218343
317.926807904
319.577501591
321.265014279
322.98599365
324.737404189
326.516191296
328.318829029
330.14146822
331.980651873
333.833337765
335.696109977
337.565551664
339.437362115
341.30825182
343.173964795
345.029724561
346.872977521
348.700425859
350.507129221
352.288869953
354.042398428
355.76350819
357.446851074
359.088456259
360.684878771
362.232190946
363.725648364
365.16198706
366.538715704
367.852365639
369.10079869
370.282454018
371.396680588
372.442502378
373.421103969
374.33333601
375.178878637
375.957399945
376.67219371
377.334370783
377.94693914
378.513658281
379.038597906
379.525570075
379.978244434
380.398258205
380.791007617
381.158762133
381.503998228
381.828452088
382.134335209
382.423972554
382.697735731
382.956748291
383.203081322
383.435619494
383.655846854
383.864089636
384.062116285
384.251098683
384.42331568
384.577866045
384.715854916
384.840238987
384.953123079
385.053613345
385.142672186
385.218910414
385.281882769
385.333190338
385.373955081
385.406408265
385.431211826
385.449038201
385.458639425
385.467300766
385.470327555
298.513991709
298.631114991
298.867429223
299.223578131
299.69631789
300.282013406
300.976419021
301.774570936
302.671330612
303.661430332
304.739372091
305.899561618
307.136774954
308.445891778
309.822143431
311.260719382
312.757053702
314.306772864
315.905771288
317.549626347
319.233675032
320.95394408
322.707785279
324.492014256
326.303264348
328.13776365
329.992133201
331.863423588
333.748156341
335.643237333
337.544919086
339.448798662
341.351477027
343.248883755
345.137481548
347.014441855
348.874768789
350.714281722
352.529377499
354.315805329
356.068403566
357.782338575
359.45395968
361.078792248
362.651877403
364.168965387
365.62619614
367.020314874
368.347606029
369.605844665
370.793761859
371.909673584
372.952873673
373.925548417
374.822052338
375.642816834
376.396993613
377.089646447
377.728855749
378.316850019
378.858943613
379.35907785
379.820606417
380.247881041
380.645541094
381.016815837
381.365080313
381.691984964
382.000032136
382.29078999
382.566098453
382.827876177
383.076843254
383.312984719
383.536282563
383.748997614
383.950965652
384.144318456
384.327632118
384.494113052
384.642350312
384.776167441
384.898504905
385.008087456
385.107019719
385.194694682
385.268327177
385.328718514
385.378343674
385.418752581
385.452261289
385.478170984
385.495314065
385.505526015
385.51426706
385.517758818
297.456678481
297.579983517
297.828557844
298.202836883
298.69904637
299.312891076
300.03942361
300.87293858
301.807608265
302.837345978
303.956111804
305.157790637
306.436829766
307.787844714
309.205641328
310.685264296
312.222029978
313.811502637
315.449613215
317.131235155
318.852232673
320.609504257
322.39983163
324.220242195
326.066934587
327.936639213
329.826500213
331.733298063
333.653292488
335.583361343
337.520622059
339.459933154
341.398134988
343.332013632
345.257716411
347.171429581
349.068797059
350.946467212
352.798834787
354.62149575
356.410409386
358.160659991
359.866197108
361.522544067
363.125893674
364.670273754
366.151689759
367.566111065
368.909944958
370.180199311
371.375000727
372.492387485
373.533429534
374.492207292
375.363593158
376.160447578
376.890917113
377.557778726
378.169371514
378.72780601
379.239580902
379.708333698
380.1408474
380.540983118
380.912393073
381.259451776
381.586045202
381.893062559
382.182541178
382.456514328
382.719172821
382.967807001
383.204022883
383.429956252
383.644883171
383.850257871
384.046288001
384.233373922
384.408960234
384.568611112
384.711671109
384.842676978
384.962366693
385.069891349
385.16773549
385.252228938
385.322549291
385.381419222
385.431006792
385.471777392
385.505170799
385.531389142
385.549837004
385.560923365
385.568794841
385.573229157
296.271237732
296.401890722
296.665010053
297.060801912
297.584761079
298.231752103
298.995923688
299.870636147
300.849170934
301.924626152
303.090159069
304.339134901
305.665473381
307.063551811
308.527838817
310.053194164
311.634821983
313.268268173
314.949124721
316.672541105
318.434245662
320.231896011
322.062459613
323.922037598
325.807429486
327.715972644
329.644553586
331.58959589
333.547964496
335.517280809
337.492693314
339.470685735
341.448553714
343.42258217
345.388922811
347.343581541
349.28328505
351.202467198
353.096420355
354.96119046
356.791691214
358.581805355
360.325733157
362.019493191
363.656882094
365.232731405
366.742088949
368.180427568
369.543446072
370.827674005
372.030270421
373.1505785
374.183011181
375.117591829
375.965210967
376.739789469
377.441942242
378.077997702
378.654107639
379.176872897
379.652249453
380.086501014
380.485466171
380.854042947
381.195867776
381.517389094
381.819376117
382.103869095
382.372984807
382.632093074
382.87858656
383.11337513
383.3389972
383.554414408
383.759889807
383.957421932
384.145969018
384.326062564
384.493974113
384.64752764
384.787198778
384.916144761
385.032886995
385.138254884
385.233554812
385.314399542
385.383314673
385.442259608
385.491920061
385.532457905
385.565867318
385.591461329
385.611061885
385.624038388
385.630566352
385.635399927
294.949773016
295.089249627
295.36989309
295.791252248
296.348069225
297.034102766
297.842343806
298.764975696
299.794158371
300.92200638
302.140838141
303.443340735
304.822901998
306.273551934
307.789478485
309.365372537
310.996387495
312.678051177
314.405148817
316.173889109
317.980515222
319.822062827
321.69578464
323.597945413
325.525428362
327.475905621
329.445828932
331.432192695
333.432545433
335.443379778
337.460671896
339.481067922
341.50211811
343.519924762
345.530721593
347.531519751
349.516907284
351.482276721
353.423916959
355.335364877
357.211455515
359.047334787
360.835542435
362.570597597
364.247430103
365.859458352
367.401333058
368.867556847
370.253302211
371.553956753
372.766119376
373.887275123
374.899208639
375.809981026
376.637267805
377.384418643
378.052036849
378.648548047
379.18312823
379.663826703
380.097026834
380.490128404
380.851286261
381.183926472
381.493336405
381.785296604
382.06043105
382.321090952
382.571531922
382.81123059
383.041688094
383.263471802
383.475384382
383.680293628
383.878501748
384.069561666
384.251584931
384.423016762
384.582972474
384.733258083
384.871097736
384.995721276
385.108396311
385.212400298
385.304730164
385.384241734
385.452628454
385.510731842
385.559190651
385.599416955
385.633082882
385.658975428
385.678422026
385.693719054
385.698570567
385.703807176
293.483127189
293.633190847
293.934862615
294.386958412
294.982788785
295.714911054
296.57481
297.553189956
298.640782764
299.828534066
301.107888685
302.470688781
303.909754789
305.418755048
306.991636043
308.622946234
310.307678959
312.04148608
313.819162271
315.636813642
317.491807886
319.380785592
321.300608834
323.248205706
325.221123554
327.216097095
329.230343403
331.261562334
333.306405045
335.361596138
337.423633542
339.49022625
341.557983558
343.623180481
345.683395365
347.733493537
349.769107597
351.786666688
353.779775951
355.742982691
357.671830625
359.558429728
361.396421603
363.179235103
364.900326042
366.554118139
368.133622118
369.632657014
371.045323757
372.366180557
373.59177733
374.698573285
375.688756762
376.583060627
377.384758128
378.096428925
378.721504036
379.270258256
379.754659647
380.183774501
380.567388952
380.915322202
381.234386743
381.525990432
381.801168537
382.060438731
382.305498576
382.54192138
382.769792988
382.989787938
383.206369714
383.413428282
383.613868415
383.809946704
384.001728683
384.18545048
384.358684121
384.523442588
384.679293978
384.825132165
384.958239055
385.07981475
385.190962048
385.293258041
385.384458809
385.462849844
385.529903324
385.585960828
385.632785207
385.672878644
385.706310812
385.732393287
385.752858134
385.768120847
385.773189949
385.778525383
291.860575748
292.023479894
292.350268951
292.839260048
293.481895387
294.268601864
295.189210479
296.232576162
297.387484396
298.643706244
299.991458796
301.421914907
302.927159882
304.50054433
306.135878719
307.827371817
309.570338811
311.360178367
313.192306752
315.062622475
316.968952071
318.90839124
320.877615026
322.873914674
324.894521789
326.936736583
328.998637152
331.076955782
333.168385401
335.270972134
337.381559517
339.4974122
341.615445826
343.732401327
345.844849664
347.948550762
350.040280081
352.113763525
354.163732791
356.185897347
358.172277605
360.116153416
362.010170214
363.847098258
365.619414391
367.320151379
368.943690652
370.481166414
371.926525332
373.275249745
374.497539879
375.588205165
376.57130309
377.443229852
378.209634705
378.882198348
379.455112159
379.944437401
380.3658215
380.734247522
381.06160432
381.356894495
381.626860706
381.876867623
382.112818145
382.332918603
382.548408286
382.758602918
382.963988771
383.169310374
383.368447209
383.561403759
383.752403401
383.939981104
384.124457744
384.300583167
384.468740034
384.628658871
384.779879866
384.921655513
385.052329822
385.171114975
385.280577257
385.383071769
385.472668051
385.549058739
385.613430088
385.666672949
385.713360856
385.754002683
385.786459317
385.812201393
385.832137936
385.847271599
385.855378669
385.859459452
290.068780869
290.247290494
290.604859857
291.138239251
291.837114066
292.689040492
293.681227745
294.800486546
296.033185371
297.367477601
298.792398529
300.298415685
301.876867377
303.520826831
305.223932979
306.980653925
308.786172764
310.635942741
312.525921137
314.452650795
316.413726828
318.406185006
320.42725398
322.474887745
324.546107519
326.638530061
328.750232546
330.877639199
333.018949872
335.171793564
337.333559156
339.501580013
341.67308483
343.84491241
346.013638268
348.176555593
350.327938368
352.462601796
354.57652082
356.662417443
358.713295294
360.721380275
362.678665313
364.576705981
366.406939441
368.163232179
369.836495349
371.418928009
372.904894846
374.271259726
375.490159924
376.583785689
377.557628943
378.39500448
379.117415602
379.745560133
380.251840311
380.666915889
381.010970837
381.306741177
381.56815455
381.806559996
382.026249358
382.228390984
382.416885992
382.598519649
382.782013765
382.966217842
383.154872449
383.340472666
383.523274614
383.706700337
383.888925707
384.068877332
384.24564835
384.418118871
384.582800007
384.737691189
384.884936203
385.023709572
385.151921373
385.268161949
385.379064467
385.480804163
385.568309102
385.642573174
385.702667685
385.755982609
385.803985985
385.842728443
385.872797005
385.897765852
385.917274606
385.93241121
385.942688605
385.945594724
288.091656549
288.289240898
288.68468459
289.272613829
290.039452885
290.969670466
292.046706243
293.25461521
294.577348534
296.000784162
297.512562012
299.102432806
300.761482899
302.482407251
304.258659265
306.085239219
307.95747478
309.870814813
311.821934169
313.808238359
315.82680012
317.875315171
319.951113955
322.052126431
324.176081205
326.320802935
328.484324501
330.664179223
332.857424089
335.063040111
337.278473625
339.501431629
341.729302542
343.959219136
346.189268054
348.414470282
350.630725262
352.832837461
355.015074614
357.172023108
359.294777216
361.375064939
363.403627464
365.37112554
367.268003632
369.085698061
370.816659748
372.451817382
373.981643835
375.365074763
376.601042684
377.694659164
378.660085829
379.440401461
380.098449643
380.697582653
381.121240537
381.435994857
381.685217897
381.89379648
382.082618605
382.255945189
382.417690182
382.568708128
382.702807655
382.843678719
382.999279554
383.165002266
383.331171511
383.499038632
383.672173373
383.847004621
384.021824805
384.195615034
384.367069743
384.535654944
384.696705746
384.84838283
384.991927174
385.128776749
385.255209086
385.373916289
385.486347527
385.585521318
385.670938998
385.74165241
385.800127774
385.855074528
385.899729323
385.934801615
385.963654335
385.987835706
386.007824193
386.021980149
386.033607092
386.03580363
285.909080656
286.130754759
286.573152424
287.228454935
288.078551155
289.103465915
290.281750241
291.593669761
293.020374013
294.545398621
296.154854949
297.83754408
299.584572719
301.388515935
303.243355144
305.144240152
307.086975907
309.067580878
311.083015958
313.131428612
315.210010358
317.316861421
319.449582876
321.606253836
323.785025909
325.984116788
328.201886133
330.43521524
332.683017604
334.943611081
337.215042569
339.495294205
341.782147881
344.074444407
346.368097172
348.659934402
350.945841917
353.220907276
355.479096739
357.713291943
359.916419602
362.077646995
364.186777703
366.232644781
368.204626078
370.092860829
371.889651872
373.588306421
375.155507275
376.574216315
377.84579795
378.923235755
379.904784212
380.587513427
381.160705102
381.876453509
382.143430241
382.273108706
382.367243466
382.45980763
382.559550915
382.670116963
382.785922396
382.895093513
382.957054666
383.059839785
383.19643652
383.341802116
383.487820025
383.647388199
383.813085281
383.981273778
384.150192233
384.319024253
384.48601005
384.651162891
384.810688951
384.962603892
385.104544747
385.241811953
385.369941034
385.489858337
385.599024088
385.695833454
385.778682926
385.846048889
385.904320974
385.957340744
385.9975766
386.031400539
386.059860616
386.083151248
386.101982164
386.115909605
386.12769431
386.129338182
283.49617196
283.748644877
284.250531843
284.989991548
285.942934914
287.083140316
288.383257088
289.817809399
291.364680239
293.005077675
294.723660906
296.508534084
298.351054322
300.243910554
302.181947101
304.161017222
306.177566702
308.22858485
310.31131611
312.424081062
314.565022585
316.732146986
318.924097132
321.138042615
323.373362974
325.628439747
327.901730385
330.191440385
332.495121098
334.812536196
337.141748126
339.481254596
341.830609956
344.186691715
346.547359512
348.909626073
351.27007765
353.623727847
355.964719662
358.285531137
360.576933155
362.8295182
365.029691117
367.164446071
369.220659683
371.187495191
373.058918844
374.813325625
376.428245907
377.921638044
379.249241245
380.277741548
381.50667778
381.905842334
381.939663856
382.053645933
382.218160628
382.342225286
382.444217255
382.542799581
382.646081879
382.756687405
382.871620358
382.986431037
383.095300027
383.207459895
383.352263778
383.487498595
383.619961076
383.776836778
383.9382259
384.101543415
384.265255022
384.431710798
384.599919457
384.767450808
384.930409434
385.079178296
385.219343616
385.359347659
385.48881388
385.607862718
385.715966311
385.811347186
385.891703138
385.955668779
386.015562257
386.065918936
386.104019279
386.136033665
386.16246092
386.183674962
386.199487186
386.213715575
386.22361674
386.226099734
280.821608171
281.113950908
281.69239145
282.53890028
283.620582656
284.902305177
286.349230849
287.929058557
289.615059385
291.386097901
293.225768
295.122048409
297.066897562
299.054374067
301.079814434
303.140336477
305.233284064
307.356893472
309.509480005
311.688601052
313.893483612
316.12260864
318.374757858
320.648360196
322.941572875
325.254211986
327.584827418
329.931166319
332.292809667
334.668532492
337.056854622
339.458394252
341.870739189
344.292982935
346.723314799
349.159534428
351.599025146
354.037158148
356.46802101
358.884333813
361.27584419
363.630177796
365.934455216
368.17040606
370.321257579
372.374714904
374.320118641
376.124411107
377.810236054
379.426107737
380.986651241
381.522814454
381.701975033
381.90602948
382.015963678
382.085204647
382.206224877
382.323564158
382.429051165
382.532879875
382.64352894
382.762141972
382.886331609
383.015736408
383.152498811
383.291651486
383.435181159
383.571184827
383.707881192
383.871730064
384.037533181
384.198101094
384.366741762
384.540419316
384.709357979
384.874433123
385.03786846
385.187388606
385.335025644
385.477102589
385.609203235
385.728725201
385.837282514
385.932470498
386.011454531
386.075941313
386.137241165
386.18364097
386.219374279
386.248514776
386.271620567
386.289547497
386.302656461
386.314981266
386.323143265
386.327076132
277.844437716
278.189659102
278.868570768
279.853424784
281.098407716
282.555968847
284.180719768
285.932510278
287.779403655
289.697743522
291.670676429
293.687094484
295.740186965
297.826016966
299.942158407
302.086706157
304.25866532
306.456494848
308.679814469
310.927535337
313.197630905
315.490032978
317.803952747
320.137313451
322.4900685
324.861590928
327.249959569
329.654990557
332.075498259
334.510768321
336.960018355
339.423135272
341.899687681
344.389484385
346.891442214
349.403959121
351.927209426
354.455415566
356.983599097
359.504970173
362.008578807
364.480202291
366.903247217
369.25459752
371.514333843
373.664495233
375.660990237
377.506047381
379.264993302
381.065724618
381.359256875
381.559630977
381.689654973
381.844010355
381.967194288
382.066621499
382.184548811
382.299899271
382.40709161
382.51681293
382.636437194
382.763496079
382.895978177
383.034007395
383.178273591
383.326159498
383.47824764
383.633408919
383.794939335
383.95889686
384.116362331
384.27444832
384.451908269
384.627571224
384.795049576
384.96767196
385.14229933
385.298261935
385.448921064
385.594432841
385.73278479
385.851892719
385.962228363
386.058924725
386.13895038
386.205535024
386.264770665
386.307134242
386.342380237
386.368080738
386.387081446
386.401699067
386.412071802
386.420555577
386.428241234
386.432834479
274.510593432
274.927856761
275.741598492
276.908476984
278.363462159
280.041561239
281.88339108
283.838974749
285.870871222
287.953755451
290.071357504
292.214948301
294.380889743
296.567681818
298.775748276
301.005233982
303.256977752
305.530819104
307.825924128
310.142438483
312.479473849
314.835808027
317.211831317
319.606753002
322.019520806
324.449972465
326.89786248
329.362322449
331.842413295
334.337609091
336.847779198
339.372806208
341.913820571
344.47180977
347.046852744
349.638936213
352.247915748
354.870716681
357.503010389
360.140484346
362.769778405
365.375171537
367.936959059
370.425522489
372.81351087
375.044916169
377.080575615
378.963722945
380.766135161
381.1345393
381.348393677
381.494056904
381.63141975
381.773512058
381.895270792
382.004792127
382.120874289
382.23637432
382.350641654
382.472963883
382.6059303
382.745536415
382.889890098
383.03910637
383.193232153
383.351105666
383.512887995
383.678254728
383.847646563
384.019109389
384.19203493
384.367527661
384.540448308
384.705169023
384.873133725
385.060203371
385.235075556
385.398593152
385.559745893
385.709536255
385.846520751
385.972274377