/*--------------------------------*- C++ -*----------------------------------*\
| =========                 |                                                 |
| \\      /  F ield         | OpenFOAM: The Open Source CFD Toolbox           |
|  \\    /   O peration     | Version:  v1906                                 |
|   \\  /    A nd           | Web:      www.OpenFOAM.com                      |
|    \\/     M anipulation  |                                                 |
\*---------------------------------------------------------------------------*/
FoamFile
{
    version     2.0;
    format      ascii;
    class       surfaceScalarField;
    location    "67";
    object      phia;
}
// * * * * * * * * * * * * * * * * * * * * * * * * * * * * * * * * * * * * * //

dimensions      [0 3 -1 0 0 0 0];
oriented        oriented;


internalField   nonuniform List<scalar> 
18240
(
0.000745203129739
-0.000729303185901
0.00140899189899
-0.000646196732967
0.00209592303364
-0.000674755076774
0.00278911983613
-0.000674881427466
0.0034683281571
-0.000668622223127
0.00414223018185
-0.00065534112514
0.00479296946722
-0.000641910604997
0.00543445737226
-0.000623135778652
0.00604736308037
-0.000605947194038
0.00664882322144
-0.000583724158772
0.00721804460167
-0.000564182883143
0.00777390995271
-0.00053907940353
0.00829443441026
-0.000517355896329
0.00880114886815
-0.000491139909643
0.00927135810423
-0.000468816930269
0.00972731067636
-0.000441776477696
0.0101459672389
-0.000418875445775
0.0105510570514
-0.000392426845914
0.0109201267706
-0.000370716609881
0.0112763390302
-0.000345093014627
0.0115974184246
-0.0003239298309
0.011904108435
-0.000297096606413
0.0121739687147
-0.00027369619221
0.0124294296168
-0.000247303901976
0.0126506325148
-0.000225795277369
0.0128581754708
-0.000200689156468
0.01303178781
-0.000178756640646
0.0131892418266
-0.000151755165199
0.0133113380803
-0.000127596767438
0.0134149350878
-9.88974761895e-05
0.0134836653043
-7.44415437865e-05
0.0135309434807
-4.34228905211e-05
0.0135370547148
-1.18991893594e-05
0.0135208041745
1.94087813781e-05
0.0134677651667
4.72736404906e-05
0.0133916206503
7.87428905582e-05
0.0132784679093
0.000107480437949
0.0131413227959
0.000139301600852
0.0129670563886
0.000168718614843
0.0127685209927
0.00020034166314
0.0125348933719
0.000228224477816
0.0122785094873
0.000257904719357
0.0119870971971
0.000286147198967
0.0116728590563
0.000315520274997
0.0113287626485
0.000338956188482
0.0109681955125
0.000361634907872
0.0105826760257
0.000380474948709
0.0101850658981
0.000398472790231
0.0097682017831
0.000411896149791
0.00934535064417
0.000423509004525
0.00891083537724
0.00042960363962
0.00847750877145
0.000433783657068
0.0080396562655
0.00043298950409
0.00760996001267
0.000429962176897
0.00718368339496
0.000421443075473
0.00677217152763
0.000411595873751
0.00636914340659
0.000398210816608
0.00598437154981
0.000384684022423
0.0056118254462
0.000367722135187
0.00526182015836
0.000349766998569
0.00492818168741
0.000328788170437
0.00461954002707
0.000308277070453
0.00432877447784
0.000285863748774
0.00406313398918
0.000265151571696
0.00381362246843
0.000244530184123
0.00358668186302
0.000226307360401
0.00337459915443
0.000206965577537
0.00318492049103
0.000188891568487
0.00300847465402
0.000171171472093
0.00284962729468
0.000157843408065
0.00269910355624
0.000145090028573
0.00256250582568
0.000135277588963
0.00243219261364
0.000124712430549
0.00231433200952
0.000116201231084
0.00220030774452
0.000108244279068
0.00209765658619
0.000100678886061
0.0020005368806
9.11310435006e-05
0.00191555475271
8.27092151939e-05
0.00183391543321
7.55280342759e-05
0.00175872344062
7.24951276753e-05
0.00167867709895
7.37582633277e-05
0.00160556010688
6.99891958635e-05
0.00154277213311
5.61543571889e-05
0.00148612050434
5.29148101258e-05
0.00141841756064
6.05952528316e-05
0.00135059216439
6.33080184029e-05
0.00129324152341
4.98019803002e-05
0.00125034525063
3.66992367726e-05
0.00118606933019
5.48122134196e-05
0.00108534586186
9.13686744271e-05
0.000964221451284
0.000108378534316
0.000828096918149
0.000122962272195
0.000653492303625
0.000159671192604
0.000436097461687
0.000200939829138
0.000196401843863
0.000221620542155
0.000187590537333
0.000668303868922
-0.00138300173355
0.00146325921919
-0.00142444861534
0.00222303159643
-0.00141951405432
0.00296881920403
-0.00140418161512
0.00369836993853
-0.00138397052626
0.00441559849432
-0.00135665147793
0.00511253798574
-0.00132578389836
0.00579339677631
-0.0012889724159
0.00644920197345
-0.00125008143087
0.00708564896502
-0.00120633641961
0.00769381086149
-0.00116223693824
0.00828138979267
-0.00111422045194
0.00883913928126
-0.00106665283356
0.00937378942481
-0.00101488455628
0.00987726216342
-0.000965507236048
0.0103584251936
-0.000913630692095
0.0108080588859
-0.000863359218663
0.0112351024066
-0.000811760816733
0.0116307597375
-0.000762755716748
0.0120030865758
-0.000711246394574
0.0123441980299
-0.000662819706055
0.0126649539163
-0.000613105914483
0.012956182935
-0.000563922783424
0.0132251936929
-0.00051283744516
0.0134633046579
-0.00046392956716
0.0136779246918
-0.000412930867371
0.0138622268713
-0.000363910803279
0.0140241516291
-0.000312219845972
0.01415683691
-0.000261787666591
0.0142655075998
-0.000206854579216
0.0143396652583
-0.000150589913916
0.014385917926
-8.95523973014e-05
0.0144002640733
-2.85802867022e-05
0.0143864836198
3.28686828227e-05
0.0143370856787
9.41093723245e-05
0.014257294872
0.000157889066821
0.0141421277674
0.000219947083256
0.013996396911
0.000284159274646
0.0138148205147
0.000347526307902
0.0136021213516
0.000412013594898
0.0133532748246
0.000474270798473
0.0130746046066
0.000535435344847
0.0127654955557
0.000592446670767
0.0124311189112
0.000648659344479
0.0120667695384
0.000700490508735
0.0116798448284
0.00074722466421
0.0112691761611
0.000788314682193
0.0108419969239
0.000824214162513
0.0103972029891
0.000853829346308
0.00994293785115
0.000876227609432
0.00948005650078
0.000889577036468
0.00901565192486
0.000896532447287
0.00855061781951
0.000895060085529
0.00809181850939
0.000886997458173
0.00763827664355
0.00087196072043
0.00719724456274
0.000850756642706
0.00676943939939
0.000822925290427
0.00636118575401
0.000790956152189
0.00596987117181
0.000755873860687
0.0055983726734
0.000719175944773
0.00524606027827
0.000677862326089
0.00491749725482
0.000634652079474
0.00461000394421
0.000590043358087
0.00432665780961
0.000546202125701
0.00406474180298
0.000503036375074
0.00382560295925
0.000463005947923
0.00360356893542
0.000425454550374
0.003398730237
0.000391110254411
0.00320717180723
0.000359030721866
0.00303283517588
0.000329345905154
0.00287432371949
0.000299679726847
0.00273135073326
0.000275152620153
0.00259879081529
0.000253080940814
0.00247677716124
0.000234828510732
0.00235828262753
0.000222305756162
0.00224639190751
0.00020886100898
0.00213480271038
0.000198013583468
0.00202276123754
0.000190786438196
0.0019143915017
0.000178941200769
0.00181579958559
0.00016688107376
0.00172643700317
0.000157860414635
0.00164148555771
0.000150384636849
0.00155533894398
0.000136745842606
0.00147501358795
0.000128196854869
0.00139937119594
0.000130379236439
0.00132440039751
0.000132635420309
0.00126673578022
0.000100829962758
0.00122329545275
7.32945102639e-05
0.00117475024168
9.52453750283e-05
0.00111019259508
0.000146066233862
0.00100694749761
0.000199464285679
0.000873317755866
0.000243753658941
0.00071328716553
0.000304966252074
0.000505921250602
0.000391121097213
0.000237431809151
0.000472492338242
0.000416931054692
0.000706860464858
-0.00207467498633
0.00148015418383
-0.00218156438893
0.00224320615867
-0.00216659757031
0.00299509832961
-0.00214006644111
0.00373272396331
-0.00210635534621
0.00445533993178
-0.00206400806895
0.00515879710858
-0.00201503828538
0.00584311733818
-0.00195912252151
0.00650445527931
-0.00189851777946
0.0071436704784
-0.00183273232849
0.00775662438782
-0.00176379402432
0.00834461116744
-0.00169091748273
0.00890450288293
-0.00161677159401
0.00944069201582
-0.00154141502258
0.00994836455655
-0.00146507804515
0.0104287962735
-0.00138606317506
0.0108808856486
-0.00130900224912
0.0113070551701
-0.00123155904375
0.0117044989806
-0.00115533548626
0.0120767898741
-0.00107870238377
0.0124207418923
-0.00100335974373
0.0127393045466
-0.000928232413018
0.0130316709431
-0.00085416032342
0.0132999945799
-0.000778941050906
0.0135423349694
-0.000705230520365
0.0137613919735
-0.000630795504209
0.0139530275168
-0.000555408580997
0.014117526731
-0.000476371005343
0.0142514942141
-0.000396334191083
0.0143589382051
-0.0003146167353
0.0144366282778
-0.000229407721719
0.0144865667303
-0.000140309199758
0.0145054918512
-4.90299206478e-05
0.01449221025
4.49683251226e-05
0.0144446699152
0.000139853302451
0.014363778381
0.000237345175357
0.0142475759511
0.00033418185552
0.0140984399802
0.000431701418133
0.0139147687853
0.000529131621384
0.0136980966924
0.000626990578106
0.0134478609726
0.000722389934292
0.0131682622351
0.000813263770739
0.0128576562547
0.000900896143587
0.0125200336318
0.000984455344345
0.0121547991707
0.00106352635172
0.0117650687554
0.00113507098096
0.011352154177
0.00119898030785
0.0109205721706
0.00125384202782
0.0104741750956
0.00129791582116
0.0100139742617
0.00133438957867
0.00954238136451
0.00135878432316
0.00906701803671
0.00136976525165
0.00859064550176
0.00136896795776
0.00811917313179
0.00135624524731
0.00765547299633
0.00133311370734
0.00720400677431
0.0012998991213
0.00676746438222
0.00125683130559
0.00635002621375
0.00120597399494
0.00595313419449
0.00115004019803
0.00557808061805
0.00109171504649
0.00522468572243
0.00102845373825
0.00489526504844
0.000961474117352
0.00459041778852
0.000892004568506
0.00431108854754
0.000822840002912
0.00405483680164
0.000756293720143
0.00382096066989
0.000694058691684
0.00360745869566
0.00063580817766
0.00341384870724
0.000581730951559
0.00323745655641
0.000532084413279
0.0030761328904
0.000487446711663
0.00292357640117
0.000448662165807
0.00278170826049
0.000413509463203
0.00264722965248
0.000383717737976
0.0025228947303
0.0003553791781
0.00241164920053
0.000329430558838
0.00230925286232
0.000307109635381
0.00221159143172
0.000291237560339
0.00211732393374
0.000280531665144
0.00201685130823
0.000274672465803
0.00190352899698
0.000275280478945
0.00178640489802
0.000269927320218
0.00168227759015
0.00024921138819
0.00158921786441
0.000224266477129
0.00150147099358
0.000210439991624
0.00142099290354
0.000204930282705
0.00135376501977
0.000193676092528
0.00127192553267
0.00017579268597
0.00117600133943
0.000162225972249
0.00111334994339
0.000149867145467
0.0010827186105
0.000166896599692
0.00098561733538
0.000284887457019
0.000830617573402
0.000385892886206
0.000662998191481
0.000458124741506
0.000456900692988
0.000581919119695
0.000226626330737
0.000687194688328
0.000635518537317
0.000724878040474
-0.00278398922986
0.00150028254224
-0.0029402051819
0.00226994885655
-0.00291995962531
0.0030295535437
-0.00288346859087
0.00377516304086
-0.00283632129871
0.00450460019295
-0.00277812734571
0.00521484144867
-0.00271066811482
0.00590475776733
-0.00263489534996
0.00657148921169
-0.00255196467639
0.00721382144773
-0.00246234855015
0.00782979231976
-0.00236801957751
0.0084194891532
-0.00226950040871
0.00898271079759
-0.00216991560005
0.00951887026517
-0.00206815358063
0.0100260794952
-0.00196392595072
0.0105066076007
-0.00185888398478
0.0109588737956
-0.00175460595679
0.0113841759445
-0.00165082228875
0.0117817772924
-0.00154789140676
0.0121534602335
-0.00144591183758
0.0124990710537
-0.00134540770771
0.0128187435324
-0.00124483779871
0.0131126246024
-0.00114577720076
0.0133832424011
-0.00104770288794
0.0136293128846
-0.000950138518282
0.0138495598085
-0.000850204159735
0.0140420888067
-0.000747680162016
0.0142089520988
-0.000643219355437
0.0143477007733
-0.00053554148567
0.014456117102
-0.000423654245815
0.0145347370957
-0.000309021153574
0.0145835021478
-0.000190165154428
0.0146015452467
-6.84492097178e-05
0.0145892167697
5.58805924542e-05
0.0145439803957
0.000183456574219
0.0144668254236
0.000312873126498
0.0143551640183
0.000444054406704
0.0142070620045
0.000578048314092
0.0140248768671
0.000709440821168
0.0138150551372
0.000834983800995
0.0135743018394
0.000961206655344
0.0132974152758
0.00108827110845
0.0129841246088
0.00121220640312
0.0126360399102
0.00133061370256
0.0122581407816
0.00143940390647
0.0118547869624
0.00153644949849
0.0114277882463
0.00162390357455
0.0109808462098
0.00169874784217
0.0105178007637
0.00175881672834
0.0100454745186
0.00180460171611
0.00956514261916
0.00183688971642
0.00907790930101
0.00185479379792
0.00858946052666
0.00185509962477
0.00810657760055
0.00183682730935
0.00763214627775
0.00180512637727
0.00717023764322
0.00175940521782
0.00672377018472
0.00170077585013
0.00629608035333
0.00163116549827
0.00589087064287
0.00155264682124
0.00551025688627
0.00146975206118
0.00515507200325
0.00138095825459
0.00482593091788
0.00128796723329
0.00452307771819
0.00119208436254
0.00424598241388
0.00109719155073
0.00399325060534
0.00100613757957
0.00376380771044
0.000920627149677
0.00355611869082
0.000840456059843
0.00336773723225
0.000767073988741
0.0031959936111
0.0007005956157
0.00304041753191
0.000639775894707
0.00289972093914
0.000585870903956
0.00277025169836
0.000539467807111
0.00264752060748
0.000502680918172
0.00253389201039
0.000465190577345
0.00243102104749
0.000428196063338
0.00233600029673
0.000397936897934
0.00224542267322
0.000377341372295
0.00215820585651
0.000363212973438
0.00207673392769
0.000351290745696
0.00200031911796
0.000346667895372
0.00191749585088
0.000347334881092
0.00181590295362
0.000345131268549
0.00170205603532
0.000332371580877
0.00158539107419
0.000321074839424
0.00147906924153
0.000305099977354
0.00137683758308
0.000289101610281
0.0012700672023
0.000275307442103
0.00117692724283
0.000247849664567
0.00106934665336
0.000249285118242
0.000949145950266
0.000278088182594
0.000886684006822
0.000336770032942
0.000754522398901
0.000505511619472
0.000557295270359
0.000642198628845
0.000385582230863
0.000739828312703
0.000201068215965
0.000856971733167
0.000829210146362
0.00074036665299
-0.00350832347913
0.00152621136315
-0.00370932626666
0.0023069475045
-0.00368384141691
0.00307731925818
-0.00363740012291
0.00383323798176
-0.00357618337614
0.00457200402559
-0.00350135035778
0.00529115717401
-0.00341486821382
0.00598830278497
-0.00331773873699
0.0066609835078
-0.00321107687342
0.00730809743245
-0.00309666649509
0.00792820653101
-0.00297616363011
0.00852171760253
-0.00285189446529
0.0090871528382
-0.00272511478747
0.00962313697257
-0.00259478793118
0.0101309075268
-0.00246324404435
0.0106109424621
-0.00233134677952
0.0110627788892
-0.00219974433496
0.0114875220028
-0.00206971261566
0.0118860186108
-0.00194135908937
0.0122579963507
-0.00181363299772
0.0126022628138
-0.00168616210925
0.0129219182048
-0.00156165588954
0.013218201864
-0.00143986915341
0.0134909670677
-0.0013188428609
0.0137382725963
-0.00119636523032
0.0139596842871
-0.0010709945691
0.0141546843774
-0.000942507054199
0.0143213412445
-0.000810051037257
0.0144604409572
-0.000675167444553
0.0145717274417
-0.000535717610937
0.0146546227618
-0.000392958345071
0.0147101873437
-0.000246937662834
0.0147347805881
-9.44411269434e-05
0.0147257549167
6.34133176998e-05
0.014682542133
0.000225047213796
0.0146045224477
0.000389226648377
0.0144964518089
0.000550372561589
0.0143603450188
0.000712391886501
0.0141888769377
0.000879082008126
0.0139750562086
0.00104698421671
0.0137204954181
0.00121389862555
0.0134296574067
0.00137725037879
0.0131052959325
0.0015346650863
0.0127523497086
0.00168166459919
0.0123689654147
0.00182084486213
0.0119553655097
0.001948104623
0.0115156510827
0.00206162444048
0.011053838706
0.00215854827459
0.0105751138483
0.00223547644479
0.0100831479071
0.00229447767049
0.00958419669232
0.0023336886385
0.00908350644278
0.00235329848276
0.00858232299436
0.00235402842344
0.00808520168672
0.00233165432376
0.00759675440098
0.00229120915125
0.00712159943406
0.0022321494198
0.0066638205966
0.00215609357625
0.00622624829607
0.00206624790196
0.00581432331476
0.00196203526537
0.00542921661925
0.00185230379636
0.00507182821223
0.0017357279234
0.00474402005862
0.00161311995883
0.00444484372251
0.0014885378772
0.00417115460927
0.00136810047187
0.00392291459556
0.00125153904526
0.00369764752213
0.0011429671202
0.00349217093723
0.00104295540602
0.00330814028518
0.000948013620574
0.00314273733449
0.0008628500572
0.00299297018944
0.000786243087299
0.00285533310983
0.000720140482967
0.00273022615699
0.000661029699297
0.0026194379648
0.000609812772181
0.00251799716398
0.000562747877664
0.00242260908008
0.000519533091338
0.00232692379077
0.000489368368297
0.00223136080358
0.000468502647767
0.00214342107033
0.000446580787971
0.00206268065343
0.000427183985327
0.00198455936537
0.000419800311616
0.00190086595395
0.000425638722018
0.00180587075404
0.00043454354498
0.00171945246998
0.000412792244645
0.00164778130401
0.000386605034335
0.00156463338776
0.000381490248343
0.00146612623906
0.000380257600404
0.00133986542607
0.00039387751465
0.00116331792531
0.000416540558903
0.00100303684336
0.00040141003872
0.000866818756462
0.000405185169861
0.000769550664929
0.000424382330545
0.000696062591123
0.000567440233676
0.000525877964984
0.000799206042613
0.000330329971681
0.000922747708296
0.000168332595889
0.00100621879845
0.000990858457787
0.000757005280533
-0.00424889462514
0.0015586091216
-0.00449326209652
0.00235425630227
-0.00446232088668
0.00313879915129
-0.00440499351747
0.00390791332354
-0.00432888213333
0.00465902293887
-0.00423653295554
0.00538882665737
-0.00412940220047
0.00609478852757
-0.00400909303883
0.00677513809079
-0.0038776233158
0.00742836091895
-0.00373686850185
0.00805343188545
-0.00358912219104
0.00865043476884
-0.00343763885439
0.00921746329351
-0.00328185046258
0.00975460076062
-0.00312251995711
0.0102628694314
-0.00296308375692
0.0107427654498
-0.00280369212358
0.0111950463045
-0.00264542505518
0.0116196629762
-0.00248856417383
0.0120161385279
-0.00233295597145
0.0123858715846
-0.00217924912435
0.0127304501542
-0.00202740938686
0.0130514753109
-0.00188001282403
0.0133495954834
-0.0017359903575
0.0136239523465
-0.0015917603686
0.0138717957762
-0.00144331952066
0.0140927889769
-0.00129155183642
0.0142877745858
-0.00113748467233
0.0144570469337
-0.000979664196578
0.0146006403598
-0.0008194193666
0.0147193824431
-0.000655373260064
0.014809514991
-0.000484226326159
0.0148673768738
-0.000306108750918
0.0148935466805
-0.000122056201169
0.0148886720497
6.67352160308e-05
0.0148531476232
0.000258944872928
0.0147880390799
0.00045264651435
0.0146865767235
0.000650106617371
0.0145451956483
0.000852013834339
0.0143649111498
0.00105759007043
0.0141440867194
0.00126601531175
0.0138854411115
0.00147074308079
0.0135933539591
0.00166752159274
0.0132649767737
0.00186121550564
0.0128976690468
0.00204712390731
0.0124976356385
0.0022190116537
0.0120700047797
0.00237384256108
0.0116185608358
0.00251114151547
0.011143804447
0.00263134322486
0.0106472291346
0.00273004851203
0.0101352151012
0.00280444310037
0.0096154706476
0.00285133427534
0.00909365616042
0.00287295960167
0.00857256575478
0.00287290508903
0.00805698400162
0.00284495918497
0.00755339208394
0.0027924675838
0.00706653621347
0.00271662819866
0.00659755743511
0.00262265419129
0.00615193871277
0.00250942629602
0.00573169909612
0.0023797887891
0.00534783370263
0.00223361915534
0.00500201432171
0.00207894631269
0.00467965271188
0.00193279830848
0.00438477096227
0.00178067435987
0.00411237642119
0.00163769138504
0.00386207103358
0.00149896140465
0.00363935619127
0.00136276087077
0.00343904684981
0.0012402363223
0.00325673750887
0.00112726419822
0.00309409326009
0.00102230040464
0.00295097709215
0.000926121589995
0.00282376332199
0.000843959959131
0.00270976475244
0.000771548376879
0.00260650306762
0.000709387571667
0.00250680671653
0.000658603008864
0.00240637160149
0.000615908612929
0.00231421192083
0.000577314744032
0.00223184506559
0.000546448733977
0.00215141856261
0.000522338696346
0.00206304089442
0.000510802698498
0.00197068553945
0.000507051470549
0.00189415517784
0.000496821336112
0.0018261281354
0.000496745659639
0.00173255645051
0.00050024932222
0.00163481232121
0.000477937689881
0.00153743109293
0.000472004955416
0.0014140419727
0.00049635977325
0.00129704614426
0.00050326914834
0.00119329933989
0.000512120488505
0.00105030946042
0.000535350248519
0.000871958204125
0.000574185531103
0.000682845641437
0.000604085238661
0.00058065783873
0.000659331842244
0.00049205980209
0.000876190006041
0.000311384672136
0.00109140842563
0.0001551255649
0.00115059849449
0.00113997253642
0.000776661128271
-0.0050085059326
0.0015978948106
-0.00529678788693
0.00241263399439
-0.00525917571476
0.00321483810992
-0.005189832871
0.00400073125671
-0.00509782082193
0.00476656263062
-0.00498602606573
0.00550886279665
-0.00485599930571
0.00622593933432
-0.0047112375676
0.00691552987299
-0.00455306857068
0.00757592996208
-0.00438402922066
0.00820721223194
-0.00420804781185
0.00880787908464
-0.00402693666055
0.0093767957352
-0.00384033251169
0.00991615312726
-0.00365246676096
0.0104254855938
-0.00346394327306
0.0109044796374
-0.0032752254121
0.0113542209498
-0.00308861072866
0.0117756193105
-0.00290436537844
0.0121700077197
-0.00272258195884
0.0125380348959
-0.00254337539516
0.0128831035783
-0.00236930945394
0.0132059141025
-0.00220039499222
0.0135046056056
-0.00203287683346
0.0137771824119
-0.00186314191939
0.0140242801495
-0.0016897302381
0.0142473914423
-0.00151445102666
0.0144461653311
-0.00133643824129
0.0146225162897
-0.00115654426336
0.0147736498789
-0.000971371390282
0.0148955107203
-0.000778292067763
0.0149884688167
-0.000578438305879
0.0150522723196
-0.000371309031189
0.0150876982216
-0.000159000839803
0.0150916559468
6.11891201967e-05
0.0150646786083
0.000284263746937
0.0150047672253
0.000510870733738
0.0149033163571
0.000749834481256
0.0147586414424
0.00099496340176
0.0145745427851
0.00123994545837
0.0143554318992
0.00148339125434
0.0140960835971
0.00172834067756
0.0137932922114
0.00196856788929
0.0134519838631
0.00220075619668
0.0130763890395
0.00242094272431
0.0126662384548
0.0026273549642
0.0122207657537
0.00281748590017
0.0117447506685
0.00298528891436
0.0112440203448
0.0031301697103
0.0107275127322
0.00324460207403
0.0101957355732
0.00333422103873
0.00965073191597
0.00339427721563
0.00910361026097
0.00341795925924
0.00855821301598
0.00341611004104
0.00802148065027
0.00337944572812
0.00749515874092
0.00331649028339
0.00698965219702
0.00321980901362
0.0065058606694
0.00310408879447
0.00605413109535
0.00295873154033
0.0056518252102
0.00277961178114
0.00527330392879
0.0026095688277
0.00492125296662
0.00242835792924
0.0045926950661
0.00225863685975
0.00429012088954
0.00208047981446
0.00401691650108
0.00190806026694
0.00377205100304
0.00174094373206
0.00354656732852
0.00158528759725
0.0033469730049
0.00143683677213
0.00317052378847
0.00130061864513
0.0030142782457
0.00117539681
0.00287373199084
0.00106342199868
0.00274995376428
0.000964396357533
0.00264279505787
0.000875250316835
0.00254572301713
0.000802841055802
0.00245492997828
0.000745587655171
0.00236692159815
0.000699912630393
0.00228578071293
0.000654247197636
0.00221214132909
0.000615623458956
0.00213809611802
0.000591763832732
0.00206897176816
0.000575048339501
0.0020041941807
0.000566652392176
0.00192724997096
0.000568182328444
0.0018486031334
0.000569428247116
0.00177349960542
0.000568985960447
0.00167266349649
0.000572066654901
0.00155651518529
0.000581119401835
0.00143936029349
0.000605990220335
0.00129540040117
0.000639319436787
0.00115715550162
0.000641953455039
0.00100186935097
0.000681587985495
0.000855264102341
0.000711580759559
0.000677649313715
0.000772078533632
0.000498486684211
0.000828906511411
0.000422247528945
0.000942128190841
0.000287464377547
0.0012150099775
0.000142401427713
0.00128483372809
0.00127663825326
0.000799776594369
-0.005790707103
0.00164537075422
-0.00612343803052
0.00248313274781
-0.00607860168137
0.00330663466682
-0.00599525471184
0.00411205765438
-0.00588577952185
0.00489521745235
-0.00575228895656
0.00565318150586
-0.00559781520568
0.00638372774375
-0.00542639586062
0.00708414358076
-0.00523900540669
0.00775336768828
-0.00503966917003
0.00839066668713
-0.00483278069232
0.00899450624227
-0.00461918198771
0.00956665630277
-0.0044019682549
0.0101067018376
-0.00418299424063
0.0106142356639
-0.00396304523909
0.0110912203644
-0.00374475553443
0.0115385145433
-0.00352949275828
0.0119574207275
-0.00331777323565
0.012349238625
-0.003109852422
0.012715939018
-0.00290634208789
0.0130604644474
-0.00271092606855
0.0133824944036
-0.00252021152989
0.0136794544509
-0.00232830806669
0.0139510230432
-0.0021337516916
0.0141998409863
-0.00193812616569
0.0144260116247
-0.00174063820315
0.0146313277447
-0.00154216605084
0.0148128402764
-0.00133878899435
0.0149674806759
-0.00112701416838
0.0150957584716
-0.000907785538161
0.015196058257
-0.000680115905843
0.0152701713879
-0.000446924707896
0.0153138304182
-0.000204242235682
0.0153282340685
4.51385773301e-05
0.0153109997754
0.000299823146476
0.0152510866695
0.000569082568957
0.0151497827014
0.000849442670888
0.0150114401889
0.00113160220169
0.0148322756454
0.00141742293311
0.0146067384324
0.0017072385353
0.014337432869
0.00199597025497
0.0140263382853
0.00227797429931
0.0136779783777
0.0025474250152
0.0132882908629
0.0028089127772
0.0128569036203
0.0030570056882
0.0123900312109
0.00328258566257
0.0118951757878
0.00347833723587
0.0113724951854
0.00365099281909
0.0108231390731
0.00379205583717
0.0102618752096
0.0038935218506
0.0096894041807
0.00396472029243
0.00911173354872
0.00399353144315
0.00853597646294
0.00398970780119
0.00796855274651
0.00394466516077
0.00741612068977
0.00386668522215
0.00688846208777
0.00374518505933
0.00640611331892
0.003584081848
0.00596238102028
0.00340003654906
0.00553722664206
0.00320224347082
0.00513766784725
0.0030065284121
0.00477351501581
0.00278983924233
0.00444353450665
0.00258588803516
0.0041504682846
0.00237075864896
0.0038843170968
0.00217136822806
0.0036503973162
0.00197196683253
0.00344553196222
0.00178719753347
0.0032623736217
0.00161697353191
0.00309877212607
0.00146113160089
0.00294847655519
0.00132251997529
0.00281993962099
0.00118871048306
0.00270387156189
0.00107712976924
0.00259587240954
0.000979788183755
0.00250355386903
0.000891568959366
0.00242045611036
0.000824917263833
0.00234486272965
0.000771509926542
0.00226879275081
0.000726079939851
0.00219466810086
0.000685267792968
0.0021237775501
0.000657991956344
0.00205154119945
0.000642404020608
0.0019727495532
0.000640177414483
0.00190199777056
0.000633260915869
0.00182283855056
0.000642475265912
0.00173687252914
0.000648456585157
0.00165296445544
0.000649204650538
0.00155878044071
0.000668031421751
0.00146032085179
0.00069679343805
0.00133909280436
0.000752258094004
0.00117024085967
0.000802011027954
0.000990785929758
0.0008520096034
0.000798642770958
0.000894396433207
0.00066287258236
0.000898448707552
0.00049694252522
0.000985280765173
0.000364528429847
0.00106497953185
0.000278108910701
0.00129091747159
0.000132034467123
0.00142047265674
0.00140348990927
0.000827403049497
-0.00659970260116
0.00170155936986
-0.00697851009647
0.00256688874115
-0.00692464369866
0.00341590319931
-0.00682559602407
0.00424491945114
-0.00669659711206
0.00504915885987
-0.00653904809032
0.00582526342575
-0.00635717350522
0.0065706696897
-0.00615594626775
0.00728304527169
-0.00593643119869
0.00796138778123
-0.00570410201764
0.00860497724966
-0.00546346915105
0.00921361830274
-0.00521605396583
0.00978764865239
-0.00496528640075
0.0103265189306
-0.00471231946234
0.010832321055
-0.00446035484416
0.0113063954406
-0.0042114787736
0.0117502037724
-0.00396694801189
0.0121652596507
-0.00372753477933
0.0125529675073
-0.00349316673808
0.0129173908955
-0.00326730633953
0.0132602589311
-0.00305110721928
0.0135794416966
-0.00283749038636
0.0138745670225
-0.00262216663999
0.014146918639
-0.00240545538857
0.0143979494082
-0.00218900161436
0.0146299733553
-0.00197296133994
0.014840131275
-0.00175298149624
0.0150252605715
-0.00152488334786
0.0151870306509
-0.00128998819877
0.015323799055
-0.00104594100182
0.015435457555
-0.000793296193183
0.015519593094
-0.000532667512076
0.0155766512311
-0.00026297155773
0.0156031291321
1.69683497426e-05
0.015588291813
0.000312947453899
0.0155320655229
0.000623618260629
0.015439386603
0.000940430759003
0.0153043390909
0.00126499583486
0.0151226066751
0.00159750536078
0.0148959828672
0.00193224559679
0.0146262915132
0.0022640396202
0.014311067375
0.00259158830301
0.0139459795807
0.00291087824617
0.0135367937789
0.00321645385549
0.0130884893289
0.00350362811599
0.0126014224861
0.00376794222679
0.0120740388581
0.0040039616504
0.011520296472
0.00420293284339
0.0109408005281
0.0043696916901
0.0103431033787
0.00448929386684
0.00973443524947
0.00457139035259
0.00911813614818
0.00460776720135
0.00850688393435
0.00459886099137
0.00790373796459
0.00454566754762
0.00732693244496
0.00444129309233
0.00679844681342
0.00427139948424
0.00629117153411
0.00408899649453
0.00580633947853
0.00388241417059
0.00536011094852
0.00364593953313
0.004951760294
0.00341225880778
0.00458468920966
0.00315423312364
0.00425740382867
0.00291041765077
0.00396812500928
0.00265723280312
0.00371972880393
0.0024169103671
0.00350128111961
0.0021874857432
0.00331114709959
0.00197437072755
0.00314469249363
0.00178039080674
0.00299804859578
0.00160467171009
0.00286986762594
0.00144752640101
0.00274742586781
0.00130791121458
0.00264426482277
0.00117694660807
0.00254955090418
0.00107108498595
0.0024598460828
0.000977731838224
0.00237938342182
0.000901605748245
0.00231072003335
0.000836232575483
0.00224605413226
0.000786483079809
0.00217685834149
0.000749993706564
0.00211156923474
0.000718640540873
0.0020504987968
0.000698569538209
0.00197801508191
0.000707256396534
0.00190305729455
0.000702371490872
0.00182678642786
0.000712417369514
0.00173215671083
0.000736431907613
0.00162710698345