/*--------------------------------*- C++ -*----------------------------------*\
| =========                 |                                                 |
| \\      /  F ield         | OpenFOAM: The Open Source CFD Toolbox           |
|  \\    /   O peration     | Version:  v1906                                 |
|   \\  /    A nd           | Web:      www.OpenFOAM.com                      |
|    \\/     M anipulation  |                                                 |
\*---------------------------------------------------------------------------*/
FoamFile
{
    version     2.0;
    format      ascii;
    class       volVectorField;
    location    "956";
    object      Ua;
}
// * * * * * * * * * * * * * * * * * * * * * * * * * * * * * * * * * * * * * //

dimensions      [0 1 -1 0 0 0 0];


internalField   nonuniform List<vector> 
9216
(
(-0.00667108994549 0.00667397069923 0)
(-0.00685804761044 0.0208138180666 2.37646020295e-27)
(-0.00684401952501 0.0350336785958 -4.61685950725e-31)
(-0.00679589039561 0.0492448532214 0)
(-0.00672860445002 0.0633102443383 0)
(-0.00664360221543 0.0771947353805 0)
(-0.00654242496529 0.090858951909 0)
(-0.00642597204305 0.104266475682 0)
(-0.00629531187827 0.117383181642 0)
(-0.00615126237948 0.130177438166 0)
(-0.0059949430302 0.14262003 0)
(-0.00582718290129 0.154684344018 0)
(-0.00564912811509 0.166346248677 0)
(-0.00546155691712 0.177584176302 0)
(-0.00526556215553 0.18837891768 0)
(-0.00506179351187 0.198713594298 0)
(-0.00485121254879 0.208573377433 0)
(-0.00463427480935 0.21794536609 0)
(-0.00441175043723 0.226818257762 0)
(-0.00418385920568 0.235182161606 0)
(-0.00395114864342 0.243028255228 0)
(-0.00371359363582 0.2503485675 0)
(-0.00347152079088 0.25713566174 0)
(-0.00322468449511 0.263382424814 0)
(-0.00297322471908 0.269081812171 0)
(-0.00271673027264 0.274226672505 0)
(-0.00245521483868 0.278809585464 0)
(-0.00218818012614 0.282822745056 0)
(-0.00191559530376 0.286257912144 0)
(-0.00163697495748 0.289106367066 0)
(-0.00135234160497 0.291359017943 0)
(-0.00106131768828 0.293006421212 0)
(-0.000764076074266 0.294038961997 0)
(-0.000460498310001 0.29444707072 0)
(-0.0001510380411 0.294221566388 0)
(0.000164069576144 0.293353881736 0)
(0.000484005898901 0.291836570225 0)
(0.000808092423135 0.289663575593 0)
(0.00113509529404 0.286830822729 0)
(0.00146386831213 0.283336478821 0)
(0.00179278553385 0.279181543224 0)
(0.00212029142423 0.27437002576 0)
(0.00244446958432 0.26890943848 0)
(0.0027634853449 0.262810839486 0)
(0.00307527342589 0.256089159476 0)
(0.00337785830677 0.248763135871 0)
(0.00366911381511 0.240855498533 0)
(0.00394695709834 0.232392944747 0)
(0.0042091123396 0.223406338062 0)
(0.00445320593201 0.213930983686 0)
(0.00467648255611 0.204007083926 0)
(0.00487588601416 0.193680539911 0)
(0.00504775100894 0.183003807542 0)
(0.00518803122898 0.172037087689 0)
(0.00529212152792 0.160849285763 0)
(0.00535538426712 0.149518711229 0)
(0.005373308986 0.138133145269 0)
(0.0053422266985 0.126788696302 0)
(0.00525971569318 0.115587995155 0)
(0.00512503170374 0.104636819732 0)
(0.00493962505371 0.0940406006928 0)
(0.00470729972907 0.0838990153336 0)
(0.00443379662698 0.0743019565387 0)
(0.00412647146093 0.0653252442577 0)
(0.00379280424215 0.0570292730272 0)
(0.00343934508698 0.0494604650756 0)
(0.00307734835657 0.0426479821193 0)
(0.0027201936717 0.0365944203678 0)
(0.00238043357107 0.0312747520096 0)
(0.00206605516602 0.0266419633081 0)
(0.00178174233635 0.0226363796924 0)
(0.00152822709667 0.0191929934492 0)
(0.0013052056431 0.0162470025486 0)
(0.00111020677136 0.0137367260875 0)
(0.000941042962442 0.011605707627 0)
(0.000794325156235 0.00980350602185 0)
(0.000668014337727 0.00828551727047 0)
(0.000559672690657 0.00701183013839 0)
(0.000468219719695 0.00594598069234 0)
(0.000391246744684 0.00505512809716 0)
(0.000326890200148 0.00431090036784 0)
(0.00027248054351 0.0036898300693 0)
(0.0002263199533 0.0031726766216 0)
(0.000184775916578 0.00274755080476 0)
(0.000142636297034 0.00237273421273 0)
(0.000123229766896 0.0021243635261 0)
(0.000114757115551 0.00188260473166 0)
(9.9049786283e-05 0.00166975423619 0)
(9.46091793105e-05 0.00149058019108 0)
(9.53543786172e-05 0.0013025323127 0)
(9.13258088592e-05 0.00112289962113 0)
(8.8022139658e-05 0.000943251095893 0)
(9.37639569245e-05 0.00076069825144 0)
(0.000102215367603 0.000572075860333 0)
(0.000113037914956 0.000353260383574 0)
(0.000119096932819 0.000114579571903 0)
(-0.0208445529567 0.00689780223626 0)
(-0.0220069489182 0.0221077522743 0)
(-0.0219336306184 0.0372300630273 -2.44275483054e-27)
(-0.0217479116458 0.0523559942285 0)
(-0.0214951526704 0.0673148375658 0)
(-0.0211803924217 0.0820772356083 0)
(-0.0208074195225 0.0966030256969 0)
(-0.0203795988942 0.110853971499 0)
(-0.0199007795403 0.124793942095 0)
(-0.0193746016136 0.138389319322 0)
(-0.0188052383345 0.151609104174 0)
(-0.0181964806545 0.16442505195 0)
(-0.0175525659559 0.17681164377 0)
(-0.0168771324792 0.188746090456 0)
(-0.0161741622042 0.200208192086 0)
(-0.0154468383453 0.211180227781 0)
(-0.0146986036626 0.22164672167 0)
(-0.0139319445153 0.231594240547 0)
(-0.0131495589197 0.241011094948 0)
(-0.0123530890821 0.24988707736 0)
(-0.0115443895572 0.258213136357 0)
(-0.0107242265092 0.265981095324 0)
(-0.00989362940535 0.27318334218 0)
(-0.00905257201893 0.279812569038 0)
(-0.00820138585701 0.285861516236 0)
(-0.00733943486009 0.291322766473 0)
(-0.00646656472368 0.29618857363 0)
(-0.005581785625 0.300450735519 0)
(-0.00468473257021 0.30410052831 0)
(-0.00377437462566 0.307128675705 0)
(-0.00285046286864 0.309525394779 0)
(-0.00191226761026 0.311280500968 0)
(-0.000959990172223 0.31238363196 0)
(6.39965886788e-06 0.31282437767 0)
(0.000985859715967 0.312592659457 0)
(0.0019773789885 0.311679036929 0)
(0.00297878310921 0.310075179855 0)
(0.00398775928315 0.307774262324 0)
(0.00500084273559 0.304771508075 0)
(0.00601435794167 0.301064598219 0)
(0.00702362705539 0.296654201748 0)
(0.00802381395349 0.291544303606 0)
(0.0090093609239 0.285742614496 0)
(0.00997469867119 0.279260738302 0)
(0.0109138562672 0.272114390012 0)
(0.0118209739718 0.264323398338 0)
(0.0126899635846 0.255911768592 0)
(0.0135147582613 0.246907659564 0)
(0.0142888686795 0.237343488113 0)
(0.0150053698605 0.227256173748 0)
(0.0156562654754 0.216687602822 0)
(0.0162323905752 0.205685459938 0)
(0.0167227303912 0.194304285146 0)
(0.0171147090779 0.18260688264 0)
(0.0173939795683 0.170665645729 0)
(0.017545728036 0.158563660183 0)
(0.0175554934275 0.146394968356 0)
(0.0174113984676 0.134263617297 0)
(0.0171054471721 0.122281451856 0)
(0.0166351482783 0.110564663219 0)
(0.0160047464977 0.0992297855573 0)
(0.0152270565473 0.0883869908291 0)
(0.0143202097586 0.0781352731146 0)
(0.0133092741107 0.0685567824054 0)
(0.0122172767626 0.0597147291804 0)
(0.011061905531 0.0516623158247 0)
(0.0098794275438 0.0444376543525 0)
(0.00871621485785 0.0380449233263 0)
(0.00761375923729 0.0324519242385 0)
(0.00659833907439 0.0276004753611 0)
(0.00568307113419 0.0234196034383 0)
(0.0048697423616 0.019835078493 0)
(0.00415556267531 0.016774796116 0)
(0.00353273290796 0.0141713749111 0)
(0.00299272148536 0.0119640089557 0)
(0.00252498252814 0.0100994033828 0)
(0.0021217765966 0.00853129587532 0)
(0.00177639682161 0.00721839473909 0)
(0.00148500305812 0.00612207562926 0)
(0.00124083036378 0.0052067049053 0)
(0.00103668065737 0.00444192774362 0)
(0.00086494454067 0.00380300678794 0)
(0.000720231613113 0.00326894512711 0)
(0.000595519218137 0.00282217447074 0)
(0.000482714452454 0.00243578661197 0)
(0.000400179672469 0.00207506250325 0)
(0.00034742891866 0.00182871616749 0)
(0.000299671421697 0.00161747536321 0)
(0.00027996950139 0.00141680062718 0)
(0.000279296058862 0.00125569050983 0)
(0.000273091627222 0.00109574369189 0)
(0.000270270682103 0.000910342738798 0)
(0.000278812036336 0.000726007214267 0)
(0.000325513402344 0.000566127818567 0)
(0.000383889238262 0.000359665610632 0)
(0.00034259826461 9.98677566403e-05 0)
(-0.0352248514479 0.00695307920771 0)
(-0.0372108094995 0.0222903718178 0)
(-0.0370602865473 0.0375046190456 -2.44612976415e-27)
(-0.0367407383827 0.052739901233 0)
(-0.0363146024896 0.0678059952488 0)
(-0.0357869918322 0.0826721510893 0)
(-0.0351627151234 0.0972972275784 0)
(-0.0344471339503 0.111642461948 0)
(-0.0336462741186 0.125671340219 0)
(-0.0327664083796 0.139349943285 0)
(-0.0318142144201 0.152647094169 0)
(-0.0307963138184 0.165534463149 0)
(-0.0297194719941 0.177986576008 0)
(-0.0285900954385 0.189980781768 0)
(-0.0274144833119 0.201497136949 0)
(-0.0261983040279 0.212518255454 0)
(-0.0249469098394 0.22302908861 0)
(-0.0236648131642 0.233016681103 0)
(-0.0223560729189 0.242469877032 0)
(-0.0210237884888 0.251379017308 0)
(-0.0196705612999 0.259735611945 0)
(-0.0182980176138 0.267532022503 0)
(-0.0169073395358 0.274761146557 0)
(-0.0154988190736 0.281416129484 0)
(-0.0140724435342 0.287490101799 0)
(-0.0126274768979 0.292975955528 0)
(-0.0111630804055 0.297866164652 0)
(-0.00967791842525 0.302152649772 0)
(-0.00817079794776 0.305826701017 0)
(-0.00664030079827 0.308878945009 0)
(-0.00508543899339 0.311299395007 0)
(-0.00350531169346 0.31307753929 0)
(-0.00189973687678 0.314202503735 0)
(-0.00026896312817 0.314663290472 0)
(0.00138573164386 0.314449102333 0)
(0.00306232607116 0.313549702744 0)
(0.00475753717065 0.311955874021 0)
(0.00646711896946 0.309659887578 0)
(0.00818548287084 0.306656044737 0)
(0.00990604363415 0.302941180285 0)
(0.0116210225524 0.298515187647 0)
(0.0133218508207 0.293381441794 0)
(0.0149991513848 0.287547182317 0)
(0.016643151821 0.281023739069 0)
(0.0182437539044 0.273826675754 0)
(0.019790828634 0.26597577615 0)
(0.0212741868283 0.257494971745 0)
(0.0226835767343 0.248412216116 0)
(0.0240083381763 0.238759426539 0)
(0.0252369756919 0.228572589055 0)
(0.0263564247572 0.217892152296 0)
(0.0273513245617 0.20676383802 0)
(0.0282032659227 0.195239932081 0)
(0.0288904332572 0.183381026273 0)
(0.0293879024083 0.171258050356 0)
(0.0296689182498 0.158954055374 0)
(0.0297074161495 0.146565207752 0)
(0.0294812498277 0.134200064387 0)
(0.0289755072777 0.121977039237 0)
(0.0281844480943 0.110020765492 0)
(0.0271140055843 0.0984585828106 0)
(0.0257882410224 0.0874103037901 0)
(0.0242374575757 0.0769836955634 0)
(0.0225120177198 0.0672642005664 0)
(0.0206505641103 0.0583085645122 0)
(0.0186665733979 0.0501793671588 0)
(0.0166264229427 0.0429363537143 0)
(0.0146237977114 0.0365875470309 0)
(0.0127368918852 0.0310862200108 0)
(0.011011645365 0.0263539721983 0)
(0.00946563245642 0.0223028360613 0)
(0.00809858964014 0.018847791936 0)
(0.00690229175857 0.0159103817383 0)
(0.00586277189751 0.0134193283691 0)
(0.00496293409444 0.0113119129424 0)
(0.00418406438217 0.0095353601683 0)
(0.00351116649649 0.00804615031389 0)
(0.00293487450886 0.0068058056961 0)
(0.00245026446728 0.00577553942982 0)
(0.00204727386195 0.00491710429698 0)
(0.0017107073212 0.00419952048363 0)
(0.00142854082864 0.0035996714127 0)
(0.00119226138471 0.00309769891748 0)
(0.000992949375561 0.00267790139159 0)
(0.000827330739422 0.00231431225947 0)
(0.00069458197369 0.00198177713553 0)
(0.000608299174949 0.00177503089318 0)
(0.000516626571375 0.00150731051378 0)
(0.000452885508599 0.00128397053832 0)
(0.000442683831126 0.00113771173983 0)
(0.000465872665309 0.00101815464727 0)
(0.000445959698924 0.000792713042332 0)
(0.000475137658042 0.000635571680774 0)
(0.000522410160586 0.000453436517319 0)
(0.000563605104526 0.000269228817194 0)
(0.000539542578581 8.38548272713e-05 0)
(-0.0498025603427 0.00701028683623 0)
(-0.0526341088533 0.022493616587 0)
(-0.0524187709057 0.0378313079154 2.44580471224e-27)
(-0.0519625499294 0.0531952962293 0)
(-0.0513548492926 0.0683864412194 0)
(-0.050603377776 0.0833727750115 0)
(-0.0497148546067 0.0981119902937 0)
(-0.0486969602706 0.112564510487 0)
(-0.0475582327488 0.126693228205 0)
(-0.0463077655134 0.140463813227 0)
(-0.0449550736874 0.153844862145 0)
(-0.0435097898167 0.166807990953 0)
(-0.0419815485224 0.179327849328 0)
(-0.0403796807844 0.191382072015 0)
(-0.0387131281954 0.202951159914 0)
(-0.0369901549537 0.214018305732 0)
(-0.0352183104278 0.224569160901 0)
(-0.0334041811421 0.234591560089 0)
(-0.0315534204562 0.2440752052 0)
(-0.0296705606467 0.253011326813 0)
(-0.0277591222557 0.261392329947 0)
(-0.0258214961188 0.269211441812 0)
(-0.0238591312293 0.276462370706 0)
(-0.0218724819193 0.283138989857 0)
(-0.0198612586877 0.289235054583 0)
(-0.0178244246804 0.294743960016 0)
(-0.0157604882898 0.299658545926 0)
(-0.0136675348063 0.303970949601 0)
(-0.0115435464767 0.307672514622 0)
(-0.0093864649985 0.310753747665 0)
(-0.00719454299688 0.313204359226 0)
(-0.00496642335183 0.315013346134 0)
(-0.00270149625973 0.316169135541 0)
(-0.000400032071351 0.316659845172 0)
(0.00193648075311 0.316473605574 0)
(0.00430522906172 0.315598955502 0)
(0.00670179806673 0.314025324946 0)
(0.00912013582875 0.311743571248 0)
(0.0115524177229 0.308746569782 0)
(0.0139891500833 0.305029808256 0)
(0.0164192396266 0.300591972316 0)
(0.0188302716068 0.295435456227 0)
(0.0212087841042 0.289566779476 0)
(0.0235406645611 0.282996845884 0)
(0.025811503384 0.275741040477 0)
(0.0280069141065 0.267819137054 0)
(0.0301126917128 0.259255060042 0)
(0.0321147492829 0.250076548925 0)
(0.033998731224 0.240314834611 0)
(0.0357493115643 0.230004500459 0)
(0.0373490490218 0.219183642685 0)
(0.0387771791153 0.207894688542 0)
(0.0400080670274 0.196185820086 0)
(0.0410105051786 0.184113438546 0)
(0.041747422924 0.17174512316 0)
(0.0421779350304 0.159162963582 0)
(0.0422609303565 0.146465771983 0)
(0.0419610413051 0.133768928039 0)
(0.0412539496856 0.121200874719 0)
(0.0401283322752 0.108898848057 0)
(0.0385879411669 0.0970093835995 0)
(0.0366749733887 0.0856672181511 0)
(0.0344260854971 0.074997816803 0)
(0.0319409594204 0.0650918237672 0)
(0.0292781217188 0.0559756796369 0)
(0.0263933864363 0.0477303878351 0)
(0.0234005810821 0.0404743202881 0)
(0.0204760238887 0.0342234855209 0)
(0.0177512719045 0.0288979015916 0)
(0.0152905495236 0.0243786820936 0)
(0.0131064451703 0.0205485360203 0)
(0.011188262349 0.0173073080945 0)
(0.00951865731137 0.0145690651346 0)
(0.00807537782461 0.0122574367107 0)
(0.00683009047401 0.0103067620958 0)
(0.00575202872039 0.00866575037252 0)
(0.00481654451671 0.00729740280173 0)
(0.00401359964944 0.00617042511647 0)
(0.00334376903779 0.00524542914216 0)
(0.0027946241749 0.00447644987698 0)
(0.0023362190427 0.0038311182251 0)
(0.00195159146843 0.0032913340728 0)
(0.00163092838931 0.00283915171571 0)
(0.00136056617767 0.00246167819283 0)
(0.00113565688469 0.00212295185619 0)
(0.000974012921476 0.00185103909502 0)
(0.000850549243431 0.00161517040519 0)
(0.000735581177665 0.00135719759515 0)
(0.000669861643129 0.00117405143924 0)
(0.000611994154033 0.000965015489745 0)
(0.000603488413725 0.00079623006069 0)
(0.000650339012336 0.000677459579313 0)
(0.000636802527506 0.000475026314698 0)
(0.000675155676694 0.000320677629993 0)
(0.000719104355483 0.000191129966147 0)
(0.000702280699078 6.30443364637e-05 0)
(-0.0645266858445 0.00708414333705 0)
(-0.0682000814187 0.0227621540455 0)
(-0.0679184835311 0.0382711819838 0)
(-0.0673223073159 0.0538089621804 0)
(-0.0665282081159 0.0691682332654 0)
(-0.065546701102 0.0843158112586 0)
(-0.0643867552758 0.0992079987165 0)
(-0.0630585914722 0.113804133704 0)
(-0.0615735167778 0.128066284463 0)
(-0.0599436195126 0.141959551453 0)
(-0.0581815002931 0.15545221501 0)
(-0.0562999627949 0.168515821911 0)
(-0.0543117535225 0.181125195592 0)
(-0.0522292642342 0.193258374203 0)
(-0.0500642990612 0.204896477585 0)
(-0.047827811621 0.216023508657 0)
(-0.0455297248302 0.226626093801 0)
(-0.043178730957 0.236693171391 0)
(-0.0407821921384 0.246215638023 0)
(-0.0383460301449 0.255185965897 0)
(-0.0358747281585 0.263597805393 0)
(-0.0333713231188 0.271445588642 0)
(-0.0308375095891 0.278724149066 0)
(-0.0282737245954 0.285428369875 0)
(-0.0256793318933 0.29155287232 0)
(-0.0230527720155 0.29709175002 0)
(-0.0203917971565 0.302038354444 0)
(-0.0176936622173 0.306385131891 0)
(-0.0149553933551 0.310123515886 0)
(-0.0121740142943 0.313243867066 0)
(-0.00934685910859 0.315735502325 0)
(-0.00647181886225 0.31758676107 0)
(-0.0035476842695 0.318785135301 0)
(-0.000574456768399 0.319317535556 0)
(0.00244631644192 0.319170621834 0)
(0.00551126159664 0.318331231094 0)
(0.00861490154256 0.316786906705 0)
(0.0117494803793 0.314526510236 0)
(0.0149048568081 0.311540901229 0)
(0.0180685419809 0.307823645965 0)
(0.0212258635819 0.303371716883 0)
(0.0243602887038 0.298186120709 0)
(0.0274538811567 0.292272399613 0)
(0.0304878550688 0.285640936642 0)
(0.0334431726794 0.278307022601 0)
(0.0363010601357 0.270290647579 0)
(0.0390433650698 0.261616044651 0)
(0.0416525508948 0.25231101975 0)
(0.0441113064594 0.242406254303 0)
(0.0464014861723 0.231934652574 0)
(0.0485026510502 0.220931228328 0)
(0.0503897603816 0.209433513398 0)
(0.0520310260385 0.197483352855 0)
(0.0533854893022 0.185129904028 0)
(0.0544024025789 0.172434418613 0)
(0.0550227468152 0.159475906506 0)
(0.0551851071842 0.146356051814 0)
(0.0548356285051 0.133200208421 0)
(0.0539378228475 0.120150841109 0)
(0.0524713418611 0.107360655497 0)
(0.0504247583483 0.0950105153674 0)
(0.0478816183248 0.0832531574369 0)
(0.0448489570369 0.0722538264931 0)
(0.0415534008019 0.0621198746757 0)
(0.0380991544834 0.05276420633 0)
(0.0342091248649 0.0443046350342 0)
(0.0301057179511 0.0370214028235 0)
(0.0261338546074 0.0309402766448 0)
(0.0225062384967 0.0259024559261 0)
(0.0192937813794 0.0217105800008 0)
(0.0164801064057 0.0182017560541 0)
(0.0140277734 0.0152610234002 0)
(0.0119073954585 0.0127983605421 0)
(0.0100880902941 0.0107314953204 0)
(0.00852698329215 0.00898918989312 0)
(0.00717340511301 0.00752234965582 0)
(0.00598673068107 0.00630817818142 0)
(0.00496036243005 0.00533341644246 0)
(0.00411797834887 0.00455688738508 0)
(0.00344898959406 0.00390982676937 0)
(0.00288641457167 0.00335671987337 0)
(0.00241069081588 0.00289457816387 0)
(0.00201810033373 0.00250679107013 0)
(0.00168509505537 0.00218101690851 0)
(0.00140081422051 0.00187007556899 0)
(0.00124815002899 0.00166886093136 0)
(0.00111734493876 0.00144031833373 0)
(0.000978015705201 0.00120068961133 0)
(0.000844555721892 0.000950706741753 0)
(0.000797147337766 0.000776690633811 0)
(0.000752591242453 0.000590143973213 0)
(0.000786064609527 0.0004783676137 0)
(0.000827224346828 0.000356926321957 0)
(0.00080111390401 0.000215121351302 0)
(0.00080631163694 0.000121128924967 0)
(0.000785774810041 4.0540624671e-05 0)
(-0.0794471015848 0.00717623748296 0)
(-0.0839691747674 0.0231014051556 0)
(-0.0836180186615 0.0388296834373 0)
(-0.0828764962159 0.0545887111656 0)
(-0.0818888227408 0.0701614953846 0)
(-0.0806684698449 0.0855134628311 0)
(-0.0792269307374 0.100599253576 0)
(-0.0775772400153 0.115376851265 0)
(-0.0757337725024 0.129807277006 0)
(-0.0737118877932 0.143854904862 0)
(-0.0715275719301 0.157487613149 0)
(-0.0691970680974 0.170676868504 0)
(-0.0667365219872 0.183397728869 0)
(-0.0641616279963 0.195628767742 0)
(-0.0614873045787 0.207351920836 0)
(-0.0587273845491 0.21855225911 0)
(-0.0558943527908 0.229217692891 0)
(-0.0529991172583 0.239338615615 0)
(-0.0500508477679 0.248907498169 0)
(-0.0470568653532 0.257918448934 0)
(-0.0440226130324 0.266366756969 0)
(-0.0409516825878 0.274248437537 0)
(-0.0378459196665 0.281559798512 0)
(-0.0347055723519 0.288297043688 0)
(-0.0315294981683 0.294455924774 0)
(-0.0283153915775 0.300031448392 0)
(-0.0250600478514 0.305017639961 0)
(-0.0217596325432 0.309407362847 0)
(-0.0184099800997 0.313192192078 0)
(-0.0150069012026 0.316362331917 0)
(-0.0115465375715 0.318906628579 0)
(-0.00802569932328 0.320812608047 0)
(-0.00444227693516 0.322066586677 0)
(-0.000795667763885 0.322653932874 0)
(0.00291280178753 0.322559405491 0)
(0.00667946771171 0.32176761379 0)
(0.0104979605981 0.320263606076 0)
(0.0143589242276 0.318033575996 0)
(0.0182498558076 0.315065666354 0)
(0.0221551115309 0.311350834175 0)
(0.0260561123816 0.306883721258 0)
(0.0299317666771 0.301663458174 0)
(0.0337591112612 0.295694311565 0)
(0.0375141222584 0.288986083912 0)
(0.0411726222215 0.281554172641 0)
(0.0447111439571 0.273419237734 0)
(0.0481075749868 0.26460644212 0)
(0.0513414078673 0.255144368383 0)
(0.0543933051027 0.245063640806 0)
(0.0572439767243 0.234395717682 0)
(0.0598718694324 0.223171802687 0)
(0.0622502060614 0.211422975665 0)
(0.0643427330698 0.199181500542 0)
(0.066099690465 0.186484816181 0)
(0.0674545344988 0.1733824352 0)
(0.0683245946549 0.159945771309 0)
(0.0686188747572 0.146278792037 0)
(0.0682562792453 0.132521803503 0)
(0.0671870330285 0.118836762249 0)
(0.0653804321576 0.105385953402 0)
(0.0627641287037 0.0924197940451 0)
(0.0595496750078 0.0800915343161 0)
(0.0555504969309 0.0686696393729 0)
(0.0513747740007 0.0583420438115 0)
(0.0473007093865 0.0486316519199 0)
(0.042221578351 0.0397373352244 0)
(0.036705731075 0.0323994554048 0)
(0.0314784067445 0.0266243724916 0)
(0.026867628012 0.0220581696192 0)
(0.0229071420566 0.0183529082107 0)
(0.0194945280363 0.0152829117866 0)
(0.016537560924 0.0127349729826 0)
(0.0139986971276 0.0106297151631 0)
(0.0118458472325 0.00887730630382 0)
(0.0100170397933 0.0073923130915 0)
(0.00842513361236 0.00612569527828 0)
(0.00699565851816 0.00508451739801 0)
(0.0057306393846 0.00430176895944 0)
(0.00472584798273 0.00373408185103 0)
(0.003990644114 0.00324489154318 0)
(0.00334715516549 0.00279282164161 0)
(0.00278916937121 0.00242301725166 0)
(0.00234439767397 0.00211343221712 0)
(0.00196280360251 0.0018405518957 0)
(0.00163581463043 0.0015681784956 0)
(0.00147656144723 0.00138633207394 0)
(0.00130428517432 0.00114827360972 0)
(0.0011867974731 0.000960665858217 0)
(0.00109192543236 0.00077060082866 0)
(0.00102120559643 0.000595125613081 0)
(0.000895909589721 0.000402388656824 0)
(0.000871006916838 0.000278747194364 0)
(0.000922019224636 0.000212218131681 0)
(0.000900977505585 0.000135343097314 0)
(0.000871668521542 7.11144683153e-05 0)
(0.000850453712398 2.36940182911e-05 0)
(-0.0946098036805 0.0072881502898 0)
(-0.0999914305404 0.0235155592949 0)
(-0.0995661171929 0.0395122669315 2.4637532894e-27)
(-0.0986720411113 0.0555418886435 0)
(-0.0974814528454 0.0713754074846 0)
(-0.0960109687787 0.0869765553187 0)
(-0.0942748888732 0.102297949713 0)
(-0.0922893863848 0.117295921779 0)
(-0.0900722569204 0.131930209572 0)
(-0.0876424890171 0.146164299331 0)
(-0.0850198200478 0.159965583822 0)
(-0.0822242874582 0.173305445543 0)
(-0.0792757867021 0.186159251875 0)
(-0.0761936397734 0.19850626349 0)
(-0.0729961857132 0.210329457505 0)
(-0.0697003991461 0.221615266661 0)
(-0.0663215524206 0.232353239113 0)
(-0.0628729311147 0.242535625859 0)
(-0.0593656207483 0.252156908587 0)
(-0.0558083728822 0.261213284977 0)
(-0.0522075625924 0.26970213377 0)
(-0.0485672349083 0.277621483888 0)
(-0.0448892384158 0.284969512113 0)
(-0.0411734291676 0.291744089582 0)
(-0.0374179312475 0.297942391093 0)
(-0.033619431684 0.303560572502 0)
(-0.0297734983523 0.308593514234 0)
(-0.025874909465 0.313034623511 0)
(-0.0219179985167 0.316875689062 0)
(-0.0178970193336 0.320106770683 0)
(-0.0138065584531 0.32271618868 0)
(-0.00964194521309 0.324690516628 0)
(-0.00539975812346 0.326014661593 0)
(-0.00107836439368 0.326672105146 0)
(0.00332153235745 0.32664524138 0)
(0.00779633983318 0.32591586483 0)
(0.0123390686429 0.324465827244 0)
(0.0169389163366 0.322277857378 0)
(0.0215810045916 0.319336527679 0)
(0.0262463280221 0.315629328601 0)
(0.0309119767978 0.311147784965 0)
(0.0355516701161 0.305888519505 0)
(0.0401366207622 0.299854142275 0)
(0.0446366858079 0.293053822173 0)
(0.0490217212654 0.285503407054 0)
(0.0532629446209 0.277224952829 0)
(0.0573341076468 0.268245653859 0)
(0.061212115889 0.258596093503 0)
(0.0648769091283 0.248308173977 0)
(0.0683100852069 0.237412587786 0)
(0.0714922846112 0.225936865578 0)
(0.0743986658064 0.213903842176 0)
(0.0769926929637 0.201332380555 0)
(0.0792183827672 0.188241344302 0)
(0.0809923233992 0.174659064982 0)
(0.082200355703 0.160640084644 0)
(0.0827051699009 0.146287644533 0)
(0.0823819323255 0.131768322368 0)
(0.0811733043338 0.117275006072 0)
(0.0790582294238 0.102937799218 0)
(0.075742836354 0.08917976766 0)
(0.0719161880175 0.0760397437227 0)
(0.0664785682108 0.0640790976662 0)
(0.0612593095996 0.0538706178762 0)
(0.0572584454338 0.0436158516059 0)
(0.0505419249699 0.0337176791195 0)
(0.0429966427342 0.0262877653761 0)
(0.036201009983 0.0211125775054 0)
(0.0305899783946 0.0173428661292 0)
(0.0260150830256 0.0143510464157 0)
(0.0221172428944 0.0118471255121 0)
(0.0186937151559 0.00977983438374 0)
(0.0157440141688 0.0081195089238 0)
(0.0132920486552 0.00676050549186 0)
(0.0112552596676 0.00557708368426 0)
(0.00948298875308 0.00450774541091 0)
(0.00780932996171 0.00361872515414 0)
(0.00624496501069 0.00306652948632 0)
(0.00508257090219 0.00281759480708 0)
(0.00442037757406 0.00253136543036 0)
(0.00371898934898 0.00215536121306 0)
(0.0030656071948 0.00189183794432 0)
(0.0026032059709 0.00167991720145 0)
(0.00218989266926 0.00145637663364 0)
(0.00186246147102 0.0012487452536 0)
(0.00168964616688 0.00107094117426 0)
(0.00152003221322 0.000871736659359 0)
(0.00136693431261 0.000675029360196 0)
(0.00126971122542 0.000508695808627 0)
(0.00114423867787 0.000351611617701 0)
(0.00107471548917 0.00023781384479 0)
(0.000962828875714 0.000124801968343 0)
(0.000938147738604 7.3852591388e-05 0)
(0.000948367122064 5.17521056447e-05 0)
(0.000905090185428 2.50112000027e-05 0)
(0.000882433914368 8.2829277267e-06 0)
(-0.110064188686 0.00742111321814 0)
(-0.116319207748 0.0240091498262 0)
(-0.115814075483 0.0403257825923 -2.46337357215e-27)
(-0.114758414892 0.0566777594012 0)
(-0.113353228465 0.0728214794441 0)
(-0.111618561681 0.0887185770451 0)
(-0.109571871364 0.104319224906 0)
(-0.10723286713 0.119577761408 0)
(-0.104623193903 0.134452385715 0)
(-0.101765910464 0.148905525922 0)
(-0.0986849521538 0.162904006009 0)
(-0.0954045909285 0.176419128346 0)
(-0.0919489020211 0.189426659955 0)
(-0.0883412427316 0.201906724643 0)
(-0.084603752388 0.213843599998 0)
(-0.0807568829878 0.22522541898 0)
(-0.0768189768868 0.236043777166 0)
(-0.0728059085756 0.2462932519 0)
(-0.0687308123009 0.255970845957 0)
(-0.0646039124803 0.265075376697 0)
(-0.060432471377 0.273606838777 0)
(-0.0562208559752 0.281565773393 0)
(-0.051970717492 0.288952677108 0)
(-0.0476812625661 0.2957674781 0)
(-0.0433495900623 0.302009097089 0)
(-0.0389710628748 0.307675096954 0)
(-0.0345396923576 0.312761412028 0)
(-0.0300485227379 0.317262140201 0)
(-0.0254900198331 0.321169381288 0)
(-0.0208564788679 0.324473094083 0)
(-0.0161404900523 0.327161051858 0)
(-0.0113354128331 0.329218768285 0)
(-0.00643598762844 0.33062952716 0)
(-0.00143900065444 0.331374578409 0)
(0.00365601093065 0.331433456628 0)
(0.00884602658694 0.330784486003 0)
(0.0141238407283 0.329405505399 0)
(0.0194774574208 0.32727482021 0)
(0.0248896618725 0.3243723709 0)
(0.0303378588185 0.320681083438 0)
(0.0357942700776 0.316188324476 0)
(0.0412265716456 0.310887347285 0)
(0.046599016262 0.304778556345 0)
(0.0518740285909 0.297870397361 0)
(0.0570141659053 0.290179628439 0)
(0.0619842379294 0.281730806202 0)
(0.0667532491638 0.272554783494 0)
(0.0712957785081 0.262686334064 0)
(0.0755923270843 0.252160779119 0)
(0.0796282265119 0.241010283564 0)
(0.0833906405161 0.229259618325 0)
(0.086862878636 0.216922692945 0)
(0.0900156091373 0.204000632783 0)
(0.0927935089257 0.190483997785 0)
(0.0950989031099 0.176364110864 0)
(0.096776482679 0.1616584606 0)
(0.0976111983714 0.14646029646 0)
(0.0973945303437 0.130989909166 0)
(0.0960892125674 0.11551318215 0)
(0.0938195675733 0.0999559823011 0)
(0.0894130008386 0.0852786732628 0)
(0.0854920750865 0.0708340478678 0)
(0.0772685604006 0.0580240475891 0)
(0.0708640546007 0.0491457594326 0)
(0.0714192321746 0.0380766142918 0)
(0.0620344329698 0.0257392628119 0)
(0.0505953774761 0.0183716566153 0)
(0.0412887471879 0.0145624345642 0)
(0.0339934349478 0.0122634901342 0)
(0.0281611433639 0.0103386272441 0)
(0.0234351640421 0.0084688476643 0)
(0.0196575209715 0.00685833830455 0)
(0.0167188778679 0.00566296217069 0)
(0.0144437049626 0.00474835200383 0)
(0.0125980430975 0.00387303016724 0)
(0.0108788388797 0.0029074639085 0)
(0.00888329989763 0.00201586160137 0)
(0.00663289807531 0.00167354379941 0)
(0.00506540336524 0.00193162983505 0)
(0.00480871382673 0.00188922625413 0)
(0.00401917751982 0.00144234484144 0)
(0.00318409302834 0.00130849988991 0)
(0.00279677959644 0.00123612919958 0)
(0.00237636441763 0.00103728794005 0)
(0.00204802765616 0.000885663908355 0)
(0.00187924355595 0.000726659022542 0)
(0.00171919238901 0.000558642900211 0)
(0.00156742829155 0.000388875635621 0)
(0.00141240260621 0.00023665926784 0)
(0.00125167759691 0.000115818706087 0)
(0.00113337085774 3.64300468966e-05 0)
(0.0010562074835 -1.07905701125e-05 0)
(0.000955126294532 -3.70484469103e-05 0)
(0.000963011475729 -3.45561932352e-05 0)
(0.000907718333263 -1.89873826658e-05 0)
(0.000881440867155 -6.94184577855e-06 0)
(-0.125862876346 0.0075764560867 0)
(-0.133007757322 0.0245874952321 0)
(-0.132415935028 0.0412786055271 0)
(-0.131187649942 0.0580077518386 0)
(-0.129553572564 0.0745138902108 0)
(-0.127537565939 0.0907561091355 0)
(-0.125160684369 0.10668164683 0)
(-0.122446663872 0.122242471654 0)
(-0.119421518784 0.137394963977 0)
(-0.116112912554 0.152100313754 0)
(-0.112549515906 0.166324693196 0)
(-0.10876036724 0.180039336687 0)
(-0.104774240978 0.193220517943 0)
(-0.100619028292 0.205849425714 0)
(-0.0963211354741 0.21791193549 0)
(-0.0919049116901 0.229398271197 0)
(-0.087392124 0.24030255392 0)
(-0.0828015057172 0.250622239355 0)
(-0.0781484071648 0.260357456878 0)
(-0.0734445780969 0.269510274611 0)
(-0.068698102538 0.278083927832 0)
(-0.0639134940364 0.286082056065 0)
(-0.0590919401021 0.293507996284 0)
(-0.0542316668693 0.300364172001 0)
(-0.0493283802785 0.306651601863 0)
(-0.0443757370542 0.312369529389 0)
(-0.0393658069404 0.317515153842 0)
(-0.0342895088919 0.322083428183 0)
(-0.0291370289358 0.326066890632 0)