/*--------------------------------*- C++ -*----------------------------------*\
| =========                 |                                                 |
| \\      /  F ield         | OpenFOAM: The Open Source CFD Toolbox           |
|  \\    /   O peration     | Version:  v1906                                 |
|   \\  /    A nd           | Web:      www.OpenFOAM.com                      |
|    \\/     M anipulation  |                                                 |
\*---------------------------------------------------------------------------*/
FoamFile
{
    version     2.0;
    format      ascii;
    class       volVectorField;
    location    "8";
    object      Ua;
}
// * * * * * * * * * * * * * * * * * * * * * * * * * * * * * * * * * * * * * //

dimensions      [0 1 -1 0 0 0 0];


internalField   nonuniform List<vector> 
9216
(
(-0.054102002678 0.0677084270243 0)
(-0.0718794513473 0.212832769267 1.68599831291e-26)
(-0.086881177557 0.391469998969 -4.16989484863e-30)
(-0.0863355649583 0.524929956609 0)
(-0.0807895096847 0.650635373174 0)
(-0.0713282530983 0.677890664332 0)
(-0.0779313991682 0.747309934605 0)
(-0.100653966585 0.801343315295 0)
(-0.128317742804 0.860163631908 0)
(-0.158559701356 0.924739358824 0)
(-0.211758464834 1.11060122061 0)
(-0.246844379784 1.15769607892 0)
(-0.272467498226 1.20804445775 0)
(-0.298828052512 1.24971127593 0)
(-0.325346965887 1.2848201177 0)
(-0.353562547365 1.31924766787 0)
(-0.383551659253 1.35068677792 0)
(-0.407225185682 1.38316360314 0)
(-0.423606032857 1.41027606922 0)
(-0.43362137716 1.43502764138 0)
(-0.467865398817 1.49027972052 0)
(-0.49013533423 1.5333538642 0)
(-0.510657366955 1.61775546554 0)
(-0.526029065355 1.64244966216 0)
(-0.534995625891 1.66452263363 0)
(-0.541561304025 1.68198737541 0)
(-0.546722701025 1.69415742865 0)
(-0.550853907788 1.70210571342 0)
(-0.553653825704 1.70646523676 0)
(-0.555280400049 1.70834664627 0)
(-0.555514478283 1.70812156981 0)
(-0.554719667535 1.70647494255 0)
(-0.552883801556 1.70346636958 0)
(-0.550638215916 1.70028459868 0)
(-0.548530675965 1.69858299654 0)
(-0.548775086172 1.7052913364 0)
(-0.557129141037 1.74742331217 0)
(-0.562277116386 2.0347730154 0)
(-0.550055764339 2.03788733575 0)
(-0.538588283271 2.02687103411 0)
(-0.52881017342 2.01004885613 0)
(-0.519636966216 1.99096090334 0)
(-0.510341216773 1.96994286505 0)
(-0.500561580212 1.94773239954 0)
(-0.490247090453 1.92429728962 0)
(-0.479241397273 1.90004662221 0)
(-0.467624020726 1.87473408102 0)
(-0.455346728497 1.84862278415 0)
(-0.442539217956 1.82140959361 0)
(-0.429139626788 1.7934237463 0)
(-0.41527523009 1.76440744189 0)
(-0.400892483451 1.73467220274 0)
(-0.386130118379 1.70396313559 0)
(-0.370930848213 1.67258037131 0)
(-0.355445095972 1.64026943903 0)
(-0.339603496115 1.60730153369 0)
(-0.323563669684 1.57341918435 0)
(-0.307240249271 1.53886684537 0)
(-0.290809081215 1.50341705691 0)
(-0.274194488772 1.46738702548 0)
(-0.25765653474 1.43096588532 0)
(-0.241488664714 1.39554847851 0)
(-0.227568685545 1.36439324102 0)
(-0.222378134416 1.34326206091 0)
(-0.236901624588 1.32829246477 0)
(-0.238296480012 1.49028348148 0)
(-0.203151639595 1.41191144582 0)
(-0.196047139867 1.14502266908 0)
(-0.182362165393 1.10149772968 0)
(-0.166772616669 1.06285186336 0)
(-0.150493992434 1.02628200565 0)
(-0.134720211492 0.990242949006 0)
(-0.119257463909 0.95388269437 0)
(-0.104587263395 0.917166368578 0)
(-0.09033236822 0.879804352293 0)
(-0.0768876283164 0.841917819919 0)
(-0.0638814591316 0.803288691047 0)
(-0.0516729827756 0.764024709921 0)
(-0.0399119996083 0.723909169342 0)
(-0.0289227887001 0.683003113757 0)
(-0.0183761143114 0.641069358646 0)
(-0.00856412115224 0.598094597311 0)
(0.00076723775843 0.553716132655 0)
(0.00918726917194 0.507717528915 0)
(0.0162588312926 0.459484453599 0)
(0.0198840239075 0.408064832432 0)
(0.0190369134491 0.345896204547 0)
(0.0259085470196 0.301091045981 0)
(0.0311269128952 0.255027722057 0)
(0.0342760711861 0.209247118569 0)
(0.0348741196816 0.166289759403 0)
(0.0313252737986 0.129834693967 0)
(0.0264651279086 0.0999421027742 0)
(0.0300186162844 0.081191896713 0)
(0.0260817300852 0.0468072882207 0)
(0.0237508506707 0.0190184508472 0)
(-0.185644050208 0.0717517016648 0)
(-0.273630708238 0.28543863821 0)
(-0.233240093619 0.430447656501 -1.84049164588e-26)
(-0.214150769038 0.605412002151 0)
(-0.192641488271 0.767476290085 0)
(-0.183038877195 0.919807918549 0)
(-0.210775523076 1.0502878577 0)
(-0.276164899849 1.30627116107 0)
(-0.312187505831 1.41584121392 0)
(-0.339920068436 1.52266584527 0)
(-0.386784593335 1.65779899666 0)
(-0.419167466072 1.74542930759 0)
(-0.441514394146 1.83734114152 0)
(-0.469012564932 1.93075961449 0)
(-0.495977995823 2.03165605839 0)
(-0.533358109687 2.1789606174 0)
(-0.577301670836 2.25862510674 0)
(-0.614002684979 2.34325327756 0)
(-0.661542858672 2.45345540537 0)
(-0.762254359873 2.6406737587 0)
(-0.921819613308 3.25427293782 0)
(-0.973774869698 3.56908773155 0)
(-0.990133621419 4.44567375897 0)
(-0.979745791067 4.56565924252 0)
(-0.961271175898 4.6093685161 0)
(-0.943978969494 4.63344316859 0)
(-0.926839206149 4.64724686446 0)
(-0.909393135776 4.65437977745 0)
(-0.890476822324 4.65639827617 0)
(-0.870339742287 4.65451648289 0)
(-0.848472075495 4.64895434844 0)
(-0.825920235314 4.63990322505 0)
(-0.802823711092 4.62713068118 0)
(-0.780804707437 4.6109918805 0)
(-0.76057404378 4.5916219861 0)
(-0.744672669676 4.56962589967 0)
(-0.732968773982 4.5465856411 0)
(-0.708176979962 4.54944243549 0)
(-0.668359009905 4.53341938731 0)
(-0.635972394029 4.50501715699 0)
(-0.60878347529 4.46838115453 0)
(-0.585164316943 4.4258406513 0)
(-0.562761705704 4.38065352656 0)
(-0.541037553113 4.33415607473 0)
(-0.518957471511 4.28615395824 0)
(-0.496946558278 4.23669286874 0)
(-0.474811632497 4.18534008646 0)
(-0.453047853433 4.13226909723 0)
(-0.431252883557 4.07718517631 0)
(-0.40978986627 4.02040446339 0)
(-0.388245814616 3.96169913734 0)
(-0.366951098396 3.90136597656 0)
(-0.345510763341 3.83919126666 0)
(-0.324219807505 3.7754631699 0)
(-0.302706576358 3.70997327848 0)
(-0.28121944302 3.64299754735 0)
(-0.259418595051 3.5743518167 0)
(-0.237540924338 3.50433968191 0)
(-0.215372398313 3.43288284384 0)
(-0.193247340152 3.36052817867 0)
(-0.171305324262 3.28768763257 0)
(-0.150647950427 3.21527589822 0)
(-0.133175122027 3.1431772565 0)
(-0.122585744096 3.06802978201 0)
(-0.117309566814 2.98154712087 0)
(-0.0863148535766 2.89920497406 0)
(-0.0252002810364 2.80665070169 0)
(0.00538259623863 2.7122532726 0)
(0.017770442591 2.63772550219 0)
(0.0312366057033 2.56087473335 0)
(0.0461050315881 2.48167855087 0)
(0.0608075465456 2.4007003734 0)
(0.0757050246923 2.31788236226 0)
(0.0899575407039 2.23337160619 0)
(0.104199127323 2.1469959047 0)
(0.117773169999 2.05883291383 0)
(0.13132341399 1.96867558579 0)
(0.144274179575 1.87654217221 0)
(0.157242004697 1.78218555416 0)
(0.169728806651 1.6855564574 0)
(0.182330278885 1.58632779643 0)
(0.194609516449 1.48420045863 0)
(0.207002094078 1.37826981074 0)
(0.218592559736 1.26664978693 0)
(0.227228803654 1.14368626552 0)
(0.220878908208 0.990496565697 0)
(0.158316540046 0.692231522324 0)
(0.156095835537 0.580869387883 0)
(0.160610287448 0.486370278666 0)
(0.162256915848 0.396246389993 0)
(0.156551794451 0.309104470105 0)
(0.135418843175 0.23004593142 0)
(0.0858921669504 0.138874732056 0)
(0.0937140211146 0.12237195968 0)
(0.0951326445356 0.079981336229 0)
(0.0614999778103 0.0223307497836 0)
(-0.300488976385 0.0570380023459 0)
(-0.393347965537 0.257973491742 0)
(-0.395021423722 0.497791380844 -1.83579928957e-26)
(-0.428360800926 0.824556570699 0)
(-0.382224152634 1.04969689357 0)
(-0.338965802003 1.26427109217 0)
(-0.326349485567 1.45140506586 0)
(-0.316590503793 1.62978131877 0)
(-0.316697963812 1.84592318816 0)
(-0.340126831618 2.08393906305 0)
(-0.370850960206 2.70372651294 0)
(-0.323667242603 2.92441690946 0)
(-0.27494519532 3.1567818478 0)
(-0.263828163752 3.46771869944 0)
(-0.251890098592 3.8616188113 0)
(-0.191341835417 4.90541015844 0)
(-0.161184893508 5.14042525748 0)
(-0.142367820149 5.28368758512 0)
(-0.151566141274 5.40303540335 0)
(-0.195969667092 5.50077648981 0)
(-0.217016440297 5.61823230488 0)
(-0.146477591109 5.70707855423 0)
(-0.0617274490664 5.85257421146 0)
(0.0363806126493 5.91171328814 0)
(0.113174057486 5.95066336224 0)
(0.174240985843 5.97892073666 0)
(0.226339176553 5.9994239576 0)
(0.271911081774 6.01382809279 0)
(0.31348092646 6.02326997499 0)
(0.351332091545 6.02810531234 0)
(0.38668364503 6.02833081323 0)
(0.418790448539 6.0235003313 0)
(0.448005353626 6.0134345301 0)
(0.473207801866 5.99801779801 0)
(0.494954801801 5.97712439173 0)
(0.512704609184 5.95017027493 0)
(0.529489332577 5.91732059527 0)
(0.553536760805 5.88248995602 0)
(0.581827526282 5.84374840077 0)
(0.605311252726 5.79948658346 0)
(0.622496175721 5.74967167156 0)
(0.632735023153 5.69507987854 0)
(0.637667575494 5.63657444379 0)
(0.639761129894 5.57564194377 0)
(0.641112500432 5.51259357871 0)
(0.641368015211 5.44732010881 0)
(0.640957782179 5.37961109086 0)
(0.639410330799 5.30953223709 0)
(0.63726748696 5.23702576402 0)
(0.634145932818 5.16222228567 0)
(0.630580870897 5.08511282493 0)
(0.626219537153 5.00584527163 0)
(0.621596697452 4.92443062521 0)
(0.616389837456 4.8410314037 0)
(0.611131758542 4.75568096807 0)
(0.60552930839 4.66857364041 0)
(0.600085692025 4.57980170563 0)
(0.594466914194 4.48963027508 0)
(0.589026748471 4.39823145094 0)
(0.583272173123 4.30596909586 0)
(0.577237092244 4.21302336277 0)
(0.56992322039 4.11922172574 0)
(0.560750325494 4.02303593274 0)
(0.549135662938 3.92105794206 0)
(0.539463874984 3.81005359018 0)
(0.542191178429 3.6949495012 0)
(0.551330870706 3.58416226491 0)
(0.550588003606 3.47989759387 0)
(0.543710759576 3.37796160854 0)
(0.535695416651 3.27400938036 0)
(0.528123709125 3.16782336092 0)
(0.520740092547 3.05967193616 0)
(0.513980189742 2.94959432963 0)
(0.507509876009 2.83764030361 0)
(0.501776090368 2.7237182289 0)
(0.496509369099 2.60780376126 0)
(0.492150105194 2.48975831444 0)
(0.488475756413 2.36951125449 0)
(0.485914589193 2.24688305618 0)
(0.484301438362 2.12175931749 0)
(0.484066396747 1.99389312769 0)
(0.485097213374 1.86302132838 0)
(0.487770215626 1.72864614697 0)
(0.491834292926 1.59008026403 0)
(0.496871754789 1.44601740833 0)
(0.499574350331 1.29348992857 0)
(0.489153353052 1.1232882685 0)
(0.482147626729 0.972579088312 0)
(0.478025222111 0.822730697022 0)
(0.468834869053 0.672064698303 0)
(0.443591934424 0.521527206322 0)
(0.376636646376 0.373542966924 0)
(0.208749657096 0.19283145872 0)
(0.139592552039 0.11352852029 0)
(0.137730469458 0.0759714148635 0)
(0.105637285927 0.0249652175941 0)
(-0.383575208805 0.0493741013892 0)
(-0.676875524658 0.327043794511 0)
(-0.709132416195 0.660276067582 2.143975007e-26)
(-0.666037411446 0.958308856795 0)
(-0.584417300211 1.20565958581 0)
(-0.521143299409 1.45061661734 0)
(-0.492883178147 1.71120307092 0)
(-0.526899925329 2.04990646803 0)
(-0.63052780133 2.76528843282 0)
(-0.616383893347 3.0817820387 0)
(-0.539585700879 3.40191629867 0)
(-0.416384442501 3.69774024754 0)
(-0.369508733793 4.23410297249 0)
(-0.367252091991 5.43187947327 0)
(-0.322910335479 5.78619397212 0)
(-0.239873957341 6.11148173759 0)
(-0.156579550671 6.2789457292 0)
(-0.099445629984 6.39874419234 0)
(-0.0679087696773 6.48519840938 0)
(-0.0492599526973 6.53633603672 0)
(-0.00878181238351 6.56459653387 0)
(0.0668196804348 6.58771316567 0)
(0.1497895949 6.62268114207 0)
(0.229342511854 6.65297696676 0)
(0.294279356918 6.68148944782 0)
(0.345953167998 6.70633128151 0)
(0.388108167303 6.72655510275 0)
(0.423107748017 6.7420049437 0)
(0.453232488113 6.75274891665 0)
(0.47956910469 6.75856051582 0)
(0.503313006595 6.75898348759 0)
(0.524575223661 6.7533851745 0)
(0.543720535896 6.74154895396 0)
(0.560651236985 6.72367969087 0)
(0.576297007062 6.69965990016 0)
(0.591157611082 6.66868452656 0)
(0.606500067231 6.63058336251 0)
(0.623903278395 6.58641630433 0)
(0.64236850281 6.53691665227 0)
(0.658709760337 6.48217657566 0)
(0.671446595118 6.42256181021 0)
(0.679630464593 6.3586958255 0)
(0.683529299958 6.29116354938 0)
(0.684777949056 6.2199857 0)
(0.685845726969 6.14616243586 0)
(0.686705315191 6.06967332453 0)
(0.687594139249 5.99065363781 0)
(0.688243532936 5.90914360184 0)
(0.688848019413 5.82517037156 0)
(0.689179739003 5.73881498909 0)
(0.689448117248 5.65013771332 0)
(0.689451434771 5.55924225423 0)
(0.689412413618 5.46621124809 0)
(0.689150469171 5.37117155786 0)
(0.688890397937 5.27423512993 0)
(0.688449965556 5.1755653469 0)
(0.688005017452 5.07531515784 0)
(0.687282898314 4.97367022313 0)
(0.686294833958 4.87075593972 0)
(0.68457923261 4.76665576976 0)
(0.681913432211 4.66123181746 0)
(0.677634090666 4.5539414837 0)
(0.671614753491 4.44353235586 0)
(0.664356700185 4.32830386549 0)
(0.658791247214 4.20766860542 0)
(0.658427783628 4.084393329 0)
(0.661467024808 3.96279629354 0)
(0.662214507903 3.84376553949 0)
(0.660713303089 3.72502553799 0)
(0.658304884343 3.60493607353 0)
(0.655883747876 3.48309424154 0)
(0.653558199841 3.35946869587 0)
(0.651618029059 3.23403810598 0)
(0.650009005723 3.10678319786 0)
(0.648980800175 2.97763992827 0)
(0.648498479076 2.84655197107 0)
(0.648816002648 2.71342655801 0)
(0.649928062022 2.57818127901 0)
(0.65209725825 2.4407001395 0)
(0.655356147723 2.30088365776 0)
(0.659980475777 2.15859646607 0)
(0.666022163045 2.01371432899 0)
(0.673695136084 1.86610672145 0)
(0.682862665411 1.71573286818 0)
(0.693075858189 1.56261078223 0)
(0.702485394512 1.40658705662 0)
(0.707729393643 1.24644903192 0)
(0.711099313055 1.08478213103 0)
(0.712104124449 0.919692904159 0)
(0.704078860875 0.751533865354 0)
(0.671897101793 0.581841643151 0)
(0.576021857533 0.411277266812 0)
(0.323363446043 0.208607167402 0)
(0.21304803725 0.116243758326 0)
(0.236208977339 0.0912972359982 0)
(0.187084562365 0.0338343702277 0)
(-0.507467297521 0.0560862905695 0)
(-0.933871852859 0.370104445454 0)
(-0.985762249448 0.731033026105 0)
(-0.925170434741 1.04444775984 0)
(-0.843118917651 1.31869667899 0)
(-0.808360142947 1.61409751231 0)
(-0.863681220994 2.01410675466 0)
(-1.07330909253 2.80990224689 0)
(-1.05824217581 3.2334938452 0)
(-0.947999135881 3.54689482687 0)
(-0.830360268822 3.86239668762 0)
(-0.751344389051 4.35155333548 0)
(-0.830830193137 5.71452539775 0)
(-0.764338244246 6.21347827615 0)
(-0.657320867034 6.45228830001 0)
(-0.550642442887 6.63138631726 0)
(-0.455156647751 6.75821142996 0)
(-0.382176415336 6.85363071961 0)
(-0.328381638869 6.92024331106 0)
(-0.282563854395 6.95847469074 0)
(-0.227860027544 6.97718052005 0)
(-0.160172478437 6.99078851153 0)
(-0.0917607228459 7.00771056919 0)
(-0.0290970886646 7.02622821378 0)
(0.023737227908 7.04496361055 0)
(0.0669294911421 7.06187657603 0)
(0.102420947594 7.07565808504 0)
(0.132089875462 7.08561738732 0)
(0.157793321967 7.0912816511 0)
(0.180823414828 7.092049416 0)
(0.202228373547 7.08713554294 0)
(0.222397361128 7.07575782454 0)
(0.241583444959 7.05777309881 0)
(0.259967357043 7.03387976158 0)
(0.278358407541 7.00435138304 0)
(0.297486453191 6.96834261184 0)
(0.317857483262 6.92533086735 0)
(0.339427532981 6.87564927649 0)
(0.361404159194 6.81977783503 0)
(0.382167385155 6.75819925878 0)
(0.400420268043 6.69177310971 0)
(0.415408280961 6.62159645789 0)
(0.427397850342 6.54836689418 0)
(0.437407434282 6.47139473187 0)
(0.447355383063 6.39098310915 0)
(0.457491675345 6.30788706478 0)
(0.467867041639 6.22237535122 0)
(0.478327126145 6.13448228479 0)
(0.488862500238 6.04426711136 0)
(0.499351748 5.95180298214 0)
(0.509815152493 5.85716498511 0)
(0.520161269073 5.76044119213 0)
(0.53043098897 5.66172291508 0)
(0.540548075729 5.561115876 0)
(0.550552347131 5.4587303773 0)
(0.560350137775 5.35468929558 0)
(0.569931299171 5.24910994823 0)
(0.579120924968 5.14209200138 0)
(0.587798480879 5.0336741018 0)
(0.595685084516 4.92380371133 0)
(0.602592375571 4.8122620454 0)
(0.608291125501 4.69859011704 0)
(0.612933978596 4.58206827567 0)
(0.617202846296 4.46201426076 0)
(0.622659691343 4.33853327006 0)
(0.630564118757 4.21306919897 0)
(0.640202574643 4.08746062475 0)
(0.649497235462 3.96217898547 0)
(0.658012917931 3.83644230299 0)
(0.66608143275 3.70953258783 0)
(0.674114178611 3.58112159618 0)
(0.682277919834 3.45108649439 0)
(0.690749189694 3.31936570308 0)
(0.699580007417 3.18591316088 0)
(0.70890687158 3.05067624176 0)
(0.718783733581 2.91360111206 0)
(0.729356392792 2.77462494623 0)
(0.740698642895 2.63368485258 0)
(0.752970975988 2.49071212308 0)
(0.766267292905 2.34564648986 0)
(0.780752300655 2.19843206305 0)
(0.796500956989 2.04903784884 0)
(0.813581135123 1.89747148876 0)
(0.831829118241 1.74380448936 0)
(0.850768688272 1.58811718678 0)
(0.869267808099 1.4303012259 0)
(0.885787996944 1.26972122382 0)
(0.899913225831 1.10588545988 0)
(0.909344258655 0.938341328449 0)
(0.90654699636 0.767353589899 0)
(0.872650817327 0.594184598902 0)
(0.756893698807 0.419448691937 0)
(0.436496536611 0.217331735243 0)
(0.28409637921 0.119416603423 0)
(0.243804459599 0.0727400068238 0)
(0.222056458075 0.0318493307701 0)
(-0.645106104282 0.0544357520815 0)
(-1.21893685954 0.396753214698 0)
(-1.29718004408 0.791634189588 0)
(-1.22261618541 1.12209942895 0)
(-1.15337282468 1.42285124044 0)
(-1.23266152222 1.83602272202 0)
(-1.53888073383 2.66750278455 0)
(-1.56395460046 3.15844112308 0)
(-1.44510692612 3.51021760422 0)
(-1.28503242193 3.81157724097 0)
(-1.1488794973 4.14066629841 0)
(-1.1357977586 4.73596618512 0)
(-1.27228402872 6.16787920068 0)
(-1.1483219854 6.52705910449 0)
(-0.999548923952 6.71981665691 0)
(-0.865736405265 6.86015462269 0)
(-0.75121404954 6.96680688413 0)
(-0.65715197148 7.04757665803 0)
(-0.579425025363 7.1044106859 0)
(-0.510251470135 7.13967129686 0)
(-0.44118457511 7.15988616831 0)
(-0.370234822926 7.17371304681 0)
(-0.302090283622 7.18636391797 0)
(-0.239929591581 7.19864458897 0)
(-0.185378898111 7.21005156141 0)
(-0.138308661009 7.21961335911 0)
(-0.0975359891315 7.22650735191 0)
(-0.061577546361 7.23010007288 0)
(-0.0289117483793 7.22975582826 0)
(0.0016991063064 7.22464446981 0)
(0.031141273602 7.21372537926 0)
(0.0598085331523 7.19607158063 0)
(0.0878537774529 7.17167234121 0)
(0.115516156388 7.14174043032 0)
(0.143451649134 7.10704830331 0)
(0.172360405248 7.06677564465 0)
(0.202473177032 7.01992571127 0)
(0.233281166453 6.96634532057 0)
(0.263822112988 6.90626456462 0)
(0.292827442672 6.84012923827 0)
(0.319098411174 6.76900657285 0)
(0.341936326092 6.694447787 0)
(0.361498518377 6.61755116586 0)
(0.378704267898 6.53768671328 0)
(0.395390608579 6.45328684005 0)
(0.412143673303 6.36635564552 0)
(0.428958738473 6.27711425511 0)
(0.445736578156 6.18561351258 0)
(0.462406912929 6.09192828478 0)
(0.478895098965 5.99613591788 0)
(0.495166026174 5.89831610723 0)
(0.511176814375 5.79855114066 0)
(0.526915612492 5.69692691659 0)
(0.542353093064 5.59353270499 0)
(0.557477739363 5.48845996556 0)
(0.572245692216 5.38179768172 0)
(0.586612799395 5.27362309261 0)
(0.600487397956 5.16398436762 0)
(0.613773846169 5.05287785263 0)
(0.626349264691 4.94022409085 0)
(0.638136469277 4.8258408796 0)
(0.649130433185 4.70942979477 0)
(0.659546452673 4.59062602448 0)
(0.669900689356 4.46918774308 0)
(0.680970206084 4.34530906967 0)
(0.693253471227 4.21971853923 0)
(0.706441880771 4.09323094482 0)
(0.719761388927 3.96612743475 0)
(0.732921016458 3.83817640481 0)
(0.746000322766 3.7090672622 0)
(0.759189670221 3.57859628407 0)
(0.772633974566 3.44665113458 0)
(0.786460903651 3.31316642694 0)
(0.800758380599 3.17809382608 0)
(0.815627057174 3.04139024658 0)
(0.831150810125 2.90301339351 0)
(0.847436813672 2.7629213259 0)
(0.864580530316 2.62107319711 0)
(0.882699590599 2.47743173001 0)
(0.901895901274 2.33196808131 0)
(0.922278240995 2.18466702455 0)
(0.943907698301 2.035534163 0)
(0.966785271807 1.88460015156 0)
(0.990750052233 1.73190854436 0)
(1.01540209874 1.5774591972 0)
(1.03998746568 1.4210928101 0)
(1.06344966722 1.26238787723 0)
(1.0844278606 1.10083861236 0)
(1.0995611056 0.936072417561 0)
(1.10024638947 0.767972396939 0)
(1.06472531365 0.597112644962 0)
(0.93346465336 0.423329829343 0)
(0.558381504477 0.223729959436 0)
(0.421468391144 0.145530193016 0)
(0.295484602497 0.075955455358 0)
(0.26293399251 0.0335801996297 0)
(-0.800207948486 0.0453389054971 0)
(-1.5234545798 0.415338410816 0)
(-1.62909723334 0.85363278174 2.11065074493e-26)
(-1.55942634269 1.20644571511 0)
(-1.58091000901 1.5600776096 0)
(-1.9970475324 2.38294300044 0)
(-2.08106658663 2.94525473227 0)
(-1.97825042984 3.35601256441 0)
(-1.79910394333 3.69419613258 0)
(-1.61297100619 4.02689651687 0)
(-1.50476303199 4.50343292856 0)
(-1.72363290422 5.88314138738 0)
(-1.65019197844 6.45194349783 0)
(-1.46282804812 6.68955901572 0)
(-1.27776369624 6.84615234851 0)
(-1.11580304884 6.96656989391 0)
(-0.977124939966 7.06073369042 0)
(-0.859214352428 7.13251062358 0)
(-0.757722201413 7.18412849613 0)
(-0.667108869559 7.21851487962 0)
(-0.582442848775 7.24040988739 0)
(-0.50205911219 7.25511852477 0)
(-0.427210792192 7.26615788204 0)
(-0.358999144948 7.27487625197 0)
(-0.297825436453 7.28154525198 0)
(-0.24327484816 7.28596402317 0)
(-0.194325465412 7.28778752123 0)
(-0.149659320002 7.28656638232 0)
(-0.107917816485 7.281630802 0)
(-0.0679492562062 7.27197410255 0)
(-0.0289878467006 7.25631636852 0)
(0.00928105301474 7.23360231972 0)
(0.0469519820994 7.20401135436 0)
(0.0842933815979 7.16926390249 0)
(0.121848320571 7.13060798842 0)
(0.160181969223 7.08726035328 0)
(0.199382888483 7.03780513723 0)
(0.238874974981 6.98162656203 0)
(0.277510850724 6.91868566323 0)
(0.314004992698 6.84937013547 0)
(0.347277513866 6.77489863356 0)
(0.376641453306 6.69721896618 0)
(0.40226219863 6.61788831839 0)
(0.42502656167 6.53635511298 0)
(0.446444009127 6.44972256007 0)
(0.467695895579 6.36034217142 0)
(0.488811029222 6.26868152989 0)
(0.509716316948 6.17484045913 0)
(0.530334545682 6.07890858948 0)
(0.550606444828 5.98097321135 0)
(0.570489585542 5.88111846531 0)
(0.589955655037 5.77942581521 0)
(0.608985532548 5.675975633 0)
(0.627565204992 5.5708464649 0)
(0.645679873167 5.46411383553 0)
(0.663309470657 5.35584526443 0)
(0.680423795719 5.24609344138 0)
(0.696982187204 5.1348842769 0)
(0.712938852001 5.02220411002 0)
(0.728257802845 4.90798798983 0)
(0.742937063412 4.79211303812 0)
(0.757048660449 4.67440749798 0)
(0.770786083181 4.55469986897 0)
(0.784489328682 4.43292065456 0)
(0.798560026211 4.309224738 0)
(0.813232981917 4.18398735444 0)
(0.828403161097 4.05760001724 0)
(0.843792786378 3.93023860159 0)
(0.859265864434 3.80185473876 0)
(0.874853235523 3.67232295412 0)
(0.890659357349 3.54153418821 0)
(0.906797628146 3.40941306012 0)
(0.923372948945 3.27590962032 0)
(0.940479546743 3.14098627903 0)
(0.958209701333 3.00461187359 0)
(0.976654833339 2.86675784919 0)
(0.995911391541 2.72739857579 0)
(1.01607749511 2.58651140689 0)
(1.03725516859 2.44407924708 0)
(1.05954164888 2.3000930291 0)
(1.08302341034 2.15455531309 0)
(1.10775232538 2.00748150789 0)
(1.13371607569 1.85889634418 0)
(1.16078103261 1.70881513658 0)
(1.18862389473 1.55720482593 0)
(1.21664172297 1.40392736239 0)
(1.24382588039 1.24870593973 0)
(1.26835824719 1.09117842536 0)
(1.28627389637 0.93094862887 0)
(1.28835892887 0.767567954534 0)
(1.25154196636 0.600556779082 0)
(1.11055082322 0.427019810029 0)
(0.685393825691 0.22076400801 0)
(0.509541076977 0.143507775658 0)
(0.342961069027 0.0798384259527 0)
(0.294517154664 0.0364814152735 0)
(-0.970517702153 0.0302073105618 0)
(-1.84712030719 0.429476214002 0)
(-1.97451398213 0.914017425874 -2.10093884114e-26)
(-1.90822649533 1.2622401511 0)
(-2.05670137879 1.69177607704 0)
(-2.57364494039 2.60045986844 0)
(-2.54575430649 3.08716162449 0)
(-2.36048104481 3.48030534161 0)
(-2.13474533662 3.81914041307 0)
(-1.92738472816 4.16295999711 0)
(-1.82608434408 4.67385486866 0)
(-2.09293073209 6.18871276363 0)
(-1.94316453656 6.57719228957 0)
(-1.71762746445 6.77361933333 0)
(-1.50311804007 6.91282206054 0)
(-1.31467338687 7.0217766515 0)
(-1.15179268945 7.10743672398 0)
(-1.01109142786 7.17304437814 0)
(-0.888346461526 7.22116627576 0)
(-0.77916827324 7.25472182246 0)
(-0.67996624455 7.27726945833 0)
(-0.588911434455 7.29235192794 0)
(-0.505628784489 7.30252727148 0)
(-0.429960512467 7.30919507587 0)
(-0.361511577858 7.31301131397 0)
(-0.299501417867 7.31421191312 0)
(-0.24280779111 7.31277287684 0)
(-0.190109742549 7.30839443819 0)
(-0.140090038725 7.30037777307 0)
(-0.0916561022679 7.28753431063 0)
(-0.0441395721581 7.26833607373 0)
(0.00266995565318 7.24163042079 0)
(0.0488202987847 7.20786270819 0)
(0.0946135340815 7.16925085447 0)
(0.140506494526 7.1274500838 0)
(0.186916637949 7.08175059734 0)
(0.23388525943 7.03045373494 0)
(0.280838267337 6.97243941687 0)
(0.326463054526 6.90731479738 0)
(0.369406198731 6.83549494298 0)
(0.408655460968 6.75836187087 0)
(0.44352228742 6.67820587636 0)
(0.474219147869 6.59700279982 0)
(0.501606266357 6.51416748142 0)
(0.527063703714 6.42634959913 0)
(0.552034615118 6.33511771037 0)
(0.576677978621 6.24159863488 0)
(0.600951712567 6.14594903218 0)
(0.624788783404 6.04827550599 0)
(0.648138836351 5.94867654974 0)
(0.670964751273 5.8472423673 0)
(0.693244691641 5.74405568382 0)
(0.714963987935 5.63919405252 0)
(0.736116124719 5.53272930906 0)
(0.756694475971 5.42472707466 0)
(0.776693943854 5.31524283765 0)
(0.796104679761 5.20431752895 0)
(0.81491765381 5.09197019511 0)
(0.83312555837 4.97819179977 0)
(0.850737926898 4.86294085883 0)
(0.867792147021 4.74614534876 0)
(0.884379037583 4.62771563773 0)
(0.900655701361 4.50757915649 0)
(0.916845936677 4.38573088585 0)
(0.933180561317 4.26227933622 0)
(0.949800984145 4.13742808561 0)
(0.966701196313 4.01138313712 0)
(0.983802220875 3.88425903341 0)
(1.00106538343 3.75606682041 0)
(1.01852497137 3.62676487448 0)
(1.03625708518 3.49630352559 0)
(1.05435456217 3.36464155596 0)
(1.07290963803 3.23174893075 0)
(1.09201338697 3.09760245793 0)
(1.11175454719 2.96218384743 0)
(1.13222373323 2.82547741984 0)
(1.15351266508 2.68747077212 0)
(1.17571592764 2.54815472966 0)
(1.19892766354 2.40752534015 0)
(1.22323868801 2.26558498074 0)
(1.24872659245 2.12234405289 0)
(1.27544073786 1.97781963099 0)
(1.3033737894 1.83203001296 0)
(1.3324170781 1.68497872221 0)
(1.36228826795 1.53662917395 0)
(1.39241228369 1.38687166769 0)
(1.42169054974 1.23550181926 0)
(1.4479870812 1.0822212912 0)
(1.46694378364 0.926653637917 0)
(1.46923614151 0.76838616251 0)
(1.43280929543 0.607098576686 0)
(1.29498603403 0.439307190382 0)
(0.858379862088 0.228351308289 0)
(0.599005407734 0.135085065176 0)
(0.386256943139 0.0824457310733 0)
(0.295604511061 0.0371866469031 0)
(-1.15762991699 0.010465857145 0)
(-2.19700314223 0.450892715015 0)
(-2.34977312965 1.00869981719 0)
(-2.33828988868 1.3765433169 0)
(-2.98769472978 2.14918859192 0)
(-3.14794730957 2.76946948247 0)
(-2.98669541812 3.20853237145 0)
(-2.72869375311 3.58334309935 0)
(-2.45773636436 3.91779278748 0)
(-2.22412392524 4.25851496327 0)
(-2.11599201885 4.76892152289 0)
(-2.40771089938 6.30324624131 0)
(-2.20445167523 6.64676108809 0)
(-1.94162780482 6.82724338634 0)
(-1.69759380419 6.95718267623 0)
(-1.48354720945 7.05825284782 0)
(-1.29782396844 7.13726957651 0)
(-1.13645957804 7.19787170864 0)
(-0.995194751861 7.24291923364 0)
(-0.870056715568 7.27517726925 0)
(-0.757843418285 7.29745882656 0)
(-0.656441327848 7.31234661336 0)
(-0.564602697219 7.32181674077 0)
(-0.48137899107 7.32717187239 0)
(-0.405803896792 7.32921438999 0)
(-0.336746197864 7.32840070203 0)
(-0.272896249445 7.3248908825 0)
(-0.212848313371 7.31846253962 0)
(-0.15526825923 7.30834894285 0)
(-0.0991035913141 7.29314736068 0)
(-0.043779586457 7.27106537884 0)
(0.0107982527927 7.24089249951 0)
(0.0646289987872 7.20343011782 0)
(0.118057922121 7.16139255223 0)
(0.171486218863 7.11676951497 0)
(0.225212778909 7.06897854748 0)
(0.279255410172 7.01612246068 0)
(0.332982676939 6.95652828401 0)
(0.384966050596 6.88943327771 0)
(0.433804650113 6.81533679567 0)
(0.478489473428 6.73579224932 0)
(0.518346879239 6.6534366831 0)
(0.553660754488 6.57064316727 0)
(0.585291410195 6.48673513833 0)
(0.614604309114 6.39790273412 0)
(0.643072039541 6.30502328731 0)
(0.671011348971 6.20985680966 0)
(0.698418366499 6.11260615568 0)
(0.725243036557 6.0133911661 0)
(0.751446164666 5.91232077001 0)
(0.777000454749 5.80949082437 0)
(0.801891557679 5.704986426 0)
(0.826112917119 5.59888384788 0)
(0.849665773149 5.49125141466 0)
(0.872554100207 5.38214903239 0)
(0.894785504967 5.27162631144 0)
(0.916368079969 5.15971960468 0)
(0.937314508594 5.0464485292 0)
(0.957643557095 4.93181302683 0)
(0.977389767053 4.81579330975 0)
(0.996609651454 4.69835388549 0)
(1.01539444513 4.57945496211 0)
(1.03387179362 4.45907352704 0)
(1.05219897701 4.337227807 0)
(1.07052879454 4.21399368395 0)
(1.08896786173 4.08949045762 0)
(1.10755642078 3.96383746688 0)
(1.12630047365 3.83711372614 0)
(1.14521611886 3.70934803378 0)
(1.16435080612 3.58053706686 0)
(1.18377434761 3.45066545814 0)
(1.20356951715 3.31971710403 0)
(1.22382158711 3.18767924827 0)
(1.24461722347 3.05454229688 0)
(1.26604226442 2.9202994017 0)
(1.28818418648 2.78494582226 0)
(1.31113093473 2.64847930434 0)
(1.33497226845 2.51090049572 0)
(1.3597967955 2.37221394198 0)
(1.3856898116 2.23242895434 0)
(1.41272494393 2.0915598624 0)
(1.44095194648 1.94962438228 0)
(1.47037124528 1.80663787998 0)
(1.50089058276 1.66260021673 0)
(1.5322433877 1.51747360472 0)
(1.56383818684 1.37114831884 0)
(1.59446697942 1.22340101748 0)
(1.62173919171 1.07384436554 0)
(1.6409808175 0.921901694267 0)
(1.6430480428 0.766989823012 0)
(1.6096674329 0.609229343599 0)
(1.50268423948 0.449622483106 0)
(1.24029721838 0.278137459666 0)
(0.709284651253 0.14366845712 0)
(0.43190276296 0.0961333704104 0)
(0.296773935264 0.0416388721715 0)
(-1.36442115037 -0.0159770835534 0)
(-2.5804219676 0.474457702459 0)
(-2.75689949987 1.11663181287 0)
(-2.77101809124 1.50007292222 0)
(-3.60008091021 2.31936546618 0)
(-3.64957465449 2.86111238008 0)
(-3.40761300706 3.30129588393 0)