/*--------------------------------*- C++ -*----------------------------------*\
| =========                 |                                                 |
| \\      /  F ield         | OpenFOAM: The Open Source CFD Toolbox           |
|  \\    /   O peration     | Version:  v1906                                 |
|   \\  /    A nd           | Web:      www.OpenFOAM.com                      |
|    \\/     M anipulation  |                                                 |
\*---------------------------------------------------------------------------*/
FoamFile
{
    version     2.0;
    format      ascii;
    class       surfaceScalarField;
    location    "165";
    object      phi;
}
// * * * * * * * * * * * * * * * * * * * * * * * * * * * * * * * * * * * * * //

dimensions      [0 3 -1 0 0 0 0];
oriented        oriented;


internalField   nonuniform List<scalar> 
18240
(
0.0119448552347
-0.0119448569045
0.0244857032682
-0.0125408502881
0.0369774308146
-0.0124917290601
0.0493302399118
-0.0123528113996
0.0614915003245
-0.0121612617001
0.0734144785417
-0.0119229805644
0.0850563526843
-0.0116418752145
0.0963779068184
-0.0113215565093
0.107343626167
-0.0109657202139
0.117921834687
-0.0105782109079
0.128084818734
-0.0101629847149
0.13780886689
-0.00972405054143
0.147074263991
-0.00926539758485
0.15586519677
-0.00879093515308
0.164169627606
-0.00830443114903
0.171979094747
-0.00780946949339
0.179288502319
-0.00730940773044
0.186095854711
-0.00680735471538
0.192402001764
-0.00630614707004
0.198210344291
-0.00580834481477
0.203526567617
-0.00531622321645
0.20835834748
-0.00483178210947
0.212715096351
-0.00435674864689
0.216607689827
-0.00389259567523
0.220048241208
-0.00344055105666
0.223049860093
-0.00300162103268
0.225626463123
-0.00257660261642
0.22779256997
-0.00216610893771
0.229563152997
-0.00177058253457
0.230953472619
-0.00139032165332
0.231978969223
-0.00102549604226
0.232655150055
-0.000676182798654
0.232997564756
-0.000342414080739
0.2330219595
-2.43966398425e-05
0.232743438166
0.000278522013412
0.232176263818
0.000567172523391
0.231334651137
0.000841613404305
0.23023260054
0.00110204884444
0.228883781758
0.00134881954144
0.227301459842
0.00158232023741
0.225498481756
0.00180297887556
0.223487242219
0.00201123793207
0.221279690274
0.00220755276016
0.218887308322
0.0023923804229
0.216321127448
0.00256618170821
0.213591713751
0.00272941224548
0.210709188772
0.00288252582667
0.207683220648
0.00302596675027
0.204523047628
0.00316017387706
0.201237472472
0.00328557386061
0.19783488767
0.00340258566453
0.194323271968
0.00351161448512
0.190710216288
0.00361305654367
0.187002921591
0.00370729355739
0.183208224791
0.00379469766153
0.179332597406
0.00387562632391
0.175382170974
0.00395042728749
0.171362736142
0.0040194338479
0.167279767258
0.0040829697301
0.163138421678
0.0041413446733
0.158943563331
0.00419485917918
0.154699762138
0.00424380036244
0.150411316433
0.0042884465218
0.146082252447
0.00432906323074
0.141716345546
0.00436590769782
0.137317119787
0.00439922507941
0.132887867959
0.00442925260344
0.128431651257
0.00445621609628
0.123951318154
0.0044803338535
0.119449504247
0.00450181337614
0.114928649996
0.00452085497583
0.110391000816
0.00453764872194
0.105838623739
0.00455237777414
0.101273407811
0.00456521554248
0.096697079736
0.00457632874193
0.0921112046513
0.00458587477099
0.0875172008004
0.00459400448552
0.0829163407562
0.00460085980065
0.078309765175
0.00460657618054
0.0736984845302
0.00461128046879
0.0690833920007
0.00461509308953
0.0644652657848
0.00461812610486
0.0598447811906
0.00462048511153
0.05522251364
0.00462226750308
0.0505989501145
0.00462356399884
0.0459744931513
0.00462445698152
0.0413494722387
0.00462502134522
0.0367241501625
0.00462532216557
0.0320987375939
0.00462541296495
0.0274734100453
0.00462532770519
0.0228483480112
0.00462506238345
0.0182238254445
0.00462452277571
0.0136004822484
0.00462334346648
0.00897998769956
0.00462049484459
0.00437520302026
0.00460478499797
0.00437520317368
0.0126155680373
-0.0245604267995
0.0260058108123
-0.0259310951731
0.0393018109128
-0.0257877310094
0.0524371740492
-0.0254881765644
0.06536365805
-0.0250877474301
0.0780342763871
-0.0245936008656
0.0904043512736
-0.0240119517085
0.102432464023
-0.0233496711546
0.114080959123
-0.0226142167978
0.125316231144
-0.0218134847509
0.13610889242
-0.020955647352
0.146433834613
-0.0200489944798
0.156270215109
-0.0191017793226
0.16560136134
-0.0181220830516
0.174414622823
-0.0171176937609
0.182701162448
-0.0160960107086
0.19045571877
-0.0150639650736
0.197676328854
-0.014027966312
0.204364043615
-0.012993862752
0.210522622054
-0.0119669246926
0.216158235266
-0.0109518372548
0.221279163032
-0.00995271123973
0.225895512348
-0.00897309870131
0.230018937365
-0.00801602198553
0.23366238859
-0.0070840029382
0.236839868089
-0.00617910175443
0.23956621734
-0.00530295244736
0.241856912412
-0.00445680516469
0.243727892081
-0.00364156271156
0.245195391482
-0.00285782214168
0.246275803898
-0.00210590889883
0.246985533547
-0.00138591346914
0.247340830968
-0.000697711879317
0.247357357939
-4.09245583464e-05
0.247051020295
0.000584859356201
0.246438092485
0.00118009945719
0.245534169451
0.00174553619347
0.244354286323
0.00228193115666
0.242913012845
0.00279009282483
0.24122445394
0.00327087838555
0.239302247605
0.00372518506314
0.237159549311
0.00415393552616
0.234809031505
0.00455807046281
0.232262874135
0.00493853714845
0.229532770793
0.00529628498919
0.226629925609
0.00563225684017
0.223565064595
0.00594738681737
0.220348437131
0.00624259367798
0.216989830739
0.00651878028261
0.213498575599
0.00677682851616
0.209883561374
0.0070175999369
0.206153243583
0.00724193184234
0.202315661457
0.00745063874799
0.198378445335
0.00764450929427
0.194348834825
0.00782430827886
0.19023368664
0.00799077417113
0.186039492575
0.00814462148622
0.1817723874
0.0082865387315
0.177438166325
0.00841719096246
0.17304229272
0.00853721803094
0.168589914874
0.00864723720437
0.16408587341
0.00874784162212
0.159534717238
0.00883960289235
0.154940710614
0.00892306969068
0.150307848255
0.00899877027397
0.145639862032
0.00906721117773
0.140940235262
0.00912887960543
0.136212209075
0.00918424219708
0.131458795908
0.00923374726728
0.126682785604
0.00927782362985
0.121886758171
0.00931688266836
0.117073089669
0.00935131721041
0.112243964292
0.0093815034221
0.107401380124
0.00940779973179
0.102547160602
0.00943054854526
0.097682960205
0.00945007522254
0.0928102753652
0.00946668961367
0.087930450158
0.00948068509427
0.0830446867094
0.00949233992232
0.0781540509559
0.00950191633729
0.0732594826048
0.0095096617353
0.068361801021
0.00951580782904
0.0634617148013
0.00952057162405
0.0585598278595
0.00952415460863
0.0536566486899
0.00952674345899
0.04875259674
0.00952850912064
0.0438480114216
0.00952960695598
0.0389431586504
0.00953017515629
0.0340382386796
0.00953033323459
0.029133388861
0.00953017777572
0.0242286754085
0.00952977611683
0.019324040677
0.00952915775633
0.0144190889363
0.00952829550092
0.00951273441714
0.00952684966031
0.00460768255001
0.00950983719028
0.00898288591811
0.012755763143
-0.0373161918723
0.0262518133712
-0.0394271474417
0.0396671731038
-0.039203092714
0.0529211148624
-0.0387421202913
0.0659615472025
-0.038128181637
0.0787398632764
-0.0373719188225
0.0912104473043
-0.0364825374984
0.103331204323
-0.0354704299647
0.115063980179
-0.0343469943097
0.126374839703
-0.0331243459705
0.137234228035
-0.0318150372332
0.147617026394
-0.0304317944386
0.157502521255
-0.0289872756283
0.166874293762
-0.0274938570635
0.17572004819
-0.0259634495314
0.184031385778
-0.0244073497091
0.19180354293
-0.0228361234704
0.199035098557
-0.0212595232627
0.205727668213
-0.0196864335607
0.211885587061
-0.0181248447777
0.217515596995
-0.016581848253
0.222626536839
-0.0150636522395
0.22722904843
-0.0135756112738
0.231335294615
-0.0121222692474
0.234958699784
-0.0107074090095
0.238113706661
-0.00933410963316
0.240815558294
-0.00800480490669
0.243080097274
-0.00672134507462
0.244923589928
-0.0054850561212
0.246362566246
-0.00429679932009
0.247413682339
-0.00315702567904
0.248093595879
-0.0020658278038
0.248418864744
-0.00102298136493
0.248405921953
-2.79824808005e-05
0.248070885961
0.000919894819094
0.247429549572
0.00182143520804
0.246497390382
0.00267769491193
0.245289478505
0.00348984245402
0.243820441798
0.0042591291146
0.2421044438
0.00498687585792
0.240155170894
0.00567445760323
0.237985820059
0.00632328588821
0.235609094828
0.00693479537802
0.233037201117
0.00751043043752
0.23028185025
0.00805163558638
0.227354260937
0.00855984578005
0.224265167352
0.00903648017697
0.221024825362
0.00948293534247
0.217643023946
0.00990058151543
0.214129094147
0.0102907580348
0.210491922497
0.0106547714457
0.206739961553
0.0109938925489
0.202881244365
0.0113093558322
0.198923395784
0.0116023576805
0.194873647271
0.0118740567243
0.190738848431
0.0121255728562
0.186525481698
0.0123579881853
0.182239673721
0.0125723465917
0.177887209632
0.0127696550505
0.173473544055
0.0129508835268
0.169003814791
0.0131169664973
0.164482853326
0.0132688030402
0.159915197845
0.0134072584305
0.155305103197
0.0135331643239
0.150656553215
0.0136473203394
0.145973270141
0.0137504942681
0.14125872627
0.013843423585
0.136516152873
0.0139268156396
0.131748551212
0.0140013490602
0.126958701014
0.0140676739009
0.122149170919
0.0141264129179
0.117322326569
0.0141781616606
0.112480340555
0.014223489611
0.107625200197
0.0142629402162
0.102758717047
0.0142970318892
0.0978825344341
0.0143262579862
0.0929981365872
0.0143510876721
0.0881068560051
0.014371965849
0.083209882262
0.0143893138918
0.0783082692568
0.0144035295341
0.0734029437543
0.0144149874755
0.0684947125635
0.0144240392271
0.0635842708531
0.0144310135804
0.0586722092906
0.014436216392
0.0537590221302
0.0144399308734
0.0488451142469
0.0144424172406
0.0439308087652
0.0144439127037
0.0390163533558
0.0144446308241
0.0341019257925
0.0144447610791
0.0291876356159
0.0144444682267
0.0242735186732
0.0144438933513
0.0193595162237
0.0144431604739
0.0144454312743
0.0144423807078
0.00953114947447
0.014441131789
0.00462405116322
0.0144169358595
0.0136069372353
0.0129136017558
-0.0502297955826
0.0265633964411
-0.0530769442217
0.0401323546006
-0.0527720528726
0.0535354830427
-0.0521452507116
0.0667180540359
-0.0513107545384
0.0796295941276
-0.0502834607937
0.09222310964
-0.0490760548212
0.104455481457
-0.0477028035631
0.116287833429
-0.0461793479889
0.127685788765
-0.0445223029871
0.138619612168
-0.0427488622414
0.14906424457
-0.0408764284192
0.158999244352
-0.0389222769122
0.168408647041
-0.0369032612329
0.177280759834
-0.0348355637261
0.185607903463
-0.032734494722
0.193386117307
-0.0306143386204
0.200614838413
-0.02848824566
0.207296567954
-0.0263681643153
0.213436532666
-0.024264810692
0.21904235159
-0.0221876683034
0.224123712279
-0.020145014047
0.228692063706
-0.0181439637432
0.232760327022
-0.0161905336012
0.236342628922
-0.0142897118729
0.239454056465
-0.0124455381361
0.242110436305
-0.010661185635
0.24432813565
-0.00893904530694
0.24612388673
-0.00728080801641
0.247514631197
-0.00568754460332
0.2485173858
-0.00415978102938
0.249149126278
-0.00269756903085
0.249426690943
-0.00130054670797
0.249366743224
3.19645784163e-05
0.248985594143
0.00130104332572
0.248299183491
0.00250784528185
0.247323087154
0.00365379073275
0.246072460748
0.00474046833894
0.24456200242
0.00576958698174
0.242805930032
0.00674294777753
0.240817967554
0.00766241967223
0.238611335886
0.00852991714076
0.236198749401
0.00934738150264
0.233592415065
0.0101167644072
0.230804035843
0.0108400144966
0.227844815552
0.0115190657525
0.224725466983
0.0121558284791
0.221456220591
0.0127521814608
0.218046835634
0.0133099662495
0.214506611249
0.0138309821902
0.210844399356
0.0143169831564
0.207068617053
0.0147696746641
0.203187260363
0.0151907123809
0.199207917175
0.01558170072
0.195137781231
0.0159441925639
0.190983665084
0.0162796888931
0.186752013888
0.0165896393132
0.182448918054
0.0168754423515
0.178080126581
0.0171384464889
0.173651059207
0.0173799508594
0.16916681914
0.017601206562
0.1646322046
0.0178034175724
0.160051720883
0.0179877421746
0.155429591277
0.0181552939518
0.150769768447
0.0183071432248
0.146075944733
0.0184443180325
0.141351562896
0.0185678055037
0.136599825844
0.0186785527692
0.131823706789
0.0187774682224
0.127025958465
0.0188654223282
0.122209122766
0.0189432487482
0.117375539523
0.0190117450318
0.112527355694
0.0190716735946
0.107666533773
0.0191237622883
0.102794860605
0.0191687052333
0.0979139554931
0.0192071632717
0.0930252787004
0.01923976466
0.0881301393281
0.0192671054147
0.0832297035564
0.0192897498755
0.0783250023473
0.0193082309532
0.0734169394769
0.0193230505716
0.0685062991007
0.0193346798265
0.063593753606
0.0193435593113
0.0586798710483
0.0193500991842
0.0537651227897
0.0193546793783
0.0488498906992
0.019357649579
0.0439344743292
0.0193593293352
0.0390190973544
0.0193600080651
0.0341039132838
0.0193599454302
0.0291890094393
0.0193593723579
0.0242744089513
0.0193584941116
0.0193600722727
0.0193574974225
0.0144459128172
0.019356540472
0.00953209543268
0.0193549494759
0.00462666343657
0.019322368184
0.018233600855
0.0131210169816
-0.0633508145529
0.0269842975817
-0.0669402268869
0.040762614905
-0.0665503722448
0.0543676447032
-0.0657502825005
0.067742031735
-0.0646851435162
0.0808330629876
-0.0633744939427
0.0935919337462
-0.0618349274239
0.105974138644
-0.0600850102565
0.11793982623
-0.0581450373164
0.129454037078
-0.0560365155276
0.140486819938
-0.0537816467384
0.151013233161
-0.0514028432303
0.161013245146
-0.0489222904307
0.17047154933
-0.0463615669044
0.179377311237
-0.0437413270656
0.18772386389
-0.0410810487627
0.195508367977
-0.0383988440432
0.202731450442
-0.035711329419
0.209396834424
-0.0330335495398
0.215510970208
-0.030378947678
0.22108267606
-0.0277593753103
0.226122794597
-0.0251851337003
0.23064386988
-0.0226650400952
0.234659847652
-0.020206512407
0.238185801119
-0.0178156663291
0.241237682354
-0.0154974203274
0.24383209989
-0.013255604083
0.245986121123
-0.0110930674204
0.247717099056
-0.00901178678889
0.249042521265
-0.0070129676219
0.249979880276
-0.00509714080916
0.250546563447
-0.00326425294277
0.250759760239
-0.00151374419695
0.250636389433
0.000155334742003
0.250193008076
0.00174442410313
0.249445783519
0.00325506928227
0.248410453316
0.00468912041468
0.247102295816
0.00604862533897
0.245536102372
0.00733577995891
0.243726159044
0.0085528906583
0.241686235811
0.00970234249094
0.239429580807
0.0107865717483
0.236968919214
0.0118080427306
0.23431645534
0.0127692279341
0.231483877904
0.0136725916156
0.228482367331
0.0145205760247
0.225322605235
0.0153155903035
0.222014785051
0.0160600013886
0.218568624109
0.016756126964
0.214993376226
0.0174062298604
0.211297845199
0.0180125139969
0.207490398366
0.0185771213255
0.203578980683
0.0191021299168
0.19957112858
0.0195895526899
0.195473984039
0.0200413369962
0.191294308278
0.0204593645592
0.187038495488
0.02084545203
0.182712586053
0.0212013517257
0.178322279722
0.0215287527819
0.173872948199
0.0218292823549
0.169369647648
0.0221045071061
0.164817130589
0.0223559346349
0.160219857687
0.0225850151002
0.155582008951
0.0227931427219
0.150907494822
0.0229816574057
0.146199966711
0.0231518462051
0.141462827432
0.0233049448611
0.136699241134
0.0234421391556
0.131912143147
0.0235645663138
0.127104249378
0.0236733162097
0.122278065653
0.0237694326025
0.117435896645
0.0238539141768
0.112579854788
0.0239277156035
0.107711868825
0.0239917484118
0.102833692356
0.0240468818762
0.0979469120808
0.0240939437278
0.0930529560563
0.0241337208783
0.088153101688
0.0241669599835
0.0832484837592
0.0241943680155
0.0783401022284
0.0242166127004
0.0734288300708
0.0242343229544
0.068515420924
0.0242480892024
0.0636005167662
0.0242584637053
0.0586846554108
0.0242659607792
0.0537682780002
0.0242710570358
0.0488517362779
0.0242741915539
0.0439352997487
0.0242757661264
0.0390191625033
0.0242761455826
0.0341034497642
0.0242756584489
0.0291882241733
0.0242745982314
0.0242734926794
0.0242732259022
0.0193592168554
0.024271773523
0.014445339728
0.0242704178542
0.0095320604786
0.0242682290615
0.00462740534158
0.0242270236874
0.0228610063527
0.0133834909693
-0.0767343075355
0.027520855424
-0.0810775934996
0.0415671393125
-0.0805966581971
0.0554298686158
-0.0796130138366
0.0690485404878
-0.0783038173608
0.0823677071483
-0.0766936625308
0.0953363059007
-0.074803528049
0.107908092253
-0.0726567984323
0.120042002859
-0.0702789496903
0.131702378773
-0.0676968931598
0.142859048912
-0.0649383185394
0.15348728527
-0.0620310812002
0.163567647292
-0.0590026540086
0.173085735237
-0.0558796563568
0.182031873433
-0.052687466715
0.190400743333
-0.0494499200695
0.198190984901
-0.046189086965
0.205404782213
-0.0429251280409
0.212047446928
-0.0396762155141
0.218127010228
-0.0364585121954
0.223653831709
-0.0332861979589
0.228640230983
-0.0301715341037
0.233100146211
-0.0271249564058
0.237048821641
-0.0241551888821
0.240502525368
-0.0212693710577
0.243478297015
-0.0184731929389
0.245993724687
-0.0157710326782
0.248066749598
-0.0131660932205
0.249715496782
-0.0106605348205
0.250958129738
-0.00825560139421
0.251812727131
-0.00595173897952
0.2522971793
-0.00374870585738
0.252429100198
-0.00164566579495
0.252225739404
0.00035869489953
0.251703961378
0.00226620155572
0.25088018345
0.00407884666418
0.24977033908
0.0057989642697
0.248389856115
0.00742910781337
0.246753637424
0.00897199818946
0.244876048553
0.0104304790929
0.24277091147
0.0118074791644
0.240451502973
0.013105979859
0.237930557053
0.014328988291
0.235220270304
0.0154795143452
0.232332309933
0.0165605516748
0.229277823664
0.0175750620019
0.226067451289
0.0185259624116
0.222711337293
0.0194161151371
0.219219144438
0.020248319595
0.215600067848
0.0210253062454
0.211862849559
0.0217497321035
0.208015793176
0.022424177545
0.204066778658
0.0230511442914
0.200023276943
0.0236330542793
0.195892364498
0.0241722493365
0.191680737516
0.0246709914519
0.187394725922
0.0251314635545
0.18304030694
0.0255557706537
0.178623118379
0.0259459413081
0.174148471451
0.0263039292619
0.169621363279
0.0266316152739
0.165046488932
0.0269308089915
0.160428253146
0.0272032509125
0.155770781595
0.0274506143117
0.151077931873
0.0276745071829
0.146353304051
0.0278764740931
0.141600250986
0.0280579980073
0.136821888242
0.0282205019927
0.132021103796
0.0283653508664
0.127200567416
0.0284938527081
0.122362739848
0.0286072603017
0.117509881729
0.028706772437
0.112644062349
0.0287935351371
0.107767168176
0.0288686427499
0.102880911266
0.0289331389617
0.0979868374828
0.0289880176965
0.0930863346264
0.0290342239305
0.0881806404091
0.0290726544049
0.083270850364
0.0291041582736
0.0783579256333
0.0291295376512
0.0734427007044
0.0291495481105
0.0685258910441
0.0291648990951
0.0636081006933
0.0291762542942
0.0586898297633
0.029184231952
0.053771481884
0.0291894051639
0.0488533715443
0.0291923021492
0.0439357313631
0.0291934065723
0.0390187192667
0.0291931579522
0.0341024257076
0.0291919522929
0.0291868811886
0.0291901430443
0.0242720648745
0.0291880424896
0.0193579161656
0.0291859225069
0.0144443579665
0.0291839763749
0.00953154582739
0.0291810415036
0.00462739715988
0.0291311726827
0.0274884037018
0.0137055543903
-0.0904398639851
0.0281803467314
-0.0955523879697
0.0425562943513
-0.0949726079415
0.0567355510095
-0.0937922725522
0.0706536840011
-0.092221952368
0.084251883859
-0.0902918643476
0.0974763293254
-0.0880279754244
0.110278671834
-0.0854591427939
0.122616412697
-0.0826166923546
0.134453107992
-0.0795335901996
0.145758407942
-0.0762436201807
0.156507949213
-0.0727806241065
0.166683123795
-0.0691778301733
0.176270750346
-0.0654672844364
0.185262673991
-0.0616793918378
0.193655318795
-0.0578425662972
0.201449214497
-0.0539829840437
0.208648515674
-0.0501244305419
0.215260527984
-0.0462882291039
0.221295252732
-0.0424932381731
0.226764957833
-0.0387559042462
0.231683780533
-0.0350903579435
0.236067365018
-0.0315085419891
0.239932536157
-0.0280203610754
0.243297009295
-0.0246338452113
0.246179134938
-0.0213553195547
0.248597676495
-0.0181895751701
0.250571618768
-0.0151400363883
0.252120004663
-0.0122089215738
0.253261797468
-0.0093973950208
0.254015766105
-0.00670570840325
0.254400390642
-0.00413333114336
0.254433782897
-0.00167905875357
0.254133573991
0.000658903178796
0.253516992607
0.0028827823728
0.25260073583
0.00499510290614
0.251400956682
0.00699874291005
0.249933251047
0.00889681296844
0.248212645555
0.0106926032277
0.246253591749
0.0123895324711
0.244069965383
0.0139911051287
0.241675069766
0.0155008750987
0.239081642441
0.0169224152631
0.236301864452
0.0182592920046
0.23334737169
0.0195150441307
0.230229267771
0.0206931656373
0.226958138104
0.0217970918175
0.223544064754
0.0228301882481
0.219996641873
0.0237957422573
0.216324991427
0.0246969564943
0.21253777906
0.0255369442928
0.208643229922
0.0263187265259
0.204649144357
0.0270452297186
0.200562913334
0.0277192851832
0.196391533579
0.0283436289906
0.192141622316
0.028920902633
0.187819431614
0.0294536541915
0.183430862289
0.02994433993
0.178981477373
0.0303953261923
0.17447651511
0.0308088915092
0.169920901526
0.031187228858
0.165319262539
0.0315324479938
0.16067593566
0.0318465778208
0.155994981273
0.0321315687432
0.151280193533
0.0323892949807
0.146535110893
0.0326215568041
0.141763026297
0.032830082688
0.136966997038
0.0330165313489
0.13214985434
0.0331824936739
0.127314212653
0.0333294945167
0.122462478714
0.0334589943744
0.117596860376
0.0335723909207
0.112719375237
0.0336710204329
0.10783185909
0.0337561590645
0.102935974212
0.0338290240185
0.0980332175081
0.0338907745894
0.0931249285343
0.0339425131028
0.0882122974043
0.0339852857422
0.0832963726083
0.0340200832853
0.0783780687387
0.0340478417437
0.0734581741526
0.0340694429262
0.0685373585595
0.0340857149235
0.0636161805601
0.0340974325341
0.0586950951231
0.0341053176345
0.053774461021
0.0341100395174
0.0488545482166
0.0341122152117
0.0439355452363
0.0341124098191
0.0390175665665
0.0341111369
0.0341006601972
0.034108858946
0.0291848155566
0.0341059879711
0.0242699722813
0.0341028860697
0.0193560305707
0.0340998644999
0.0144428698738
0.0340971373237
0.00953058511148
0.0340933266101
0.00462700169659
0.0340347564721
0.032115405555
0.014091937798
-0.104531803874
0.0289717988794
-0.110432251299
0.0437432261806
-0.109744037387
0.0583016330518
-0.108350681537
0.0725777235004
-0.106498044866
0.086508590542
-0.104222733391
0.100037095376
-0.101556482203
0.113112403985
-0.0985344532937
0.125690375604
-0.0951946658066
0.137733738179
-0.0915769545532
0.149212065547
-0.0877219492681
0.160101583791
-0.0836701440171
0.170384839372
-0.0794610873612
0.180050262999
-0.0751327096191
0.189091662076
-0.0707207924136
0.197507671264
-0.0662585769339
0.205301186537
-0.0617765007108
0.212478803212
-0.0573020485636
0.219050273776
-0.0528597009618
0.225027996824
-0.0484709624704
0.230426544679
-0.0441544532995
0.235262233967
-0.0399260483886
0.239552740963
-0.035799050094
0.243316761478
-0.0317843826595
0.246573713798
-0.0278907985556
0.249343482082
-0.0241250888245
0.251646197186
-0.0204922912162
0.253502051456
-0.0169958915638
0.254931144086
-0.0136380150698
0.255953353616
-0.0104196053806
0.256588234507
-0.00734059008618
0.256854934627
-0.00440003202011
0.256772129939
-0.00159625476437
0.256357872741
0.00107315975777
0.255629803
0.00361085155755
0.254604921598
0.00601998378058
0.253299618209
0.00830404580183
0.251729668124
0.0104667625816
0.24991022758
0.0125120433284
0.247855835041
0.0144439245905
0.245580416897
0.0162665228793
0.243097296491
0.0179839951349
0.240419205803
0.0196005056071
0.237558299133
0.021120198353
0.234526168291
0.0225471746748
0.23133385883
0.0238854748213
0.227991886999
0.0251390633956
0.224510257089
0.026311817925
0.220898478984
0.0274075201513
0.217165585677
0.0284298496099
0.213320150645
0.0293823791547
0.209370304927
0.0302685720919
0.205323753854
0.031091780661
0.201187793319
0.0318552456038
0.196969325587
0.0325620966281
0.192674874577
0.0332153535665
0.188310600615
0.0338179280932
0.183882314655
0.0343726258477
0.179395491952
0.0348821488689
0.17485528522
0.0353490982295
0.170266537279
0.0357759768047
0.165633793195
0.0361651920967
0.160961311979
0.0365190590714
0.156253077816
0.0368398029543
0.1515128109
0.0371295619587
0.146743977869
0.0373903899104
0.141949801888
0.037624258757
0.1371332724
0.0378330609382
0.132297154572
0.0380186116151
0.127443998477
0.0381826507378
0.12257614801
0.038326844978
0.117695749598
0.0384527894818
0.112804760702
0.0385620094889
0.107904958145
0.0386559617935
0.102997946279
0.038736036066
0.0980851650247
0.0388035560352
0.0931678977849
0.0388597805441
0.0882472792554
0.038905904482
0.0833243031518
0.0389430596073
0.0783998298568
0.0389723152645
0.0734745940051
0.0389946790102
0.0685492120122
0.0390110971543
0.0636241895591
0.0390224552303
0.0586999290365
0.0390295784051
0.0537767369665
0.0390332318411
0.0488548314043
0.0390341210345
0.0439343493615
0.0390328921314
0.0390153542862
0.0390301322531
0.0340978436971
0.039026369825
0.0291817570955
0.0390220748724
0.0242669843143
0.0390176591254
0.019353374666
0.0390134744271
0.0144407527113
0.0390097596124
0.00952914930301
0.0390049303218
0.00462631409767
0.0389375920046
0.0367417198481
0.0145482055095
-0.119080011535
0.0299063248759
-0.125790372883
0.0451442581052
-0.124981972838
0.0601491397715
-0.12335556535
0.0748457341928
-0.121194641391
0.0891661944092
-0.11854319565
0.103049445491
-0.115439735273
0.116441773545
-0.111926783277
0.129297216442
-0.108050110577
0.141577690739
-0.103857430661
0.153252879653
-0.0993971399385
0.164299921826
-0.0947171878843
0.174702945451
-0.089864112626
0.184452492554
-0.0848822583008
0.193544874859
-0.0798131762455
0.20198149739
-0.0746952009341
0.209768179358
-0.0695631840971
0.216914495284
-0.0644483658524
0.22343315289
-0.0593783598839
0.229339418784
-0.0543772296272
0.234650598215
-0.0494656339489
0.239385571591
-0.0446610229324
0.243564387537
-0.0399778671662
0.247207910412
-0.0354279066129
0.250337518748
-0.0310204079298
0.252974850413
-0.0267624214824
0.255141589801
-0.0226590315589
0.256859292381
-0.0187135950561
0.258149241995
-0.0149279655595
0.259032336719
-0.0113027009394
0.259528999796
-0.00783725396387
0.259659112021
-0.0045301450048
0.259441972788
-0.0013791162269
0.258896090106
0.00161904183521
0.258039544552
0.00446739656336
0.256889654753
0.0071698730636
0.255463056838
0.00973064322822
0.253775709495
0.0121541094637
0.25184289737
0.014444855017
0.249679240433
0.0166075811193
0.247298706879
0.0186470560483
0.244714628588
0.0205680730658
0.241939718443
0.0223754154153
0.238986088954
0.0240738275294
0.235865271725
0.0256679916131
0.232588237399
0.0271625088791
0.229165415786
0.0285618847623
0.225606715938
0.029870517548
0.221921545999
0.0310926898863
0.218118832672
0.0322325627528
0.214207040217
0.033294171446
0.210194188878
0.0342814232862
0.206087872712
0.0351980967017
0.201895276758
0.0360478414515
0.19762319355
0.0368341797466
0.193278038959
0.0375605080867
0.188865867362
0.0382300996355
0.184392386171
0.0388461070016
0.179862969718
0.0394115652998
0.175282672546
0.0399293953958
0.170656242112
0.0404024072483
0.16598813095
0.040833303283
0.161282508322
0.0412246817382
0.156543271388
0.0415790399411
0.151774055937
0.0418987774763
0.146978246705
0.0421861992214
0.142158987327
0.0424435182274
0.137319189939
0.042672858432
0.132461544477
0.0428762571938
0.127588527699
0.0430556676457
0.122702411954
0.0432129608629
0.117805273739
0.0433499278495
0.112899002046
0.0434682813459
0.10798530655
0.0435696574637
0.103065725645
0.0436556171556
0.0981416343475
0.0437276475279
0.0932142520903
0.0437871630057
0.0882846504252
0.0438355063604
0.0833537606436
0.0438739496104
0.0784223813313
0.0439036948054
0.0734911858706
0.0439258747058
0.0685607298976
0.0439415533679
0.0636314587262
0.0439517266475
0.0587037147487
0.0439573226332
0.0537777448234
0.0439592020228
0.0488537076685
0.0439581584524
0.0439316812803
0.0439549187911
0.0390116704143
0.043950143402
0.0340936141687
0.0439444263588
0.0291773937393
0.0439382955914
0.0242628403768
0.0439322128007
0.0193497435821
0.0439265715095
0.0144378655597
0.0439216378835
0.00952717092587
0.0439156253074
0.00462533866037
0.0438394246525
0.0413670586655
0.0150810784639
-0.13416109219
0.0309975125406
-0.141706809324
0.0467794024684
-0.140763865014
0.0623038233839
-0.138879988484
0.0774883516659
-0.13637917182
0.0922592381784
-0.133314084258
0.106550791508
-0.129731290635
0.120306018876
-0.125682012621
0.133477003388
-0.121221097001
0.146024952913
-0.116405382039
0.157919960065
-0.111292148879
0.169140529956
-0.105937759506
0.179672936678
-0.100396521015
0.189510467191
-0.0947197904261
0.198652605033
-0.0889553156368
0.207104197476
-0.0831467948746
0.214874640403
-0.0773336284617
0.221977105769
-0.0715508326059
0.228427828407
-0.0658290838526
0.234245461828
-0.0601948643327
0.239450507295
-0.0546706806463
0.244064816148
-0.0492753329718
0.248111162592
-0.0440242147466
0.251612882078
-0.0389296271928
0.254593569436
-0.034001096334
0.257076830287
-0.02924568334
0.259086079294
-0.0246682815274
0.260644378915
-0.0202718955995
0.261774312827
-0.0160579003522
0.262497888588
-0.012026277545
0.262836465496
-0.00817583167637
0.262810700402
-0.00450438067646
0.262440571183
-0.00100898769408
0.261745091598
0.00231452082948
0.260742766747
0.00546972087979
0.259451237306
0.00846140199707
0.25788738973
0.0112944903272
0.25606736222
0.0139741365214
0.254006558871
0.016505657942
0.251719668574
0.0188944710156
0.249220686109
0.021146038139
0.246522934743
0.0232658240794
0.243639089792
0.0252592600404
0.240581202626
0.02713171439
0.237360724808
0.0288884691498
0.233988532026
0.0305347014003
0.230474947649
0.0320754689019
0.2268297657
0.0335156992796
0.22306227316
0.0348601822297
0.21918127149
0.0361135642455
0.215195097331
0.0372803454493
0.211111642332
0.0383648781465
0.206938372123
0.0393713667926
0.20268234439
0.040303869084
0.198350226109
0.0411662979454
0.193948309931
0.0419624241985
0.18948252977
0.0426958797492
0.184958475602
0.043370161137
0.180381407556
0.0439886333308
0.175756269288