/*--------------------------------*- C++ -*----------------------------------*\
| =========                 |                                                 |
| \\      /  F ield         | OpenFOAM: The Open Source CFD Toolbox           |
|  \\    /   O peration     | Version:  v1906                                 |
|   \\  /    A nd           | Web:      www.OpenFOAM.com                      |
|    \\/     M anipulation  |                                                 |
\*---------------------------------------------------------------------------*/
FoamFile
{
    version     2.0;
    format      ascii;
    class       volVectorField;
    location    "448";
    object      U;
}
// * * * * * * * * * * * * * * * * * * * * * * * * * * * * * * * * * * * * * //

dimensions      [0 1 -1 0 0 0 0];


internalField   nonuniform List<vector> 
9216
(
(0.00271117643421 -0.00271400774469 0)
(0.00285850890075 -0.00875857009345 1.17265843552e-27)
(0.00285039431126 -0.0148973009079 1.84230030952e-31)
(0.00281311528057 -0.0210365156945 0)
(0.0027614173679 -0.0270729505314 0)
(0.00269665281823 -0.0329824147377 0)
(0.00262063400702 -0.0387390280871 0)
(0.00253456070864 -0.044319880836 0)
(0.00243989505488 -0.0497047406995 0)
(0.00233772990723 -0.054876269974 0)
(0.00222952664773 -0.0598197601319 0)
(0.00211627459838 -0.0645233018267 0)
(0.00199936399967 -0.0689774270584 0)
(0.00187959998398 -0.0731751904508 0)
(0.00175823533955 -0.0771117332846 0)
(0.00163584360142 -0.0807843198305 0)
(0.00151351603801 -0.0841918691667 0)
(0.00139158807129 -0.0873349893377 0)
(0.00127099914919 -0.0902155163316 0)
(0.00115186664555 -0.0928365770791 0)
(0.00103500868531 -0.0952021560667 0)
(0.000920358572743 -0.0973171987013 0)
(0.0008086491467 -0.0991872147721 0)
(0.000699664082542 -0.100818424471 0)
(0.000594085303469 -0.102217394774 0)
(0.000491577179769 -0.103391219086 0)
(0.000392796651196 -0.104347181714 0)
(0.000297310175575 -0.105092963121 0)
(0.000205768921385 -0.105636323191 0)
(0.000117658487256 -0.105985321717 0)
(3.36403943809e-05 -0.106148005507 0)
(-4.68839714823e-05 -0.10613269828 0)
(-0.000123268926011 -0.105947570865 0)
(-0.000196176170158 -0.105600931095 0)
(-0.00026492264297 -0.105100988527 0)
(-0.000330234219406 -0.104456039293 0)
(-0.000391420599739 -0.103674196837 0)
(-0.000449271416178 -0.10276360474 0)
(-0.000503083335161 -0.101732176979 0)
(-0.000553703744912 -0.10058780326 0)
(-0.000600414164607 -0.0993381071161 0)
(-0.00064411267329 -0.0979906362117 0)
(-0.000684065679066 -0.0965526455407 0)
(-0.000721215531709 -0.0950312720088 0)
(-0.000754812177815 -0.0934333440072 0)
(-0.00078583322192 -0.0917655334121 0)
(-0.000813513046332 -0.0900341994572 0)
(-0.00083885642618 -0.0882455166187 0)
(-0.000861082214298 -0.08640535369 0)
(-0.000881212202101 -0.0845193697939 0)
(-0.000898452616343 -0.0825929362003 0)
(-0.000913833576311 -0.0806311983168 0)
(-0.000926551249013 -0.0786390402897 0)
(-0.000937633945546 -0.0766211051354 0)
(-0.000946273530129 -0.0745818085748 0)
(-0.000953488267959 -0.0725253154635 0)
(-0.000958471352755 -0.0704556014768 0)
(-0.000962221880531 -0.0683763793315 0)
(-0.000963942959313 -0.0662912128176 0)
(-0.000964607473017 -0.0642033927296 0)
(-0.000963436562136 -0.062116099845 0)
(-0.00096136931637 -0.0600322271988 0)
(-0.000957655009243 -0.0579545937269 0)
(-0.000953193280852 -0.0558857161678 0)
(-0.000947270254487 -0.05382806749 0)
(-0.000940740066116 -0.0517837996971 0)
(-0.000932934912118 -0.0497550453965 0)
(-0.000924658987293 -0.0477435989549 0)
(-0.000915297353127 -0.0457512527413 0)
(-0.000905599606532 -0.0437794426397 0)
(-0.000895009640193 -0.0418296140144 0)
(-0.000884219245647 -0.0399028422667 0)
(-0.00087273414931 -0.0380002181715 0)
(-0.000861185281037 -0.0361224523705 0)
(-0.000849141777381 -0.0342702730387 0)
(-0.000837172086683 -0.0324440256463 0)
(-0.000824907653771 -0.030644072586 0)
(-0.000812853330411 -0.0288703968987 0)
(-0.000800700541863 -0.0271229971145 0)
(-0.000788890691882 -0.0254015038884 0)
(-0.000777171020195 -0.023705562225 0)
(-0.000765920057744 -0.0220344668228 0)
(-0.000754935902407 -0.020387527852 0)
(-0.000744535087993 -0.0187637297985 0)
(-0.000734559913879 -0.0171620780359 0)
(-0.000725263773041 -0.0155812846377 0)
(-0.000716521671224 -0.0140200996251 0)
(-0.000708511413834 -0.0124770357097 0)
(-0.000701100311075 -0.0109507078328 0)
(-0.000694304389076 -0.00943965997172 0)
(-0.000687743549432 -0.00794285159259 0)
(-0.000680659901805 -0.00646002601379 0)
(-0.000670767230419 -0.0049937907786 0)
(-0.000647875001032 -0.0035657026648 0)
(-0.00060605102079 -0.00202420971908 0)
(-0.000986440884225 -0.000986858885812 0)
(0.00877726772921 -0.0028891676303 0)
(0.00970533055143 -0.00977705575533 0)
(0.00968304201829 -0.0166522350177 -1.2314267618e-27)
(0.00955364097151 -0.0235328928455 0)
(0.00937464816872 -0.0302890752008 0)
(0.00915325676426 -0.0368990778988 0)
(0.0088940545707 -0.0433354646048 0)
(0.00860103905332 -0.0495730300095 0)
(0.00827875568 -0.0555893521974 0)
(0.00793125803495 -0.0613651235789 0)
(0.0075631256748 -0.0668840770048 0)
(0.00717816006663 -0.0721330319425 0)
(0.00678062856773 -0.0771016506579 0)
(0.0063737717579 -0.0817823578905 0)
(0.00596130797868 -0.0861700043114 0)
(0.00554575647412 -0.0902617316297 0)
(0.00513020411213 -0.0940566061333 0)
(0.00471643015685 -0.0975554832377 0)
(0.00430692651268 -0.100760655287 0)
(0.00390280699528 -0.103675748929 0)
(0.00350607289865 -0.106305410829 0)
(0.00311729059648 -0.108655252072 0)
(0.00273809560221 -0.110731578643 0)
(0.00236862788647 -0.112541382478 0)
(0.00201027253915 -0.11409211228 0)
(0.00166284565111 -0.115391702847 0)
(0.00132757091373 -0.116448376933 0)
(0.00100401451222 -0.117270701285 0)
(0.000693300253188 -0.117867408856 0)
(0.000394794126096 -0.118247469266 0)
(0.000109560546206 -0.118419929355 0)
(-0.000163217169285 -0.118393942698 0)
(-0.000422542473375 -0.11817873172 0)
(-0.000669384994442 -0.117783617327 0)
(-0.0009027614942 -0.117217821279 0)
(-0.00112378825345 -0.116490579603 0)
(-0.00133151634729 -0.115610999765 0)
(-0.00152720136767 -0.114588139969 0)
(-0.0017099185919 -0.113430878178 0)
(-0.00188104931638 -0.112147986895 0)
(-0.00203968480049 -0.110748012304 0)
(-0.00218731574254 -0.109239345204 0)
(-0.00232304165373 -0.107630113602 0)
(-0.0024484449435 -0.1059282489 0)
(-0.002562624089 -0.104141393795 0)
(-0.00266723236197 -0.102276962095 0)
(-0.00276135957875 -0.100342064684 0)
(-0.00284670913411 -0.0983435611526 0)
(-0.00292235491549 -0.0962880049859 0)
(-0.00299002843383 -0.0941816844794 0)
(-0.00304878409099 -0.0920305893098 0)
(-0.00310036156008 -0.0898404382981 0)
(-0.00314379436612 -0.0876166676944 0)
(-0.00318081094382 -0.0853644427136 0)
(-0.00321042765831 -0.0830886689541 0)
(-0.00323434585017 -0.0807939852231 0)
(-0.00325157147488 -0.0784847974625 0)
(-0.00326376464131 -0.0761652500446 0)
(-0.00326993274402 -0.0738392827574 0)
(-0.00327168449961 -0.0715105789994 0)
(-0.00326804280814 -0.0691826442732 0)
(-0.00326055646725 -0.0668587298459 0)
(-0.00324828106221 -0.064541932461 0)
(-0.00323269994502 -0.0622350939159 0)
(-0.00321291818602 -0.0599409196548 0)
(-0.00319034859231 -0.0576618552058 0)
(-0.003164162289 -0.0554002225288 0)
(-0.00313569779377 -0.053158076343 0)
(-0.00310420542797 -0.0509373551343 0)
(-0.00307094496888 -0.0487397207546 0)
(-0.00303525598424 -0.0465667220334 0)
(-0.00299831546 -0.0444196226456 0)
(-0.00295955720129 -0.0422995735077 0)
(-0.00292007063531 -0.0402074336146 0)
(-0.00287938481976 -0.0381439483846 0)
(-0.0028384974516 -0.0361095688623 0)
(-0.00279702928186 -0.0341046319538 0)
(-0.00275588219588 -0.032129182329 0)
(-0.00271476207093 -0.0301831517072 0)
(-0.00267447195124 -0.028266187645 0)
(-0.00263479335312 -0.0263778286276 0)
(-0.00259642781095 -0.0245173424321 0)
(-0.00255922113393 -0.022683895319 0)
(-0.00252377047208 -0.0208764020998 0)
(-0.00248997128436 -0.0190936879194 0)
(-0.00245830871829 -0.017334351026 0)
(-0.00242870250181 -0.0155969173342 0)
(-0.00240149551736 -0.0138797164813 0)
(-0.00237655414749 -0.0121810242645 0)
(-0.00235393101212 -0.0104989284415 0)
(-0.00233308262817 -0.0088313643843 0)
(-0.00231296217878 -0.00717566865363 0)
(-0.00229057314877 -0.00552734634151 0)
(-0.00225776692351 -0.00387613288401 0)
(-0.00217314209002 -0.0021701251047 0)
(-0.00202128629818 -0.000604558069813 0)
(0.01502598943 -0.00293505455556 0)
(0.0166376760366 -0.00993785505572 0)
(0.0165771227696 -0.0169032821327 -1.22938628875e-27)
(0.0163462525519 -0.0238845851227 0)
(0.0160347289166 -0.0307377564226 0)
(0.0156522533787 -0.0374395672339 0)
(0.0152054115924 -0.043961558769 0)
(0.014701043931 -0.0502779579695 0)
(0.0141465781748 -0.0563660358552 0)
(0.0135493522499 -0.0622063314837 0)
(0.0129168856087 -0.0677826241982 0)
(0.0122561649316 -0.0730818863514 0)
(0.0115740802066 -0.0780940822725 0)
(0.0108766918519 -0.0828119864918 0)
(0.0101698403145 -0.0872308908243 0)
(0.00945838890133 -0.0913483703359 0)
(0.00874699522657 -0.0951639688322 0)
(0.00803930761198 -0.098678971116 0)
(0.00733887650109 -0.10189611383 0)
(0.00664827824627 -0.104819398357 0)
(0.00597014514729 -0.107453848943 0)
(0.00530619432657 -0.10980537792 0)
(0.00465836085352 -0.111880595635 0)
(0.00402771701504 -0.113686725629 0)
(0.00341570025442 -0.115231458405 0)
(0.00282291532372 -0.116522905356 0)
(0.00225045458788 -0.117569485148 0)
(0.00169858161498 -0.118379904158 0)
(0.00116814530445 -0.118963062733 0)
(0.000659146511951 -0.119328050201 0)
(0.000172247001826 -0.119484064178 0)
(-0.000292767187757 -0.119440412882 0)
(-0.000735376981247 -0.119206439113 0)
(-0.00115599238669 -0.118791528666 0)
(-0.00155423729744 -0.118205034242 0)
(-0.00193070042281 -0.117456283651 0)
(-0.00228512515316 -0.116554510019 0)
(-0.00261826388035 -0.115508859113 0)
(-0.00292996914133 -0.114328325893 0)
(-0.00322114033977 -0.113021762972 0)
(-0.00349172274534 -0.111597822606 0)
(-0.00374274116845 -0.110064966187 0)
(-0.0039742140449 -0.108431414526 0)
(-0.00418726650931 -0.10670515937 0)
(-0.00438196815476 -0.104893921907 0)
(-0.00455951693392 -0.103005165304 0)
(-0.00472001137266 -0.101046063695 0)
(-0.00486469442756 -0.0990235158679 0)
(-0.00499367231854 -0.0969441238178 0)
(-0.00510820621606 -0.0948142057432 0)
(-0.00520839209641 -0.0926397857448 0)
(-0.00529548563885 -0.0904266055127 0)
(-0.00536955878635 -0.0881801234802 0)
(-0.00543184203362 -0.0859055227842 0)
(-0.00548237544122 -0.0836077207971 0)
(-0.00552235014379 -0.0812913723275 0)
(-0.00555177239873 -0.0789608872237 0)
(-0.00557178532922 -0.0766204263288 0)
(-0.00558236603229 -0.0742739276006 0)
(-0.00558460681524 -0.0719250939858 0)
(-0.00557846535207 -0.069577425564 0)
(-0.00556498475493 -0.0672341976161 0)
(-0.00554411717263 -0.0648984991635 0)
(-0.00551686152537 -0.062573201427 0)
(-0.0054831797362 -0.0602610006196 0)
(-0.00544403251344 -0.057964376594 0)
(-0.00539940651216 -0.05568564048 0)
(-0.00535022977246 -0.0534268851621 0)
(-0.00529652562478 -0.0511900361542 0)
(-0.00523919258164 -0.0489767952304 0)
(-0.00517829856416 -0.0467886951759 0)
(-0.00511471286795 -0.0446270391854 0)
(-0.00504855069873 -0.0424929581259 0)
(-0.00498064907551 -0.0403873477016 0)
(-0.0049111684435 -0.0383109285232 0)
(-0.00484090793106 -0.0362641835956 0)
(-0.00477006677853 -0.0342474198059 0)
(-0.00469939854092 -0.0322607073894 0)
(-0.00462913175889 -0.0303039427248 0)
(-0.00455996578118 -0.0283767914796 0)
(-0.00449214666069 -0.0264787514553 0)
(-0.00442631022793 -0.0246091002075 0)
(-0.00436270676661 -0.0227669576659 0)
(-0.00430189840557 -0.0209512387221 0)
(-0.00424412381307 -0.0191607142375 0)
(-0.00418985725855 -0.017393967857 0)
(-0.0041393022181 -0.0156494537263 0)
(-0.00409281704245 -0.0139254529204 0)
(-0.00405052162808 -0.0122201174762 0)
(-0.00401259217867 -0.0105313987253 0)
(-0.00397897280231 -0.00885700590584 0)
(-0.0039496121115 -0.00719416102075 0)
(-0.00392448200234 -0.00553909589281 0)
(-0.00390395702783 -0.00388529520407 0)
(-0.00387366533206 -0.00224223981637 0)
(-0.00355387447491 -0.000642678040304 0)
(0.0214225409193 -0.00298037911665 0)
(0.0237385704676 -0.0100882115092 0)
(0.0236490635062 -0.0171491316274 1.22881514529e-27)
(0.02331466696 -0.0242266404053 0)
(0.0228642673152 -0.0311706733683 0)
(0.0223122936391 -0.0379565007787 0)
(0.0216682175393 -0.0445544930629 0)
(0.0209420935929 -0.0509381659735 0)
(0.0201446154488 -0.0570844442924 0)
(0.0192865942978 -0.0629738074919 0)
(0.0183788002819 -0.0685902395987 0)
(0.0174315011671 -0.0739211082985 0)
(0.01645445545 -0.078956939872 0)
(0.0154565417344 -0.0836911627676 0)
(0.0144459059377 -0.08811979533 0)
(0.0134296672097 -0.0922411458787 0)
(0.0124141940637 -0.0960554927479 0)
(0.0114048520016 -0.099564805442 0)
(0.0104063713592 -0.10277246546 0)
(0.00942259851134 -0.105683041638 0)
(0.00845692131253 -0.108302071605 0)
(0.00751199281048 -0.110635899828 0)
(0.00659018995229 -0.112691518973 0)
(0.00569329060787 -0.114476463041 0)
(0.00482295279726 -0.115998696938 0)
(0.00398033603496 -0.117266550495 0)
(0.00316659721165 -0.118288640795 0)
(0.00238245580706 -0.119073831569 0)
(0.00162870890401 -0.119631174453 0)
(0.000905743799854 -0.119969881975 0)
(0.000214076406681 -0.120099275304 0)
(-0.000446177909581 -0.120028776493 0)
(-0.00107473578059 -0.119767831705 0)
(-0.00167172750394 -0.119325917104 0)
(-0.00223709190615 -0.118712487606 0)
(-0.00277118555184 -0.117936955498 0)
(-0.00327414636557 -0.117008647678 0)
(-0.00374653865919 -0.115936787283 0)
(-0.0041886815684 -0.114730453493 0)
(-0.00460132490415 -0.11339856558 0)
(-0.00498494413044 -0.111949847189 0)
(-0.00534044558696 -0.110392813984 0)
(-0.00566843098236 -0.108735743686 0)
(-0.00596992936827 -0.106986667764 0)
(-0.00624563437776 -0.105153348068 0)
(-0.00649666085907 -0.103243273108 0)
(-0.00672375929429 -0.101263641785 0)
(-0.00692809342575 -0.0992213637927 0)
(-0.00711043636215 -0.0971230503962 0)
(-0.00727196587395 -0.0949750185851 0)
(-0.0074134478101 -0.0927832886334 0)
(-0.00753604400096 -0.09055359081 0)
(-0.00764048861055 -0.0882913688778 0)
(-0.00772790391413 -0.0860017882765 0)
(-0.00779897618887 -0.0836897446965 0)
(-0.00785477287388 -0.0813598720388 0)
(-0.00789592439498 -0.0790165546487 0)
(-0.00792343656238 -0.0766639336019 0)
(-0.00793788535404 -0.0743059214584 0)
(-0.00794021678743 -0.0719462052237 0)
(-0.00793096114888 -0.0695882621765 0)
(-0.0079110131464 -0.0672353584155 0)
(-0.0078808723098 -0.0648905650064 0)
(-0.00784139515477 -0.0625567513412 0)
(-0.00779306770301 -0.0602366008293 0)
(-0.00773672253842 -0.057932599084 0)
(-0.00767284934548 -0.0556470492875 0)
(-0.00760226956414 -0.0533820557553 0)
(-0.00752548992342 -0.0511395390588 0)
(-0.00744332922737 -0.0489212161108 0)
(-0.00735631950555 -0.0467286158192 0)
(-0.007265280102 -0.044563057135 0)
(-0.0071707699216 -0.0424256656263 0)
(-0.00707360612181 -0.0403173509964 0)
(-0.00697437016484 -0.0382388252802 0)
(-0.0068738693787 -0.0361905812478 0)
(-0.00677269814812 -0.0341729122929 0)
(-0.00667164249186 -0.0321858927849 0)
(-0.00657129668119 -0.030229399861 0)
(-0.00647241176576 -0.0283030965175 0)
(-0.0063755665817 -0.0264064549731 0)
(-0.00628146238802 -0.0245387427982 0)
(-0.00619064629258 -0.0226990475507 0)
(-0.00610375436227 -0.0208862657956 0)
(-0.00602128452756 -0.0190991277589 0)
(-0.00594379076422 -0.017336187922 0)
(-0.00587170203225 -0.0155958474768 0)
(-0.00580547047409 -0.0138763424223 0)
(-0.00574543483767 -0.0121757565751 0)
(-0.00569193481223 -0.0104919918224 0)
(-0.00564524287585 -0.00882275113632 0)
(-0.0056057220831 -0.00716545893073 0)
(-0.00557393126201 -0.00551719762405 0)
(-0.00554990881871 -0.0038734607742 0)
(-0.00550828726828 -0.00225604862402 0)
(-0.00496313418863 -0.000659960170821 0)
(0.0279258653472 -0.00303989445218 0)
(0.0309481054465 -0.0102858963312 0)
(0.0308270418624 -0.0174792863876 0)
(0.030383778199 -0.0246861059577 0)
(0.0297872310756 -0.0317514347801 0)
(0.029056976975 -0.038648832721 0)
(0.0282058990555 -0.0453472390574 0)
(0.0272476607482 -0.0518192535645 0)
(0.0261966473091 -0.0580413601143 0)
(0.0250674207563 -0.0639940129269 0)
(0.0238743255631 -0.0696615291363 0)
(0.02263105957 -0.0750318880812 0)
(0.0213504610276 -0.0800964400212 0)
(0.0200442469033 -0.0848495695574 0)
(0.0187229812507 -0.0892883267097 0)
(0.0173959555782 -0.0934120632006 0)
(0.0160712965813 -0.0972220767989 0)
(0.0147559363985 -0.100721291085 0)
(0.0134558045653 -0.1039139633 0)
(0.0121758342529 -0.106805438882 0)
(0.0109201901774 -0.109401937681 0)
(0.00969226966291 -0.111710385183 0)
(0.00849493407516 -0.11373826972 0)
(0.0073304802076 -0.115493536453 0)
(0.00620085874109 -0.116984497384 0)
(0.00510760613007 -0.118219768014 0)
(0.00405204634118 -0.119208210385 0)
(0.00303518388834 -0.119958893837 0)
(0.00205789299835 -0.120481054333 0)
(0.00112077827389 -0.120784065537 0)
(0.000224358930333 -0.120877399045 0)
(-0.000631094001044 -0.120770620585 0)
(-0.0014453661698 -0.12047330584 0)
(-0.00221848966144 -0.119995061659 0)
(-0.00295054135232 -0.119345469552 0)
(-0.00364183628048 -0.118534059649 0)
(-0.00429271997488 -0.117570275959 0)
(-0.00490377062163 -0.116463448682 0)
(-0.0054755786738 -0.115222761301 0)
(-0.00600895714056 -0.113857225899 0)
(-0.00650470885996 -0.112375654135 0)
(-0.00696384449688 -0.110786636675 0)
(-0.00738733868383 -0.109098519743 0)
(-0.00777635555432 -0.107319389898 0)
(-0.00813199558174 -0.105457056629 0)
(-0.00845552854777 -0.103519042679 0)
(-0.00874813302592 -0.101512573375 0)
(-0.00901113638773 -0.0994445726798 0)
(-0.00924574916923 -0.0973216587065 0)
(-0.00945331156785 -0.095150144757 0)
(-0.00963502492578 -0.0929360408717 0)
(-0.00979220374558 -0.0906850592329 0)
(-0.00992600672842 -0.0884026203972 0)
(-0.0100376931584 -0.0860938616077 0)
(-0.0101283558521 -0.0837636468898 0)
(-0.0101991802222 -0.0814165770154 0)
(-0.0102511814811 -0.0790570015191 0)
(-0.0102854644104 -0.0766890284404 0)
(-0.0103029668549 -0.0743165371003 0)
(-0.0103047175607 -0.0719431862362 0)
(-0.0102915877167 -0.0695724256302 0)
(-0.0102645439851 -0.0672075011338 0)
(-0.0102244094554 -0.0648514644561 0)
(-0.0101721085405 -0.0625071744867 0)
(-0.010108438447 -0.0601773042643 0)
(-0.010034302818 -0.0578643383326 0)
(-0.00995049466492 -0.0555705773181 0)
(-0.00985791575526 -0.0532981320296 0)
(-0.00975737193259 -0.0510489258698 0)
(-0.00964977601264 -0.0488246866426 0)
(-0.00953595649821 -0.0466269480812 0)
(-0.00941684231238 -0.0444570408307 0)
(-0.00929328595342 -0.0423160938605 0)
(-0.00916622931335 -0.0402050258503 0)
(-0.00903654230572 -0.038124547747 0)
(-0.00890516955114 -0.0360751557385 0)
(-0.00877298531169 -0.0340571354427 0)
(-0.00864092146217 -0.0320705570843 0)
(-0.00850983928893 -0.030115281987 0)
(-0.00838063938542 -0.028190960332 0)
(-0.00825415045941 -0.026297039921 0)
(-0.00813122207303 -0.0244327663828 0)
(-0.0080126302457 -0.0225971941276 0)
(-0.0078991539291 -0.0207891885347 0)
(-0.00779149689679 -0.0190074379388 0)
(-0.00769034911694 -0.0172504565582 0)
(-0.0075963248305 -0.0155165961781 0)
(-0.00751001145055 -0.0138040471136 0)
(-0.00743192742178 -0.0121108483884 0)
(-0.00736256982736 -0.0104348848069 0)
(-0.00730241272236 -0.00877389383804 0)
(-0.00725199214134 -0.00712547680994 0)
(-0.00721190266763 -0.00548716994117 0)
(-0.00718114587855 -0.00385504792008 0)
(-0.0071241332939 -0.00225288852136 0)
(-0.00639626159731 -0.000662316487657 0)
(0.0345738513559 -0.00311530045732 0)
(0.0383132517856 -0.0105389561083 0)
(0.0381560254578 -0.0179043090092 0)
(0.0375958737074 -0.0252777696405 0)
(0.0368428130175 -0.0324987264966 0)
(0.0359220519723 -0.0395386421559 0)
(0.0348504613709 -0.0463647186638 0)
(0.0336458552752 -0.0529484534308 0)
(0.032326842891 -0.0592658429654 0)
(0.0309121656361 -0.0652974054325 0)
(0.029420130306 -0.0710279886809 0)
(0.0278681205914 -0.0764464663215 0)
(0.026272271223 -0.0815453453855 0)
(0.0246472212738 -0.0863203283473 0)
(0.0230060221461 -0.0907698590054 0)
(0.0213600897884 -0.0948946829686 0)
(0.0197192815321 -0.0986974380288 0)
(0.0180919708906 -0.102182290862 0)
(0.0164852150977 -0.10535462209 0)
(0.0149048791855 -0.10822076544 0)
(0.0133558302471 -0.110787794586 0)
(0.0118420580121 -0.113063357461 0)
(0.0103668551382 -0.115055547486 0)
(0.00893290506555 -0.116772809487 0)
(0.00754242952798 -0.118223868949 0)
(0.00619723354968 -0.119417682575 0)
(0.00489881746782 -0.120363399631 0)
(0.0036483822191 -0.121070333758 0)
(0.00244691327599 -0.121547936727 0)
(0.0012951561673 -0.121805776026 0)
(0.000193683966031 -0.121853503112 0)
(-0.000857149028251 -0.121700861537 0)
(-0.00185713526681 -0.121357582853 0)
(-0.00280628163928 -0.120833440052 0)
(-0.00370473803639 -0.120138170917 0)
(-0.00455285535885 -0.119281456561 0)
(-0.00535111848635 -0.118272887197 0)
(-0.00610020248834 -0.117121931079 0)
(-0.00680089946534 -0.115837902366 0)
(-0.00745417462819 -0.114429932911 0)
(-0.00806108690084 -0.112906944152 0)
(-0.00862284526174 -0.111277623748 0)
(-0.00914072422781 -0.109550403006 0)
(-0.00961612109223 -0.107733439434 0)
(-0.0100504676067 -0.105834600633 0)
(-0.0104452891231 -0.103861453407 0)
(-0.0108021140495 -0.10182125433 0)
(-0.0111225355067 -0.0997209452495 0)
(-0.0114081199321 -0.0975671503233 0)
(-0.0116604720041 -0.0953661775293 0)
(-0.0118811438925 -0.0931240214998 0)
(-0.0120717037183 -0.0908463700371 0)
(-0.0122336467173 -0.0885386117244 0)
(-0.0123684676247 -0.0862058462832 0)
(-0.0124775750541 -0.0838528955588 0)
(-0.0125623675684 -0.0814843160056 0)
(-0.0126241521417 -0.0791044113543 0)
(-0.012664223574 -0.0767172454611 0)
(-0.0126837876301 -0.0743266548583 0)
(-0.0126840425851 -0.0719362600347 0)
(-0.0126661069722 -0.0695494761868 0)
(-0.0126311018336 -0.0671695214431 0)
(-0.0125800826632 -0.0647994246169 0)
(-0.0125141202293 -0.0624420293365 0)
(-0.0124342358702 -0.0600999982356 0)
(-0.0123414789361 -0.0577758128412 0)
(-0.012236864692 -0.0554717744517 0)
(-0.0121214463356 -0.0531900003123 0)
(-0.0119962549002 -0.050932422033 0)
(-0.0118623645442 -0.0487007792721 0)
(-0.0117208344099 -0.0464966170335 0)
(-0.0115727662474 -0.0443212783373 0)
(-0.0114192485722 -0.0421759017077 0)
(-0.0112614065093 -0.0400614143242 0)
(-0.0111003490486 -0.0379785309343 0)
(-0.0109372112774 -0.0359277487043 0)
(-0.0107731056192 -0.0339093482633 0)
(-0.0106091570957 -0.0319233910388 0)
(-0.0104464593978 -0.0299697228637 0)
(-0.0102861038157 -0.0280479741758 0)
(-0.0101291407173 -0.0261575661358 0)
(-0.00997660294474 -0.0242977136324 0)
(-0.0098294730257 -0.0224674335818 0)
(-0.00968870175248 -0.0206655502977 0)
(-0.0095551813131 -0.0188907049868 0)
(-0.00942976011184 -0.0171413625816 0)
(-0.00931322258601 -0.01541582168 0)
(-0.00920630261632 -0.0137122224609 0)
(-0.00910967333014 -0.0120285583949 0)
(-0.00902396605381 -0.0103626873504 0)
(-0.00894977953203 -0.00871235812717 0)
(-0.00888770911114 -0.00707523601407 0)
(-0.00883824588984 -0.00544897115066 0)
(-0.00879949607294 -0.00382966945159 0)
(-0.00872679224581 -0.00224092352645 0)
(-0.00782748691618 -0.000659949489427 0)
(0.0414035398304 -0.00320870800437 0)
(0.0458759788542 -0.0108531011221 0)
(0.0456761523023 -0.0184325100428 1.21923883227e-27)
(0.0449882565606 -0.0260127496665 0)
(0.0440648873476 -0.0334260614957 0)
(0.0429375524704 -0.0406412800962 0)
(0.0416278311461 -0.0476234985348 0)
(0.0401584039424 -0.0543429399109 0)
(0.0385527802794 -0.0607751245456 0)
(0.0368344547686 -0.0669008070062 0)
(0.0350261717372 -0.0727056620531 0)
(0.0331493392658 -0.0781798410589 0)
(0.0312236244237 -0.0833174389059 0)
(0.0292666981558 -0.0881159234909 0)
(0.0272941361589 -0.0925755679631 0)
(0.025319422534 -0.0966989180852 0)
(0.0233540574237 -0.100490314072 0)
(0.0214077098831 -0.10395547958 0)
(0.0194884246281 -0.107101180348 0)
(0.0176028267947 -0.109934951945 0)
(0.0157563457049 -0.112464889546 0)
(0.013953406471 -0.114699493066 0)
(0.0121976225254 -0.116647557157 0)
(0.0104919409793 -0.118318097901 0)
(0.00883878402883 -0.119720305746 0)
(0.00724013925164 -0.120863517592 0)
(0.00569765003409 -0.121757199598 0)
(0.00421265779114 -0.12241093597 0)
(0.00278625330312 -0.122834418089 0)
(0.00141928564962 -0.123037431699 0)
(0.000112394276815 -0.123029834392 0)
(-0.00113401350642 -0.122821578366 0)
(-0.00231971951356 -0.122422577194 0)
(-0.00344473088133 -0.12184280312 0)
(-0.00450925162223 -0.121092181719 0)
(-0.00551369847676 -0.120180578124 0)
(-0.00645867755099 -0.119117760515 0)
(-0.00734499504067 -0.117913366329 0)
(-0.00817362842842 -0.116576869191 0)
(-0.00894573357524 -0.115117548023 0)
(-0.00966261086949 -0.113544458253 0)
(-0.0103257095229 -0.111866406157 0)
(-0.0109365899467 -0.11009192627 0)
(-0.0114969266129 -0.108229262405 0)
(-0.0120084682907 -0.106286352104 0)
(-0.0124730408698 -0.104270814788 0)
(-0.0128925069737 -0.102189943543 0)
(-0.0132687700129 -0.100050700384 0)
(-0.0136037346367 -0.0978597149682 0)
(-0.0138993131001 -0.0956232863551 0)
(-0.0141573878187 -0.0933473880123 0)
(-0.0143798209974 -0.0910376752127 0)
(-0.0145684205276 -0.0886994951104 0)
(-0.0147249536701 -0.0863378983509 0)
(-0.014851117287 -0.0839576527691 0)
(-0.014948556074 -0.0815632575223 0)
(-0.0150188378187 -0.0791589583635 0)
(-0.0150634761963 -0.0767487621468 0)
(-0.0150839111098 -0.0743364516501 0)
(-0.0150815353787 -0.071925598403 0)
(-0.0150576795589 -0.0695195749366 0)
(-0.0150136411883 -0.0671215640867 0)
(-0.0149506727862 -0.0647345672717 0)
(-0.014870011766 -0.0623614092485 0)
(-0.0147728699337 -0.0600047416231 0)
(-0.0146604620525 -0.0576670428886 0)
(-0.0145339951103 -0.0553506175059 0)
(-0.0143946937143 -0.0530575920742 0)
(-0.0142437877802 -0.0507899109467 0)
(-0.0140825335944 -0.0485493300579 0)
(-0.0139121992191 -0.0463374107241 0)
(-0.0137340807665 -0.0441555129842 0)
(-0.0135494855361 -0.0420047891764 0)
(-0.0133597437959 -0.0398861784734 0)
(-0.0131661902552 -0.03780040178 0)
(-0.0129701720854 -0.0357479587337 0)
(-0.0127730296789 -0.0337291248836 0)
(-0.0125761018514 -0.0317439517353 0)
(-0.0123807068992 -0.0297922668778 0)
(-0.0121881458603 -0.0278736771798 0)
(-0.0119996847689 -0.0259875719916 0)
(-0.0118165567218 -0.0241331291091 0)
(-0.0116399460449 -0.0223093208885 0)
(-0.0114709897629 -0.0205149223741 0)
(-0.0113107643092 -0.0187485195077 0)
(-0.011160287162 -0.0170085187585 0)
(-0.0110205070849 -0.015293157383 0)
(-0.0108923073486 -0.0136005143878 0)
(-0.0107765016052 -0.0119285262651 0)
(-0.0106738412143 -0.0102750039216 0)
(-0.0105850182376 -0.00863765729432 0)
(-0.0105106660021 -0.00701412736794 0)
(-0.0104511980693 -0.00540203429019 0)
(-0.0104040620623 -0.0037973335597 0)
(-0.0103161379925 -0.00222307671516 0)
(-0.00925010678129 -0.000655090922362 0)
(0.0484560322869 -0.00332222191454 0)
(0.053681464146 -0.0112349637306 0)
(0.0534306819429 -0.0190744017899 -1.21858946623e-27)
(0.0526009648028 -0.0269050826181 0)
(0.0514894793707 -0.0345503517815 0)
(0.05013497438 -0.0419757611224 0)
(0.0485646968726 -0.0491438814832 0)
(0.0468071376881 -0.0560235160067 0)
(0.0448915741309 -0.06258980386 0)
(0.0428469881338 -0.0688240258766 0)
(0.0407011423701 -0.0747131163212 0)
(0.0384798789553 -0.0802490260507 0)
(0.0362066527357 -0.0854279992252 0)
(0.0339022751861 -0.0902498296669 0)
(0.0315848445305 -0.0947171480025 0)
(0.0292698159581 -0.0988347753679 0)
(0.0269701802375 -0.102609164589 0)
(0.0246967049723 -0.106047937749 0)
(0.0224582158724 -0.109159519386 0)
(0.020261882798 -0.111952858607 0)
(0.0181135016263 -0.114437229117 0)
(0.0160177477436 -0.116622094728 0)
(0.013978403939 -0.118517026874 0)
(0.0119985464138 -0.120131661612 0)
(0.010080700037 -0.121475683972 0)
(0.00822695130576 -0.122558829465 0)
(0.00643903586911 -0.12339089353 0)
(0.00471839135874 -0.123981742414 0)
(0.00306619562641 -0.124341320234 0)
(0.00148338056112 -0.124479645912 0)
(-2.93493705477e-05 -0.124406815694 0)
(-0.00147154152426 -0.12413298801 0)
(-0.00284296566594 -0.123668313617 0)
(-0.00414363680008 -0.123022985931 0)
(-0.00537380942524 -0.122207152637 0)
(-0.00653397926297 -0.121230896956 0)
(-0.00762487341497 -0.120104198555 0)
(-0.00864744717514 -0.118836897067 0)
(-0.00960286728802 -0.11743865631 0)
(-0.0104925028259 -0.115918931049 0)
(-0.0113179026908 -0.114286936067 0)
(-0.0120807821438 -0.112551619049 0)
(-0.0127829964278 -0.110721636558 0)
(-0.0134265248475 -0.108805334463 0)
(-0.0140134424594 -0.10681073178 0)
(-0.0145459036034 -0.104745509167 0)
(-0.0150261134826 -0.102617000717 0)
(-0.0154563127261 -0.100432190304 0)
(-0.0158387503768 -0.0981977109261 0)
(-0.0161756709102 -0.0959198483305 0)
(-0.0164692900388 -0.0936045470923 0)
(-0.0167217854127 -0.0912574204937 0)
(-0.0169352765099 -0.0888837621659 0)
(-0.017111820212 -0.0864885608052 0)
(-0.0172533959315 -0.0840765156838 0)
(-0.0173619068863 -0.0816520541853 0)
(-0.0174391711405 -0.0792193490118 0)
(-0.0174869289038 -0.076782336139 0)
(-0.0175068394737 -0.0743447312356 0)
(-0.0175004939544 -0.0719100454472 0)
(-0.0174694171235 -0.0694815986818 0)
(-0.0174150841409 -0.0670625310359 0)
(-0.0173389255336 -0.0646558111922 0)
(-0.0172423456674 -0.0622642420712 0)
(-0.0171267284771 -0.0598904636517 0)
(-0.0169934552939 -0.0575369526489 0)
(-0.0168439089872 -0.0552060202025 0)
(-0.0166794889301 -0.0528998064931 0)
(-0.0165016117416 -0.0506202748089 0)
(-0.0163117219744 -0.0483692029632 0)
(-0.0161112886429 -0.0461481757865 0)
(-0.0159018110633 -0.0439585755462 0)
(-0.0156848113431 -0.0418015749239 0)
(-0.0154618357137 -0.039678128519 0)
(-0.0152344440021 -0.0375889679855 0)
(-0.0150042072945 -0.0355345961825 0)
(-0.0147726957965 -0.033515285386 0)
(-0.0145414739419 -0.0315310749365 0)
(-0.0143120880384 -0.0295817728918 0)
(-0.0140860598931 -0.0276669574345 0)
(-0.0138648753407 -0.0257859817855 0)
(-0.0136499773685 -0.0239379791305 0)
(-0.0134427562485 -0.022121870314 0)
(-0.0132445429892 -0.02033637176 0)
(-0.0130566015451 -0.0185800051282 0)
(-0.0128801234354 -0.0168511076819 0)
(-0.0127162225473 -0.0151478438099 0)
(-0.0125659318239 -0.0134682185812 0)
(-0.0124302011907 -0.0118100935863 0)
(-0.0123098965428 -0.0101712056761 0)
(-0.012205798501 -0.00854919559967 0)
(-0.0121185879495 -0.00694162420707 0)