/*--------------------------------*- C++ -*----------------------------------*\
| =========                 |                                                 |
| \\      /  F ield         | OpenFOAM: The Open Source CFD Toolbox           |
|  \\    /   O peration     | Version:  v1906                                 |
|   \\  /    A nd           | Web:      www.OpenFOAM.com                      |
|    \\/     M anipulation  |                                                 |
\*---------------------------------------------------------------------------*/
FoamFile
{
    version     2.0;
    format      ascii;
    class       volScalarField;
    location    "794";
    object      pa;
}
// * * * * * * * * * * * * * * * * * * * * * * * * * * * * * * * * * * * * * //

dimensions      [0 2 -2 0 0 0 0];


internalField   nonuniform List<scalar> 
9216
(
976.176138917
975.811737288
975.071328413
973.951723456
972.456581379
970.590175575
968.357867923
965.766029202
962.821962862
959.533856352
955.910699713
951.962235971
947.698874805
943.131644551
938.27210623
933.132311965
927.724725008
922.062188845
916.157857947
910.025180486
903.677842935
897.12976751
890.395071814
883.488080094
876.423297109
869.215430481
861.87937623
854.430248074
846.883370674
839.254310701
831.558873118
823.813128212
816.033403686
808.236301585
800.438681403
792.657659656
784.910576264
777.214971475
769.588530657
762.049034813
754.61428131
747.302007613
740.129789011
733.114938712
726.274386153
719.624558396
713.181241674
706.959447637
700.973255284
695.235662223
689.758398021
684.551761695
679.624400689
674.983150659
670.632796809
666.575961519
662.812896594
659.341482256
656.157103226
653.252794902
650.619234465
648.245048594
646.11694178
644.220162596
642.5387844
641.056248088
639.755553062
638.619663825
637.631719449
636.775493891
636.035597493
635.397780744
634.848962767
634.377344996
633.972328045
633.624540032
633.325730107
633.068752924
632.847421406
632.656435338
632.491224572
632.347884879
632.223038303
632.113770266
632.017131175
631.933753793
631.865386443
631.811472582
631.770707824
631.741071576
631.72045572
631.706573868
631.697449298
631.691996512
631.689286852
631.688351563
976.540087083
976.174535886
975.432871023
974.310212964
972.810773709
970.938973135
968.70026112
966.101075273
963.148787971
959.851652133
956.218730095
952.259832459
947.985441862
943.406651674
938.535091211
933.382869996
927.962510077
922.286900635
916.369241953
910.223013737
903.861933616
897.299940665
890.551169278
883.629947278
876.550783959
869.328380259
861.977628017
854.513628242
846.951697349
839.307388573
831.596499887
823.835092302
816.039493852
808.226309235
800.412412
792.614938098
784.851260535
777.138960675
769.495779589
761.939563122
754.488187413
747.159477244
739.971107114
732.940496335
726.084690203
719.42023735
712.96305518
706.728292701
700.730178914
694.981868329
689.495263705
684.280838725
679.347428752
674.702038574
670.34962007
666.292908889
662.532248451
659.06552698
655.888108151
652.992903738
650.370434588
648.00905897
645.895187935
644.013666782
642.348218254
640.881951735
639.597606941
638.477818389
637.505419371
636.663888266
635.937652476
635.312339812
634.774844151
634.313365239
633.917347521
633.577457995
633.285521069
633.034475802
632.818250798
632.631647731
632.470204235
632.330109416
632.208104064
632.101432242
632.007705606
631.926106511
631.858801303
631.806574544
631.76676712
631.737738094
631.717913801
631.704625005
631.695778655
631.690690278
631.688286616
631.687328607
977.281931651
976.913217431
976.167326787
975.038330407
973.530476615
971.648245863
969.397183935
966.783835826
963.81569265
960.50113112
956.849344147
952.870272656
948.574531336
943.973339709
939.078449911
933.902083259
928.456865976
922.755776491
916.812093809
910.639359281
904.251340544
897.662009483
890.885522464
883.936213936
876.828591456
869.577342337
862.197340191
854.703660558
847.111594467
839.436668017
831.694657765
823.901608115
816.073842004
808.227970313
800.38089074
792.549781151
784.752079651
777.005455143
769.327762339
761.736984799
754.251161905
746.888303736
739.666291808
732.602770141
725.715025977
719.019864378
712.533475539
706.27129745
700.247869539
694.476678129
688.969984495
683.738638473
678.791866231
674.137048301
669.779481594
665.72216914
661.965632668
658.507812276
655.344009884
652.466920386
649.866714913
647.53123389
645.446243364
643.595739081
641.962648977
640.529463281
639.278402211
638.191441508
637.250713755
636.439084772
635.740576272
635.140599872
634.625999066
634.185006671
633.807147834
633.483179744
633.205059752
632.965917721
632.75991834
632.582086845
632.428162686
632.294512674
632.178046329
632.076145994
631.9864621
631.908354504
631.845416112
631.796689489
631.758764869
631.731342024
631.713090336
631.700627409
631.692605505
631.688086256
631.685737485
631.684583023
978.409172544
978.036794669
977.284398422
976.145644716
974.624867856
972.726651971
970.456682308
967.821665808
964.82927348
961.48807363
957.807459409
953.797574605
949.469236636
944.833861602
939.903389834
934.690216884
929.207127939
923.46724049
917.483952676
911.270901803
904.841929785
898.211059434
891.392477703
884.4005291
877.249714928
869.954700934
862.530328856
854.991633959
847.353864119
839.632502072
831.843286929
824.002234874
816.125656013
808.230167797
800.332700031
792.450491902
784.601077051
776.802256436
769.072056023
761.428669583
753.890385154
746.475496773
739.202201978
732.088488256
725.152010364
718.409962311
711.878945147
705.574832387
699.512629989
693.706327989
688.168734478
682.911285411
677.94382086
673.274327201
668.908658726
664.850259872
661.099942744
657.655744711
654.512887306
651.663752459
649.097973044
646.802605845
644.76242744
642.959944923
641.376730097
639.994443083
638.794679885
637.758366435
636.866410789
636.100655099
635.444484509
634.883036125
634.403138976
633.993141262
633.642712317
633.342735742
633.085345545
632.863986326
632.673225004
632.508452236
632.365704805
632.241610448
632.133322711
632.038415863
631.954546241
631.882358423
631.825301841
631.780798405
631.746889688
631.722336261
631.705468395
631.694306381
631.687307155
631.683224058
631.680977561
631.679879218
979.924793995
979.547710447
978.786514475
977.634534852
976.096244017
974.176378655
971.880815665
969.216483864
966.191300189
962.81409601
959.094538811
955.043051196
950.670728263
945.989256132
941.010832466
935.748091713
930.214035639
924.421971629
918.385458897
912.118264577
905.634329185
898.947742691
892.072729936
885.023645851
877.814978599
870.461360513
862.977584684
855.37862679
847.679670016
839.896132447
832.043695325
824.138329642
816.196320286
808.234286256
800.26919312
792.318356414
784.399432956
776.53039807
768.729506415
761.015235261
753.40620948
745.921109038
738.578560745
731.397017608
724.394629842
717.58911234
710.997612299
704.636579375
698.521636218
692.667444046
687.087549359
681.794199329
676.798100625
672.108124461
667.730943059
663.670670181
659.928537522
656.502744371
653.388440211
650.577615126
648.059172255
645.819124059
643.841039929
642.104829746
640.589831551
639.276946441
638.147486147
637.180768184
636.355636497
635.652325768
635.053362577
634.543641417
634.110132429
633.741476825
633.427590299
633.159471072
632.929404006
632.731310358
632.560427742
632.412689102
632.284504291
632.172829766
632.075167488
631.989358751
631.913168305
631.848958662
631.799187037
631.760302884
631.730412635
631.709064004
631.694777368
631.685348649
631.679256811
631.67569073
631.673694929
631.672706255
981.833425639
981.450440383
980.67808166
979.509296358
977.948747866
976.001378171
973.67331511
970.971775868
967.904995993
964.482147568
960.713252948
956.609095474
952.181129007
947.441388528
942.402403506
937.077116221
931.478806559
925.621025209
919.517536371
913.182271343
906.629293336
899.872774028
892.926981226
885.806277236
878.525126493
871.09811148
863.539955169
855.865548911
848.089984126
840.228586704
832.296953222
824.310985535
816.286923978
808.24137694
800.191342857
792.154222719
784.147819689
776.190322881
768.300272476
760.496504155
752.798071793
745.224148997
737.793911772
730.526406884
723.440411926
716.554294767
709.885879099
703.452321225
697.269997892
691.354396544
685.719993279
680.38008332
675.346544209
670.629470457
666.236720534
662.173358151
658.441216108
655.038683047
651.960940233
649.199519583
646.742375224
644.57420808
642.677847122
641.02820068
639.600637031
638.376223943
637.337602592
636.461346491
635.722632748
635.0992105
634.572604777
634.12771332
633.752018994
633.434818027
633.16644402
632.937861222
632.741264024
632.571294904
632.424395945
632.297276747
632.186703616
632.089977077
632.005118609
631.930292641
631.86400356
631.809573916
631.767074222
631.733939991
631.709246641
631.692449847
631.680683399
631.673088999
631.668334141
631.665134875
631.663401297
631.662531173
984.140867027
983.750686941
982.964690429
981.775361571
980.187606564
978.206628822
975.838872682
973.091917584
969.974398274
966.495913207
962.66692828
958.4986774
954.003062052
949.192552141
944.080090181
938.679001032
933.002909197
927.065665664
920.881285913
914.463900484
907.82771883
900.987006755
893.956076939
886.74929162
879.381075938
871.865940294
864.21850998
856.453560544
848.586057509
840.631199216
832.604462545
824.521647308
816.398920721
808.252858919
800.100481321
791.959275306
783.847207125
775.782714935
767.784680208
759.872374235
752.065377959
744.383475134
736.846521588
729.47429642
722.286344073
715.301818981
708.539344692
702.016898403
695.751722843
689.76026266
684.058092521
678.659812301
673.578812499
668.826886997
664.413568248
660.345321046
656.624733573
653.250323673
650.217593233
647.517636696
645.137002367
643.058622923
641.267881956
639.728553676
638.407843704
637.290530281
636.36571823
635.604076993
634.973752744
634.448707278
634.009687755
633.642283739
633.335239064
633.079202861
632.865257812
632.683851518
632.526215767
632.388143069
632.268558208
632.165225983
632.074948985
631.995216767
631.92496208
631.862671241
631.807893823
631.763802878
631.729371622
631.703322825
631.684669171
631.671803244
631.662753695
631.657011124
631.653797431
631.65140059
631.65010783
631.649477312
986.854189299
986.455432498
985.653183932
984.439371505
982.819200305
980.798196594
978.383194538
975.582218574
972.404392887
968.859837891
964.959561783
960.715348787
956.13964657
951.245455189
946.046219937
940.55573049
934.78802874
928.757327657
922.477943265
915.964241429
909.23060049
902.29139004
895.160965226
887.853675217
880.383883823
872.766000059
865.014516437
857.144053236
849.169407395
841.105605076
832.967958246
824.772120694
816.534146092
808.270544437
799.998332171
791.735072937
783.498903711
775.308540911
767.183261092
759.142851336
751.207525973
743.397808609
735.734382091
728.237913686
720.92886799
713.827324885
706.952823435
700.324249763
693.959784871
687.876903334
682.09241
676.622433608
671.48230762
666.686132561
662.245924754
658.17021387
654.462517526
651.120855056
648.142007671
645.516957473
643.229429501
641.258618947
639.606282665
638.207666881
637.01035987
636.014617796
635.231142606
634.614392573
634.118135712
633.710959844
633.374266556
633.095890777
632.867136358
632.681331613
632.531123495
632.405227574
632.291171684
632.186660289
632.096618636
632.020018599
631.952462187
631.891005344
631.836728653
631.788290492
631.746243268
631.712991295
631.687524636
631.66877678
631.655810929
631.646757437
631.6412117
631.637562514
631.635653954
631.634714845
631.634004597
631.633722477
989.981814427
989.573001073
988.751716333
987.50923123
985.851112161
983.783277774
981.313034995
978.448946998
975.200729356
971.579132163
967.595816895
963.263229977
958.594475633
953.6031906
948.303423216
942.709519602
936.836019714
930.697566175
924.308828549
917.684445334
910.838985101
903.786927196
896.542661163
889.120502904
881.53472478
873.799596472
865.929433734
857.938652862
849.84182975
841.653762987
833.389542444
825.064618441
816.694875942
808.296709219
799.887091935
791.483638867
783.104652607
774.769148032
766.496847
758.308135838
750.223979741
742.265790857
734.455251577
726.814101315
719.363902998
712.125815155
705.12040108
698.367511695
691.886267645
685.695158623
679.812230378
674.255313734
669.042114306
664.189936691
659.714557129
655.62791465
651.934512908
648.629300275
645.713348565
643.179380062
641.00287749
639.148841588
637.689284846
636.477808176
635.408209117
634.535707139
633.934563452
633.505821028
633.174312732
632.903553774
632.681364237
632.501172012
632.357988957
632.249954283
632.17356872
632.11350681
632.045869464
631.971403333
631.911611535
631.865425504
631.823357179
631.779872169
631.742474804
631.708652548
631.6797011
631.657664819
631.641496003
631.630382558
631.623137394
631.618545993
631.616064373
631.61516565
631.614933229
631.615501507
631.615530942
631.615676359
993.533606571
993.113140777
992.269831579
990.994182244
989.292192797
987.170253992
984.636240776
981.699362202
978.370041431
974.659780497
970.581019793
966.146994305
961.371589401
956.26919871
950.854586787
945.142759499
939.148845486
932.887992292
926.375280761
919.625660808
912.653910712
905.474620543
898.102198616
890.550898092
882.834859576
874.968165104
866.964899434
858.839215959
850.605406347
842.277974357
833.871716877
825.401807433
816.883889016
808.334170739
799.769522969
791.207566266
782.666745752
774.166381448
765.726684082
757.368725405
749.114353075
740.986042906
733.006687077
725.1993258
717.586842692
710.191658741
703.035474976
696.139120648
689.522566099
683.205134508
677.20592842
671.544421761
666.241071526
661.317544255
656.795656936
652.693759285
649.017722571
645.749721476
642.904004617
640.485806165
638.444787452
636.678489436
635.526129068
634.581863387
633.546253807
632.661866814
632.315520004
632.169240156
632.0628662
631.966983342
631.881154359
631.807727368
631.754150854
631.7357634
631.762555143
631.806151036
631.80094288
631.744227804
631.715103734
631.706626374
631.694323156
631.663722011
631.644164781
631.625027108
631.608785576
631.598225812
631.591444791
631.588443542
631.587534263
631.587781645
631.588493433
631.590021834
631.592114778
631.5941607
631.595236375
631.595828518
997.520979383
997.087127009
996.218559053
994.904890182
993.152637627
990.968757444
988.361802905
985.341752582
981.919870486
978.108550188
973.921153852
969.371848459
964.475441875
959.247221232
953.702796147
947.85795003
941.728503358
935.330193615
928.678576754
921.788954739
914.676332356
907.355404518
899.840572513
892.145985041
884.285597753
876.273244284
868.122712695
859.847823776
851.462510823
842.980903091
834.4174186
825.78686238
817.104540325
808.386382038
799.649067166
790.910149457
782.188168173
773.502734693
764.87458012
756.325548039
747.878516492
739.557235302
731.386070912
723.389662543
715.592511166
708.018547516
700.690750838
693.630910836
686.85963233
680.396659773
674.261588586
668.475014594
663.060081213
658.044124942
653.458911719
649.337215598
645.689449641
642.450195213
639.670942565
637.418283585
635.518073454
633.365245242
632.896397149
632.589566512
632.16323412
632.009933546
632.001125433
632.008884807
631.991060124
631.952108068
631.904703052
631.860191502
631.830253788
631.826731826
631.840775335
631.8054816
631.632606199
631.468662308
631.469063887
631.530963792
631.574422957
631.540874464
631.544177577
631.539490162
631.534251847
631.536442493
631.538581491
631.543739579
631.549155446
631.554221256
631.558996014
631.563380319
631.567532944
631.571285994
631.573716666
631.574813872
1001.95702443
1001.50788432
1000.61052942
999.253549716
997.444078971
995.189748002
992.499917654
989.385479587
985.858692389
981.933001056
977.6228524
972.943508505
967.910860638
962.541245407
956.851265362
950.857617226
944.576932461
938.025636184
931.219831369
924.175215021
916.907031482
909.430065067
901.758670203
893.90683292
885.88825404
877.716443045
869.404813128
860.966772325
852.415811348
843.765593419
835.030056186
826.223523804
817.360843841
808.457540996
799.529982021
790.595544726
781.672778553
772.78154158
763.943095458
755.180136135
746.51673607
737.97817338
729.590628527
721.380742052
713.375051147
705.599360455
698.078147148
690.834142332
683.88824786
677.259909942
670.968084855
665.033017418
659.479192009
654.339955109
649.662792369
645.516571182
641.938812747
638.679450989
635.792190187
633.722431925
632.478437466
632.400482876
632.474142096
632.463725277
632.372672283
632.290005477
632.244004734
632.20730715
632.163100619
632.1091807
632.049596712
631.989479213
631.934872181
631.89152109
631.850837196
631.784287416
631.692267853
631.627096208
631.629584532
631.647995005
631.552737394
631.374187476
631.433172469
631.453665952
631.45466597
631.474201906
631.482620254
631.49712744
631.509224908
631.518970459
631.52777364
631.535752346
631.542385078
631.547847461
631.551834868
631.553615582
1006.85666468
1006.39013552
1005.46011263
1004.0540098
1002.17969468
999.84560353
997.062057112
993.841028146
990.195947743
986.141495813
981.693389416
976.868171134
971.682998788
966.155437108
960.303252355
954.144212865
947.695900873
940.975543741
933.999874386
926.78503123
919.346505935
911.699143289
903.857191193
895.834391885
887.644099263
879.299404587
870.813255008
862.198557053
853.46826751
844.635482639
835.713543224
826.716157542
817.6575628
808.55271501
799.417501299
790.268965825
781.125534665
772.007221818
762.93579323
753.934859521
745.029861863
736.247910982
727.617440065
719.167643934
710.92770682
702.92587583
695.18851617
687.739358209
680.599198471
673.786177645
667.316771061
661.207889422
655.481096298
650.172286468
645.347070031
641.165231988
637.789795374
634.20217292
632.891675026
632.750666778
632.709281334
632.710366364
632.751703433
632.743952931
632.692001903
632.620739723
632.549320253
632.481945891
632.414834132
632.345586643
632.274184366
632.201737302
632.132128968
632.068363974
632.003804841
631.922017997
631.823383853
631.736131133
631.681796788
631.635687293
631.574010072
631.553619324
631.539539432
631.393663922
631.346122191
631.413055412
631.420378768
631.4501048
631.469904303
631.483344718
631.496063499
631.50767801
631.517487577
631.525054793
631.530675651
631.533232555
1012.23683841
1011.75057625
1010.78358283
1009.32192129
1007.37433574
1004.95022454
1002.06105
998.720063479
994.94207535
990.743210814
986.140668049
981.152479882
975.797278594
970.09406169
964.061957562
957.71999281
951.08686747
944.180748859
937.019098495
929.618547756
921.994836256
914.162820969
906.136554916
897.929422483
889.554307824
881.023766917
872.350177038
863.545850407
854.623117889
845.594404058
836.472323988
827.269811117
818.000304205
808.677979625
799.318021648
789.936919275
780.552773586
771.185595959
761.85757058
752.593244257
743.419595028
734.365918143
725.463459482
716.74472934
708.242460286
699.988248527
692.011054053
684.335877002
676.983096387
669.968460781
663.303629977
656.997388923
651.058763609
645.503480067
640.336595369
635.62440605
633.242289798
633.057688381
633.116058734
633.149028641
633.161084151
633.153565708
633.146851767
633.121860216
633.068564769
632.994602102
632.912132061
632.828156797
632.743386396
632.658601153
632.572563235
632.484494222
632.397008459
632.311127707
632.222191782
632.12132213
632.009203569
631.902878656
631.815346857
631.736329439
631.65558496
631.592319721
631.530020564
631.485972685
631.475925874
631.417671985
631.331637509
631.404999093
631.434167568
631.447510742
631.464312063
631.480277406
631.493709692
631.503928374
631.511188047
631.514644129
1018.11671952
1017.60808754
1016.59931357
1015.07491156
1013.04467468
1010.51915439
1007.5111727
1004.03549389
1000.10854822
995.748146879
990.973206919
985.803486635
980.259326927
974.361392013
968.130403907
961.586870346
954.750812712
947.641508626
940.277270075
932.675281741
924.851522408
916.820785097
908.596796999
900.192421675
891.619906232
882.891124345
874.01776881
865.011470122
855.883853133
846.646573022
837.311383542
827.890259765
818.395611665
808.840567482
799.239314716
789.60748365
779.962557166
770.324288562
760.715099547
751.160416074
741.688879955
732.332349683
723.125575903
714.105418012
705.309483012
696.774157943
688.532242784
680.610663608
673.029392591
665.801191459
658.931476662
652.418142148
646.246778494
640.349149773
634.270387244
633.782319847
633.65484602
633.629944572
633.693763972
633.702521597
633.6738108
633.64478883
633.61689902
633.5774746
633.516977564
633.437551144
633.346304174
633.248700112
633.148176121
633.046515792
632.941936543
632.833967004
632.724068087
632.612401071
632.496284646
632.372014629
632.241623008
632.1151467
632.000250096
631.893584785
631.790676226
631.697891801
631.612642001
631.541355144
631.488949707
631.452688286
631.434233092
631.402188293
631.411378228
631.409154123
631.43204016
631.454161303
631.472213284
631.485588382
631.494498923
631.498915082
1024.51798231
1023.98398543
1022.92801067
1021.3327892
1019.20937786
1016.56971568
1013.42825006
1009.80153803
1005.70791086
1001.16713945
996.200124588
990.828609445
985.07490374
978.961603929
972.511296644
965.74624021
958.688031118
951.357274742
943.773291245
935.953894496
927.915282415
919.672067509
911.237455934
902.62355216
893.841731594
884.902997243
875.818236875
866.598335419
857.254166785
847.796545292
838.236230764
828.58403129
818.851047467
809.049020672
799.19076117
789.290634243
779.365092142
769.433240118
759.517413471
749.643722097
739.84249234
730.148494811
720.600788968
711.241946622
702.116376998
693.267532474
684.734177157
676.546291281
668.723823029
661.27689074
654.206693655
647.502907083
641.10702187
634.577837549
633.806045149
634.077509547
634.236909126
634.289968637
634.299242131
634.283123813
634.247501155
634.208130858
634.164951068
634.110598412
634.039505737
633.951885915
633.850927044
633.740195294
633.624722234
633.505100473
633.37936875
633.248330002
633.11290293
632.973298694
632.828504519
632.677735591
632.523572847
632.372235415
632.228585185
632.09262044
631.963749269
631.844940888
631.736411421
631.640145654
631.561119282
631.49939888
631.456952577
631.44815633
631.418118819
631.343669426
631.395669866
631.430278991
631.454401797
631.471354915
631.481976334
631.48719311
1031.46512075
1030.90232569
1029.79298849
1028.11778536
1025.8893036
1023.12116293
1019.82976352
1016.0337937
1011.75381501
1007.01186704
1001.83112298
996.235589369
990.249826817
983.898661739
977.20686277
970.198769098
962.89787607
955.326404221
947.504896095
939.45189948
931.183799665
922.714854189
914.05745419
905.2225877
896.220416593
887.060824008
877.753776217
868.309406973
858.737871627
849.049131429
839.2528374
829.358394625
819.375250659
809.313335346
799.183597936
788.998609271
778.773229348
768.525346752
758.276679372
748.053600881
737.88792661
727.817539049
717.8866322
708.145198662
698.647204411
689.446763885
680.59224528
672.118101324
664.044327446
656.379247042
649.119248732
642.214075017
635.234915533
634.390498294
634.574764026
634.828521442
634.913411101
634.953472399
634.952760597
634.928127313
634.888087608
634.840300351
634.784753008
634.71764298
634.635745255
634.538272519
634.426110997
634.301857446
634.17040423
634.031334279
633.88314677
633.727219474
633.564582875
633.395891785
633.221345305
633.041648137
632.859430684
632.67903395
632.504139072
632.33637909
632.177105869
632.028679351
631.892547713
631.770922701
631.666870831
631.580287245
631.512333295
631.466727604
631.423735161
631.395351857
631.36999239
631.41444245
631.443138621
631.463154616
631.474935093
631.480552835
1038.98583582
1038.39026509
1037.22050062
1035.45483651
1033.10772971
1030.19485028
1026.73496253
1022.749302
1018.26104892
1013.29485558
1007.87647157
1002.03245133
995.789899783
989.176199591
982.218672619
974.94414882
967.378445577
959.545791142
951.468256039
943.165280216
934.653397795
925.94625504
917.054981392
907.988897342
898.75643141
889.366000661
879.82655767
870.147603555
860.33876143
850.409241734
840.367509026
830.221291693
819.977953984
809.645082218
799.23116297
788.74630425
778.203036506
767.617237626
757.009194847
746.404783734
735.836726667
725.345845259
714.98208301
704.804788815
694.881317465
685.282216002
676.072267582
667.291576781
658.959547943
651.079209943
643.603485557
636.092387923
635.220620905
635.422552578
635.604092826
635.683825607
635.702278223
635.705018808
635.683696598
635.6460713
635.597291056
635.540579016
635.474647235
635.39655881
635.303687957
635.19445501
635.06884593
634.930462057
634.781557852
634.620893691
634.449047734
634.267324332
634.076934646
633.87890607
633.674161158
633.464098547
633.251246984
633.039057033
632.830796799
632.628957502
632.435893705
632.254206784
632.086217268
631.934573387
631.801773518
631.688667341
631.595728044
631.522400837
631.461699066
631.417140671
631.405391683
631.407364616
631.43992137
631.462839037
631.474277755
631.479629886
1047.1115076
1046.47850681
1045.24013537
1043.37191871
1040.89061277
1037.8144112
1034.16497018
1029.96659598
1025.24555063
1020.02947508
1014.34699521
1008.22747847
1001.7008561
994.797411527
987.547451127
979.980810805
972.126195062
964.010392601
955.657456188
947.087976165
938.318607315
929.362017796
920.227391656
910.921509457
901.450237864
891.820014383
882.038749086
872.115681507
862.060382822
851.881620686
841.586653426
831.181187818
820.669939667
810.057481992
799.349112219
788.551667177
777.674419956
766.730179095
755.736629913
744.717910412
733.706444351
722.745071368
711.889382223
701.209774391
690.791967798
680.732264808
671.126548462
662.020640787
653.425668408
645.294368442
637.165111433
636.252247509
636.51284601
636.684820922
636.669934351
636.628102839
636.584059734
636.540665416
636.490580595
636.435655901
636.375385511
636.308420733
636.231567664
636.141489017
636.035397947
635.911315685
635.76923766
635.613517243
635.444593235
635.261153688
635.06496877
634.857432815
634.639875372
634.413481302
634.179455049
633.939391958
633.695617888
633.451083648
633.208866315
632.971884663
632.743080099
632.525507303
632.322172677
632.136158804
631.970196053
631.826001324
631.704447391
631.60512918
631.525348848
631.466013451
631.433160677
631.424207808
631.443815044
631.47293546
631.480216267
631.484325424
1055.87777458
1055.2018389
1053.88529284
1051.90044233
1049.26688464
1046.00594444
1042.14286778
1037.70571351
1032.72438867
1027.22992078
1021.25407072
1014.8292157
1007.98834206
1000.76497326
993.192895861
985.305605339
977.135462087
968.71261149
960.063785771
951.211168122
942.171562324
932.956153528
923.57113305
914.019327362
904.302657684
894.424755123
884.392599108
874.216047453
863.905654471
853.47040537
842.916398297
832.246814548
821.462917253
810.565412208
799.555572806
788.436046719
777.21174161
765.89105405
754.487487383
743.021605653
731.523429962
720.035588147
708.617534607
697.350834291
686.344837426
675.735868966
665.68848635
656.242230059
647.341431398
638.493314043
637.498661396
637.809997161
637.998658347
637.917673107
637.764062576
637.633938557
637.528596729
637.441651707
637.363830879
637.290479184
637.216113269
637.135745303
637.044502413
636.938392915
636.814354747
636.670505351
636.507631961
636.330282463
636.138191642
635.930559219
635.709709259
635.477164509
635.234202125
634.981889261
634.721315333
634.453884806
634.181549971
633.906801214
633.632461048
633.361542401
633.097270893
632.843078873
632.602515607
632.379176864
632.176361645
631.996656051
631.841814466
631.712544604
631.608445228
631.530250469
631.47977203
631.454956316
631.451086754
631.504273832
631.49263947
631.493495711
1065.32524481
1064.59981516
1063.19375828
1061.07572468
1058.26879401
1054.79819758
1050.69373063
1045.98813859
1040.71567971
1034.91116607
1028.60963995
1021.84652977
1014.65797703
1007.0810369
999.153534291
990.913459917
982.397888518
973.641486777
964.674756707
955.522252373
946.201117339
936.720407612
927.081730115
917.281622909
907.315644953
897.183161567
886.890626882
876.450437198
865.87620892
855.178393768
844.361995551
833.426789178
822.369322524
811.185326626
799.871184086
788.424420836
776.844336862
765.133301018
753.298658077
741.354948075
729.326590614
717.251811924
705.188886268
693.226035056
681.497835957
670.197827952
659.658743368
649.825806188
640.132282226
638.981783201
639.303605893
639.504244483
639.373139856
639.118064631
638.870444825
638.67142961
638.51633756
638.393787193
638.290669526
638.197163441
638.104404918
638.005149104
637.893486763
637.764992276
637.616483355
637.446689816
637.258408106
637.054639494
636.835096005
636.601403134
636.35580178
636.099752699
635.834213039
635.559819378
635.277176794
634.98715223
634.69109302
634.390891344
634.0889261
633.788000364
633.491325115
633.202488563
632.925381605
632.664074598
632.422541637
632.204333099
632.01235355
631.848668332
631.71450436
631.610949895
631.538531088
631.49490781
631.473333302
631.459359701
631.491554858
631.501114478
1075.50036135
1074.71762652
1073.20838419
1070.93756204
1067.9323158
1064.2227366
1059.84456724
1054.83660611
1049.23838959
1043.08886356
1036.42625309
1029.28876965
1021.71555525
1013.74736701
1005.42667961
996.797050246
987.901733574
978.781628809
969.472725105
960.003322965
950.391487453
940.643436337
930.753831781
920.709028174
910.49382775
900.100497748
889.53597759
878.81931037
867.971223051
857.00582676
845.92692673
834.72913107
823.402082874
811.935083423
800.318964895
788.545404268
776.606796818
764.497612257
752.216780567
739.769990267
727.171927785
714.449921505
701.650859462
688.854619289
676.206812806
663.945126597
652.835560954
642.133768043
640.714004377
640.970708655
641.167028106
640.991482269
640.648697681
640.287120406
639.974034771
639.727122965
639.53560271
639.383137011
639.253884572
639.135376169
639.017268482
638.891444759
638.751659895
638.593371065
638.413519729
638.211577869
637.991707953
637.756222276
637.505979965
637.244650126
636.97459166
636.697089081
636.412553747
636.120890366
635.821886608
635.515561373
635.202413414
634.883541894
634.560665472
634.23610474
633.91276462
633.594105336
633.284085496
632.987054523