/*--------------------------------*- C++ -*----------------------------------*\
| =========                 |                                                 |
| \\      /  F ield         | OpenFOAM: The Open Source CFD Toolbox           |
|  \\    /   O peration     | Version:  v1906                                 |
|   \\  /    A nd           | Web:      www.OpenFOAM.com                      |
|    \\/     M anipulation  |                                                 |
\*---------------------------------------------------------------------------*/
FoamFile
{
    version     2.0;
    format      ascii;
    class       volVectorField;
    location    "794";
    object      Ua;
}
// * * * * * * * * * * * * * * * * * * * * * * * * * * * * * * * * * * * * * //

dimensions      [0 1 -1 0 0 0 0];


internalField   nonuniform List<vector> 
9216
(
(-0.00666838715171 0.0066716213498 0)
(-0.00685519684479 0.0208063488968 2.37691451312e-27)
(-0.00684107491258 0.0350209545741 -4.61549630514e-31)
(-0.00679283395136 0.0492266369887 0)
(-0.00672537653211 0.0632862768647 0)
(-0.0066401842397 0.0771646535208 0)
(-0.00653874816867 0.0908223311735 0)
(-0.00642202249211 0.104222787948 0)
(-0.00629101240196 0.11733183339 0)
(-0.00614660302188 0.130117729442 0)
(-0.00598983820198 0.142551190909 0)
(-0.00582162607315 0.15460549425 0)
(-0.00564302497529 0.166256432263 0)
(-0.00545490332509 0.177482322095 0)
(-0.00525825441395 0.188263871782 0)
(-0.00505382857107 0.198584080721 0)
(-0.0048424761398 0.208428027292 0)
(-0.0046247627224 0.217782678714 0)
(-0.00440133597965 0.226636625385 0)
(-0.00417253415658 0.234979830037 0)
(-0.00393877129757 0.242803342586 0)
(-0.00370014768101 0.250099024992 0)
(-0.0034568462102 0.256859284588 0)
(-0.00320875208448 0.263076812687 0)
(-0.00295585224555 0.268744370333 0)
(-0.0026978696562 0.27385457332 0)
(-0.00243465743058 0.278399757465 0)
(-0.00216585263257 0.282371836252 0)
(-0.00189125880643 0.285762265206 0)
(-0.00161052480238 0.288561986638 0)
(-0.00132350561105 0.290761534935 0)
(-0.00102995351565 0.292351060395 0)
(-0.000729881032636 0.293320496531 0)
(-0.000423295665654 0.293659811925 0)
(-0.000110503702628 0.293359304478 0)
(0.000208135066569 0.292409908404 0)
(0.000531919598805 0.290803628318 0)
(0.000860039136013 0.288533937237 0)
(0.00119132371875 0.285596283481 0)
(0.00152446619567 0.28198853388 0)
(0.00185781391573 0.277711489909 0)
(0.00218958275214 0.272769309553 0)
(0.0025176858246 0.267169966893 0)
(0.00283993255435 0.260925605289 0)
(0.00315387788494 0.254052906895 0)
(0.00345699439701 0.246573393299 0)
(0.00374651545833 0.238513733531 0)
(0.00401958258918 0.229906091932 0)
(0.00427305738668 0.220788441226 0)
(0.00450369450858 0.211205066661 0)
(0.00470792162191 0.201206867509 0)
(0.00488215773113 0.190851949571 0)
(0.00502258220362 0.180205634883 0)
(0.00512574343347 0.169340714455 0)
(0.0051882863165 0.15833660719 0)
(0.00520787164674 0.147278680432 0)
(0.00518265881176 0.136256222425 0)
(0.00511237299782 0.125360780196 0)
(0.00499739329183 0.114683478763 0)
(0.00483998837311 0.104312826369 0)
(0.00464316450244 0.0943317751903 0)
(0.00441200045274 0.0848151056796 0)
(0.00415221444842 0.0758264403938 0)
(0.00387157033267 0.0674153002875 0)
(0.00357698105466 0.0596156332404 0)
(0.00327485850836 0.0524474766328 0)
(0.00297028646602 0.0459195693372 0)
(0.00266954072886 0.0400291843619 0)
(0.00237854373468 0.0347611513306 0)
(0.00210295156549 0.0300879894347 0)
(0.00184638092165 0.0259727206359 0)
(0.00161122873908 0.0223720985247 0)
(0.00139810963159 0.0192401137965 0)
(0.0012071145553 0.0165301218331 0)
(0.00103751704271 0.0141964244284 0)
(0.000888608403774 0.0121947691683 0)
(0.000759019582435 0.0104831844465 0)
(0.000647143712748 0.00902279366412 0)
(0.000550824792527 0.00777883923469 0)
(0.000468128489741 0.00672086934118 0)
(0.000397047962797 0.00582258655117 0)
(0.000335811969493 0.0050615466224 0)
(0.000282242603966 0.00441912537344 0)
(0.000232692723545 0.00388562835763 0)
(0.000179717758044 0.00340144485973 0)
(0.000157879453107 0.00309477888842 0)
(0.000149253580002 0.00277474290566 0)
(0.000129862538355 0.00249427597204 0)
(0.000126842295484 0.00225605799345 0)
(0.000131844154019 0.00199566588764 0)
(0.000128696935411 0.00174080137638 0)
(0.000126955842913 0.00147803200749 0)
(0.00013913398052 0.00120226641261 0)
(0.000154328516862 0.000908519820129 0)
(0.000172329465189 0.000560347837574 0)
(0.000184297424277 0.000179726486437 0)
(-0.0208362380807 0.00689543080474 0)
(-0.0219979225165 0.0220998958723 0)
(-0.0219243308055 0.0372166713777 -2.44322171223e-27)
(-0.0217382645168 0.0523368219829 0)
(-0.0214850072702 0.0672896054835 0)
(-0.0211696581077 0.0820455699391 0)
(-0.0207959303321 0.0965644713154 0)
(-0.0203672681971 0.110807978813 0)
(-0.019887426912 0.1247398777 0)
(-0.0193601434971 0.138326451572 0)
(-0.018789479238 0.151536613427 0)
(-0.0181793387707 0.16434201574 0)
(-0.0175338295251 0.176717046469 0)
(-0.016856718992 0.188638808006 0)
(-0.0161518412716 0.200087000536 0)
(-0.0154225229222 0.21104378715 0)
(-0.01467204058 0.221493582627 0)
(-0.0139030359355 0.231422826818 0)
(-0.0131180224778 0.240819707079 0)
(-0.0123188074844 0.249673872971 0)
(-0.0115070423052 0.257976129848 0)
(-0.0106836650701 0.265718135391 0)
(-0.00984948369991 0.272892106084 0)
(-0.00900464787746 0.279490536832 0)
(-0.00814924994972 0.285505958246 0)
(-0.00728283017841 0.290930714109 0)
(-0.00640497956687 0.295756798634 0)
(-0.00551488162774 0.299975717441 0)
(-0.00461190480266 0.303578424428 0)
(-0.00369518552812 0.306555286674 0)
(-0.00276420332784 0.308896122878 0)
(-0.00181838723009 0.310590323072 0)
(-0.000857675927226 0.311627044787 0)
(0.000117803698102 0.311995374953 0)
(0.0011072444133 0.31168468293 0)
(0.00210946529485 0.310684969324 0)
(0.00312245898472 0.308987313211 0)
(0.00414369374154 0.306584333739 0)
(0.00516973770862 0.303470718412 0)
(0.00619657457977 0.299643734977 0)
(0.00721931666498 0.295103770754 0)
(0.00823253787346 0.289854816574 0)
(0.00923006274242 0.283904938443 0)
(0.0102052906561 0.27726667045 0)
(0.0111510104031 0.269957378217 0)
(0.0120596651145 0.261999567836 0)
(0.012923117157 0.253421186824 0)
(0.0137328288977 0.244255957505 0)
(0.0144795337915 0.234543737063 0)
(0.0151534333702 0.224331017755 0)
(0.0157438467601 0.213671400946 0)
(0.0162397272892 0.202626215351 0)
(0.016629488155 0.191264832662 0)
(0.0169022169002 0.179664893692 0)
(0.0170477346137 0.167911739456 0)
(0.0170584520669 0.156097434289 0)
(0.0169290984272 0.144318764936 0)
(0.0166584975007 0.132675068402 0)
(0.016248402057 0.121265566556 0)
(0.0157054908133 0.110186799697 0)
(0.0150398332884 0.0995296237958 0)
(0.0142669514622 0.0893761547775 0)
(0.0134057193061 0.0797966495287 0)
(0.0124812295264 0.070844833137 0)
(0.011516720698 0.0625552380138 0)
(0.0105312689083 0.054947140818 0)
(0.00954041276894 0.0480296300321 0)
(0.00856350937551 0.0418006945592 0)
(0.00762051825414 0.036243630056 0)
(0.00672943740234 0.0313268992153 0)
(0.00590214274574 0.0270078768915 0)
(0.00514544276654 0.0232375520615 0)
(0.00446102871412 0.0199647191938 0)
(0.00384834139101 0.0171385158794 0)
(0.00330504127875 0.0147096522953 0)
(0.00282855136206 0.0126305308502 0)
(0.00241473137153 0.0108557042448 0)
(0.00205799581719 0.00934312714713 0)
(0.00175132885795 0.00805560887271 0)
(0.00148818947895 0.00696102692406 0)
(0.00126242083628 0.00603167778043 0)
(0.00106857270639 0.00524354217188 0)
(0.000900929761117 0.00457556978355 0)
(0.000753538812663 0.00400988558836 0)
(0.000615947559357 0.00350814772856 0)
(0.000519083077986 0.00303746930173 0)
(0.000453708692765 0.00270945027148 0)
(0.000393445244022 0.00243144003832 0)
(0.000375457338225 0.00215963737385 0)
(0.000385402841857 0.00193968506509 0)
(0.000385648624546 0.00171497640658 0)
(0.000392616339997 0.0014419353162 0)
(0.000417015379315 0.0011611741273 0)
(0.000499258977314 0.000910656612286 0)
(0.000599830548632 0.00057851305465 0)
(0.000540076360144 0.00015845986739 0)
(-0.0352109611211 0.00695077543308 0)
(-0.0371957039222 0.0222827286902 0)
(-0.0370447443615 0.0374915994676 -2.4465951768e-27)
(-0.0367245940254 0.0527212547856 0)
(-0.0362976383047 0.0677814430207 0)
(-0.0357690069025 0.0826413235359 0)
(-0.0351434807027 0.0972596700097 0)
(-0.0344264439208 0.111597629947 0)
(-0.0336238876874 0.125618600834 0)
(-0.0327421125123 0.139288570459 0)
(-0.0317877547663 0.15257626921 0)
(-0.0307674685042 0.165453269832 0)
(-0.029687970768 0.177894000702 0)
(-0.0285557042424 0.18987570805 0)
(-0.0273769116701 0.201378345 0)
(-0.0261572997674 0.212384415508 0)
(-0.0249021548012 0.222878758961 0)
(-0.0236160274409 0.232848299788 0)
(-0.0223028992288 0.242281757472 0)
(-0.0209659052296 0.251169337214 0)
(-0.0196075561329 0.2595024056 0)
(-0.0182295085303 0.267273166165 0)
(-0.0168328386518 0.274474346199 0)
(-0.0154178606637 0.281098901685 0)
(-0.0139844394488 0.287139755879 0)
(-0.0125318502422 0.292589569404 0)
(-0.011059114858 0.2974405602 0)
(-0.00956489595229 0.301684362954 0)
(-0.00804784533221 0.305311949767 0)
(-0.00650652966583 0.308313593477 0)
(-0.00493979629313 0.310678914897 0)
(-0.00334671899798 0.312396968348 0)
(-0.0017269518798 0.313456400619 0)
(-8.07240487524e-05 0.313845694724 0)
(0.00159082256049 0.313553487461 0)
(0.00328564947705 0.312568944295 0)
(0.00500052890718 0.310882216006 0)
(0.00673109417502 0.308484938685 0)
(0.00847163277381 0.305370785978 0)
(0.0102152087188 0.301536028672 0)
(0.0119535681705 0.296980100725 0)
(0.0136773433717 0.291706123069 0)
(0.0153760541724 0.285721383667 0)
(0.0170383463932 0.279037737486 0)
(0.0186520053636 0.271671940486 0)
(0.020204121768 0.263645917951 0)
(0.0216809889574 0.254987008658 0)
(0.0230681015846 0.245728238469 0)
(0.0243498788322 0.235908671483 0)
(0.0255095828549 0.225573921199 0)
(0.0265290666562 0.214776795102 0)
(0.027389059891 0.203578096789 0)
(0.0280694612533 0.19204734149 0)
(0.0285506578636 0.180263253135 0)
(0.0288146884364 0.168313520414 0)
(0.0288474963829 0.156293735775 0)
(0.028639913687 0.14430516733 0)
(0.0281891210816 0.132452088821 0)
(0.027498085396 0.120839160146 0)
(0.0265772691153 0.109568723826 0)
(0.0254441364537 0.0987377564955 0)
(0.0241243923352 0.0884345218652 0)
(0.022650760251 0.0787362022066 0)
(0.0210702205729 0.0696997740304 0)
(0.0194263759035 0.0613552481936 0)
(0.017748612618 0.0537161590571 0)
(0.0160594911488 0.0467920416612 0)
(0.0143923452546 0.0405844229343 0)
(0.0127851747255 0.0350758310131 0)
(0.0112705450361 0.0302289816947 0)
(0.00986942283907 0.0259933838932 0)
(0.00859179806685 0.0223128949701 0)
(0.0074392036008 0.0191312588708 0)
(0.00640888025375 0.0163948914841 0)
(0.00549654079529 0.01405322907 0)
(0.00469792690376 0.0120574607358 0)
(0.00400678885613 0.0103599860543 0)
(0.00341288000419 0.00891662890135 0)
(0.00290341593894 0.00768951511462 0)
(0.00246661956911 0.00664716529443 0)
(0.00209252262796 0.00576274364496 0)
(0.00177233734782 0.00501285089454 0)
(0.00149782925153 0.00437718505737 0)
(0.00126240013334 0.00384010424423 0)
(0.00106494708271 0.00336321409728 0)
(0.000907205041808 0.00292735596066 0)
(0.000798418557628 0.00265747195479 0)
(0.000683411054213 0.00229241093524 0)
(0.000607455750329 0.00198380684543 0)
(0.000606823934802 0.00178545175536 0)
(0.000659557351414 0.00162176954789 0)
(0.000651357482178 0.00127966462474 0)
(0.000714547966086 0.00103833702988 0)
(0.000808545908152 0.000746809323346 0)
(0.000891634856406 0.000444542490844 0)
(0.000861017286742 0.000136815527336 0)
(-0.0497832549715 0.00700810127401 0)
(-0.0526130966108 0.0224863246739 0)
(-0.0523971499137 0.0378188880137 2.44626981092e-27)
(-0.0519400788273 0.053177502187 0)
(-0.0513312330156 0.0683629942064 0)
(-0.0505783200274 0.0833433109134 0)
(-0.0496880485404 0.0980760582901 0)
(-0.0486680985652 0.112521572279 0)
(-0.0475269952677 0.126642656114 0)
(-0.0462738318212 0.140404888117 0)
(-0.044918108325 0.153776771683 0)
(-0.0434694569858 0.16672982721 0)
(-0.0419374944229 0.179238606972 0)
(-0.0403315500546 0.1912806455 0)
(-0.038660542878 0.202836341142 0)
(-0.0369327322518 0.21388878031 0)
(-0.0351556378698 0.224423504565 0)
(-0.0333358353288 0.23442823317 0)
(-0.0314789382663 0.243892546828 0)
(-0.0295894587077 0.252807546663 0)
(-0.0276708641198 0.261165499209 0)
(-0.0257255123006 0.268959481161 0)
(-0.0237547826259 0.276183036919 0)
(-0.0217590802275 0.28282985901 0)
(-0.0197380264809 0.288893503265 0)
(-0.0176905161049 0.29436714275 0)
(-0.0156149467825 0.299243369824 0)
(-0.0135093141059 0.303514045055 0)
(-0.0113714676585 0.30717020244 0)
(-0.00919923854557 0.310202001461 0)
(-0.00699072958977 0.312598766243 0)
(-0.00474445706392 0.314349059608 0)
(-0.00245965557755 0.315440826882 0)
(-0.000136474350294 0.31586165276 0)
(0.00222372951679 0.315599079087 0)
(0.0046182170146 0.314641003036 0)
(0.00704261557564 0.312976160261 0)
(0.0094908113545 0.310594672225 0)
(0.0119548069523 0.307488648218 0)
(0.0144247405199 0.303652809762 0)
(0.0168889009666 0.299085113408 0)
(0.0193338973527 0.293787330494 0)
(0.0217448161573 0.287765555051 0)
(0.0241054748407 0.281030608542 0)
(0.0263985956978 0.273598332438 0)
(0.0286059654247 0.265489780657 0)
(0.0307084108066 0.256731354767 0)
(0.0326856641173 0.247354963041 0)
(0.0345160103706 0.237398301647 0)
(0.036175900301 0.226905379456 0)
(0.037639567943 0.215927360646 0)
(0.0388790193369 0.204523727619 0)
(0.0398646091348 0.192763631046 0)
(0.0405665510563 0.180726986753 0)
(0.040957429824 0.168504840159 0)
(0.0410152541553 0.15619820875 0)
(0.0407261415292 0.143915285313 0)
(0.0400852899049 0.131767715095 0)
(0.0390960025915 0.119868174513 0)
(0.0377722079851 0.108327869121 0)
(0.0361385339912 0.0972530546058 0)
(0.0342308382796 0.0867412475281 0)
(0.032093056976 0.0768840994353 0)
(0.0298072765825 0.0677463137839 0)
(0.0274465671568 0.059344897744 0)
(0.025043918723 0.0516781209233 0)
(0.022616687776 0.0447590266351 0)
(0.0202161587587 0.0386010331716 0)
(0.0179071736716 0.0331866395691 0)
(0.0157422685812 0.0284672264348 0)
(0.01375165898 0.0243775253429 0)
(0.011946046184 0.0208490104728 0)
(0.0103232570629 0.0178176396682 0)
(0.00887549271644 0.0152266415235 0)
(0.007595307115 0.0130251402663 0)
(0.00647804203809 0.0111634927351 0)
(0.00551694912922 0.00959018518857 0)
(0.00469587555359 0.0082565651964 0)
(0.00399336093459 0.00712384613405 0)
(0.00339131288861 0.00616266407643 0)
(0.00287634765266 0.005348255319 0)
(0.00243664329367 0.00465829156007 0)
(0.00206040104616 0.00407385157733 0)
(0.00173848614664 0.00358334721139 0)
(0.00146928495515 0.00313062494336 0)
(0.00127636442173 0.00277652085788 0)
(0.00112170229033 0.00246065511342 0)
(0.000978970209968 0.00210589055359 0)
(0.000903885747059 0.00185726286059 0)
(0.000842547917555 0.0015575084255 0)
(0.000858347630018 0.00130977649996 0)
(0.000959078897007 0.0011335734443 0)
(0.000969720795161 0.000808404380516 0)
(0.00105888909876 0.000553038680328 0)
(0.00115302513633 0.000331224033509 0)
(0.00113590832666 0.000108016524673 0)
(-0.0645022413943 0.0070821123348 0)
(-0.0681734587823 0.0227553336999 0)
(-0.067891081511 0.0382595672061 0)
(-0.0672938129028 0.0537923060404 0)
(-0.0664982447948 0.0691462637574 0)
(-0.0655148847179 0.0842881692973 0)
(-0.0643526939751 0.0991742405655 0)
(-0.0630218859654 0.113763728265 0)
(-0.0615337585932 0.128018611851 0)
(-0.0599003919049 0.141903900954 0)
(-0.0581343761821 0.155387783226 0)
(-0.0562485057154 0.16844171097 0)
(-0.0542555146435 0.181040411336 0)
(-0.0521677827338 0.193161824365 0)
(-0.0499970975436 0.204786969669 0)
(-0.0477543953525 0.215899747396 0)
(-0.0454495750082 0.22648667796 0)
(-0.0430913024201 0.236536589622 0)
(-0.0406869041153 0.246040263572 0)
(-0.038242262215 0.254990049746 0)
(-0.0357618083411 0.263379467769 0)
(-0.0332485220423 0.271202808378 0)
(-0.0307040259532 0.278454750763 0)
(-0.0281286775815 0.285130008326 0)
(-0.0255217442167 0.291223014183 0)
(-0.0228815607522 0.296727652201 0)
(-0.0202057548914 0.301637038985 0)
(-0.0174914467529 0.305943356925 0)
(-0.0147355081481 0.309637742346 0)
(-0.0119347984237 0.312710219631 0)
(-0.0090864705858 0.315149728742 0)
(-0.00618822608759 0.316944179703 0)
(-0.00323865865646 0.318080581872 0)
(-0.00023757715797 0.318545301793 0)
(0.00281365340697 0.318324386448 0)
(0.0059118090294 0.317403985661 0)
(0.00905150885451 0.315770875288 0)
(0.0122250028079 0.313413066557 0)
(0.0154220160388 0.310320485196 0)
(0.0186297213737 0.306485688455 0)
(0.0218328078893 0.30190458152 0)
(0.0250136890249 0.29657708334 0)
(0.0281527926718 0.290507690988 0)
(0.0312289264226 0.283705896204 0)
(0.0342196164901 0.276186425564 0)
(0.0371013609676 0.267969310613 0)
(0.0398496690392 0.259079837997 0)
(0.0424388350982 0.249548494473 0)
(0.0448413785793 0.239411065597 0)
(0.047027270509 0.228709116865 0)
(0.0489630626599 0.217491013777 0)
(0.0506114696469 0.205813682604 0)
(0.051931677927 0.193744847628 0)
(0.0528814916055 0.181365463771 0)
(0.0534209470339 0.168771016138 0)
(0.0535179319109 0.15607063298 0)
(0.0531525946682 0.143382777368 0)
(0.0523186135787 0.130828915787 0)
(0.0510174960334 0.11853244506 0)
(0.0492660763576 0.106617038902 0)
(0.047096275948 0.0952016087498 0)
(0.044553586563 0.0843937291786 0)
(0.0416770709775 0.0743168049084 0)
(0.0386189706126 0.065056962581 0)
(0.0355062062381 0.0565951347497 0)
(0.0323541312542 0.0488891438045 0)
(0.0291396965991 0.0419668013392 0)
(0.0259455400576 0.0358771099335 0)
(0.0228848280884 0.0306038493818 0)
(0.0200397706206 0.0260751137625 0)
(0.017448367475 0.022198579786 0)
(0.0151160383624 0.0188857148252 0)
(0.0130301933618 0.0160617585575 0)
(0.0111724396131 0.0136678488717 0)
(0.00953016619162 0.0116565581207 0)
(0.00810212497957 0.0099797706847 0)
(0.00688657517635 0.00857839167004 0)
(0.00585870586444 0.00739353293434 0)
(0.00498117887417 0.00638537837752 0)
(0.004227838289 0.00553052189777 0)
(0.00358413343884 0.00480839581999 0)
(0.00303649312524 0.00419718268231 0)
(0.00256769305663 0.00367919766628 0)
(0.00216584377664 0.00324673007324 0)
(0.00181882561672 0.00282047464194 0)
(0.00163864284579 0.00256412357981 0)
(0.00148072403522 0.0022557463616 0)
(0.00131209009246 0.00192351209151 0)
(0.00115074247289 0.00156288844067 0)
(0.0011084805998 0.00131653675978 0)
(0.00107813091684 0.00103289798949 0)
(0.00117181267581 0.000858612064975 0)
(0.00127959178422 0.000655548300344 0)
(0.00127681425293 0.000405344078438 0)
(0.0013133738203 0.000231193222141 0)
(0.00129180292761 7.63193563783e-05 0)
(-0.0794178715901 0.00717440476375 0)
(-0.0839373192673 0.0230951722794 0)
(-0.0835852149363 0.0388190675419 0)
(-0.0828423635424 0.0545734737293 0)
(-0.0818529022721 0.0701413675285 0)
(-0.080630292738 0.0854880940803 0)
(-0.0791860187468 0.100568208208 0)
(-0.0775331047809 0.115339607625 0)
(-0.0756859151972 0.129763224876 0)
(-0.0736597986493 0.143803343738 0)
(-0.0714707300743 0.157427750417 0)
(-0.0691349407648 0.170607817999 0)
(-0.0666685636312 0.183318509609 0)
(-0.064087278362 0.195538302754 0)
(-0.0614059862306 0.207249035916 0)
(-0.0586384990444 0.218435681278 0)
(-0.0557972759203 0.229086048285 0)
(-0.0528931927858 0.239190426534 0)
(-0.0499353799743 0.248741178973 0)
(-0.0469311100668 0.2577323005 0)
(-0.0438857672981 0.266158959403 0)
(-0.0408028729446 0.274017040822 0)
(-0.0376841889854 0.281302710828 0)
(-0.034529865424 0.288012017075 0)
(-0.0313386458244 0.294140537877 0)
(-0.0281080937467 0.299683085832 0)
(-0.0248348552685 0.304633468068 0)
(-0.021514927678 0.308984301098 0)
(-0.0181439572511 0.312726879957 0)
(-0.014717546564 0.315851088784 0)
(-0.0112316107303 0.318345411892 0)
(-0.00768271369509 0.320196956654 0)
(-0.00406848867002 0.321391562151 0)
(-0.000388067923278 0.321914048373 0)
(0.00335748284287 0.321748542668 0)
(0.00716474050445 0.320878926851 0)
(0.0110275307139 0.319289411031 0)
(0.0149366124024 0.316965223199 0)
(0.0188794641534 0.313893396049 0)
(0.0228402196726 0.310063615488 0)
(0.026799768442 0.305469079095 0)
(0.0307360420407 0.300107297394 0)
(0.0346244609409 0.293980758958 0)
(0.0384384969303 0.287097384026 0)
(0.0421502485631 0.279470705213 0)
(0.0457308966121 0.271119760297 0)
(0.0491508698493 0.262068748357 0)
(0.0523795566496 0.252346589366 0)
(0.0553844700823 0.241986657613 0)
(0.0581298367287 0.231026995397 0)
(0.0605749515767 0.219511510607 0)
(0.0626726138458 0.207492318831 0)
(0.0643689741181 0.195033656723 0)
(0.0656054836861 0.182216284807 0)
(0.0663249550006 0.169141326633 0)
(0.0664807235025 0.155929908678 0)
(0.0660464814968 0.142716016599 0)
(0.0650171921805 0.129632658665 0)
(0.0633876088751 0.116815668793 0)
(0.0611759349643 0.104406669887 0)
(0.0584253628494 0.0925405787845 0)
(0.0551936884388 0.0813220533676 0)
(0.0514456219547 0.0709494521701 0)
(0.0475026392741 0.0615753707195 0)
(0.0436137207103 0.0530799729448 0)
(0.039711792009 0.0453115666682 0)
(0.0356344063165 0.038350430129 0)
(0.0315439936034 0.0323461757037 0)
(0.0276530424974 0.0272808768272 0)
(0.0240888437967 0.0230307627135 0)
(0.0208888614975 0.0194537848379 0)
(0.0180401259742 0.0164308299982 0)
(0.0155076510839 0.0138740411107 0)
(0.0132520439272 0.0117266209825 0)
(0.0112512938933 0.00995483332616 0)
(0.00951737609934 0.00851990346644 0)
(0.00807005473589 0.00734676089536 0)
(0.00686954944456 0.0063511623927 0)
(0.00584304561987 0.0054929752763 0)
(0.00495452680962 0.00476561893575 0)
(0.00419617801365 0.00415691209601 0)
(0.00355687695403 0.00364184816995 0)
(0.0030084551442 0.00320303006384 0)
(0.00253828838655 0.00282933475744 0)
(0.0021415329193 0.00245552846365 0)
(0.00194342373634 0.00221171319234 0)
(0.00173477595472 0.00188114499907 0)
(0.00160115138949 0.00162464028895 0)
(0.00149945730303 0.00135844789443 0)
(0.00143825666663 0.00110376349175 0)
(0.00130349549104 0.000790676138387 0)
(0.00131695613872 0.000581658044011 0)
(0.00145122424093 0.000458543445135 0)
(0.00146476186605 0.000301617350424 0)
(0.00144791237797 0.000164052054136 0)
(0.00142598434658 5.39485558284e-05 0)
(-0.0945762198904 0.00728654818569 0)
(-0.0999547987049 0.0235100279702 0)
(-0.0995283747999 0.0395028475914 2.46421193664e-27)
(-0.0986327392602 0.0555283437356 0)
(-0.0974400522965 0.0713574792544 0)
(-0.0959669170836 0.0869539020206 0)
(-0.094227621993 0.102270147083 0)
(-0.0922383276575 0.117262459315 0)
(-0.090016817153 0.131890488803 0)
(-0.0875820662186 0.146117631598 0)
(-0.0849537997684 0.159911188723 0)
(-0.0821520422336 0.173242449881 0)
(-0.0791966755807 0.186086688973 0)
(-0.076107006324 0.198423072965 0)
(-0.0729013556314 0.210234485034 0)
(-0.0695966758379 0.22150726374 0)
(-0.0662082118347 0.232230862282 0)
(-0.0627492142349 0.242397435263 0)
(-0.0592307251383 0.252001365385 0)
(-0.0556614417799 0.261038747366 0)
(-0.0520476730128 0.269506851239 0)
(-0.0483933833198 0.277403589419 0)
(-0.0447003254419 0.28472701202 0)
(-0.040968241925 0.291474850667 0)
(-0.0371951247275 0.297644124832 0)
(-0.0333775077972 0.303230815856 0)
(-0.0295107840328 0.308229606656 0)
(-0.0255895325155 0.312633679519 0)
(-0.0216078627706 0.316434565822 0)
(-0.0175597779985 0.319622027877 0)
(-0.0134395885152 0.322184046289 0)
(-0.00924231876873 0.324106795591 0)
(-0.00496422095346 0.325374720575 0)
(-0.000603315269821 0.325970761683 0)
(0.00384005232146 0.3258766758 0)
(0.00836264545274 0.325073504741 0)
(0.0129578063563 0.323542207081 0)
(0.0176150088962 0.321264447644 0)
(0.0223195458409 0.318223527566 0)
(0.0270524085465 0.314405415562 0)
(0.0317904047063 0.309799815176 0)
(0.0365065467752 0.304401176763 0)
(0.0411707036937 0.298209538005 0)
(0.0457504622856 0.291231069215 0)
(0.0502120679093 0.283478206683 0)
(0.0545212506087 0.274969313287 0)
(0.0586436562434 0.265727884905 0)
(0.062544616544 0.255781494705 0)
(0.0661879490642 0.245160768802 0)
(0.0695337695605 0.233899056602 0)
(0.0725353222644 0.222033296948 0)
(0.0751356874758 0.209607269912 0)
(0.077265460264 0.196677346571 0)
(0.0788442110603 0.183321134795 0)
(0.0797886065818 0.169645993584 0)
(0.0800295621111 0.155791924269 0)
(0.0795345119635 0.141919024664 0)
(0.0783130266121 0.128169831874 0)
(0.0763377046794 0.114690981212 0)
(0.0736221510582 0.101654591443 0)
(0.07024130189 0.089219182151 0)
(0.0662966483461 0.0774138727043 0)
(0.0614137807039 0.0666255760238 0)
(0.0563780819499 0.0572247879135 0)
(0.0517593472795 0.0488040385678 0)
(0.0472073097857 0.0409097877364 0)
(0.0421350687434 0.0337991383114 0)
(0.0369612890048 0.0278959729365 0)
(0.0321167306504 0.0231489465903 0)
(0.0277903500527 0.019311176099 0)
(0.0239888405325 0.0161500943471 0)
(0.0206542823912 0.0135047204174 0)
(0.0177101258219 0.0112738726289 0)
(0.0150763076569 0.00941166213197 0)
(0.0127093830287 0.00792201637238 0)
(0.0106573185983 0.00679858480159 0)
(0.00901051317361 0.00593055706073 0)
(0.00770077089482 0.00516650133658 0)
(0.00656226660059 0.00447033803331 0)
(0.00555127807472 0.00388364343793 0)
(0.00469101653947 0.00341073670114 0)
(0.00398472985365 0.00300942335282 0)
(0.00337279216541 0.00265965312146 0)
(0.0028472222731 0.002349406745 0)
(0.00245439771924 0.00206056071917 0)
(0.00223100810625 0.00181520680738 0)
(0.00202864422142 0.00154326208255 0)
(0.00184639383836 0.00126797114381 0)
(0.00175434739011 0.00103764525233 0)
(0.00163482858325 0.000789028709649 0)
(0.00159634203446 0.000600098301172 0)
(0.00148717437975 0.000382728973316 0)
(0.00150824877467 0.000265879738865 0)
(0.00157738842272 0.00019244559582 0)
(0.00153980074083 0.000103309333392 0)
(0.00151596739601 3.3739286189e-05 0)
(-0.110026758463 0.00741978412353 0)
(-0.116278339251 0.0240044289693 0)
(-0.11577193912 0.0403177416215 -2.46383186558e-27)
(-0.114714497261 0.0566661737293 0)
(-0.11330691106 0.0728060978502 0)
(-0.111569210146 0.0886990714525 0)
(-0.109518836363 0.104295183751 0)
(-0.107175484075 0.119548688192 0)
(-0.104560783139 0.134417695549 0)
(-0.10169777788 0.148864543558 0)
(-0.0986103899253 0.162855964296 0)
(-0.0953228778857 0.176363167611 0)
(-0.0918593034143 0.189361828167 0)
(-0.088243008907 0.201831978165 0)
(-0.0844961161665 0.213757804767 0)
(-0.0806390553906 0.225127351742 0)
(-0.076690141074 0.235932126457 0)
(-0.0726652117967 0.24616661838 0)
(-0.0685773558289 0.255827741703 0)
(-0.0644367394526 0.264914223109 0)
(-0.0602505526086 0.273425962699 0)
(-0.0560230737248 0.281363401166 0)
(-0.0517558472887 0.288726926228 0)
(-0.0474479530184 0.295516346201 0)
(-0.0430963407402 0.301730447976 0)
(-0.0386962000553 0.30736664326 0)
(-0.0342413427157 0.312420694137 0)
(-0.0297245846551 0.316886500636 0)
(-0.0251381325394 0.320755934083 0)
(-0.0204739891367 0.32401868572 0)
(-0.0157244177857 0.326662220288 0)
(-0.0108824123059 0.328671682819 0)
(-0.0059423125776 0.330029923263 0)
(-0.000900467593818 0.330717673926 0)
(0.00424405440653 0.330713846841 0)
(0.00948872558721 0.329996012772 0)
(0.0148268420928 0.328541092852 0)
(0.0202468948967 0.326326266404 0)
(0.0257321028592 0.323330084364 0)
(0.0312601917412 0.31953374822 0)
(0.0368035009151 0.314922477181 0)
(0.0423294826337 0.309486843436 0)
(0.0478016187136 0.303223910301 0)
(0.0531807062798 0.296137974902 0)
(0.0584263657158 0.288240713863 0)
(0.0634984891874 0.279550566844 0)
(0.0683582342677 0.270091336828 0)
(0.0729680534907 0.259890118623 0)
(0.0772902785093 0.24897507438 0)
(0.0812838497933 0.237373676851 0)
(0.0848991123949 0.225112800741 0)
(0.088071107893 0.212221911169 0)
(0.0907130575125 0.198741727537 0)
(0.0927141080624 0.184739067075 0)
(0.0939487183909 0.170326378085 0)
(0.0943071079991 0.155675537467 0)
(0.0937521548851 0.140999207539 0)
(0.0923577562158 0.126435587702 0)
(0.0900242524287 0.11212452906 0)
(0.0867306283943 0.0983099999527 0)
(0.0826725820341 0.0852148716375 0)
(0.0781939105267 0.0724947814488 0)
(0.0715681538701 0.061031089988 0)
(0.0649719954466 0.0519210468762 0)
(0.0598906780675 0.0439105506307 0)
(0.0550455029966 0.0356923872346 0)
(0.04864743937 0.0281123474729 0)
(0.0420135436052 0.0223373770338 0)
(0.0360345626363 0.0181202385395 0)
(0.0309356724581 0.0149135564857 0)
(0.026589919268 0.0123282208447 0)
(0.0228414593366 0.0101617608585 0)
(0.0195582132399 0.00830437566611 0)
(0.016587462136 0.00673258404702 0)
(0.0138280639897 0.00554062951422 0)
(0.011407315936 0.00482345783238 0)
(0.0096216261475 0.00439087644633 0)
(0.00834633914593 0.00390317293437 0)
(0.00714659110044 0.00334363533753 0)
(0.00600260086304 0.00289445466088 0)
(0.00503971978122 0.00259037476922 0)
(0.00431261370118 0.00232353737491 0)
(0.00365514091541 0.00206273050004 0)
(0.00309083304033 0.00181881682235 0)
(0.00272886701983 0.00160431522806 0)
(0.00247704872813 0.00137305077114 0)
(0.00230048479852 0.0011595061434 0)
(0.00211980043314 0.000924405243863 0)
(0.00196894033799 0.000708475244416 0)
(0.00181634200101 0.000502909497861 0)
(0.00172049327004 0.000344744344588 0)
(0.00167779775468 0.000226173044939 0)
(0.00157933815807 0.000121218694744 0)
(0.00164770844712 7.94066291937e-05 0)
(0.00159159803587 4.67974862967e-05 0)
(0.00156109365599 1.36648142978e-05 0)
(-0.12582218137 0.00757542762584 0)
(-0.132963267717 0.0245836901018 0)
(-0.132370030412 0.041272127583 0)
(-0.131139752543 0.0579983806546 0)
(-0.129502987614 0.074501391812 0)
(-0.127483578075 0.0907401698915 0)
(-0.125102559647 0.106661872636 0)
(-0.122383649463 0.122218382323 0)
(-0.119352844078 0.137365990545 0)
(-0.116037790593 0.152065795721 0)
(-0.112467145251 0.166283877198 0)
(-0.108669933266 0.17999137643 0)
(-0.104674916631 0.193164475208 0)
(-0.10050997332 0.205784272517 0)
(-0.0962014942872 0.217836556806 0)
(-0.0917738089623 0.229311468152 0)
(-0.0872486583394 0.240203046795 0)
(-0.0826447406692 0.25050867015 0)
(-0.0779773600413 0.260228390832 0)
(-0.0732582060718 0.269364200347 0)
(-0.0684952866039 0.277919255681 0)
(-0.0636930203796 0.285897114257 0)
(-0.0588524794623 0.293301024745 0)
(-0.0539717514361 0.300133313446 0)
(-0.0490463785217 0.306394890055 0)
(-0.0440698259018 0.312084874133 0)
(-0.039033941476 0.31720032243 0)
(-0.0339293888486 0.321736022523 0)
(-0.0287460620522 0.325684319452 0)
(-0.0234735112315 0.329034928133 0)
(-0.0181014398593 0.331774839182 0)