/*--------------------------------*- C++ -*----------------------------------*\
| =========                 |                                                 |
| \\      /  F ield         | OpenFOAM: The Open Source CFD Toolbox           |
|  \\    /   O peration     | Version:  v1906                                 |
|   \\  /    A nd           | Web:      www.OpenFOAM.com                      |
|    \\/     M anipulation  |                                                 |
\*---------------------------------------------------------------------------*/
FoamFile
{
    version     2.0;
    format      ascii;
    class       surfaceScalarField;
    location    "347";
    object      phia;
}
// * * * * * * * * * * * * * * * * * * * * * * * * * * * * * * * * * * * * * //

dimensions      [0 3 -1 0 0 0 0];
oriented        oriented;


internalField   nonuniform List<scalar> 
18240
(
0.00134700887999
-0.00134694591499
0.00282173732324
-0.00147465617521
0.00429552144943
-0.00147371891377
0.00575074407581
-0.00145514849627
0.00717943808191
-0.00142863054225
0.00857492157993
-0.00139540773462
0.00993116917369
-0.00135618592608
0.0112427849421
-0.00131153834065
0.0125048967991
-0.00126205204663
0.0137132791769
-0.00120830328818
0.0148642404102
-0.00115090342126
0.0159547589115
-0.00109043776974
0.0169823281526
-0.00102751353111
0.0179450981385
-0.000962687644008
0.0188416781372
-0.000896526555772
0.0196712887092
-0.000829526653768
0.0204335274558
-0.000762187676728
0.0211285388178
-0.0006949259024
0.0217567486365
-0.00062816129952
0.0223190584842
-0.000562222874174
0.0228165535111
-0.000497449165155
0.0232507266044
-0.000434084632032
0.0236231622967
-0.000372392687115
0.0239357941646
-0.000312541944295
0.0241905653002
-0.000254731112425
0.0243897205947
-0.000199063951849
0.0245354429107
-0.000145685521537
0.0246301808178
-9.4645213018e-05
0.024676258701
-4.60444884432e-05
0.0246762405365
1.12093116426e-07
0.0246325140671
4.37561476972e-05
0.0245476852677
8.49237910265e-05
0.0244241251175
0.000123585882986
0.0242644112658
0.000159809651995
0.0240708543514
0.000193578317135
0.0238459666567
0.000224983980611
0.0235919529935
0.000254030470289
0.0233112172438
0.00028083211277
0.023005823054
0.00030540598661
0.022678035707
0.000327883313311
0.0223297523239
0.000348289911334
0.0219630777776
0.000366769567171
0.021579725539
0.000383353104674
0.0211816259761
0.000398193045286
0.0207702992121
0.000411321769106
0.0203474936755
0.000422896836353
0.0199145333466
0.00043294915374
0.0194729838637
0.000441637940241
0.0190239766129
0.000448989800966
0.018568899167
0.000455162376326
0.0181086995862
0.000460175653296
0.0176445973766
0.000464182940229
0.0171773713062
0.000467195704588
0.0167080865795
0.000469360582579
0.0162373702965
0.000470679417626
0.0157661500222
0.000471290614314
0.0152949208785
0.000471185965414
0.0148244903429
0.00047049473484
0.0143552417553
0.000469199188884
0.0138878798294
0.00046741941065
0.0134226952139
0.000465129331098
0.012960305064
0.000462440378538
0.0125009240586
0.000459320081162
0.0120450942275
0.000455872328404
0.0115929676535
0.000452060480765
0.0111450198209
0.000447982172287
0.0107013498624
0.000443599083626
0.0102623717217
0.000439003980789
0.0098281375007
0.000434159152494
0.00939900097242
0.000429153601331
0.0089749699454
0.000423952284044
0.0085563368474
0.000418641253529
0.00814306549005
0.00041318964418
0.00773538384576
0.000407680852798
0.00733321060273
0.000402089234905
0.00693670559108
0.000396495410866
0.00654574076062
0.000390879387044
0.00616040425121
0.000385318406152
0.00578052013534
0.000379798110618
0.0054061025841
0.000374391438302
0.00503692788645
0.000369089151787
0.00467293580045
0.000363958586885
0.00431385702764
0.000358994660134
0.00395955948378
0.000354257300893
0.00360973404946
0.000349743593528
0.00326418497776
0.000345502524157
0.00292257819759
0.000341527605017
0.00258468047049
0.000337845095654
0.00225018487664
0.000334419367986
0.00191893416507
0.000331193250719
0.00159091289988
0.00032794980056
0.00126669557586
0.000324157655959
0.000948383033151
0.000318249949164
0.000643299894638
0.000305025314522
0.000356425414809
0.000286801136044
0.000356382899447
0.00148911125066
-0.00283598906601
0.00315142890056
-0.00313689970244
0.00480478085837
-0.00312699869627
0.00643453943203
-0.00308483241327
0.00803334254784
-0.00302736193559
0.0095943121031
-0.00295630229155
0.0111109051611
-0.00287270775693
0.0125771208961
-0.00277767871327
0.0139875454033
-0.00267240588871
0.0153374418891
-0.00255812408631
0.0166227214635
-0.00243611296362
0.0178400026503
-0.00230764300509
0.0189865418428
-0.0021739834357
0.0200602775157
-0.00203634717681
0.0210597296808
-0.00189591026501
0.0219840374597
-0.00175375818124
0.0228328354071
-0.00161091812226
0.0236062926747
-0.00146830688696
0.0243049734936
-0.00132677565758
0.0249298851824
-0.00118705832202
0.0254823286396
-0.00104982732661
0.0259639606296
-0.00091564049975
0.026376637917
-0.000785005933656
0.0267224969166
-0.00065832501885
0.0270037927131
-0.000535964268679
0.0272229970214
-0.000418192632805
0.0273826314701
-0.000305258856347
0.0274853834422
-0.000197321981329
0.0275339320661
-9.45337319388e-05
0.0275310807003
3.03806462115e-06
0.0274795719122
9.53223800376e-05
0.0273822414832
0.000182328004336
0.0272418341382
0.000264048430028
0.0270611627979
0.000340553660315
0.0268429017908
0.000411891984529
0.0265897723695
0.000478184609105
0.0263043311691
0.000539521392284
0.025989169082
0.000596063536711
0.0256466884364
0.000647933039389
0.0252793172379
0.000695321526699
0.0248892756783
0.000738374106269
0.0244788052812
0.000777304159703
0.0240499250695
0.000812271769863
0.0236046748296
0.000843504146698
0.0231448614812
0.000871168924247
0.0226723155202
0.000895499791587
0.0221886284007
0.00091666504335
0.0216954209726
0.000934897973672
0.0211940728551
0.000950361233676
0.0206860014723
0.000963281461142
0.0201723845712
0.000973810092157
0.0196544481526
0.000982161678628
0.0191331833497
0.000988471938501
0.018609641316
0.000992939102021
0.0180846458055
0.00099568003007
0.0175590928018
0.000996873870871
0.0170336601812
0.000996617146355
0.0165091097228
0.000995068855617
0.015985995406
0.000992305422402
0.0154649652944
0.000988466300696
0.0149464701174
0.000983609702095
0.0144310625263
0.000977857622334
0.0139191078569
0.0009712532499
0.013411078261
0.000963904281509
0.0129072676728
0.00095584293489
0.0124080784523
0.000947166344906
0.0119137428248
0.000937900105372
0.0114245997701
0.00092813455325
0.0109408252617
0.000917892790839
0.0104626973226
0.000907261670108
0.00999033752375
0.000896265257086
0.00952396225564
0.000884989411378
0.00906363784348
0.000873461658381
0.0086095162757
0.000861768330677
0.00816160625083
0.000849941796601
0.0077199917432
0.000838069252877
0.0072846210253
0.000826188204498
0.00685550664454
0.00081438610211
0.00643253428767
0.000802704896361
0.00601564290098
0.000791230834845
0.00560465491376
0.000780008784532
0.00519943544905
0.000769121580158
0.00479974524318
0.000758614647375
0.00440537812189
0.000748564276056
0.00401603770248
0.000739012704924
0.00363145263367
0.000730024311039
0.00325127793192
0.000721630260016
0.00287518699875
0.000713869864598
0.00250279392658
0.000706739970811
0.00213370666953
0.000700212348417
0.00176741408648
0.000694172297359
0.00140311296802
0.000688392199913
0.00103884781639
0.000682448208322
0.00066814957064
0.000675659994821
0.00028592768526
0.000668960873308
0.000642279094879
0.00151529878182
-0.00435121906159
0.00319876727777
-0.00482029475034
0.0048757354999
-0.0048038934976
0.00652900278714
-0.00473802576081
0.00815047271182
-0.00464875860747
0.00973294067016
-0.00453869624708
0.0112696958131
-0.00440938982021
0.0127546087143
-0.00426251756661
0.0141821840555
-0.00409990833709
0.0155476178664
-0.00392348385691
0.0168468002453
-0.00373522271372
0.0180763369731
-0.003537105776
0.0192335166672
-0.00333109084146
0.0203163089508
-0.00311906567587
0.0213233062695
-0.00290283574353
0.0222537082048
-0.00268408659489
0.0231072469601
-0.00246438556972
0.0238841666247
-0.002245153384
0.0245851404817
-0.00202767884871
0.0252112527909
-0.00181309790192
0.0257639143489
-0.00160241893685
0.0262448522702
-0.00139650621591
0.0266560278179
-0.00119611236416
0.0269996369672
-0.00100186257548
0.0272780317285
-0.000814290830954
0.0274937317918
-0.000633821826931
0.0276493485942
-0.0004608085294
0.0277476069052
-0.000295510283435
0.0277912700388
-0.000138130951243
0.0277831700953
1.12069692877e-05
0.027726133379
0.000152423555895
0.0276230181794
0.000285510880742
0.0274766402837
0.000410489080001
0.0272898182606
0.000527441768816
0.0270652967388
0.000636474201355
0.0268057991489
0.000737746343457
0.0265139498986
0.000831428929037
0.0261923343593
0.000917740867493
0.0258434194499
0.000996903375107
0.0254696201384
0.00106917983132
0.0250732182159
0.00113482817006
0.0246564349591
0.00119414312367
0.0242213481357
0.0012474069428
0.0237699704336
0.00129493377809
0.0233041647245
0.00133701874396
0.022825727885
0.0013739842756
0.0223363045872
0.00140612770913
0.0218374760423
0.00143376939745
0.0213306724873
0.00145719900026
0.0208172663143
0.00147672527614
0.0202984835673
0.0014926214457
0.0197755007322
0.00150517649706
0.0192493553614
0.00151463997353
0.0187210456815
0.0015212747124
0.0181914405737
0.0015253015035
0.0176613809673
0.00152695302627
0.0171315892183
0.00152641872969
0.0166027712118
0.00152389973995
0.0160755253655
0.00151955433203
0.0155504442856
0.00151355337382
0.0150280235438
0.00150602662548
0.014508761827
0.00149711828059
0.0139930699272
0.00148693434112
0.0134813683715
0.00147559764227
0.0129739970745
0.00146319645367
0.012471309629
0.00144983842704
0.0119735843887
0.00143560063076
0.0114811146971
0.00142058177037
0.0109941221678
0.0014048538311
0.0105128423279
0.00138851204723
0.010037441098
0.00137162842026
0.00956809538921
0.00135429890148
0.00910491369079
0.00133659905476
0.00864801130062
0.00131862807844
0.00819743601968
0.00130046696191
0.00775323769629
0.00128221899113
0.00731539983583
0.0012639707331
0.00688390321865
0.00124582881036
0.00645866421077
0.00122788406954
0.00603959218075
0.00121024441013
0.00562653506713
0.00119300242909
0.00521933036326
0.00117626415717
0.00481775840526
0.00116012039771
0.00442158661105
0.00114467112664
0.0040305305965
0.00113000053517
0.00364429103479
0.0011161966698
0.00326252169974
0.00110332979144
0.00288485585219
0.0010914664342
0.00251087417696
0.00108065064453
0.00214010300964
0.00107091339251
0.00177194045508
0.00106226436949
0.00140553678343
0.00105472801317
0.00103949046547
0.00104842910147
0.000671403326686
0.00104368067359
0.000302581033698
0.00103771844146
0.000944829701299
0.00153844784959
-0.00588959798704
0.00324473933603
-0.0065265125398
0.00494466118319
-0.00650374168376
0.00662021550094
-0.00641350619805
0.00826284110829
-0.0062913105549
0.00986501091217
-0.0061407922144
0.0114197946293
-0.00596409991518
0.0129209053698
-0.00576355448539
0.0143627490043
-0.00554167842513
0.0157404646508
-0.00530112574029
0.0170499345976
-0.00504461925361
0.0182877884225
-0.00477488597467
0.0194513789381
-0.00449460818828
0.0205387596389
-0.00420637298221
0.0215486369373
-0.00391264020222
0.022480331243
-0.00361570783562
0.0233337154889
-0.00331769741231
0.0241091694539
-0.00302053470978
0.0248075135429
-0.00272595105375
0.0254299645498
-0.00243547678258
0.0259780718064
-0.00215045492559
0.0264536801963
-0.00187204307778
0.0268588728803
-0.00160123447147
0.027195944137
-0.00133886298955
0.0274673495976
-0.0010856265148
0.0276756884844
-0.000842090663453
0.0278236598618
-0.000608711039321
0.0279140522909
-0.000385833590085
0.0279497040172
-0.000173714893042
0.0279334982948
2.7480700514e-05
0.0278683262998
0.000217662052029
0.0277570863336
0.000396817501994
0.0276026495292
0.000564990807486
0.0274078636195
0.000722292669736
0.027175520166
0.00086888068197
0.0269083631082
0.0010049663726
0.0266090568648
0.00113079590054
0.0262801991855
0.00124665908293
0.0259242906168
0.001352869953
0.0255437510254
0.00144977706838
0.0251408900955
0.00153774390123
0.0247179272011
0.00161716028271
0.0242769627557
0.00168842250443
0.0238200011924
0.0017519457247
0.0233489231331
0.00180814371814
0.0228655113102
0.00185744209521
0.0223714235641
0.00190025769524
0.0218682215126
0.00193701257424
0.0213573444086
0.00196811318504
0.0208401403154
0.00199396516009
0.0203178407755
0.00201495248915
0.0197915941062
0.00203145320254
0.0192624407477
0.00204381885068
0.018731348173
0.00205239118812
0.0181991866615
0.00205748222185
0.0176667651662
0.00205939196486
0.0171348071966
0.00205838929208
0.0166039869396
0.00205473071053
0.0160749049086
0.00204864212788
0.0155481235871
0.00204033847401
0.015024142573
0.00203000639802
0.014503433112
0.00201782443807
0.0139864125816
0.00200394653556
0.013473477392
0.00198852237103
0.0129649768252
0.00197168154682
0.0124612439725
0.00195355365019
0.011962569121
0.00193425291988
0.011469228544
0.00191389761644
0.0109814577902
0.00189259504141
0.0104994783104
0.00187045983926
0.0100234711275
0.00184759929006
0.00955360136799
0.00182413026127
0.00908999284657
0.00180016479629
0.00863275064442
0.00177582552553
0.00818193715268
0.00175123164667
0.00773759282967
0.00172651270164
0.00729971418725
0.00170179511845
0.00686827284608
0.00167721432797
0.00644319587691
0.00165290206569
0.00602438320424
0.00162899684669
0.00561169058218
0.00160563222703
0.00520494532931
0.00158294566292
0.00480393207438
0.00156106789239
0.00440840663966
0.00154013017868
0.0040180843398
0.00152025490803
0.00363265135387
0.00150156121006
0.0032517544341
0.00148415695514
0.00287500737843
0.00146814323784
0.00250197758264
0.00145360922038
0.00213217979789
0.00144063993358
0.00176504972774
0.00142932472318
0.00139991911542
0.00141979029385
0.0010360246951
0.00141225497197
0.000672826072679
0.00140681339665
0.000313237290492
0.00139724266014
0.00125803476317
0.00156814969008
-0.0074576785548
0.00330602256806
-0.00826431198627
0.00503694249121
-0.0082345876706
0.00674228719058
-0.00811877698987
0.00841305734018
-0.00796200680971
0.0100413588063
-0.00776901974419
0.0116199771153
-0.00754264434304
0.013142417179
-0.00728592059058
0.0146029505314
-0.0070021379108
0.0159966467695
-0.0066947480488
0.0173193809471
-0.00636727964873
0.0185678265343
-0.00602325774986
0.0197394280846
-0.0056661361315
0.0208323656544
-0.00529923696152
0.0218455039637
-0.00492570519045
0.022778339641
-0.00454847025114
0.023630937973
-0.00417022280844
0.0244038736023
-0.00379339750429
0.0250981648608
-0.00342016986165
0.0257152170583
-0.00305245665948
0.0262567623351
-0.00269192831491
0.0267248119531
-0.00234002096719
0.0271216061609
-0.00199795744088
0.0274495778839
-0.00166676365686
0.0277113128817
-0.00134729100413
0.0279095233672
-0.00104023086253
0.0280470157744
-0.000746133787874
0.0281266711128
-0.000465419542041
0.0281514172774
-0.000198392393536
0.0281242137139
5.47525698802e-05
0.0280480267122
0.000293916503993
0.0279258164033
0.000519094789677
0.0277605167197
0.000730356454205
0.0275550251616
0.000927849564562
0.0273121840764
0.00111178589545
0.0270347754777
0.00128243829765
0.026725504131
0.00144012915482
0.0263869955585
0.00158522854561
0.0260217813871
0.0017181433513
0.0256323000588
0.00183931637797
0.0252208840451
0.00194921598423
0.0247897629298
0.00204833596715
0.0243410523088
0.00213718551461
0.0238767590697
0.00221628960401
0.0233987718946
0.00228617909769
0.0229088686669
0.00234739151997
0.022408708601
0.00240046126246
0.0218998417178
0.00244592071494
0.021383702564
0.00248429066718
0.0208616216381
0.00251608193699
0.0203348206152
0.00254178620788
0.0198044254686
0.00256187836725
0.0192714629262
0.00257680806598
0.018736874881
0.00258700303812
0.0182015157028
0.00259286168487
0.0176661673765
0.00259475755703
0.0171315371372
0.0025930331436
0.0165982727044
0.00258800559999
0.0160669597253
0.00257996179742
0.0155381364651
0.00256916517477
0.0150122905519
0.0025558519168
0.0144898725905
0.00254023867787
0.0139712918875
0.00252251963864
0.013456928599
0.00250287469857
0.0129471282555
0.00248146705363
0.0124422122645
0.00245845143012
0.0119424713035
0.0024339718272
0.0114481741772
0.00240816934869
0.0109595602838
0.00238117978155
0.0104768470072
0.00235314068676
0.0100002216381
0.00232418859652
0.00952984757287
0.00229446511305
0.00906585610046
0.00226411361176
0.00860835174297
0.00223328425326
0.00815740435982
0.00220213021039
0.00771305393735
0.00217081159218
0.00727530337356
0.00213949129534
0.00684412298704
0.0021083379478
0.00641944428809
0.00207752155209
0.00600116437231
0.00204721558358
0.00558914084014
0.00201759260779
0.00518319614103
0.00198882569718
0.00478311366965
0.00196108420722
0.00438864193553
0.00193453466242
0.00399949157189
0.00190933689266
0.00361533887885
0.00188564465129
0.00323582303468
0.00186360257365
0.00286054781454
0.00184334737603
0.00248907791684
0.00182500754583
0.00212093799121
0.0018087083929
0.00175561073615
0.00179458053733
0.0013925530351
0.0017827790137
0.00103125810934
0.00177348378801
0.000671534680105
0.00176646842003
0.000315712299754
0.00175299781393
0.00157371583958
0.00160569911743
-0.00906330850943
0.00338439622023
-0.0100429351918
0.00515520042976
-0.010005317904
0.00689872617652
-0.00986222863586
0.00860545746017
-0.00966866402009
0.0102670609039
-0.00943054907424
0.01187597173
-0.0091514810171
0.0134254375802
-0.00883531226182
0.0149095654109
-0.00848619153426
0.0163233461507
-0.00810845458639
0.0176626555685
-0.00770651487982
0.0189242360948
-0.00728476414439
0.0201056606448
-0.00684748662797
0.0212052842249
-0.00639878659635
0.0222221839174
-0.00594253107869
0.0231560932401
-0.00548230593262
0.0240073307341
-0.00502138686311
0.0247767289317
-0.00456272247087
0.0254655627703
-0.00410893071771
0.0260754835539
-0.00366230470936
0.0266084563481
-0.00322482866512
0.027066706271
-0.00279819872674
0.0274526698194
-0.00238384914841
0.0277689556544
-0.00198297796869
0.0280183092165
-0.00159657340802
0.0282035849693
-0.00122543581751
0.0283277197227
-0.000870198161361
0.0283937112985
-0.000531341163768
0.0284045960654
-0.000209207707744
0.0283634307501
9.59868207086e-05
0.0282732724141
0.000384143161023
0.0281371613823
0.000655273493771
0.0279581067088
0.000909478021944
0.0277390709918
0.00114695137026
0.0274829566058
0.00136796540749
0.0271925962955
0.00157286273697
0.0268707414413
0.00176204694919
0.0265200555996
0.00193597611581
0.0261431051878
0.00209515405556
0.0257423554466
0.00224012495779
0.0253201630939
0.0023714654661
0.0248787743643
0.00248978012225
0.0244203194057
0.00259569391429
0.0239468122716
0.00268984821544
0.0234601470416
0.00277289353876
0.022962099781
0.00284548577752
0.0224543264324
0.00290827907653
0.0219383667745
0.00296192237895
0.0214156441234
0.00300705253666
0.0208874712495
0.00304429134674
0.0203550517965
0.00307423918149
0.0198194879502
0.00309747284386
0.0192817833114
0.00311454011036
0.0187428519162
0.00312595877045
0.0182035220921
0.00313221244704
0.0176645462435
0.0031337511183
0.0171266050844
0.00313098846495
0.0165903175101
0.00312430398786
0.0160562445415
0.00311404191542
0.0155248986019
0.00310051481712
0.0149967465806
0.00308400388889
0.0144722179533
0.00306476374674
0.0139517065223
0.00304302371051
0.0134355770038
0.0030189933144
0.0129241652277
0.00299286410711
0.0124177830522
0.00296481534304
0.0119167170356
0.00293501578446
0.0114212317588
0.0029036290641
0.0109315671966
0.00287081504713
0.0104479407176
0.00283673445097
0.00997054353403
0.00280154944651
0.00949954175571
0.00276542727328
0.00903507237698
0.00272853992898
0.00857724380482
0.00269106667853
0.00812613184118
0.00265319283664
0.00768178006691
0.0026151112158
0.00724419621562
0.00257702013992
0.0068133527204
0.00253912397574
0.0063891837742
0.00250163059425
0.0059715862316
0.00246475118744
0.00556041752082
0.00242869742786
0.00515549696947
0.00239368079334
0.0047566045832
0.00235990968127
0.00436348271658
0.00232758848241
0.0039758355417
0.00229691494275
0.00359333082953
0.00226807933212
0.00321559984923
0.00224126257737
0.00284223917363
0.00221663633694
0.00247281129139
0.00219436300721
0.00210684829506
0.00217459881069
0.00174386010773
0.00215749807804
0.0013833527027
0.00214321698452
0.00102487760444
0.00213188884267
0.000668217134366
0.00212306174285
0.000315200004571
0.00210594896931
0.00188888285376
0.0016519179511
-0.0107151570702
0.00348112847935
-0.0118720720679
0.00530122861421
-0.0118253438048
0.00709184342802
-0.0116527692368
0.00884281078768
-0.0114195570923
0.0105452605128
-0.011132924442
0.012191203739
-0.0107973498355
0.0137735819988
-0.0104176160064
0.0152863126169
-0.0099988476153
0.0167243060816
-0.00954637343474
0.0180834564288
-0.00906559064193
0.019360610127
-0.00856184323878
0.0205535163003
-0.00804031829096
0.0216607638118
-0.00750595965308
0.0226817073916
-0.00696340036085
0.0236163877915
-0.00641691216079
0.0244654476949
-0.00587037280569
0.0252300481128
-0.00532724911201
0.0259117867532
-0.00479059583645
0.0265126227174
-0.00426306737645
0.0270348081948
-0.00374694113244
0.0274808302862
-0.00324414806146
0.027853361781
-0.00275630820433
0.028155222091
-0.00228476611716
0.028389345078
-0.00183062458441
0.0285587536944
-0.00139477293516
0.0286665373838
-0.000977910755107
0.0287158326043
-0.000580565653046
0.028709803195
-0.0002031080465
0.0286516223841
0.000154237428292
0.0285444545818
0.000491380165566
0.0283914373738
0.000808359314311
0.0281956680756
0.00110531518292
0.0279601880161
0.00138249853
0.027687970015
0.00164024957395
0.0273819082546
0.00187898969241
0.027044808321
0.00209921092794
0.0266793799731
0.0023014672921
0.0262882296861
0.00248636577522
0.0258738555873
0.00265455900304
0.0254386419351
0.00280673740933
0.024984855822
0.00294362275254
0.0245146433928
0.00306596093363
0.02403002825
0.00317451588659
0.0235329094573
0.00327006266655
0.0230250617576
0.00335338146581
0.0225081355113
0.00342525085713
0.0219836588688
0.00348644194285
0.0214530397453
0.00353771188633
0.0209175699973
0.0035797984588
0.0203784293973
0.00361341422578
0.0198366916641
0.00363924193883
0.0192933301501
0.00365792987019
0.0187492253186
0.00367008856887
0.0182051716148
0.00367628782803
0.0176618857496
0.00367705521875
0.0171200140226
0.00367287499603
0.0165801406403
0.00366418859615
0.016042794709
0.00365139552562
0.0155084578182
0.00363485570757
0.0149775699821
0.00361489209594
0.0144505358565
0.00359179449061
0.013927729115
0.00356582338847
0.0134094968939
0.00353721468165
0.0128961623392
0.00350618410993
0.0123880271525
0.00347293218073
0.0118853723383
0.00343764856963
0.0113884589864
0.00340051662507
0.0108975274822
0.00336171714335
0.0104127968797
0.00332143196204
0.00993446302124
0.00327984670828
0.00946269697928
0.00323715317379
0.0089976425995
0.00319355083814
0.00853941452836
0.00314924794207
0.00808809568718
0.00310446178993
0.00764373535257
0.00305941861998
0.0072063469707
0.00301435284359
0.00677590666056
0.00296950594705
0.00635235165886
0.00292512492245
0.00593557948141
0.00288146049628
0.00552544714021
0.00283876504373
0.00512177106427
0.00279729046194
0.00472432709694
0.00275728587041
0.00433285114894
0.00271899544473
0.00394703986393
0.00268265622892
0.00356655195441
0.00264849630776
0.00319100956726
0.00261673316845
0.00282000049524
0.00258757272512
0.00245308145044
0.00256120903557
0.00208978296358
0.00253782448164
0.00172961761325
0.00251759049573
0.00137209728423
0.00250066700402
0.00101676003893
0.00248715904533
0.000663294384699
0.00247645753315
0.000313253107049
0.00245592159675
0.00220210431035
0.00170761144579
-0.0124226991433
0.00359774637052
-0.0137621328775
0.0054772409128
-0.0137047640999
0.00732447641906
-0.013499930322
0.00912848743756
-0.0132234936265
0.010879751452
-0.0128841138668
0.0125697747493
-0.0124872983936
0.0141911446635
-0.0120389110838
0.0157375708233
-0.0115451987969
0.0172038914089
-0.0110126189882
0.0185860491393
-0.0104476732589
0.0198810428178
-0.00985676182035
0.0210868601322
-0.00924606051131
0.0222023963887
-0.00862142090989
0.0232273633853
-0.00798829244435
0.0241621920712
-0.00735166610022
0.0250079325476
-0.00671603869234
0.0257661549846
-0.00608539718104
0.0264388550409
-0.00546322172823
0.0270283672825
-0.00485250571323
0.0275372894744
-0.00425578965053
0.0279684197128
-0.0036752049091
0.0283247068653
-0.00311252221136
0.0286092133183
-0.00256919972899
0.0288250875994
-0.0020464262876
0.0289755437055
-0.00154515679676
0.0290638439155
-0.00106613901663
0.029093282587
-0.00060993276179
0.029067169489
-0.000176923747527
0.0289888121807
0.000232665463203
0.0288614988013
0.00061876379922
0.028688481845
0.000981445913278
0.0284729593047
0.00132090672823
0.0282180641257
0.001637461934
0.0279268503036
0.00193153078469
0.0276022829295
0.00220362346693
0.0272472295765
0.00245432960166
0.0268644532066
0.00268430775315
0.0264566058999
0.00289427581923
0.0260262237659
0.0030850023766
0.0255757223
0.00325729846338
0.0251073928708
0.00341200999256
0.0246233995349
0.00355001012584
0.0241257771355
0.00367219208093
0.0236164297485
0.00377946159224
0.0230971306321
0.003872729785
0.0225695225773
0.00395290557284
0.0220351199714
0.00402088861243
0.0214953112884
0.00407756182339
0.0209513634149
0.00412378475061
0.0204044263221
0.00416038668729
0.0198555395467
0.00418816103135
0.0193056387857
0.00420785968468
0.0187555640899
0.0042201890795
0.0182060677817
0.00422580650543
0.0176578236142
0.00422531835657
0.0171114351685
0.0042192788127
0.0165674450592
0.00420819054841
0.0160263428774
0.00419250583012
0.0154885735297
0.00417262954908
0.0149545438874
0.00414892241939
0.0144246295176
0.00412170584364
0.0138991794298
0.00409126658691
0.0133785207428
0.00405786274249
0.0128629612406
0.00402172908431
0.0123527918539
0.00398308329898
0.0118482870724
0.00394213118994
0.0113497054364
0.00389907239279
0.010857288148
0.00385410472201
0.0103712580172
0.00380742875743
0.0098918168144
0.00375925084202
0.00941914325214
0.00370978618
0.00895338971041
0.00365926026654
0.00849467985812
0.00360791040579
0.00804310535004
0.00355598561436
0.00759872361313
0.00350374669348
0.00716155500458
0.00345146484935
0.00673158115064
0.0033994206031
0.0063087428998
0.00334790148459
0.00589293944375
0.00329720013329
0.00548402723704
0.00324761146044
0.00508181998565
0.00319943030522
0.00468608855808
0.00315294844873
0.00429656182529
0.00310845217823
0.0039129275062
0.00306621951454
0.00353483386394
0.00302651802691
0.00316189159033
0.00298960263707
0.00279367679407
0.0029557140475
0.00242973451859
0.00292507718787
0.00206958422662
0.00289790054003
0.00171272806564
0.00287437465179
0.00135865863896
0.00285466555486
0.00100687593538
0.00283886997342
0.000656994892312
0.00282627026434
0.000310412669271
0.00280243685187
0.00251248341222
0.0017737197168
-0.0141963492856
0.00373614107883
-0.0157244804185
0.00568600836533
-0.0156545569363
0.00760017135087
-0.0154140187903
0.00946668058915
-0.0150899281839
0.0112752303634
-0.0146925887666
0.0130167363461
-0.0142287293458
0.0146833875645
-0.0137054870302
0.0162686778715
-0.0131304137108
0.0177673958068
-0.0125112613336
0.0191755795476
-0.0118557813633
0.0204904463379
-0.0111715528725
0.0217103023855
-0.0104658408652
0.0228344397481
-0.00974548258719
0.0238630235818
-0.00901680072423
0.0247969743188
-0.00828554138965
0.025637847625
-0.00755683674942
0.0263877167852
-0.00683519126795
0.0270490612827
-0.00612449139348
0.0276246666009
-0.0054280364113
0.0281175387759
-0.00474858746634
0.0285308368452
-0.00408842884252
0.0288678234285
-0.00344943492835
0.0291318321197
-0.00283313477765
0.0293262473493
-0.00224076815453
0.029454492075
-0.00167332839236
0.0295200177861
-0.00113159190693
0.0295262936982
-0.000616136118288
0.029476792794
-0.000127350659208
0.0293749754456
0.000334554650499
0.0292242679557
0.000769542644746
0.0290280534456
0.00117773129261
0.0287896470032
0.00155938339512
0.0285122846971
0.0019148937951
0.0281991115701
0.00224477262324
0.0278531723609
0.00254963048537
0.0274774037298
0.00283016495929
0.0270746281555
0.00308714887424
0.0266475484677
0.00332141969844
0.0261987433358
0.00353387021351
0.0257306631214
0.00372543973688
0.0252456264782
0.00389710588627
0.0247458174675
0.00404987644269
0.0242332834648
0.00418478126009
0.023709933882
0.00430286411505
0.023177539798
0.00440517436925
0.0226377347257
0.00449275863008
0.0220920163996
0.00456665219546
0.0215417499637
0.00462787074408
0.0209881722137
0.00467740199474
0.0204323973524
0.00471619803746
0.0198754236623
0.0047451679882
0.019318141571
0.00476517183285
0.0187613422884
0.00477701499593
0.0182057274844
0.00478144455636
0.0176519190204
0.00477914647624
0.0171004692147
0.00477074474057
0.0165518705723
0.00475680158381
0.0160065655085
0.00473781963448
0.0154649549891
0.00471424497344
0.0149274066976
0.00468647187425
0.0143942617121
0.00465484807887
0.0138658404025
0.0046196813436
0.0133424466203
0.00458124601063
0.0128243710033
0.00453979035563
0.0123118925631
0.0044955434161
0.0118052794873
0.00444872211701
0.0113047883928
0.00439953738363
0.010810663064
0.0043482001725
0.0103231319339
0.00429492612477
0.00984240543219
0.0042399399133
0.00936867241568
0.00418347801676
0.00890209688004
0.00412579113367
0.00844281407628
0.00406714500894
0.00799092727956
0.00400782098637
0.00754650422336
0.00394811510869
0.0071095744554
0.00388833711156
0.00668012655056
0.00382880820444
0.00625810638605
0.00376985893111
0.00584341540444
0.00371182611017
0.00543590995057
0.00365505001477
0.00503540068928
0.00359987094415
0.00464165300055
0.00354662614805
0.00425438754346
0.00349564644429
0.00387328163249
0.00344725325846
0.00349797096923
0.00340175563532
0.00312805208542
0.00335944767404
0.00276308536343
0.00332060609998
0.00240259934156
0.0032854883384
0.00204609530054
0.00325433004662
0.00169305258005
0.0032273426122
0.00134293735677
0.00320470882263
0.000995210777189
0.00318652824544
0.000649422849342
0.00317198683569
0.000306877666225
0.00314491214098
0.00281932903327
0.00185138725983
-0.0160476671262
0.00389865314135
-0.0177716721671
0.00593096711169
-0.0176867965217
0.00792331500048
-0.0174062920315
0.00986255435839
-0.0170290926804
0.0117374509607
-0.0165674102723