/*--------------------------------*- C++ -*----------------------------------*\
| =========                 |                                                 |
| \\      /  F ield         | OpenFOAM: The Open Source CFD Toolbox           |
|  \\    /   O peration     | Version:  v1906                                 |
|   \\  /    A nd           | Web:      www.OpenFOAM.com                      |
|    \\/     M anipulation  |                                                 |
\*---------------------------------------------------------------------------*/
FoamFile
{
    version     2.0;
    format      ascii;
    class       surfaceScalarField;
    location    "224";
    object      phi;
}
// * * * * * * * * * * * * * * * * * * * * * * * * * * * * * * * * * * * * * //

dimensions      [0 3 -1 0 0 0 0];
oriented        oriented;


internalField   nonuniform List<scalar> 
18240
(
-0.000353012045858
0.000353003711415
-0.000739554288026
0.000386535929012
-0.00112576752835
0.000386203884183
-0.00150703428531
0.000381261176941
-0.00188128543544
0.000374241372908
-0.00224678633557
0.000365496338735
-0.00260202465991
0.000355228099561
-0.00294564898572
0.000343620951552
-0.00327650078863
0.000330841127339
-0.00359357263351
0.000317069827599
-0.00389605156024
0.000302467763976
-0.00418326134243
0.000287209292118
-0.0044547114753
0.000271438442612
-0.00471002177554
0.000255311502358
-0.0049489806154
0.000238946517868
-0.00517145313365
0.000222475564304
-0.00537745336379
0.000205987164662
-0.00556703686574
0.000189588520216
-0.00574039070319
0.000173339830768
-0.00589771015481
0.000157326534719
-0.00603930968703
0.000141584377938
-0.00616548233933
0.000126181841581
-0.00627663396038
0.000111135005584
-0.00637312310159
9.65004140055e-05
-0.00645542036516
8.22788728466e-05
-0.00652392631094
6.85191983634e-05
-0.00657915729738
5.52103891234e-05
-0.00662153893177
4.23966743227e-05
-0.00665161974437
3.00576018081e-05
-0.00666983814563
1.82349327298e-05
-0.00667676524815
6.90076004471e-06
-0.00667284283705
-3.90478510337e-06
-0.00665865309722
-1.421966576e-05
-0.00663462950179
-2.40053844103e-05
-0.00660135992958
-3.33036230012e-05
-0.00655926611018
-4.20756271014e-05
-0.00650893433134
-5.03703765852e-05
-0.0064507669578
-5.81498966852e-05
-0.0063853415218
-6.54690582422e-05
-0.00631303528837
-7.2290227095e-05
-0.00623441081967
-7.86734179723e-05
-0.00614981593857
-8.45811454212e-05
-0.00605979290312
-9.00776325734e-05
-0.00596465696548
-9.51252705122e-05
-0.00586492581144
-9.97915014801e-05
-0.0057608805877
-0.000104038403717
-0.00565301129642
-0.000107935483615
-0.00554156475245
-0.000111444281761
-0.00542700137686
-0.00011463527128
-0.00530953492141
-0.000117469382432
-0.00518959544207
-0.00012001692171
-0.00506736589495
-0.000122238175703
-0.00494324616956
-0.000124202333033
-0.00481739168213
-0.00012586921065
-0.00469017305926
-0.000127306010259
-0.00456172178467
-0.000128472340142
-0.00443238056381
-0.000129432813113
-0.00430226078047
-0.000130147304655
-0.00417167864053
-0.00013067738131
-0.00404072884685
-0.000130983737672
-0.00390970233401
-0.000131124708562
-0.00377868003404
-0.000131062507291
-0.00364792836613
-0.000130852170936
-0.00351751643025
-0.000130458120916
-0.00338768629481
-0.000129932216628
-0.00325849628109
-0.000129241791561
-0.00313016361775
-0.000128435670022
-0.00300273584847
-0.00012748466553
-0.00287640433347
-0.000126434767354
-0.00275120509734
-0.000125260715799
-0.00262730222498
-0.000124005787335
-0.00250471883371
-0.000122648871221
-0.00238359022412
-0.000121230615258
-0.0022639250009
-0.00011973409485
-0.00214582832555
-0.000118197294991
-0.00202929267421
-0.000116607289358
-0.00191439215313
-0.000114999302231
-0.0018011018771
-0.000113364055228
-0.00168946463794
-0.000111733809001
-0.00157943752953
-0.00011010240891
-0.00147103266577
-0.000108498872771
-0.00136418939274
-0.00010691947528
-0.00125889101318
-0.000105389507884
-0.00115506088794
-0.000103906592836
-0.00105265763935
-0.000102491164129
-0.00095159406429
-0.000101139760639
-0.00085181470227
-9.98639320581e-05
-0.000753239996272
-9.86502583062e-05
-0.000655838558226
-9.74823014533e-05
-0.000559621386889
-9.62910059977e-05
-0.000464776489817
-9.4920900764e-05
-0.00037188392504
-9.29632355258e-05
-0.000282767862416
-8.91844084673e-05
-0.000202968721545
-7.98655726538e-05
-0.000117358077572
-8.5700601012e-05
-0.000117413159163
-0.000390191710157
0.000743187220971
-0.00082583141493
0.000822167518411
-0.00125901585205
0.000819379709055
-0.0016859142611
0.000808151969756
-0.00210460888532
0.000792927413077
-0.00251332314559
0.000774203507464
-0.00291040883515
0.000752305344691
-0.00329437647275
0.000727582108085
-0.00366393193993
0.000700388358857
-0.00401796403698
0.00067109615789
-0.00435556513471
0.000640060898075
-0.00467600061064
0.000607639813959
-0.00497872525928
0.000574155425013
-0.00526334046043
0.00053992264347
-0.00552961180495
0.000505210510019
-0.0057774175631
0.000470278215328
-0.00600677185258
0.000435334377666
-0.00621776677836
0.000400581316161
-0.00641060431946
0.000366170513213
-0.00658553317143
0.000332254216234
-0.00674289129642
0.000298935726528
-0.00688303730874
0.000266327567046
-0.00700640469235
0.000234495526279
-0.0071134267704
0.000203522949238
-0.00720460296718
0.000173447854477
-0.00728041599882
0.000144333213351
-0.00734141028082
0.000116196799668
-0.0073880999326
8.90875402349e-05
-0.00742105930062
6.30080343907e-05
-0.00744082044429
3.79971380136e-05
-0.00744797527638
1.4045155404e-05
-0.00744306260534
-8.81700632599e-06
-0.00742668533604
-3.06094030169e-05
-0.00739938374381
-5.13076789593e-05
-0.00736176068326
-7.09417169175e-05
-0.00731434542579
-8.94933362297e-05
-0.00725773290514
-0.000107001092725
-0.00719243531214
-0.000123452338527
-0.00711903262719
-0.000138893660295
-0.00703801349002
-0.000153317273295
-0.00694993643788
-0.000166776681468
-0.0068552611491
-0.000179268065029
-0.006754519297
-0.000190850474415
-0.00664813754615
-0.000201522992623
-0.00653661661158
-0.000211348646927
-0.00642034762035
-0.00022032826574
-0.00629979765717
-0.000228527189997
-0.00617532132752
-0.000235946844377
-0.00604735086573
-0.000242653237019
-0.0059162048522
-0.00024864734885
-0.00578228076761
-0.000253994346641
-0.00564586291008
-0.000258693934185
-0.00550731522624
-0.000262809168166
-0.00536689045518
-0.000266337932309
-0.00522492101925
-0.000269340234431
-0.00508163138378
-0.000271811940458
-0.00493732489616
-0.000273809455722
-0.00479220121691
-0.000275326803943
-0.00464653708933
-0.000276416636953
-0.00450051056096
-0.000277071660212
-0.00435437390984
-0.000277340993153
-0.00420828616617
-0.000277216836545
-0.0040624766308
-0.000276745292703
-0.00391708700973
-0.000275919045601
-0.00377232429672
-0.000274781876001
-0.00362831358286
-0.000273327987708
-0.00348523934853
-0.000271599578935
-0.00334320977867
-0.00026959330813
-0.00320238587147
-0.000267350443455
-0.00306285782075
-0.0002648708168
-0.00292476162037
-0.000262195221249
-0.00278816783047
-0.000259327066978
-0.0026531856758
-0.000256306864921
-0.00251986425303
-0.00025314166326
-0.00238828433397
-0.000249871595434
-0.00225847184941
-0.00024650705756
-0.00213047784022
-0.000243087440168
-0.00200430384256
-0.000239625895057
-0.00187997056146
-0.000236160464191
-0.00175745462671
-0.000232706191068
-0.00163674671058
-0.000229298938205
-0.00151779900907
-0.000225954490185
-0.00140057362515
-0.000222705352918
-0.00128500010641
-0.000219566342175
-0.00117101508974
-0.000216564500814
-0.0010585293178
-0.000213710238467
-0.000947459490656
-0.000211019707088
-0.000837703702291
-0.000208488988551
-0.000729164080429
-0.000206105052578
-0.000621720953013
-0.000203814276292
-0.000515213710866
-0.000201507223227
-0.000409299972188
-0.000198953063729
-0.000302833373617
-0.000195723462081
-0.000191695063491
-0.000191071970168
-8.53117370736e-05
-0.000192153893883
-0.000202761097738
-0.000397146088089
0.00114032493083
-0.000838420864731
0.00126343398752
-0.00127785433615
0.00125880446059
-0.00171093138719
0.00124122075964
-0.00213553009444
0.00121751766723
-0.00254978678171
0.00118845226023
-0.00295200646317
0.00115451689645
-0.00334067502943
0.00111624319159
-0.0037144819183
0.00107418751996
-0.00407231565786
0.0010289229644
-0.00441327213049
0.000981010114289
-0.00473663479046
0.000930996172788
-0.00504187535074
0.000879389265065
-0.00532862458404
0.000826666270764
-0.00559667102087
0.000773250792413
-0.00584592690845
0.000719529229492
-0.00607642921051
0.000665831103462
-0.0062883038199
0.000612451786899
-0.00648177157362
0.000559633224083
-0.00665711225229
0.000507591448261
-0.00681467692559
0.00045649581246
-0.00695485199968
0.000406499786016
-0.00707807811317
0.000357717347807
-0.00718481367666
0.000310256083747
-0.00727555998528
0.000264189960321
-0.00735082332088
0.000219594304026
-0.00741114565918
0.000176514717202
-0.00745706437148
0.000135003872846
-0.00748914798237
9.50866510063e-05
-0.00750795268384
5.67989212182e-05
-0.00751406272897
2.01491710924e-05
-0.0075080433462
-1.48403221469e-05
-0.00749048543695
-4.81748719174e-05
-0.00746195456352
-7.98440519549e-05
-0.00742303979308
-0.000109866165192
-0.00737429873913
-0.000138242056451
-0.00731631047651
-0.000165001740271
-0.00724961704266
-0.000190156249143
-0.00717478015919
-0.000213746282381
-0.00709231946119
-0.000235791904405
-0.00700277281894
-0.000256343010139
-0.00690663175704
-0.000275427151385
-0.00680440496058
-0.000293101502193
-0.0066965514368
-0.000309399207483
-0.0065835467843
-0.000324382560292
-0.00646581467092
-0.000338088243984
-0.00634379523078
-0.000350581355615
-0.00621787549277
-0.000361900015769
-0.00608845929787
-0.000372109900003
-0.00595589729554
-0.000381248639083
-0.00582055759457
-0.000389380453194
-0.00568275597354
-0.00039654084263
-0.00554282655153
-0.000402790953651
-0.00540105280479
-0.000408162987506
-0.00525773741593
-0.00041271387348
-0.00511313469167
-0.000416471873412
-0.00496751887111
-0.00041948917764
-0.00482111846239
-0.000421790086693
-0.00467418222902
-0.00042342210864
-0.00452691595379
-0.000424406117912
-0.00437954549321
-0.000424785580776
-0.00423225639561
-0.000424578980415
-0.00408525342092
-0.000423826783413
-0.0039387034271
-0.000422546417912
-0.00379279095818
-0.000420776659318
-0.00364766473298
-0.000418535342034
-0.00350348895651
-0.000415860862184
-0.00336039372257
-0.000412772797392
-0.00321852190651
-0.000409310310765
-0.00307798370524
-0.000405495766798
-0.0029388990258
-0.000401369868737
-0.00280135634333
-0.000396958356653
-0.00266545065941
-0.00039230380393
-0.00253124675926
-0.000387435415154
-0.00239881284573
-0.000382397460753
-0.00226818821592
-0.000377222189845
-0.0021394127775
-0.000371954954754
-0.00201249907082
-0.000366630194962
-0.00188745787254
-0.000361293335937
-0.00176427443459
-0.000355979783662
-0.00164293042949
-0.000350733709822
-0.00152338420267
-0.000345589926939
-0.00140558928561
-0.000340589641027
-0.00128947839103
-0.000335764994061
-0.00117497863893
-0.000331151758523
-0.00106199867882
-0.000326776105182
-0.000950439892505
-0.000322663898725
-0.000840183830723
-0.00031882888966
-0.000731093584689
-0.000315278176168
-0.000622986591228
-0.000312002221705
-0.000515590180697
-0.000308982710617
-0.000408412105892
-0.000306207806028
-0.000300442527761
-0.000303766546874
-0.000189555597396
-0.000302028068387
-7.9057959263e-05
-0.000302717312425
-0.000281850866592
-0.000403334347195
0.00154365057004
-0.00085070794793
0.00171079829717
-0.00129622415249
0.00170431172375
-0.00173514147111
0.00168012919079
-0.00216520128389
0.00164756874144
-0.00258445007708
0.00160769253344
-0.00299113466678
0.00156119309564
-0.0033837096745
0.00150881011386
-0.00376085109108
0.00145132099811
-0.00412145401817
0.00138951832892
-0.0044646320635
0.00132418076587
-0.00478970105171
0.00125605820271
-0.0050961693176
0.00118585074884
-0.00538371353113
0.00111420419374
-0.00565216596253
0.00104169710746
-0.0059014877659
0.000968845448749
-0.00613175777996
0.000896095680203
-0.00634314675181
0.000823835884492
-0.00653591029142
0.000752391990389
-0.00671036562667
0.00068204257786
-0.0068668896168
0.000613015613644
-0.00700589819963
0.000545504732862
-0.00712784925784
0.000479664674354
-0.0072332240921
0.000415627687421
-0.00732253434466
0.000353496724315
-0.00739630450115
0.000293361394227
-0.00745508195396
0.000235288648811
-0.0074994195715
0.00017933826874
-0.00752988809459
0.000125551244537
-0.0075470580468
7.39650908196e-05
-0.00755151396968
2.46003169287e-05
-0.00754383513048
-2.25239862434e-05
-0.00752461113825
-6.74050233238e-05
-0.00749442151155
-0.000110040103559
-0.00745385286917
-0.000150442927414
-0.00740347710083
-0.000188626462363
-0.00734386977085
-0.000224619799213
-0.00727558723894
-0.000258450286867
-0.00719918646286
-0.0002901610468
-0.00711520119789
-0.000319792207426
-0.00702416315469
-0.000347398966632
-0.00692657749184
-0.000373032031573
-0.00682294526879
-0.00039675616731
-0.00671373846827
-0.000418629994432
-0.00659942360794
-0.000438724945112
-0.00648043650882
-0.000457104608753
-0.0063572068814
-0.000473844024495
-0.00623013306142
-0.000489008778188
-0.00609960732249
-0.000502674531568
-0.00596599076667
-0.000514906089164
-0.00582963908193
-0.0005257770648
-0.00569087776929
-0.00053534913555
-0.00555002802303
-0.000543691721732
-0.0054073824353
-0.000550861639728
-0.00526323066169
-0.000556922671428
-0.00511783573451
-0.000561925807941
-0.0049714591678
-0.000565928561868
-0.00482433797517
-0.000568975964901
-0.00467670888328
-0.000571119470429
-0.00452878615175
-0.00057239883216
-0.00438078459875
-0.000572860422492
-0.00423289830675
-0.00057254007757
-0.00408532221441
-0.000571480654635
-0.00393823181286
-0.000569715892387
-0.003791803131
-0.000567287024736
-0.00364619352999
-0.00056422767578
-0.00350155997877
-0.000560579366614
-0.00335804107931
-0.000556377446073
-0.00321577360924
-0.000551665353999
-0.00307487590485
-0.000546481584079
-0.0029354627035
-0.000540872609257
-0.00279763001326
-0.000534880876168
-0.00266146834133
-0.000528556346757
-0.0025270491475
-0.000521945529141
-0.00239443656543
-0.000515101635044
-0.00226367551001
-0.000508074658273
-0.00213480201517
-0.000500920187792
-0.00200783301358
-0.000493690540227
-0.00188277540289
-0.000486442292295
-0.00175961747322
-0.000479228463112
-0.00163833679562
-0.000472104838221
-0.00151889321177
-0.000465123169592
-0.00140123557486
-0.000458336347422
-0.00128529610318
-0.000451792545498
-0.00117099582599
-0.000445539271798
-0.00105823968912
-0.000439618365848
-0.00094691972053
-0.0004340690248
-0.000836908638395
-0.000428923934562
-0.000728056940325
-0.000424212551362
-0.000620178422261
-0.000419961776181
-0.000513031877437
-0.000416208413133
-0.000406292058508
-0.000413024515368
-0.000299551178942
-0.000410580915859
-0.00019249471348
-0.000409154423331
-8.7540007892e-05
-0.000407738806265
-0.000369422798457
-0.000411311311411
0.00195495254228
-0.000867149147027
0.002166626758
-0.00132090456156
0.0021580574565
-0.00176764380586
0.00212685903513
-0.00220497329969
0.00208488889889
-0.00263083440775
0.00203354454024
-0.00304340062662
0.00197375037819
-0.00344108522234
0.00190648604268
-0.00382254970943
0.00183277703437
-0.004186700335
0.00175366082581
-0.00453268037158
0.00167015292491
-0.0048598522674
0.00158322259613
-0.00516777996517
0.00149377122325
-0.00545620406189
0.001402621486
-0.00572502131763
0.00131050785033
-0.00597425908374
0.00121807715466
-0.00620405710277
0.00112588792991
-0.00641464497041
0.00103441844981
-0.00660632876091
0.000944070742837
-0.0067794729232
0.000855182163358
-0.00693449225594
0.00076803058352
-0.00707183802901
0.000682846566889
-0.00719199461387
0.000599817445535
-0.0072954687925
0.000519098408443
-0.00738278985935
0.000440814337066
-0.00745450084992
0.000365069176361
-0.00751116088918
0.000291945313717
-0.00755333721488
0.00022151131761
-0.0075816088216
0.000153819201674
-0.00759655850061
8.89110183628e-05
-0.00759877716737
2.681460438e-05
-0.00758885536175
-3.24505115837e-05
-0.00756738813541
-8.88778827093e-05
-0.00753496606855
-0.000142468432971
-0.00749218039981
-0.000193236094603
-0.00743961370869
-0.000241201600725
-0.00737784532386
-0.000286398202876
-0.00730744178463
-0.000328865146262
-0.00722896270298
-0.000368653369614
-0.00714295118242
-0.000405818624023
-0.00704994020512
-0.000440427092158
-0.00695044317984
-0.000472548209978
-0.00684496086703
-0.000502260196402
-0.00673397219623
-0.000529642696732
-0.00661794173725
-0.000554782259084
-0.00649731088006
-0.000577764905886
-0.0063725057906
-0.000598681589037
-0.00624392901211
-0.000617620814962
-0.00611196784728
-0.000634674129415
-0.00597698639426
-0.000649928893393
-0.00583933423035
-0.000663473830841
-0.00569933886972
-0.000675392067059
-0.00555731463147
-0.000685766779681
-0.00541355546745
-0.000694674575715
-0.00526834383519
-0.000702191258447
-0.00512194383199
-0.000708385622561
-0.00497460991226
-0.000713325338534
-0.00482658024107
-0.000717071197232
-0.00467808505852
-0.000719683068631
-0.00452934018166
-0.00072121461316
-0.00438055486647
-0.000721719249972
-0.00423192539513
-0.000721245293963
-0.00408364229386
-0.000719841826129
-0.00393588398716
-0.00071755420406
-0.00378882331004
-0.000714429715235
-0.00364262124307
-0.000710513373603
-0.00349743269106
-0.000705853226168
-0.00335340036926
-0.000700496357489
-0.00321065989864
-0.000694493749545
-0.0030693339341
-0.000687896422722
-0.00292953665098
-0.000680759766332
-0.00279136823603
-0.000673139784887
-0.00265491887976
-0.000665096870006
-0.00252026374055
-0.000656692143201
-0.00238746654564
-0.000647990668742
-0.00225657512931
-0.000639057924838
-0.00212762474313
-0.000629962496079
-0.00200063422984
-0.000620772715082
-0.00187560910254
-0.000611558882864
-0.00175253838218
-0.000602390136175
-0.00163139746818
-0.000593336252676
-0.00151214560798
-0.000584464788935
-0.00139472849677
-0.000575842518655
-0.00127907624885
-0.000567532892173
-0.00116510551749
-0.000559597186621
-0.00105271754082
-0.00055209241751
-0.00094179912143
-0.000545072498303
-0.000832219630215
-0.000538587264931
-0.000723829635135
-0.000532685111476
-0.000616456408427
-0.000527415981847
-0.000509903022821
-0.000522840809709
-0.000403957459686
-0.000519046870482
-0.000298445183849
-0.000516167078972
-0.000193405914507
-0.000514263624439
-9.02133628849e-05
-0.000510998204987
-0.000459668317761
-0.000421454165974
0.00237639680104
-0.000888287784113
0.00263344967647
-0.0013526906485
0.00262245011072
-0.00180948900057
0.00258364715537
-0.00225612556011
0.0025315154687
-0.00269041416972
0.00246782331268
-0.003110439384
0.00239376598622
-0.00351456563767
0.00231060291903
-0.00390144183112
0.00221964412589
-0.00426999426719
0.00212220444191
-0.00461941163513
0.00201956180085
-0.00494912214997
0.00191292494281
-0.00525876785549
0.00180340913448
-0.00554817564251
0.00169202183681
-0.00581732980037
0.00157965498418
-0.00606634442154
0.00146708512949
-0.00629543996193
0.00135497725772
-0.00650492101524
0.00124389367242
-0.00669515924731
0.00113430358196
-0.00686657753968
0.0010265954229
-0.00701963924021
0.000921087663685
-0.00715483786333
0.000818040881115
-0.00727269135888
0.0007176669899
-0.00737373578681
0.000620139110401
-0.00745852291287
0.000525597998265
-0.00752761618773
0.000434159088228
-0.00758159013077
0.000345916017567
-0.00762102724856
0.000260945129284
-0.00764651808599
0.000179306666769
-0.00765865820237
0.000101047483117
-0.00765804827946
2.62007254652e-05
-0.00764529053042
-4.52127522777e-05
-0.00762098907189
-0.00011318443174
-0.00758574581641
-0.000177717608499
-0.00754016046685
-0.000238828299826
-0.00748482639339
-0.000296543689236
-0.00742033062882
-0.000350903297347
-0.00734724962463
-0.000401956986383
-0.00726614955932
-0.000449765979425
-0.00717758215241
-0.000494400435312
-0.00708208543408
-0.000535940318843
-0.00698017975945
-0.000574472586055
-0.00687236914088
-0.000610091983838
-0.0067591375666
-0.000642897934576
-0.00664095092729
-0.000672995349347
-0.00651825369953
-0.000700491325355
-0.0063914714601
-0.000725496057218
-0.00626100796276
-0.000748119467419
-0.00612724818022
-0.000768472280858
-0.00599055576728
-0.000786662712466
-0.00585127654167
-0.000802797765564
-0.00570973629783
-0.000816980096644
-0.00556624459607
-0.000829309579415
-0.00542109285326
-0.000839880456325
-0.00527455828815
-0.000848783199171
-0.00512690219252
-0.000856102030411
-0.00497837385463
-0.000861917082211
-0.00482920889319
-0.000866302333267
-0.00467963298155
-0.000869328036745
-0.0045298601314
-0.00087105906882
-0.00438009605513
-0.000871557550068
-0.00423053630381
-0.000870881552067
-0.0040813691482
-0.000869087797198
-0.00393277351961
-0.00086623063232
-0.00378492134421
-0.000862364659438
-0.0036379752948
-0.000857543853272
-0.00349209057727
-0.000851823982426
-0.00334741255123
-0.000845261750742
-0.00320407803348
-0.000837916876972
-0.00306221289144
-0.00082985116909
-0.00292193297048
-0.000821130171649
-0.00278334178936
-0.000811822120607
-0.00264653122193
-0.00080199912439
-0.00251157942197
-0.00079173599057
-0.0023785513866
-0.000781110955689
-0.00224749721567
-0.000770204416929
-0.00211845266796
-0.000759099266344
-0.00199143782147
-0.000747879584139
-0.00186645769105
-0.000736630662345
-0.00174350130835
-0.000725437721599
-0.00162254242598
-0.000714385715525
-0.00150353898086
-0.000703558138352
-0.00138643383757
-0.00069303671146
-0.00127115452578
-0.000682900357946
-0.00115761389478
-0.000673224920918
-0.00104570987582
-0.00066408248606
-0.000935325803012
-0.000655541473336
-0.000826329937399
-0.0006476668723
-0.000718575694515
-0.00064052172014
-0.000611902698057
-0.000634169787033
-0.000506142226282
-0.000628680259555
-0.000401132600609
-0.00062413328818
-0.000296757369388
-0.000620615753592
-0.000193042476965
-0.000618048560804
-9.07875587258e-05
-0.000613320241706
-0.000550487842192
-0.000434027331114
0.00281041329262
-0.000914555257499
0.0031139667037
-0.00139219325649
0.00310007682442
-0.00186145160712
0.00305289453649
-0.00231956592924
0.00298961889437
-0.0027641926354
0.00291243936362
-0.00319331067243
0.00282287356654
-0.00360523057951
0.00272251263942
-0.00399859497268
0.00261299859487
-0.00437236502091
0.00249596489052
-0.00472579679763
0.00237298429019
-0.00505840984656
0.0022455290851
-0.00536995248199
0.0021149432186
-0.00566036542062
0.00198242665461
-0.0059297474292
0.00184902925948
-0.00617832308266
0.00171565351995
-0.00640641526556
0.00158306258466
-0.00661442110831
0.00145189315255
-0.00680279328922
0.00132266980572
-0.00697202443598
0.00119582110754
-0.00712263632608
0.00107169447066
-0.00725517106814
0.000950571007354
-0.00737018607679
0.000832677701122
-0.00746824972263
0.00071819886511
-0.00754993978061
0.000607284385085
-0.00761584137307
0.000500057313326
-0.0076665469533
0.000396618304645
-0.00770265488824
0.00029704992743
-0.0077247696811
0.000201418203401
-0.00773350023289
0.000109774730777
-0.0077294597048
2.21565267053e-05
-0.00771326277087
-6.14136635943e-05
-0.00768552558623
-0.000140926253662
-0.00764686235252
-0.000216386108279
-0.00759788439551
-0.000287812522373
-0.00753919688966
-0.000355238464046
-0.00747139768272
-0.000418711141981
-0.00739507403934
-0.000478290687158
-0.00731080156254
-0.000534050268213
-0.00721914122522
-0.000586074433586
-0.00712063855636
-0.000634458777521
-0.00701582115342
-0.000679308045577
-0.00690519822875
-0.00072073543938
-0.00678925871586
-0.000758860619732
-0.00666847123133
-0.000793808772217
-0.0065432828172
-0.000825708632157
-0.0064141193277
-0.000854691433567
-0.00628138479795
-0.000880889068071
-0.00614546224737
-0.000904433046542
-0.00600671361425
-0.000925452886528
-0.00586548092805
-0.00094407520952
-0.00572208671022
-0.000960422444754
-0.00557683544417
-0.000974612183418
-0.00543001430397
-0.000986756267128
-0.00528189480284
-0.000996960496138
-0.0051327336842
-0.0010053241543
-0.00498277460863
-0.00101194013521
-0.00483224902474
-0.0010168949118
-0.0046813777288
-0.00102026908789
-0.00453037154193
-0.00102213777348
-0.00437943259533
-0.0010225715111
-0.00422875466644
-0.00102163695599
-0.00407852407374
-0.00101939805881
-0.00392891959098
-0.00101591690332
-0.00378011290363
-0.00101125499622
-0.00363226807758
-0.00100547408312
-0.00348554160087
-0.000998637376132
-0.00334008146329
-0.00099081018094
-0.003196026881
-0.000982060912025
-0.00305350709958
-0.000972461401606
-0.00291264093418
-0.000962087602957
-0.00277353544692
-0.000951019504812
-0.00263628546213
-0.000939341490172
-0.00250097226796
-0.000927141849905
-0.00236766325019
-0.000914512813328
-0.00223641074828
-0.000901549720553
-0.00210725191557
-0.000888350789817
-0.00198020782251
-0.000875016038488
-0.00185528359918
-0.000861646877444
-0.00173246783026
-0.000848344894406
-0.00161173297662
-0.000835211368054
-0.0014930350624
-0.000822346033999
-0.00137631431387
-0.000809846614493
-0.00126149509573
-0.000797807703352
-0.00114848668436
-0.00078632044337
-0.00103718337413
-0.000775471731289
-0.000927465369195
-0.000765344290691
-0.00081919920972
-0.00075601657512
-0.000712239443483
-0.000747563717486
-0.000606431326719
-0.000740058553287
-0.000501616900165
-0.000733573385152
-0.000397646583637
-0.000728180137404
-0.000294399604938
-0.000723936436943
-0.00019183449004
-0.000720683392853
-9.0494124825e-05
-0.00071472733003
-0.000641014052186
-0.000449309045018
0.00325971072421
-0.000946488673426
0.00361113370246
-0.00144018505378
0.00359376116166
-0.00192450586908
0.00353720325919
-0.00239642482182
0.00346152603178
-0.00285340620617
0.00336940908894
-0.00329330597091
0.00326276192891
-0.00371437962207
0.00314357513222
-0.00411527603636
0.00301388415886
-0.0044950144049
0.00287569271314
-0.00485294859515
0.00273090830568
-0.00518872385472
0.00258129452549
-0.00550223027437
0.00242844025087
-0.00579355676426
0.00227374415714
-0.00606294816049
0.00211841215494
-0.00631076736635
0.00196346465824
-0.00653746324866
0.00180975092845
-0.00674354475311
0.00165796757025
-0.00692956069377
0.00150867921454
-0.00709608497474
0.00136233930373
-0.00724370610255
0.00121931006941
-0.00737302062429
0.00107988041508
-0.0074846291586
0.0009442816484
-0.00757913482712
0.000812700293638
-0.00765714274215
0.000685288519434
-0.00771926065657
0.000562171684804
-0.00776609950797
0.000443453959242
-0.00779827430966
0.000329221612964
-0.00781640425812
0.000219545211295
-0.00782111281484
0.000114480214609
-0.00781302697154
1.40675502402e-05
-0.00779277571697
-8.16684512196e-05
-0.00776098896888
-0.000172716903782
-0.00771829539677
-0.00025908430866
-0.00766532008457
-0.000340793210282
-0.00760268226136
-0.000417882766946
-0.00753099279171
-0.000490408277258
-0.0074508517882
-0.000558440871084
-0.00736284633881
-0.000622066553284
-0.00726754828191
-0.000681385261711
-0.00716551241779
-0.000736509538404
-0.0070572746308
-0.000787563064146
-0.00694335072917
-0.000834679132593
-0.00682423501611
-0.000877998813828
-0.00670039980849
-0.00091766939448
-0.00657229450427
-0.000953842326437
-0.00644034577928
-0.000986671769965
-0.00630495715944
-0.0010163124804
-0.00616650984538
-0.00104291856666
-0.00602536276374
-0.00106664147135
-0.00588185393454
-0.00108762904484
-0.00573630093839
-0.00110602377193
-0.00558900269754
-0.00112196225062
-0.00544024025073
-0.00113557380711
-0.00529027878308
-0.00114698045332
-0.00513936855942
-0.00115629600053
-0.00498774700129
-0.00116362653524
-0.00483563959944
-0.00116907008701
-0.0046832618248
-0.00117271760961
-0.00453081983542
-0.00117465318434
-0.0043785120185
-0.00117495542266
-0.00422652934162
-0.00117369809883
-0.00407505637918
-0.00117095181495
-0.00392427120945
-0.00116678490157
-0.00377434585313
-0.00116126513249
-0.00362544571158
-0.00115446068074
-0.00347772943891
-0.00114644166105
-0.00333134800166
-0.00113728093894
-0.00318644408695
-0.00112705530417
-0.00304315093053
-0.00111584597905
-0.00290159142756
-0.00110373929196
-0.00276187691102
-0.00109082679936
-0.00262410615471
-0.00107720541702
-0.0024883642785
-0.00106297715772
-0.00235472181873
-0.00104824875158
-0.00222323390495
-0.00103313106846
-0.00209393953329
-0.00101773833009
-0.00196686109981
-0.00100218731999
-0.00184200395868
-0.00098659632608
-0.0017193563372
-0.000971084257942
-0.00159888920467
-0.000955769463185
-0.00148055654726
-0.000940768868732
-0.00136429552574
-0.000926196821041
-0.00125002706129
-0.000912164363714
-0.00113765627395
-0.000898778260872
-0.00102707334635
-0.000886140549032
-0.000918154343465
-0.000874347930637
-0.000810762577708
-0.000863491752988
-0.000704750363472
-0.000853657913194
-0.00059996211016
-0.000844927206358
-0.000496239083897
-0.000837375010963
-0.000393426469697
-0.000831069190968
-0.000291382178403
-0.000826053765461
-0.000190010167195
-0.000822125074555
-8.97370097645e-05
-0.000815067314025
-0.000730782855045
-0.000467638821863
0.00372733669883
-0.000984770549931
0.00412825247419
-0.00149765615018
0.00410663332236
-0.00199989566607
0.00403942969851
-0.00248813715554
0.00394975451303
-0.0029596128499
0.00384087203954
-0.00341203972647
0.00371517627662
-0.00384362299039
0.00357514616059
-0.00425303988665
0.00342328910879
-0.00463940208698
0.00326204332321
-0.00500220367341
0.00309369865211
-0.00534126117748
0.00292034121337
-0.00565665202865
0.00274382069234
-0.00594865563897
0.00256573784657
-0.00621770076397
0.00238744781449
-0.0064643204385
0.00221007541416
-0.00668911571027
0.00203453777559
-0.00689272737747
0.00186157140429
-0.00707581565968
0.00169176017901
-0.00723904604168
0.00152556298482
-0.00738308090095
0.00136333874162
-0.00750857493173
0.00120536887489
-0.00761617415306
0.00105187578087
-0.00770651657721
0.000903038212986
-0.00778023466127
0.000759002509967
-0.00783795774739
0.000619891190103
-0.00788031504409
0.000485807966282
-0.00790793748681
0.000356841159749
-0.00792145955642
0.000233064497191
-0.00792151941303
0.000114537494241
-0.00790875953971
1.30496340945e-06
-0.0078838246619
-0.000106606098717
-0.00784736054184
-0.000209184250156
-0.00780001213929
-0.000306436349258
-0.00774242113092
-0.000398388703297
-0.0076752227838
-0.000485086451027
-0.00759904376785
-0.000566593918428