/*--------------------------------*- C++ -*----------------------------------*\
| =========                 |                                                 |
| \\      /  F ield         | OpenFOAM: The Open Source CFD Toolbox           |
|  \\    /   O peration     | Version:  v1906                                 |
|   \\  /    A nd           | Web:      www.OpenFOAM.com                      |
|    \\/     M anipulation  |                                                 |
\*---------------------------------------------------------------------------*/
FoamFile
{
    version     2.0;
    format      ascii;
    class       volScalarField;
    location    "969";
    object      pa;
}
// * * * * * * * * * * * * * * * * * * * * * * * * * * * * * * * * * * * * * //

dimensions      [0 2 -2 0 0 0 0];


internalField   nonuniform List<scalar> 
9216
(
915.032788368
914.727364871
914.095527048
913.131783841
911.841549946
910.230882259
908.307333453
906.079808193
903.558449402
900.754484316
897.68011453
894.348353098
890.772915758
886.968055851
882.948465351
878.729116389
874.325179146
869.751876209
865.0244214
860.157890248
855.167180965
850.066901693
844.871352553
839.594428535
834.249620205
828.849930154
823.40788943
817.935485356
812.444190902
806.944901894
801.447976599
795.963182651
790.499745186
785.066296513
779.670932513
774.321170896
769.024011522
763.785898572
758.612784943
753.510098379
748.482808458
743.535395896
738.671920979
733.895995418
729.210851207
724.619314442
720.123873662
715.726655102
711.429489689
707.233889208
703.141111174
699.152135481
695.267726514
691.488409892
687.81453128
684.246233004
680.783509212
677.42618223
674.173953875
671.026381616
667.982926039
665.042926972
662.205647249
659.470249112
656.835834535
654.301422264
651.865985036
649.528427656
647.287621467
645.142383837
643.09151019
641.133755234
639.267862818
637.492549129
635.806530541
634.208508921
632.697197575
631.271308686
629.929577341
628.670751079
627.493611921
626.396967895
625.379672931
624.440620201
623.578759664
622.793092983
622.082688406
621.446676814
620.88426317
620.394722158
619.977402725
619.631715296
619.357107823
619.152963707
619.017529849
618.957859983
915.337237949
915.030086312
914.396598594
913.428497595
912.132056335
910.51361892
908.58090372
906.34296206
903.810074754
900.99361672
897.905931502
894.560182842
890.970225715
887.150457884
883.115698836
878.881050887
874.461793627
869.873260733
865.130754179
860.249439701
855.244282017
850.129959194
844.920817804
839.630804576
834.273439072
828.861760127
823.408313186
817.925109006
812.423623035
806.914764261
801.40888473
795.915755523
790.444584686
785.004002526
779.602084571
774.246341093
768.943746289
763.700732801
758.523224618
753.416635199
748.38590318
743.435493269
738.569433792
733.791319596
729.104350562
724.51133581
720.014732367
715.616650038
711.318889484
707.122947148
703.030052072
699.041170349
695.157040094
691.378174973
687.704896876
684.137338206
680.675471943
677.319112538
674.067943229
670.921515535
667.879273875
664.940553807
662.104604132
659.370584162
656.737583617
654.204619273
651.770653011
649.434588244
647.19528649
645.051563952
643.002206951
641.045968979
639.181585263
637.407770522
635.723232837
634.126672253
632.616794043
631.192308182
629.851942006
628.594440507
627.418578308
626.323160663
625.30703459
624.369090424
623.508271915
622.723578112
622.014072213
621.378883555
620.817215031
620.328345208
619.911635218
619.566535018
619.292602638
619.089571244
618.95770829
618.898137502
915.970581219
915.658700818
915.019449857
914.042643556
912.734653183
911.101960753
909.152477881
906.895477541
904.341476964
901.502102208
898.389950879
895.018445597
891.401692754
887.554337909
883.491432679
879.228302021
874.78042719
870.163331037
865.392481289
860.483196504
855.450570721
850.309399838
845.074126224
839.758783379
834.376957751
828.94174871
823.465744504
817.96099473
812.438997784
806.910683546
801.386410325
795.875955558
790.388520993
784.932730772
779.516642286
774.147749955
768.833001386
763.578805739
758.391053773
753.275129681
748.235934027
743.277898148
738.405009064
733.620825654
728.928504734
724.330818239
719.830179728
715.42866189
711.128022757
706.929722886
702.834950639
698.844638452
694.959486628
691.179978188
687.50640074
683.938859566
680.477297269
677.121504905
673.871139293
670.725732185
667.684705299
664.74737768
661.912978671
659.180653751
656.549475786
654.018449716
651.586522471
649.252586919
647.015490853
644.874040584
642.827009359
640.873140921
639.011157647
637.239764314
635.557656127
633.963522833
632.456056729
631.033957147
629.695938432
628.44073474
627.267107903
626.173852415
625.159803023
624.223839748
623.364895013
622.581958516
621.874083743
621.240392583
620.680081285
620.192425244
619.776785687
619.432617537
619.159483381
618.957087765
618.825563654
618.762789263
916.944248511
916.626921829
915.978665838
914.98825966
913.662269687
912.007410001
910.031886472
907.745310258
905.158566711
902.2836709
899.133618869
895.722234469
892.064018178
888.173998157
884.06758913
879.760457938
875.268400608
870.607228476
865.792667533
860.840267382
855.765323427
850.582807794
845.307312301
839.952998444
834.533557713
829.062177043
823.551512975
818.013669394
812.460182754
806.90200977
801.349521731
795.812500445
790.300140594
784.821051783
779.383267037
773.994251367
768.66091487
763.389625666
758.186226866
753.056052874
748.003949203
743.034291221
738.151005948
733.357592439
728.657144784
724.052373383
719.545628416
715.138921305
710.833947956
706.632109737
702.534535842
698.542103161
694.655457189
690.875030275
687.201060608
683.633608465
680.172572983
676.817706195
673.568627484
670.424835394
667.385719846
664.4505719
661.618593976
658.88890789
656.260563448
653.732545162
651.303779661
648.973141518
646.739459913
644.601524
642.558089198
640.60788244
638.749608397
636.981954853
635.303599047
633.71321331
632.209471602
630.791055433
629.456660581
628.205003218
627.034826712
625.944907826
624.934063435
624.001156625
623.145103141
622.364877215
621.659517594
621.028133023
620.469907919
619.984107803
619.570085322
619.227286684
618.95525915
618.753663737
618.622546127
618.559223776
918.262275696
917.937943758
917.277378705
916.268347529
914.917715837
913.23253542
911.221422043
908.894454137
906.263025978
903.339688916
900.137988588
896.672300035
892.957665128
889.009635007
884.844120749
880.477253753
875.925257906
871.204333855
866.330556454
861.319784661
856.187584114
850.949160905
845.619306224
840.212350033
834.74212334
829.22192728
823.664508838
818.08204173
812.486112629
806.887711522
801.297226619
795.724442788
790.178544509
784.668119387
779.201167458
773.785111829
768.426811938
763.132578462
757.908190327
752.758912846
747.689517481
742.704302306
737.807113686
733.001368286
728.290075917
723.67586237
719.160992703
714.747394187
710.436679349
706.230168335
702.128911016
698.133708129
694.245131843
690.463545105
686.789120177
683.221855787
679.761593314
676.408031521
673.160740285
670.019172912
666.982677515
664.05050711
661.221828929
658.495732664
655.871238136
653.347302146
650.92282499
648.596656406
646.367601415
644.234425829
642.195861834
640.25061343
638.397362073
636.634772307
634.961497657
633.376186582
631.877488698
630.464061055
629.134574653
627.887720967
626.722218625
625.636820022
624.63031799
623.701552301
622.849416127
622.072862245
621.370909112
620.742646667
620.187241963
619.703944621
619.292092154
618.951114634
618.680538736
618.479992836
618.349481189
618.286244224
919.931312917
919.59811805
918.921786991
917.888861236
916.50661675
914.78256024
912.725848796
910.347172869
907.658590765
904.67335101
901.405711849
897.870760457
894.084236237
890.062361492
885.821682378
881.378922041
876.750847539
871.954151194
867.005346808
861.920680256
856.716053905
851.406963496
846.00844631
840.535038894
835.00074309
829.418998867
823.802663128
818.163993505
812.514636839
806.865621764
801.227355384
795.609623601
790.021595806
784.471829354
778.968280957
773.518318748
768.128736815
762.805771547
757.555119731
752.381957958
747.290963324
742.286335029
737.371816895
732.550720425
727.825948424
723.200018822
718.6750887
714.252978168
709.93519408
705.722953253
701.617205165
697.618653817
693.727778751
689.944854948
686.269971627
682.703049737
679.243858182
675.892028668
672.647069258
669.508376578
666.475246829
663.546885602
660.722416681
658.000889899
655.381288221
652.862534162
650.443495714
648.122991884
645.899798012
643.772650935
641.74025416
639.801283065
637.954390265
636.19821113
634.531369532
632.952483809
631.460172961
630.053063051
628.729793792
627.489025268
626.329444768
625.249773649
624.248774197
623.325256415
622.478084685
621.706184249
621.00854747
620.384239825
619.832405611
619.352273291
618.943160415
618.604477607
618.335731135
618.136526782
618.006848778
617.94398082
921.959803263
921.615686876
920.919892618
919.857455968
918.436180413
916.664157526
914.55123434
912.108876882
909.349980993
906.288670812
902.94009596
899.320230729
895.445679886
891.333494798
887.001002641
882.465650798
877.744867747
872.855941169
867.815913247
862.641492631
857.348981847
851.954218596
846.472528953
840.918690518
835.306903524
829.650768397
823.963268459
818.256757126
812.542949064
806.832915214
801.137081624
795.465231827
789.826513285
784.229443612
778.681924181
773.19125388
767.764145267
762.406742567
757.124641153
751.922908378
746.806105467
741.778310383
736.843141412
732.003781402
727.263002378
722.62319049
718.086370998
713.654233214
709.328155124
705.109227588
700.998277834
696.995892156
693.102437564
689.318082302
685.642815041
682.076462722
678.618706904
675.269098672
672.027072024
668.891955869
665.862984635
662.939307641
660.119997333
657.404056544
654.790424928
652.277984735
649.865566077
647.551951877
645.335882586
643.216060869
641.191156315
639.259810301
637.420641062
635.672249026
634.013222445
632.442143325
630.957593657
629.55816192
628.24244982
627.009079224
625.856699223
624.783993274
623.789686341
622.872551986
622.031419326
621.2651798
620.572793689
619.953296321
619.405803909
618.92951897
618.52373515
618.187840879
617.921322202
617.723767341
617.595146275
617.532820516
924.358139547
924.000842026
923.281581542
922.183569741
920.715270505
918.885508748
916.704992513
914.186150605
911.342913344
908.190480932
904.745093035
901.023803375
897.044264479
892.824526345
888.382851927
883.737551343
878.906836124
873.90869392
868.760783554
863.480349359
858.084153259
852.588422236
847.008808643
841.360360513
835.657499451
829.914003965
824.142996992
818.356936791
812.567611133
806.786134718
801.022950818
795.28783498
789.589903936
783.937624411
778.338828608
772.800730183
767.32994243
761.932498059
756.613870413
751.378995807
746.232296907
741.177706917
736.21869451
731.358289289
726.599107694
721.943379132
717.39297221
712.949420833
708.61395002
704.387501171
700.270756647
696.264163376
692.367955371
688.582174917
684.906692335
681.341224164
677.885349733
674.538526048
671.300101052
668.169325263
665.145361938
662.22729583
659.414140744
656.704846025
654.098302199
651.593345919
649.188764454
646.883299848
644.675652967
642.564487545
640.548434372
638.626095722
636.7960501
635.05685735
633.40706416
631.84520997
630.369833256
628.979478174
627.672701497
626.448079811
625.304216879
624.239751114
623.253363081
622.343782944
621.509797789
620.750258736
620.064087777
619.450284272
618.907931022
618.436199832
618.034356475
617.701764721
617.43788922
617.242300843
617.114955727
617.053307103
927.138844238
926.765872283
926.018760854
924.87854759
923.354512428
921.456388649
919.195945579
916.586792346
913.644120106
910.384432933
906.825283552
902.985018438
898.882537612
894.537073065
889.96798843
885.194601828
880.236032863
875.111074219
869.838087282
864.43492057
858.918848568
853.306528029
847.613967957
841.85650964
836.048813197
830.204848155
824.3378864
818.460497131
812.584543915
806.721184518
800.880875034
795.073375576
789.307761315
783.59243446
777.935142109
772.342994795
766.822486917
761.379518688
756.019419198
750.746970527
745.566432677
740.481569311
735.495674089
730.61159759
725.831774587
721.158251616
716.592714571
712.136516229
707.790703391
703.556043507
699.433050465
695.422009376
691.523000063
687.735919129
684.060500337
680.496333269
677.042880095
673.699490481
670.465414612
667.339814441
664.32177322
661.410303548
658.604354029
655.902814844
653.304522367
650.80826314
648.412777352
646.116762099
643.918874565
641.817735333
639.811931935
637.900022779
636.080541508
634.352001863
632.712903058
631.161735677
629.69698804
628.317153038
627.020735329
625.806258857
624.672274592
623.617368413
622.640169041
621.739355929
620.913667019
620.161906276
619.482950926
618.875758305
618.339372252
617.872928993
617.475662395
617.146908118
616.886107307
616.692812546
616.566962923
616.506113466
930.316779412
929.925354234
929.145535248
927.955796644
926.366422899
924.388265981
922.034395225
919.319856174
916.261363993
912.876987876
909.185845986
905.207815667
900.963264467
896.472805469
891.75707938
886.836564808
881.731417756
876.461340445
871.045478956
865.502347839
859.849778841
854.104889439
848.284066277
842.402958104
836.476473623
830.518780739
824.54330562
818.562731409
812.588997762
806.633302466
800.706107801
794.817148615
788.975444919
783.189318273
777.46641231
771.81371418
766.237577718
760.743747696
755.337385039
750.023092744
744.80494258
739.686502386
734.670864031
729.76067184
724.958151475
720.265139036
715.683110298
711.213209789
706.856279568
702.612887369
698.483353899
694.467778965
690.566066204
686.777946127
683.102997327
679.540665624
676.09028112
672.751073071
669.522182643
666.402673604
663.391541144
660.487718949
657.690084829
654.997465084
652.408637935
649.922336246
647.537249838
645.25202761
643.065279725
640.975580019
638.981468819
637.081456275
635.274026295
633.557641129
631.930746624
630.39177812
628.939166969
627.571347598
626.286765042
625.08388287
623.961191387
622.917216016
621.950525755
621.059741596
620.243544804
619.500684963
618.829987686
618.230361905
617.700806692
617.240417474
616.848391651
616.524033369
616.266757225
616.076094496
615.951964741
615.892034528
933.90940173
933.496392461
932.678424415
931.430974817
929.765563851
927.69442007
925.23220125
922.395694515
919.20344772
915.675396949
911.832512831
907.696470499
903.28934809
898.633356617
893.750602768
888.662885795
883.391529172
877.957247402
872.380047291
866.679161803
860.873012627
854.979195967
849.014484382
842.994837296
836.935413353
830.850580142
824.753919395
818.658228683
812.575521992
806.517032156
800.493218579
794.513778317
788.587659542
782.723084068
776.927570734
771.207960452
765.570442384
760.020580884
754.563342863
749.203125718
743.943785737
738.788667131
733.740631591
728.802088442
723.97502517
719.261038331
714.661364526
710.176911371
705.808288076
701.555835449
697.419654923
693.399636342
689.495484117
685.706741523
682.032812804
678.472982988
675.026435198
671.692265508
668.469495302
665.357081323
662.353923525
659.458871022
656.670726364
653.988248493
651.410154667
648.935121711
646.561786879
644.288748654
642.114567707
640.037768282
638.056840135
636.170241204
634.37640106
632.673725204
631.060600207
629.535399661
628.096490888
626.742242321
625.471031466
624.281253326
623.17132917
622.139715524
621.184913254
620.305476619
619.500022175
618.767237416
618.105889052
617.514830834
616.993010828
616.539478136
616.153388927
615.834011382
615.580730183
615.393052954
615.270875604
615.211986182
937.937077286
937.498914062
936.636630699
935.322218967
933.568725056
931.390074704
928.802867526
925.82599931
922.480215276
918.787668399
914.771509042
910.455509564
905.863727402
901.020207629
895.948725381
890.672568486
885.214361141
879.595929267
873.838207544
867.96118614
861.983892739
855.924402264
849.79986449
843.626538413
837.419823665
831.194282394
824.96365005
818.740837651
812.537930872
806.366191173
800.236063806
794.157192161
788.138432378
782.1878837
776.312915457
770.520196339
764.815724172
759.204855596
753.692335766
748.282328124
742.97844459
737.783776222
732.700924535
727.732033345
722.878821201
718.142614152
713.524378802
709.024755304
704.64409013
700.382468179
696.239743923
692.215571111
688.309430718
684.520656659
680.848459076
677.291944848
673.850135276
670.521980821
667.306373019
664.202153641
661.208121412
658.323036496
655.545623165
652.874570983
650.308534934
647.84613485
645.485954571
643.226541127
641.066404286
639.004016702
637.037814875
635.166201051
633.387546158
631.700193804
630.102465334
628.592665888
627.169091386
625.830036321
624.573802261
623.398706888
622.303093466
621.285340553
620.343871846
619.477165978
618.683766162
617.962289531
617.311436082
616.7299971
616.21686302
615.771030597
615.391609393
615.077827427
614.829035517
614.644713758
614.524731899
614.467009274
942.423472028
941.956035842
941.042366133
939.650419597
937.795137677
935.492548705
932.761631868
929.623836949
926.102539187
922.222514998
918.009467146
913.489600391
908.689247664
903.634544851
898.351152234
892.86402222
887.19721433
881.373759457
875.415574575
869.343427006
863.176943109
856.934651699
850.634047803
844.291660389
837.923108882
831.543139084
825.165637065
818.803627432
812.469265806
806.173835542
799.927754641
793.74059219
787.621087864
781.577190991
775.616092427
769.744259218
763.967468275
758.290839008
752.718865061
747.255445863
741.903918329
736.667089196
731.547267971
726.546300679
721.665604187
716.906201129
712.268755141
707.753606285
703.36080624
699.090152975
694.94122434
690.913410166
687.005942277
683.217922038
679.548344951
675.996122094
672.56009815
669.239066046
666.031778208
662.936954683
659.953288362
657.079447724
654.314077469
651.65579758
649.103201221
646.65485202
644.309281128
642.064984518
639.920420848
637.874010191
635.924133856
634.069135447
632.307323239
630.636973891
629.056337469
627.563643692
626.157109289
624.834946345
623.595371457
622.436615551
621.356934181
620.354618127
619.428004124
618.575485559
617.795522964
617.086654184
616.447504072
615.876793626
615.373348451
614.936106549
614.564125311
614.256587312
614.012805481
613.832229652
613.714699108
613.658274089
947.396039591
946.894516172
945.921252902
944.439548834
942.466721228
940.021420651
937.125554403
933.80366972
930.082286132
925.989274521
921.553312215
916.803408931
911.768497618
906.477082877
900.956941872
895.234876047
889.336515888
883.286182971
877.106813811
870.819946656
864.445766694
858.003196771
851.510013144
844.982960638
838.437843365
831.889575949
825.352195168
818.83884491
812.361753237
805.932220774
799.560621512
793.256423406
787.028220585
780.883778681
774.830075999
768.873344442
763.019107577
757.2722158
751.636879795
746.116703243
740.714715865
735.433407124
730.274760932
725.240291213
720.331078368
715.547806414
710.890800745
706.360066187
701.955325111
697.67605503
693.521525224
689.490831643
685.582929536
681.796663126
678.130791904
674.58401308
671.154980089
667.842316983
664.644628912
661.56050886
658.588541073
655.727301568
652.975356334
650.331257737
647.793539764
645.360712656
643.031257512
640.803621311
638.676212813
636.647399648
634.715506853
632.878816996
631.135571979
629.483976501
627.922203113
626.448398767
625.060692689
623.757205412
622.536058775
621.395386679
620.333346394
619.348130211
618.437977237
617.601185124
616.836121578
616.14123546
615.515067361
614.956259519
614.463565013
614.03585611
613.672131782
613.371524281
613.133304086
612.956886413
612.842077555
612.787087759
952.886635345
952.345322186
951.30281367
949.717051366
947.608364222
944.998702356
941.913595035
938.381353052
934.432250221
930.097793758
925.410108416
920.401417901
915.103606751
909.547847203
903.764280876
897.781752713
891.627601403
885.327515595
878.905466018
872.383720035
865.782935852
859.122320642
852.419822269
845.692314441
838.95573528
832.225154516
825.514771102
818.837867913
812.206758082
805.63275593
799.126171486
792.696338644
786.351666271
780.099694666
773.947149121
767.899988626
761.963448113
756.142075519
750.439765708
744.859793656
739.40484816
734.077066859
728.878072527
723.809010666
718.870588101
714.063112607
709.386533328
704.840481913
700.424313905
696.13714993
691.977915883
687.945381366
684.038195438
680.254919004
676.59405307
673.054062529
669.633395095
666.330495439
663.143814581
660.071814941
657.112971452
654.265769373
651.528699424
648.900250997
646.378904131
643.96312099
641.651337484
639.441955629
637.333337137
635.323798623
633.411608691
631.594987072
629.872105835
628.241092669
626.70003609
625.246992431
623.87999441
622.597061044
621.396208688
620.27546294
619.232871167
618.26651541
617.374525433
616.555091674
615.806477918
615.127033481
614.515204778
613.969546125
613.488729694
613.071554585
612.716954918
612.424006561
612.191932957
612.02011169
611.908311435
611.854901104
958.932298957
958.344339659
957.221075398
955.514306687
953.248236366
950.449010067
947.146664959
943.374092509
939.166039549
934.558264108
929.586857925
924.287698432
918.695996221
912.845909681
906.770210164
900.499993994
894.064450249
887.490701757
880.803740307
874.026472283
867.179878055
860.283266565
853.354581227
846.410691819
839.467603693
832.540539254
825.643898265
818.7911503
811.994724571
805.265948894
798.615043264
792.051161096
785.582472125
779.216238487
772.958884347
766.816053449
760.792654855
754.892899715
749.120333797
743.477869548
737.96781996
732.591934584
727.351437639
722.247067628
717.279118313
712.447480826
707.751687087
703.190954263
698.764230087
694.470238248
690.307523043
686.274492086
682.369456044
678.590664277
674.936335626
671.404683681
667.993936304
664.702349276
661.528214361
658.469862146
655.525660316
652.694008059
649.973327479
647.362052851
644.858618658
642.46144723
640.168936828
637.979450825
635.891308619
633.902778677
632.012074028
630.217350335
628.516706581
626.908188253
625.389792873
623.959477626
622.615168838
621.354773016
620.176189166
619.077322092
618.05609639
617.110470842
616.238452938
615.438113262
614.7075995
614.045149873
613.449105819
612.917923784
612.450186045
612.044610446
611.700059075
611.41554584
611.190242006
611.023482685
610.914996268
610.863318271
965.576264901
964.933280321
963.715315276
961.86717231
959.418122771
956.39971332
952.847627621
948.800337176
944.297896583
939.380994549
934.09024234
928.465628337
922.546077608
916.369070495
909.970294605
903.383326857
896.639361998
889.767019343
882.792266379
875.738494216
868.626761118
861.476186624
854.304432877
847.128166573
839.963378405
832.825473367
825.729146618
818.688154686
811.715104262
804.821342106
798.016954299
791.310844205
784.710867538
778.223939896
771.856126953
765.612711165
759.498238124
753.516549081
747.670808218
741.963531643
736.39662057
730.971398602
725.688651851
720.548671001
715.551294616
710.695953911
705.981719147
701.407347913
696.971334893
692.671962473
688.507350829
684.475506115
680.574365092
676.801834947
673.155827099
669.634284358
666.235200993
662.956635767
659.796718188
656.753648597
653.825692824
651.011172414
648.308451385
645.715920698
643.231981454
640.855027939
638.583431437
636.415525689
634.349594659
632.383863146
630.516490508
628.74556768
627.069117388
625.485097434
623.991406753
622.585893954
621.266367978
620.030610552
618.87639008
617.801476626
616.803657664
615.880754235
615.030637209
614.251243325
613.540590763
612.896793976
612.318077642
611.802789538
611.349412267
610.956573828
610.623056908
610.347806589
610.129936826
609.968736946
609.863890015
609.814105535
972.869291049
972.160848262
970.830988705
968.816611614
966.153758897
962.881025339
959.041210433
954.679575379
949.842427145
944.576105663
938.926297841
932.937552504
926.652896444
920.113481524
913.358227181
906.423456718
899.342556759
892.145713205
884.859791751
877.508429876
870.112384562
862.690128186
855.258606208
847.833981101
840.432137049
833.068765241
825.759060653
818.517260975
811.356261287
804.287430401
797.320638652
790.464430281
783.726238234
777.112542269
770.628982629
764.280432921
758.071041249
752.004250322
746.082813341
740.308816892
734.683713517
729.208360971
723.883065469
718.707626559
713.681382906
708.803259358
704.071816396
699.485302376
695.041708655
690.738826491
686.574304135
682.545701875
678.65054303
674.886358906
671.250726454
667.741297591
664.35581992
661.092148782
657.948251199
654.92220238
652.012175893
649.216428613
646.533281813
643.961099694
641.498266755
639.143165235
636.894153853
634.749548831
632.707608041
630.766518835
628.924389909
627.179247264
625.529034143
623.97161465
622.504780664
621.126261606
619.833736644
618.624848891
617.497221215
616.448473256
615.476239254
614.578186302
613.752032639
612.995565634
612.30665913
611.683289895
611.123552961
610.625675707
610.188030594
609.80914646
609.487718425
609.222616479
609.012891562
608.857781904
608.756922403
608.709203099
980.871439425
980.084274626
978.620889034
976.409401624
973.495120013
969.925972619
965.753766301
961.031984571
955.81420598
950.153128272
944.100018919
937.704386796
931.013722618
924.073209731
916.925358785
909.609570389
902.161674001
894.613528869
886.992799183
879.323024803
871.624085967
863.913088814
856.205565863
848.516707185
840.862200952
833.258285023
825.7210685
818.265630517
810.905334789
803.651550135
796.51377638
789.500012668
782.617109331
775.870996012
769.266812951
762.808981642
756.501229359
750.346582253
744.34735898
738.505184661
732.8210245
727.295227801
721.927576203
716.717332402
711.663287891
706.763811711
702.016902285
697.420243903
692.971267993
688.667218099
684.505215888
680.482325246
676.595611315
672.842192115
669.219280822
665.724217782
662.354491728
659.107750514
655.981801914
652.974605626
650.084257704
647.308969013
644.647039247
642.096828248
639.656726206
637.325124385
635.10038774
632.980830719
630.964697192
629.050145195
627.235236815
625.517933239
623.896094675
622.367484702
620.929778441
619.580574009
618.31740666
617.137765154
616.039109877
615.018892276
614.074575167
613.203653458
612.403674828
611.672259961
611.00712194
610.406084514
609.867099003
609.388259667
608.967817471
608.604192261
608.295983287
608.041977817
607.841158153
607.692707878
607.596208296
607.550735921
989.654518851
988.771366816
987.146606667
984.69888835
981.486574914
977.570136759
973.012791579
967.877868565
962.22722127
956.12049329
949.614894424
942.765177382
935.623600063
928.239745711
920.660146594
912.927725791
905.081132546
897.15410001
889.175001325
881.166811217
873.147673638
865.132190415
857.133338339
849.164571789
841.241322946
833.380961985
825.601324877
817.91897928
810.348024525
802.899731764
795.582919051
788.404711566
781.371147743
774.487469691
767.758243608
761.187410772
754.778278646
748.533459167
742.454822392
736.543499987
730.799927311
725.223897834
719.814620367
714.570772696
709.490550091
704.571713609
699.811643184
695.207397955
690.755785046
686.453434857
682.296879076
678.282626607
674.407233238
670.667361577
667.05982916
663.581643437
660.230023448
657.002408494
653.896454868
650.910021969
648.041149591
645.288028199
642.648964292
640.1223428
637.70658863
635.400129177
633.201359657
631.108612674
629.120133293
627.234060337
625.448414299
623.761091713
622.169865526
620.672390708
619.266214293
617.948789021
616.717489955
615.569633454
614.502498058
613.513346793
612.599450407
611.758111002
610.98668553
610.282608631
609.643414392
609.066756659
608.550427652
608.092374742
607.690715314
607.343749663
607.049972072
606.808080239
606.61698169
606.475799709
606.384059061
606.341027785
999.305515465
998.30332223
996.480373026
993.745702339
990.176727948
985.850989186
980.846059908
975.236794191
969.094118316
962.484910267
955.472396575
948.11664668
940.474885023
932.601475028
924.547517853
916.360099556
908.081295673
899.747114383
891.386635573
883.021680962
874.667395476
866.33405793
858.030152308
849.766072011
841.557017274
833.422753923
825.384411969
817.461179445
809.668262748
802.016516187
794.513429742
787.164685847
779.975201153
772.949390915
766.091191516
759.404069714
752.89096273
746.554107764
740.394924125
734.414012774
728.611227233
722.985749513
717.536162321
712.260509315
707.156340227
702.220754588
697.450453241
692.841801851
688.390908672
684.093713994
679.946084432
675.943905019
672.083162666
668.36001677
664.77085424
661.312327919
657.981378229
654.775238936
651.69142834
648.727727909
645.882150449
643.152900299
640.538327916
638.036881443
635.6470576
633.36735433
631.196227274
629.132051997
627.17309338
625.317483168
623.56320597
621.908093453
620.349825846
618.885939641
617.513840241
616.230818521
615.034070445
613.920719174
612.887839178
611.932481915
611.051702522
610.24258689
609.502278468
608.828004149
608.217098741
607.667027571
607.175406997
606.74002264
606.358845315
606.030044766
605.752001213
605.523314597
605.342811785
605.209552171
605.122998341
605.08261429
1009.93152867
1008.77869474
1006.70740576
1003.61821592
999.617614577
994.806522328
989.280169474
983.126320216
976.425211572
969.250655671
961.671474109
953.752787813
945.556830008
937.143150036
928.568155706
919.884057114
911.137359441
902.367135296
893.603421533
884.866243385
876.165941663
867.505545026
858.885649327
850.311108545
841.797107162
833.368512434
825.052749145
816.873571173
808.847698445
800.984722931
793.289479292
785.765221838
778.415400217
771.243532718
764.252918734
757.446613699
750.827328332
744.397029626
738.156693543
732.106331384
726.245142532
720.571627259
715.083682575
709.778670528
704.653449784
699.704405786
694.927496436
690.318316617
685.872187682
681.584266946
677.449665255
673.463561181
669.621302778
665.918491394
662.351044956
658.915239827
655.607731802
652.425557469
649.366118101
646.427148531
643.606673936
640.9029574
638.314441341
635.83968572
633.477306043
631.225913936
629.084062987
627.05020213
625.122638478
623.299510746
621.578773659
619.958192729
618.435348021
617.007645092
615.672331327
614.426516211
613.267194589
612.191272376
611.195594389
610.276973934
609.432223573