/*--------------------------------*- C++ -*----------------------------------*\
| =========                 |                                                 |
| \\      /  F ield         | OpenFOAM: The Open Source CFD Toolbox           |
|  \\    /   O peration     | Version:  v1906                                 |
|   \\  /    A nd           | Web:      www.OpenFOAM.com                      |
|    \\/     M anipulation  |                                                 |
\*---------------------------------------------------------------------------*/
FoamFile
{
    version     2.0;
    format      ascii;
    class       volVectorField;
    location    "262";
    object      Ua;
}
// * * * * * * * * * * * * * * * * * * * * * * * * * * * * * * * * * * * * * //

dimensions      [0 1 -1 0 0 0 0];


internalField   nonuniform List<vector> 
9216
(
(-0.00740320037919 0.00741545162174 0)
(-0.0070164221266 0.0216008236324 2.4716813816e-27)
(-0.00707150177386 0.0365262305215 -4.87908515999e-31)
(-0.00705146318708 0.0512543441765 0)
(-0.00699674784207 0.065889481563 0)
(-0.00691913111578 0.0803612256017 0)
(-0.00682499640035 0.094625622447 0)
(-0.00671396061892 0.10864565859 0)
(-0.00658984626279 0.12238567974 0)
(-0.00645059835904 0.135814479108 0)
(-0.00630032154023 0.148901061975 0)
(-0.00613621200286 0.161618690134 0)
(-0.00596299011682 0.173940668597 0)
(-0.00577715273667 0.185844553588 0)
(-0.00558403269181 0.197307770865 0)
(-0.0053793526841 0.208311870593 0)
(-0.00516901485929 0.21883797982 0)
(-0.00494790464095 0.228871020666 0)
(-0.00472243465129 0.238395099811 0)
(-0.00448660570151 0.247397662254 0)
(-0.00424730791404 0.255864905213 0)
(-0.00399766856267 0.263785790494 0)
(-0.00374502772265 0.27114764019 0)
(-0.00348168573081 0.277939976904 0)
(-0.00321543945678 0.284150409518 0)
(-0.00293787347572 0.289768205778 0)
(-0.00265724659375 0.294780635708 0)
(-0.0023645670965 0.299176228559 0)
(-0.00206858644753 0.302941671465 0)
(-0.00175993479798 0.306064621551 0)
(-0.00144786766539 0.308531404859 0)
(-0.00112281711276 0.310329170098 0)
(-0.000794590183704 0.31144444488 0)
(-0.000453720587866 0.311864847063 0)
(-0.000110564359656 0.311578379169 0)
(0.000244018557649 0.310574579652 0)
(0.000599103672466 0.308844710654 0)
(0.000963251649332 0.30638221285 0)
(0.00132500204213 0.303183819086 0)
(0.00169213746699 0.299249304659 0)
(0.0020527220215 0.294583414656 0)
(0.0024136106234 0.289194880127 0)
(0.00276251534461 0.283099055905 0)
(0.00310530775455 0.276316262107 0)
(0.00342951176073 0.268874910255 0)
(0.00374005561697 0.260809200117 0)
(0.00402453523037 0.25216251885 0)
(0.00428714145461 0.242984524689 0)
(0.00451593606444 0.233334481281 0)
(0.00471479615514 0.223277629311 0)
(0.00487286976031 0.212888137942 0)
(0.0049944015791 0.202244612137 0)
(0.00507042601569 0.191432379886 0)
(0.00510633167781 0.180538024153 0)
(0.00509580583643 0.169651052664 0)
(0.00504594656459 0.158857710163 0)
(0.00495345036814 0.148242387354 0)
(0.00482714159748 0.137881336635 0)
(0.00466641500702 0.127844414175 0)
(0.00448115713051 0.118189576077 0)
(0.00427242780438 0.108965503015 0)
(0.00404998002954 0.100207597951 0)
(0.0038152166356 0.0919416882685 0)
(0.00357666011498 0.0841815271566 0)
(0.00333513068605 0.0769330727192 0)
(0.00309742101001 0.0701928660797 0)
(0.00286347471189 0.063952214944 0)
(0.00263840200719 0.0581958846747 0)
(0.0024213752644 0.0529057608483 0)
(0.00221612143461 0.0480595893094 0)
(0.00202127563865 0.0436340146866 0)
(0.00183950501576 0.0396033468802 0)
(0.00166910330823 0.0359420436143 0)
(0.00151193090317 0.032623542974 0)
(0.00136608254318 0.0296222997453 0)
(0.0012328136777 0.0269126956954 0)
(0.00111012638467 0.0244707044904 0)
(0.000998808664692 0.0222728853222 0)
(0.000896757398305 0.0202978103191 0)
(0.000804097518123 0.0185253894018 0)
(0.000717707632185 0.01693874672 0)
(0.000633979910408 0.0155283551921 0)
(0.000536064130518 0.014278619633 0)
(0.000427503805369 0.0130607824647 0)
(0.000430471676785 0.0124250666443 0)
(0.000451726498702 0.0114652487513 0)
(0.000406450866865 0.0105202242936 0)
(0.000352042178965 0.00977207805532 0)
(0.000379497957822 0.00913794700783 0)
(0.000445902814465 0.00830770234448 0)
(0.000466414849531 0.00743341673068 0)
(0.000492936795012 0.0064481945312 0)
(0.000584585572093 0.0053280497888 0)
(0.000676623768518 0.0040622439987 0)
(0.000762128386506 0.00249841930776 0)
(0.000811197313423 0.000790990441861 0)
(-0.0216022299374 0.00706426198002 0)
(-0.0227143148778 0.0228404847018 0)
(-0.0227376947265 0.0386922972743 -2.54063297238e-27)
(-0.0225885606895 0.0544465584025 0)
(-0.0223604726039 0.0700293345218 0)
(-0.0220642567547 0.0854209913395 0)
(-0.0217098495469 0.100585634275 0)
(-0.0212983246559 0.115486928211 0)
(-0.0208372293959 0.130088808339 0)
(-0.0203257244963 0.144357888483 0)
(-0.019771983104 0.158262070691 0)
(-0.0191741926826 0.171772371337 0)
(-0.0185414398507 0.184861219631 0)
(-0.0178708439223 0.197504208337 0)
(-0.0171722409344 0.209678230931 0)
(-0.0164414148921 0.221363174836 0)
(-0.0156887280876 0.232539935057 0)
(-0.0149083922055 0.243192042816 0)
(-0.0141110975515 0.253303605835 0)
(-0.0132893305775 0.262860866947 0)
(-0.0124539982172 0.27185013891 0)
(-0.0115958490193 0.280259298413 0)
(-0.010725984216 0.288075798278 0)
(-0.00983353466441 0.295288098156 0)
(-0.00892987808572 0.301883834584 0)
(-0.00800279022828 0.307851185037 0)
(-0.00706407039991 0.313177276047 0)
(-0.00610050006702 0.317849465313 0)
(-0.00512450770812 0.321854051057 0)
(-0.0041223445737 0.325177452905 0)
(-0.00310730949432 0.327805254146 0)
(-0.00206561691381 0.329723400251 0)
(-0.001011686788 0.33091753955 0)
(6.76575955662e-05 0.331373999885 0)
(0.00115661502602 0.331079742571 0)
(0.00226718866919 0.330023112693 0)
(0.00338196184469 0.328194269618 0)
(0.00451120944635 0.325585732023 0)
(0.00563577466178 0.322193258221 0)
(0.00676378437471 0.318016149703 0)
(0.00787434793403 0.313058509317 0)
(0.00897319387058 0.30732926268 0)
(0.0100378798452 0.300843704901 0)
(0.0110717133627 0.293623216954 0)
(0.0120510602276 0.285696976055 0)
(0.0129770559458 0.277101341704 0)
(0.0138255201496 0.267881574835 0)
(0.0145961033672 0.258090823778 0)
(0.0152652041085 0.247791612018 0)
(0.0158323429488 0.237054241134 0)
(0.016276364883 0.22595773391 0)
(0.0165988189365 0.214587380899 0)
(0.0167835100546 0.203034831468 0)
(0.0168365483284 0.191394619093 0)
(0.0167491077956 0.17976340175 0)
(0.0165337273812 0.168235714426 0)
(0.0161900735343 0.156902799518 0)
(0.0157372267406 0.145848266341 0)
(0.0151823430485 0.135147250639 0)
(0.014548882731 0.124862883371 0)
(0.0138481984625 0.115046600635 0)
(0.0131041358966 0.105736243248 0)
(0.0123279925288 0.0969578754196 0)
(0.011540348434 0.0887254261334 0)
(0.0107495910108 0.0810433825983 0)
(0.00997144674847 0.0739071326803 0)
(0.00921064542029 0.0673056944988 0)
(0.00847824149557 0.0612220966632 0)
(0.0077758352237 0.0556356919616 0)
(0.00711075601008 0.050522321592 0)
(0.00648235848428 0.0458561250768 0)
(0.00589521272001 0.0416095099235 0)
(0.00534713945882 0.0377545622823 0)
(0.00484066753883 0.0342629150122 0)
(0.00437259270785 0.0311068609145 0)
(0.00394397128366 0.0282591441724 0)
(0.00355098995758 0.0256938093449 0)
(0.00319368559149 0.0233858914406 0)
(0.0028678583604 0.0213119709538 0)
(0.00257248342958 0.0194496139215 0)
(0.00230194236338 0.0177772196327 0)
(0.00205093537622 0.0162718476585 0)
(0.00180067345041 0.0149075794544 0)
(0.0015486698369 0.0135285444487 0)
(0.00143775895307 0.0122578765051 0)
(0.00141051444742 0.011339901828 0)
(0.00121383511907 0.0102907523163 0)
(0.00105681724171 0.00961052530953 0)
(0.0011072316313 0.00881809643945 0)
(0.00127883363105 0.00818954759803 0)
(0.00139109700382 0.00747467848949 0)
(0.00153353580701 0.00642859199253 0)
(0.00175101042962 0.00527762351326 0)
(0.00221800708005 0.00422774261868 0)
(0.002729209949 0.00270898836192 0)
(0.00243321561426 0.000730726800024 0)
(-0.0366612950519 0.0071840811203 0)
(-0.0386237179398 0.0231067786508 0)
(-0.0384830801568 0.0389553591507 -2.54413571503e-27)
(-0.0381830380609 0.0548128303991 0)
(-0.0377820277915 0.070502468463 0)
(-0.0372811890346 0.0859987038333 0)
(-0.0366856900611 0.101263680974 0)
(-0.0359988032818 0.116260492163 0)
(-0.0352272422284 0.13095322008 0)
(-0.0343745515938 0.145308086741 0)
(-0.0334482398674 0.159293168109 0)
(-0.0324517352703 0.172879136756 0)
(-0.0313930185078 0.1860387282 0)
(-0.0302749954837 0.198747338372 0)
(-0.0291056960471 0.210982346789 0)
(-0.0278870440005 0.222723613839 0)
(-0.0266266878073 0.233952687353 0)
(-0.0253251635071 0.244653207421 0)
(-0.0239893945861 0.254810039469 0)
(-0.0226182648378 0.264409614598 0)
(-0.0212177908084 0.273439030363 0)
(-0.0197851407578 0.281886351635 0)
(-0.0183254386933 0.289739748986 0)
(-0.0168342916256 0.296987800962 0)
(-0.0153161395785 0.303618717544 0)
(-0.013765378658 0.309620662138 0)
(-0.012186126124 0.314981120864 0)
(-0.0105720686321 0.319687265738 0)
(-0.00892747759481 0.32372549587 0)
(-0.00724594898474 0.327081828849 0)
(-0.0055324994489 0.329741700257 0)
(-0.00378135161255 0.331690371364 0)
(-0.00199885753548 0.332912946689 0)
(-0.000180683304066 0.333394883786 0)
(0.00166478084628 0.333122260312 0)
(0.00353963111968 0.332082340183 0)
(0.00543281446996 0.330264103304 0)
(0.00734347696757 0.327658836157 0)
(0.00925743413039 0.324260905353 0)
(0.011170381834 0.320068334776 0)
(0.0130647857903 0.315083747518 0)
(0.0149326841171 0.309314865498 0)
(0.0167532794238 0.302775556482 0)
(0.0185150821573 0.295486215178 0)
(0.0201944543919 0.287474826147 0)
(0.0217769160837 0.278777176299 0)
(0.0232368900708 0.269437845263 0)
(0.0245581044797 0.259510169129 0)
(0.0257148003097 0.249056949748 0)
(0.0266912536252 0.238149948488 0)
(0.0274646394651 0.226869964242 0)
(0.0280235964031 0.215305475006 0)
(0.0283526532464 0.203551672442 0)
(0.0284494311023 0.191707925679 0)
(0.0283101736671 0.179875739852 0)
(0.027944975291 0.16815525247 0)
(0.0273639125262 0.156642647707 0)
(0.0265899016628 0.145426444508 0)
(0.0256452061237 0.134585222146 0)
(0.0245617846499 0.124184762134 0)
(0.0233681935451 0.114277145624 0)
(0.022098023371 0.104899931006 0)
(0.0207783397421 0.0960772617564 0)
(0.0194376206539 0.0878208326542 0)
(0.0180965373216 0.0801320885716 0)
(0.0167757567514 0.073003690129 0)
(0.0154886243651 0.0664217045093 0)
(0.0142484700339 0.0603668144875 0)
(0.0130625517524 0.054816032217 0)
(0.0119385673143 0.0497434722269 0)
(0.0108794080563 0.0451215514211 0)
(0.00988875300486 0.0409214491999 0)
(0.00896642029334 0.0371139819413 0)
(0.00811317465071 0.0336699136173 0)
(0.00732666349724 0.0305606295103 0)
(0.00660561927155 0.0277583130463 0)
(0.00594632265635 0.0252364181126 0)
(0.00534630265202 0.0229696626708 0)
(0.00480124350081 0.0209342149439 0)
(0.00430824474518 0.0191073030264 0)
(0.00386312718633 0.0174666723381 0)
(0.00346344965996 0.0159886633695 0)
(0.00310802552968 0.0146534866592 0)
(0.00280408480849 0.0133001622203 0)
(0.00257507130805 0.0121278565175 0)
(0.0023791959232 0.0111626066521 0)
(0.00215267869126 0.0103935061884 0)
(0.00189405767587 0.00926832262753 0)
(0.00177947503983 0.00827684613204 0)
(0.00194809100847 0.00773366992583 0)
(0.0023941656167 0.00732968133694 0)
(0.00255755345368 0.00588571012343 0)
(0.00301628458494 0.00492476515499 0)
(0.00361393692238 0.00363402741647 0)
(0.00411680122747 0.0022042547316 0)
(0.003981613693 0.000674786204078 0)
(-0.0517186036797 0.00726336414166 0)
(-0.0546401774136 0.0233280484758 0)
(-0.054437209869 0.0392694736511 2.54379945284e-27)
(-0.0540032093866 0.0552450353959 0)
(-0.0534265148179 0.0710538418726 0)
(-0.0527113480401 0.0866668814524 0)
(-0.0518628595716 0.10204415385 0)
(-0.0508865492091 0.117147652918 0)
(-0.0497898585405 0.131940974878 0)
(-0.0485796072673 0.146389878375 0)
(-0.0472643202434 0.160462324028 0)
(-0.0458512584469 0.17412880296 0)
(-0.0443493007366 0.187362216217 0)
(-0.0427654379105 0.20013806206 0)
(-0.0411082008939 0.212434173295 0)
(-0.039383613048 0.224230781037 0)
(-0.037599201139 0.235510132532 0)
(-0.035759421165 0.246256453052 0)
(-0.0338702827089 0.256455473013 0)
(-0.0319342775103 0.266094316507 0)
(-0.0299556356874 0.27516098646 0)
(-0.0279347786505 0.283644229711 0)
(-0.0258741944619 0.2915330372 0)
(-0.0237724384596 0.29881653158 0)
(-0.0216305904563 0.305483537673 0)
(-0.0194458176366 0.311522534578 0)
(-0.0172183508435 0.316921334904 0)
(-0.014944646141 0.321667119988 0)
(-0.0126248149076 0.325746254507 0)
(-0.0102554343874 0.329144401703 0)
(-0.00783738128866 0.331846559671 0)
(-0.00536830187459 0.333837221335 0)
(-0.00285077524944 0.335100579312 0)
(-0.000284626503301 0.335620899728 0)
(0.00232478678956 0.335382883194 0)
(0.00497438326878 0.334372191971 0)
(0.00765502460594 0.332576018083 0)
(0.0103594094132 0.329983736262 0)
(0.0130738438448 0.326587647359 0)
(0.01578615278 0.322383702575 0)
(0.0184776818396 0.317372354473 0)
(0.0211311492687 0.311559282029 0)
(0.0237229808541 0.304956279852 0)
(0.0262310113054 0.29758192672 0)
(0.0286272342686 0.289462460915 0)
(0.0308853232628 0.28063236719 0)
(0.03297393636 0.271135194238 0)
(0.0348641516264 0.261024002089 0)
(0.0365235736026 0.250361971518 0)
(0.0379238992153 0.239222460988 0)
(0.0390360829622 0.227688993335 0)
(0.0398380490203 0.215854361208 0)
(0.0403107881142 0.20381935574 0)
(0.0404456463572 0.191690389529 0)
(0.0402405465561 0.17957676205 0)
(0.0397058684598 0.167587005753 0)
(0.0388599540097 0.155825344604 0)
(0.0377330647945 0.144387721145 0)
(0.0363617681695 0.133358446311 0)
(0.0347907191906 0.122807055753 0)
(0.033065629272 0.112786710003 0)
(0.0312335647565 0.103333827541 0)
(0.0293367970376 0.0944694084555 0)
(0.0274141287331 0.0862010133852 0)
(0.0254971606799 0.0785253284216 0)
(0.0236128976496 0.0714304082984 0)
(0.0217816105521 0.0648979159333 0)
(0.0200197896273 0.0589047629226 0)
(0.0183387068137 0.0534246345468 0)
(0.016747157734 0.0484289629817 0)
(0.0152501807178 0.0438878242592 0)
(0.013851273524 0.0397705042555 0)
(0.0125510848237 0.0360461263477 0)
(0.0113492488786 0.0326841027903 0)
(0.0102432334019 0.029654645784 0)
(0.00922997996392 0.0269290847381 0)
(0.00830494051483 0.0244802154234 0)
(0.00746358416077 0.022282432478 0)
(0.00670064622736 0.0203118464046 0)
(0.00601164483363 0.0185461216274 0)
(0.00539267818419 0.0169640808415 0)
(0.00484262620852 0.0155456656712 0)
(0.00437155393625 0.0142719958964 0)
(0.0039472615732 0.0129325997423 0)
(0.0036429819811 0.0119571589446 0)
(0.00335129653785 0.011003237164 0)
(0.00307846067705 0.0100381721683 0)
(0.0027985780764 0.00888544579173 0)
(0.00273895400844 0.00815099790473 0)
(0.00273107998247 0.00705537401795 0)
(0.00308631965808 0.00614850988091 0)
(0.00384132351104 0.00557179479986 0)
(0.00413286612127 0.00407856414832 0)
(0.00478642317262 0.0028888800546 0)
(0.0054456996074 0.00178314901152 0)
(0.00542218878108 0.000583295108508 0)
(-0.0669611162312 0.00734076796498 0)
(-0.0707797185644 0.0235951551041 0)
(-0.0705187179626 0.039690977279 0)
(-0.0699521178962 0.055828811081 0)
(-0.0691981300159 0.0717974470243 0)
(-0.068264441647 0.0875660880843 0)
(-0.0671576655 0.103092916163 0)
(-0.0658854766687 0.118338648889 0)
(-0.06445701466 0.133266044281 0)
(-0.0628818391258 0.147840237514 0)
(-0.061170489601 0.162028859558 0)
(-0.059333328929 0.175802224468 0)
(-0.0573812875592 0.189133333735 0)
(-0.0553245406532 0.201997926687 0)
(-0.0531734321248 0.214374346426 0)
(-0.0509369927885 0.226243453622 0)
(-0.0486240729024 0.237588360431 0)
(-0.0462417334802 0.248394221177 0)
(-0.0437966266486 0.258647863382 0)
(-0.0412932965274 0.268337495533 0)
(-0.0387358348528 0.277452284044 0)
(-0.0361261160859 0.28598203441 0)
(-0.0334657318523 0.293916782244 0)
(-0.0307541620115 0.301246513316 0)
(-0.0279909595072 0.307960824952 0)
(-0.0251738424351 0.314048728748 0)
(-0.0223010878874 0.319498421229 0)
(-0.0193695354669 0.324297193286 0)
(-0.0163771540346 0.328431322938 0)
(-0.0133209714363 0.331886075765 0)
(-0.0101998093242 0.334645819098 0)
(-0.00701210091914 0.336694077451 0)
(-0.00375879022582 0.338013794279 0)
(-0.000441155617975 0.338587648802 0)
(0.00293628085657 0.338398461913 0)
(0.00636795948588 0.337429716965 0)
(0.0098443932592 0.33566617355 0)
(0.0133544530511 0.333094563161 0)
(0.0168825958414 0.329704378682 0)
(0.0204112529465 0.325488684383 0)
(0.023918249886 0.320444997099 0)
(0.0273792875655 0.314576120295 0)
(0.0307655776351 0.307891039042 0)
(0.0340463687989 0.300405717803 0)
(0.0371868014806 0.292143981313 0)
(0.0401504761965 0.283138283296 0)
(0.0428976258883 0.273430609747 0)
(0.0453879132968 0.26307324595 0)
(0.0475792520375 0.252129614729 0)
(0.049431256817 0.240674830336 0)
(0.0509051457171 0.228795921377 0)
(0.0519680860176 0.216591405485 0)
(0.0525940819378 0.204169899622 0)
(0.0527684098901 0.19164770949 0)
(0.0524882200444 0.179145378533 0)
(0.0517654599141 0.166783468885 0)
(0.0506258577644 0.154678051941 0)
(0.0491096970282 0.142935877658 0)
(0.0472688884548 0.13164992395 0)
(0.0451650097997 0.120895121373 0)
(0.0428630184938 0.110725966566 0)
(0.0404271776573 0.101176581161 0)
(0.0379157662967 0.0922628468495 0)
(0.0353796653054 0.0839857885107 0)
(0.032860672638 0.0763350527295 0)
(0.0303926093955 0.069291968948 0)
(0.0280013315856 0.062832088148 0)
(0.0257064945438 0.056927092258 0)
(0.0235220316948 0.0515462970361 0)
(0.0214578513848 0.0466575817392 0)
(0.0195201085137 0.042228063975 0)
(0.0177122971212 0.0382245321162 0)
(0.0160351039533 0.0346139377618 0)
(0.0144871971177 0.0313638625848 0)
(0.0130651439249 0.0284429978679 0)
(0.0117641891293 0.0258215099386 0)
(0.010578257284 0.0234713789579 0)
(0.00950072838971 0.0213666050183 0)
(0.00852455032316 0.0194834041981 0)
(0.00764309920876 0.0178003660139 0)
(0.00685066270306 0.0162985868029 0)
(0.00614371424422 0.0149681179963 0)
(0.0055335410918 0.0137521714199 0)
(0.00501067119346 0.0125705120786 0)
(0.00468174233269 0.0117588013975 0)
(0.00440601119274 0.010840282222 0)
(0.00422065001801 0.0098974658326 0)
(0.00394362753175 0.00873038030549 0)
(0.00362759074975 0.00731326696419 0)
(0.00372195315218 0.00645568487064 0)
(0.00390793338351 0.00528384724156 0)
(0.00472334111105 0.00462957477733 0)
(0.00563408802486 0.00372226494235 0)
(0.00591366262307 0.00238410821487 0)
(0.00633242593911 0.00140206219703 0)
(0.00632070859318 0.000465118570655 0)
(-0.0823981408448 0.00742991950217 0)
(-0.0871076683097 0.0239215835366 0)
(-0.0867868496993 0.0402222114969 0)
(-0.0860849821522 0.0565688008752 0)
(-0.0851493319142 0.0727408407525 0)
(-0.0839907912188 0.0887064279277 0)
(-0.0826180041919 0.104422099963 0)
(-0.0810409638721 0.119847218402 0)
(-0.07927106778 0.134943490817 0)
(-0.077320602702 0.149675273408 0)
(-0.0752026867517 0.164009720442 0)
(-0.072930689034 0.177916928184 0)
(-0.0705182115029 0.191369981295 0)
(-0.0679784484171 0.204344960371 0)
(-0.0653242223222 0.216820838766 0)
(-0.0625673074706 0.228779337722 0)
(-0.0597185590563 0.240204671396 0)
(-0.0567872452416 0.251083260698 0)
(-0.0537813204644 0.261403351068 0)
(-0.0507068177391 0.271154625464 0)
(-0.0475683095356 0.280327755419 0)
(-0.0443683906607 0.288913987058 0)
(-0.0411083351402 0.2969047054 0)
(-0.0377876634057 0.304291071391 0)
(-0.0344049640835 0.311063671393 0)
(-0.0309575062195 0.31721226023 0)
(-0.0274421756818 0.322725528962 0)
(-0.0238551004597 0.327590967281 0)
(-0.0201926730839 0.331794753526 0)
(-0.0164511928508 0.335321712322 0)
(-0.0126279852533 0.338155427997 0)
(-0.00872101731059 0.340278246361 0)
(-0.00473015273534 0.34167153328 0)
(-0.000656836422503 0.342315978025 0)
(0.00349466400487 0.342192000404 0)
(0.00771756745465 0.341280298549 0)
(0.0120013772214 0.339562495716 0)
(0.0163322857277 0.337021911581 0)
(0.0206921174361 0.333644408131 0)
(0.0250589012621 0.329419306087 0)
(0.0294060285573 0.324340328249 0)
(0.033703005481 0.318406540632 0)
(0.0379148157437 0.311623286172 0)
(0.0420027819742 0.304003073164 0)
(0.0459240650621 0.295566491991 0)
(0.0496325903658 0.286343120319 0)
(0.0530787310453 0.276372568848 0)
(0.0562105574872 0.265705577946 0)
(0.0589741382559 0.254405279228 0)
(0.0613158489128 0.242548334262 0)
(0.0631840868558 0.230225816442 0)
(0.0645332794294 0.217543302707 0)
(0.0653271290668 0.204619691561 0)
(0.0655433146699 0.191584540681 0)
(0.0651762573613 0.178573820422 0)
(0.0642395601897 0.165724641952 0)
(0.0627664812555 0.15316956617 0)
(0.0608094586775 0.141030719478 0)
(0.0584386181168 0.129413708791 0)
(0.0557376658199 0.118401118647 0)
(0.0527954953156 0.108048797226 0)
(0.0496979584187 0.0983864864426 0)
(0.0465213949129 0.0894218050222 0)
(0.0433299287989 0.0811458323272 0)
(0.0401750624273 0.0735381935407 0)
(0.0370969986196 0.0665709998322 0)
(0.0341259220373 0.0602117466296 0)
(0.0312838153249 0.0544254214201 0)
(0.0285859775704 0.0491759614075 0)
(0.0260428253362 0.0444270196824 0)
(0.0236608280788 0.0401422579012 0)
(0.0214433035553 0.0362854940086 0)
(0.0193904420418 0.0328210257685 0)
(0.0174997748492 0.0297141462595 0)
(0.0157664231438 0.0269316445225 0)
(0.0141837005835 0.0244422073495 0)
(0.0127434467128 0.0222167658743 0)
(0.0114366230162 0.0202287381466 0)
(0.0102537001908 0.0184542307903 0)
(0.00918525031634 0.0168722454293 0)
(0.00822239039872 0.0154646166949 0)
(0.0073577903264 0.0142255181815 0)
(0.00659641193867 0.0130403895139 0)
(0.00599136023421 0.0119752317265 0)
(0.00560642855564 0.0110729582865 0)
(0.00536888061763 0.010177515744 0)
(0.00506509870935 0.00899054007422 0)
(0.00499434115215 0.00812966763664 0)
(0.00495846809724 0.00715538416059 0)
(0.0050799231707 0.00617427701122 0)
(0.00489696219031 0.00465664935167 0)
(0.00537933014092 0.00366019412311 0)
(0.00653695450894 0.00307857042082 0)
(0.00702850402702 0.00211534743191 0)
(0.00719850728616 0.00119333907037 0)
(0.00720800415294 0.00039590265493 0)
(-0.0980676883171 0.00753516062308 0)
(-0.103674185918 0.0243146367428 0)
(-0.103289407753 0.0408675632326 2.56242975682e-27)
(-0.102446984294 0.0574700931697 0)
(-0.101322956867 0.0738906182187 0)
(-0.0999311192976 0.0900960637986 0)
(-0.098282364604 0.106041234357 0)
(-0.0963891751271 0.121683964228 0)
(-0.0942655912181 0.136984712336 0)
(-0.091926825848 0.151906889993 0)
(-0.0893889978665 0.166417041475 0)
(-0.0866686741612 0.180484991806 0)
(-0.0837825777047 0.194083911873 0)
(-0.0807470897195 0.207190315013 0)
(-0.0775779639872 0.219783959375 0)
(-0.0742898266568 0.231847668576 0)
(-0.0708959470952 0.24336705719 0)
(-0.0674077978824 0.254330177305 0)
(-0.0638349531977 0.264727089299 0)
(-0.0601847802405 0.274549381897 0)
(-0.0564625273151 0.283789658498 0)
(-0.0526711911773 0.292441022179 0)
(-0.0488118109767 0.300496582366 0)
(-0.0448834959998 0.307949009868 0)
(-0.0408838784129 0.314790153193 0)
(-0.0368092364379 0.321010726612 0)
(-0.0326550342363 0.326600067711 0)
(-0.0284160830123 0.331545960918 0)
(-0.0240871332512 0.335834515937 0)
(-0.0196630821104 0.339450080631 0)
(-0.0151396450196 0.342375341417 0)
(-0.0105135789784 0.3445912619 0)
(-0.00578351067845 0.34607732709 0)
(-0.000950271529652 0.346811813595 0)
(0.00398227226525 0.346772206893 0)
(0.00900685304262 0.345935762214 0)
(0.0141120171267 0.344280213606 0)
(0.0192818725972 0.341784614819 0)
(0.0244954912832 0.338430296238 0)
(0.0297268919285 0.334201890125 0)
(0.0349447217469 0.32908839151 0)
(0.0401125015334 0.323084197215 0)
(0.0451885462593 0.316190109592 0)
(0.0501263436741 0.308414271094 0)
(0.0548745386237 0.299773109738 0)
(0.0593772769488 0.290292291936 0)
(0.0635742141541 0.280007948636 0)
(0.0674010501465 0.268968059992 0)
(0.0707901611231 0.257234352623 0)
(0.073672467612 0.244884267518 0)
(0.0759800876444 0.232012882196 0)
(0.0776510624891 0.218734016324 0)
(0.0786346872946 0.205179535783 0)
(0.0788979553937 0.191496463526 0)
(0.0784303389846 0.177841266921 0)
(0.0772465475627 0.164373345829 0)
(0.0753878196347 0.151247608025 0)
(0.0729204275317 0.138607672237 0)
(0.0699371665457 0.126577786207 0)
(0.0665516614122 0.115251651156 0)
(0.0628846645421 0.104685912701 0)
(0.0590497341688 0.0949021416179 0)
(0.0551440989169 0.0858944931752 0)
(0.0512456283897 0.0776391544642 0)
(0.0474144247759 0.0701018491945 0)
(0.0436958277505 0.0632425867043 0)
(0.0401226617712 0.0570186952498 0)
(0.0367176908097 0.0513869689366 0)
(0.033495935866 0.0463051558434 0)
(0.0304672520376 0.0417323048527 0)
(0.0276377227251 0.0376284348332 0)
(0.0250102411423 0.0339540555419 0)
(0.0225841710031 0.0306703327867 0)
(0.0203555381037 0.0277397796157 0)
(0.0183175198428 0.0251268699747 0)
(0.0164610855738 0.0227984888054 0)
(0.0147754579408 0.0207242642968 0)
(0.0132487444759 0.0188768278605 0)
(0.0118683985304 0.0172320061285 0)
(0.0106217229909 0.0157690289116 0)
(0.00949611784528 0.0144708964935 0)
(0.0084810743743 0.0133353851536 0)
(0.0075726482787 0.0121781061611 0)
(0.0070636725524 0.0113877430824 0)
(0.00661801314347 0.0103959833521 0)
(0.00636898500848 0.00946768099645 0)
(0.00612828674645 0.00846640136515 0)
(0.00589306206511 0.00736590266125 0)
(0.00599278891145 0.00648940431682 0)
(0.00600433941154 0.00529538583023 0)
(0.00634784244366 0.00440236183396 0)
(0.00631297277316 0.00312415926405 0)
(0.00694321818443 0.0023783526211 0)
(0.00783203595378 0.00180853831976 0)
(0.00793673497501 0.00102115252633 0)
(0.0079579801707 0.000339169219723 0)
(-0.114013093701 0.00765864071158 0)
(-0.120528511228 0.0247794160903 0)
(-0.120074988776 0.0416325524429 -2.56203664603e-27)
(-0.119085104818 0.0585396633902 0)
(-0.117763929451 0.0752554064156 0)
(-0.116128118578 0.0917453143158 0)
(-0.114190963067 0.107962144391 0)
(-0.111967665946 0.123861955894 0)
(-0.109475240368 0.139403718862 0)
(-0.106732145802 0.154549706439 0)
(-0.103757898393 0.169265712987 0)
(-0.100572616386 0.183521223745 0)
(-0.0971965730026 0.197289501865 0)
(-0.0936496917138 0.210547590181 0)
(-0.0899510797079 0.223276210794 0)
(-0.0861185201534 0.235459563874 0)
(-0.082168050746 0.247085012628 0)
(-0.0781135349838 0.258142669582 0)
(-0.0739663821495 0.268624882871 0)
(-0.0697352997086 0.278525659388 0)
(-0.0654262466091 0.287840039781 0)
(-0.0610424331986 0.296563478454 0)
(-0.0565845322145 0.304691247353 0)
(-0.0520509025514 0.312217914099 0)
(-0.0474379858231 0.319136895964 0)
(-0.0427406489236 0.325440115744 0)
(-0.0379526521618 0.331117731576 0)
(-0.0330670196616 0.336157947101 0)
(-0.0280765320356 0.340546859074 0)
(-0.0229741450539 0.344268343716 0)
(-0.0177535565136 0.347304106283 0)
(-0.0124096802442 0.349633561476 0)
(-0.00693941975109 0.351234021044 0)
(-0.00134230254311 0.352080936153 0)
(0.00437870205692 0.352148291325 0)
(0.0102164827244 0.351409198324 0)
(0.0161590067358 0.349836657322 0)
(0.0221887585836 0.347404514771 0)
(0.0282821995381 0.344088544579 0)
(0.0344095307288 0.339867644132 0)
(0.0405345355491 0.334725039484 0)
(0.0466147180708 0.32864946558 0)
(0.0526014672056 0.321636233377 0)
(0.0584403396682 0.313688182068 0)
(0.0640712203809 0.304816560994 0)
(0.0694283380415 0.295041959158 0)
(0.0744401623058 0.284395541546 0)
(0.0790291944771 0.272920768754 0)
(0.0831123579457 0.260675991463 0)
(0.0866022065207 0.247737610281 0)
(0.0894102576965 0.234203815321 0)
(0.0914526488906 0.220197356168 0)
(0.0926582665162 0.205866079512 0)
(0.0929787309271 0.191379718267 0)
(0.09239557177 0.176921959205 0)
(0.0909237736472 0.162681681295 0)
(0.088612848986 0.14884301044 0)
(0.085543184275 0.135579630363 0)
(0.0818358992485 0.123044501507 0)
(0.0776476081468 0.111348169179 0)
(0.0731439521812 0.100546420473 0)
(0.0684752522789 0.0906454783865 0)
(0.0637626829644 0.081617275441 0)
(0.0590966697411 0.0734157640339 0)
(0.0545433876985 0.0659880368335 0)
(0.0501508747262 0.0592789236982 0)
(0.0459524617521 0.0532333405815 0)
(0.0419691846353 0.0477984681405 0)
(0.0382135272762 0.0429253322284 0)
(0.0346931905732 0.0385686472098 0)
(0.0314133390611 0.0346851131081 0)
(0.0283765183329 0.0312318293289 0)
(0.0255811534461 0.0281662274351 0)
(0.0230212816665 0.0254474149419 0)
(0.0206875451433 0.023037124822 0)
(0.0185680407473 0.020900089378 0)
(0.0166488269191 0.0190043781664 0)
(0.0149146640202 0.0173216401471 0)
(0.0133495251049 0.0158271769324 0)
(0.0119372028241 0.014499919121 0)
(0.010661690993 0.013323322518 0)
(0.00951278285768 0.0122820865556 0)
(0.00847418540941 0.0111811546551 0)
(0.00792365779416 0.0103886222219 0)
(0.00758395460671 0.00957727756515 0)
(0.00727430095134 0.00863028481589 0)
(0.00719667745746 0.00784274243523 0)
(0.00705431702213 0.00681927793351 0)
(0.00702739407037 0.00578698589932 0)
(0.00695072957923 0.00463881136281 0)
(0.00711145706126 0.00369837322338 0)
(0.007522548493 0.00290299213225 0)
(0.00756368622866 0.00197256985785 0)
(0.00851982265871 0.00149601510769 0)
(0.00857157204084 0.00088982376517 0)
(0.008567331966 0.00028547441012 0)
(-0.130281537879 0.00780161404569 0)
(-0.137721359656 0.0253206651346 0)
(-0.137193793695 0.0425238461769 0)
(-0.136048080281 0.0597861838236 0)
(-0.134519005646 0.0768459725262 0)
(-0.13262617067 0.0936669109283 0)
(-0.130385486578 0.110199334097 0)
(-0.127815147177 0.126397173329 0)
(-0.124935507091 0.142217622229 0)
(-0.121768656096 0.157621582751 0)
(-0.118337961491 0.172573932254 0)
(-0.114667539192 0.187043729529 0)
(-0.110781712675 0.201004330886 0)
(-0.106704416398 0.214433406803 0)
(-0.102458608339 0.227312847778 0)
(-0.0980656558034 0.239628540166 0)
(-0.0935447773928 0.251370012767 0)
(-0.0889125171847 0.262529941912 0)
(-0.0841823487942 0.273103540977 0)
(-0.0793643832925 0.283087846938 0)
(-0.074465272497 0.29248095897 0)
(-0.0694882530551 0.30128126556 0)
(-0.0644333910842 0.309486727154 0)
(-0.0592979271009 0.317094245499 0)
(-0.0540767497332 0.324099161058 0)
(-0.0487628733047 0.330494869466 0)
(-0.0433479577059 0.336272551218 0)
(-0.0378227706029 0.341420970816 0)
(-0.032177684184 0.345926312433 0)
(-0.0264031655069 0.349772024513 0)
(-0.0204903452225 0.352938809141 0)
(-0.0144316110022 0.35540440789 0)
(-0.00822146346458 0.357143713245 0)
(-0.00185734280841 0.358128937522 0)
(0.00465939699023 0.358329983514 0)
(0.0113225407577 0.35771504432 0)
(0.0181200564277 0.356251451191 0)