/*--------------------------------*- C++ -*----------------------------------*\
| =========                 |                                                 |
| \\      /  F ield         | OpenFOAM: The Open Source CFD Toolbox           |
|  \\    /   O peration     | Version:  v1906                                 |
|   \\  /    A nd           | Web:      www.OpenFOAM.com                      |
|    \\/     M anipulation  |                                                 |
\*---------------------------------------------------------------------------*/
FoamFile
{
    version     2.0;
    format      ascii;
    class       volScalarField;
    location    "519";
    object      p;
}
// * * * * * * * * * * * * * * * * * * * * * * * * * * * * * * * * * * * * * //

dimensions      [0 2 -2 0 0 0 0];


internalField   nonuniform List<scalar> 
9216
(
273.534804402
273.614584693
273.779666112
274.031454573
274.368529401
274.789304514
275.291811341
275.873740898
276.532480324
277.265155522
278.068665835
278.939726513
279.874900877
280.870640137
281.923310487
283.029228138
284.184679992
285.385953065
286.629348639
287.911206309
289.227912339
290.575919164
291.951749083
293.352010227
294.773396763
296.212702247
297.666817353
299.132741315
300.607577928
302.088545554
303.572971997
305.058302801
306.542095289
308.022026751
309.495887418
310.96158674
312.417146259
313.860704937
315.290511659
316.704929385
318.102427501
319.481584824
320.841081988
322.179703341
323.496329548
324.789938438
326.059598027
327.304466373
328.523785199
329.716878837
330.883148615
332.022070957
333.13319267
334.216128261
335.270556229
336.296215644
337.2929035
338.260470592
339.198819943
340.107901993
340.987714074
341.838294924
342.659725125
343.452120963
344.215635725
344.950452922
345.656788307
346.334882517
346.985003669
347.607439482
348.202500304
348.770510836
349.311813427
349.826759545
350.315713208
350.779042364
351.217122328
351.63032727
352.01903353
352.383611417
352.7244283
353.04184092
353.336198164
353.607834081
353.85707029
354.084209896
354.289539531
354.473324461
354.635810533
354.777221311
354.897761737
354.997621465
355.076991446
355.136118843
355.175969608
355.192005739
273.455067749
273.535210324
273.700635699
273.953426038
274.291936747
274.714506455
275.21912245
275.803437864
276.464804509
277.200312207
278.006826155
278.881027264
279.819447806
280.818508605
281.874549739
282.983862283
284.142712643
285.347368141
286.594114924
287.879277758
289.199232308
290.550420119
291.929356424
293.33264143
294.756964828
296.199114404
297.655978202
299.124551232
300.601935982
302.085347698
303.572113625
305.059677445
306.545597617
308.027550118
309.503326267
310.970835024
312.428099873
313.873260075
315.304567035
316.720384685
318.1191854
319.499549556
320.860161126
322.199806507
323.517369931
324.811831663
326.082263385
327.32782587
328.547764487
329.741406462
330.908156642
332.047494435
333.158969955
334.242200718
335.296868256
336.322714629
337.319539559
338.287196794
339.225591776
340.134677868
341.014454537
341.864963431
342.686287031
343.478544555
344.241891003
344.97651287
345.682627498
346.360478586
347.010335762
347.632489893
348.227252802
348.794952412
349.335932533
349.8505479
350.339163984
350.802152
351.239888702
351.652751462
352.041118033
352.405361796
352.74585148
353.062946691
353.356997592
353.62834081
353.87729909
354.104177695
354.309264047
354.492824723
354.655105104
354.796326927
354.916687393
355.016355049
355.095461265
355.154065856
355.192033533
355.20804422
273.289226292
273.370517189
273.53747537
273.792570544
274.134126381
274.560436462
275.069427054
275.658683206
276.325485519
277.066850805
277.879572489
278.760261495
279.705384506
280.711300872
281.774295363
282.890608798
284.056463962
285.268089421
286.521738749
287.813708162
289.140350041
290.498085571
291.883413869
293.292920913
294.723285507
296.171285607
297.633802099
299.107823315
300.590447293
302.078884978
303.570461342
305.062617607
306.552911474
308.039018243
309.518730265
310.989957338
312.450725344
313.899175782
315.333563729
316.752256611
318.153731566
319.536573533
320.899472129
322.241219158
323.560705141
324.856916359
326.128931181
327.375916769
328.597125339
329.79189066
330.959624373
332.099812398
333.212011414
334.295845271
335.351001723
336.377228891
337.37433231
338.342171485
339.28065725
340.189748436
341.069449529
341.919807415
342.740909296
343.53287948
344.295877494
345.030094861
345.735753351
346.413101709
347.062413967
347.683986105
348.278134378
348.845191894
349.385506936
349.899439477
350.387359472
350.849643365
351.286672361
351.698828968
352.086495275
352.450049605
352.789864828
353.106305185
353.399724678
353.670464141
353.918849727
354.145190289
354.349775985
354.532875968
354.694737012
354.835581254
354.955604095
355.054970282
355.133807501
355.192189303
355.23005251
355.2478443
273.034251666
273.116829564
273.286185191
273.544884791
273.891190868
274.323321246
274.839108401
275.436032388
276.111262606
276.861702196
277.684032187
278.574754863
279.530234633
280.546736132
281.620458403
282.747565548
283.924213132
285.14657118
286.410843316
287.713283125
289.050207364
290.418007199
291.813157048
293.232222187
294.671864599
296.128848153
297.600042474
299.082426509
300.573091068
302.06924124
303.56819794
305.067399337
306.564401602
308.056879592
309.542626667
311.019554497
312.485692161
313.939185155
315.378293749
316.80139126
318.20696175
319.593597647
320.959996897
322.304960048
323.627386989
324.92627363
326.200708366
327.449868499
328.673016571
329.869496654
331.038730688
332.18021476
333.293515558
334.378266742
335.434165593
336.460969544
337.458493078
338.426604455
339.365222875
340.274315398
341.153894356
342.004014434
342.824770289
343.616293738
344.378751516
345.112342518
345.817295623
346.493866934
347.142337613
347.763011072
348.356210776
348.922277371
349.461566438
349.974445562
350.461292038
350.922489913
351.358427677
351.769495313
352.156082014
352.518573309
352.857348837
353.172779618
353.465225938
353.735034807
353.982538
354.208049747
354.411864929
354.594256988
354.755476184
354.895747505
355.015268558
355.114206824
355.1926964
355.25083255
355.288598248
355.306757056
272.689062867
272.773289618
272.945934704
273.209588091
273.562418906
274.002534167
274.527634315
275.135052796
275.821804077
276.584633576
277.420066758
278.324456408
279.294026674
280.324913194
281.413198678
282.55494394
283.746214336
284.983102025
286.261744326
287.578338791
288.929155347
290.310546126
291.718953299
293.150915446
294.603072636
296.072170653
297.555064404
299.048720813
300.550221156
302.056763039
303.565661915
305.074352162
306.580387924
308.081443686
309.575314077
311.059913496
312.533275278
313.993550517
315.439006461
316.868024586
318.279098294
319.670830328
321.041929895
322.391209543
323.717581841
325.020055872
326.297733615
327.549806205
328.775550171
329.974323601
331.145562379
332.288776386
333.40354585
334.489517692
335.546402072
336.573968956
337.572044917
338.540509949
339.479294542
340.388376739
341.267779462
342.117567768
342.93784638
343.728757077
344.490476347
345.223212851
345.927205115
346.602718999
347.250045361
347.869497483
348.461408669
349.02612959
349.56402581
350.075475058
350.560864682
351.020588881
351.455046131
351.864636412
352.249758658
352.61080804
352.948173495
353.262235125
353.553361852
353.821908998
354.068216109
354.29260474
354.495376476
354.676810919
354.83716385
354.976665346
355.095517965
355.193895029
355.271939308
355.329761675
355.367365182
355.385577978
272.251877224
272.338195592
272.515076371
272.785116593
273.146356307
273.596751639
274.133826431
274.754719749
275.456241855
276.234931508
277.087111513
278.008941174
278.996464287
280.045651862
281.152439176
282.312757219
283.522558763
284.777839616
286.07465561
287.409136021
288.77749402
290.176034799
291.60116186
293.049381957
294.517309003
296.001667278
297.499294073
299.007141968
300.522280741
302.041899021
303.563305619
305.083930398
306.601325094
308.113163897
309.617243095
311.111480667
312.593915394
314.062705588
315.516127406
316.952572794
318.370547073
319.768666201
321.145653743
322.500337592
323.831646475
325.138606291
326.42033631
327.676045288
328.905027533
330.10665895
331.280393116
332.425757399
333.542349169
334.629832101
335.687932622
336.716436474
337.715185454
338.68407427
339.623047587
340.532097169
341.411259201
342.260611666
343.080271876
343.87039401
344.631166761
345.36281095
346.065577201
346.739743538
347.385613026
348.003511282
348.593784032
349.156794515
349.692920937
350.202553772
350.686093128
351.143945986
351.576523514
351.984238297
352.36750166
352.72672095
353.062296932
353.374621189
353.664073652
353.93102017
354.17581023
354.39877474
354.600223964
354.780445535
354.939702623
355.078232191
355.196243437
355.293916609
355.371402355
355.428821026
355.466183829
355.484324884
271.720417545
271.809326671
271.991471721
272.269449963
272.641132535
273.104278311
273.656182347
274.293733733
275.013481961
275.811703818
276.684467155
277.627689887
278.637192729
279.70874493
280.838102792
282.021041244
283.253379078
284.530998602
285.849860601
287.206015486
288.595611448
290.014900358
291.460242056
292.928107507
294.415081251
295.917863398
297.433271374
298.958241497
300.489830439
302.025216544
303.561700953
305.096708364
306.627787835
308.152613347
309.668983331
311.174820235
312.668169585
314.147198602
315.610194417
317.055561868
318.481820936
319.88760382
321.271651729
322.632811387
323.970031349
325.282358112
326.568932124
327.828983691
329.061828851
330.266865241
331.443568012
332.591485796
333.7102368
334.799505005
335.859036535
336.888636173
337.888164073
338.857532622
339.796703504
340.705684903
341.584528872
342.433328813
343.252217073
344.041362602
344.800968675
345.531270612
346.232533521
346.90504998
347.549137708
348.165137145
348.753408986
349.314331632
349.848298572
350.355715708
350.836998619
351.292569788
351.722855807
352.128284568
352.509282474
352.866271669
353.199667326
353.509874991
353.797288012
354.062285062
354.305227771
354.526458472
354.726298081
354.905044111
355.062968833
355.200317627
355.317307533
355.414126237
355.490931499
355.547850085
355.584897262
355.602900322
271.091861264
271.183918832
271.372463818
271.660086348
272.044441248
272.523034733
273.092870685
273.750522403
274.492212574
275.313892532
276.21131637
277.18010793
278.215819075
279.313978653
280.470132222
281.679873227
282.938866603
284.242865995
285.587725811
286.969409289
288.383993604
289.827672935
291.296760219
292.787688157
294.29700989
295.821399625
297.357653348
298.902689695
300.453550938
302.00740405
303.561541524
305.113382363
306.660472771
308.200486585
309.731224921
311.250615671
312.75671248
314.247693291
315.721858408
317.177628146
318.613540056
320.028245804
321.420507716
322.789195054
324.133280059
325.451833834
326.744022081
328.009100778
329.246411817
330.455378656
331.63550203
332.786355753
333.907582652
334.99889065
336.060049038
337.090884942
338.091279991
339.061167205
340.000528076
340.909389848
341.787822961
342.635938646
343.453886629
344.241852919
345.000057645
345.728752902
346.428220584
347.098770169
347.740736444
348.354477133
348.940370459
349.49881258
350.030214962
350.535001647
351.013606467
351.466470187
351.894037635
352.296754788
352.675065896
353.029410603
353.360221148
353.667919599
353.952915203
354.215601816
354.456355464
354.675532021
354.873465043
355.05046374
355.206811143
355.342762448
355.458543606
355.554350297
355.630347201
355.686666494
355.723326943
355.741147038
270.362778131
270.458612107
270.654829718
270.954001901
271.353508825
271.850535865
272.441719695
273.123238562
273.890910122
274.740286495
275.666741238
276.665545868
277.731934336
278.861155138
280.04851166
281.289391962
282.579289621
283.913817295
285.288714731
286.699852688
288.143234115
289.614993637
291.111396213
292.628835559
294.163832789
295.713035499
297.273217404
298.841278496
300.414245654
301.989273509
303.56364512
305.134773186
306.700200829
308.257601905
309.804780792
311.339671836
312.860338302
314.36497078
315.851885123
317.319519882
318.766433318
320.191300009
321.592907127
322.97015041
324.322029919
325.647645598
326.946192735
328.216957329
329.459311467
330.672708708
331.856679567
333.010827097
334.134822655
335.228401829
336.291360616
337.3235518
338.324881614
339.295306617
340.234830841
341.143503143
342.021414768
342.86869707
343.685519375
344.47208692
345.228638847
345.955446197
346.652809868
347.321058518
347.960546361
348.571650863
349.154770314
349.710321273
350.238735894
350.740459155
351.215945977
351.665658291
352.090062044
352.489624192
352.864809683
353.216078482
353.543882627
353.848663376
354.130848426
354.390849263
354.629058615
354.845848072
355.041565837
355.216534665
355.371049975
355.505378183
355.619755246
355.714385562
355.789441082
355.845059482
355.881263665
355.898863242
269.52905454
269.629381229
269.834718649
270.147599538
270.5650556
271.083865791
271.700205209
272.409760204
273.207849556
274.089539626
275.049747122
276.083326718
277.185142123
278.350120817
279.573293824
280.849822595
282.175015379
283.544335528
284.953403908
286.397997405
287.87404508
289.37762324
290.904950361
292.452382513
294.016409697
295.593653294
297.180864624
298.774924513
300.372843628
301.971763369
303.56895651
305.161828792
306.747919988
308.324904101
309.890589342
311.442917608
312.979963359
314.499931933
316.001157285
317.482099205
318.941340043
320.377581027
321.789638181
323.176437976
324.537012706
325.87049571
327.176116464
328.453195625
329.701140065
330.919437967
332.107654018
333.26542476
334.392454121
335.488509201
336.553416289
337.587057194
338.58936585
339.560325232
340.49996455
341.408356726
342.285616083
343.131896258
343.947388235
344.732318499
345.486947214
346.21156641
346.906498102
347.572092321
348.208725022
348.816795838
349.396725678
349.948954164
350.473936922
350.97214272
351.444050511
351.890146367
352.310920368
352.706863442
353.078464226
353.426205919
353.75056323
354.051999361
354.330963126
354.587886162
354.823180299
355.037235067
355.230415387
355.403059426
355.555476673
355.687946193
355.800715135
355.893997531
355.967973271
356.022786107
356.058464057
356.075807627
268.58579837
268.691446527
268.907573866
269.236645388
269.675249482
270.219649321
270.86543961
271.607694943
272.441121499
273.360197624
274.359295715
275.432782375
276.575095951
277.780802622
279.04463361
280.361506819
281.726536396
283.135033526
284.582501367
286.064626512
287.57726888
289.116451417
290.678350629
292.259288581
293.855726747
295.464261775
297.081623109
298.704672141
300.330402574
301.955941545
303.578550547
305.195627514
306.80470849
308.403467642
309.989717582
311.56140888
313.11662891
314.653600014
316.170677045
317.666344294
319.139211904
320.588011797
322.011593228
323.40891799
324.779055398
326.121177073
327.434551639
328.718539355
329.972586782
331.196221519
332.389047074
333.55073792
334.681034792
335.779740246
336.846714559
337.881871937
338.885177115
339.856642277
340.796324361
341.704322648
342.580776661
343.425864273
344.2398
345.022833393
345.775247473
346.497357138
347.189507494
347.852072048
348.485450737
349.09006776
349.666369207
350.214820475
350.735903499
351.230113808
351.697957427
352.139947689
352.556601941
352.948438241
353.315972018
353.659712792
353.980160916
354.277804444
354.553116066
354.806550216
355.038540296
355.249496099
355.439801387
355.609811683
355.759852258
355.890216342
356.001163542
356.092918571
356.165670133
356.219568815
356.254648733
356.27170076
267.527217582
267.639160657
267.868033841
268.216190178
268.67965057
269.254020677
269.934163208
270.714391087
271.588658987
272.550735922
273.594349851
274.713301406
275.901546841
277.153253045
278.462828999
279.824938763
281.234500944
282.686679116
284.176866858
285.700670307
287.253890336
288.832505888
290.432659443
292.050645236
293.682900478
295.325999576
296.976651031
298.631696585
300.288111972
301.943008696
303.593635586
305.237381625
306.871778479
308.494500344
310.103364736
311.696332078
313.271504489
314.827123799
316.361568813
317.873351925
319.36111512
320.82362548
322.259770247
323.668551569
325.049080969
326.400573664
327.722342763
329.013793464
330.274417264
331.503786299
332.701547828
333.86741896
335.001181648
336.102678025
337.171806115
338.20851595
339.212806116
340.184720738
341.12434687
342.031812289
342.907283601
343.75096465
344.563095097
345.343949142
346.093834261
346.813089906
347.502086082
348.161221748
348.790922995
349.391640958
349.963849481
350.508042503
351.02473121
351.514440966
351.977708071
352.415076374
352.827093814
353.214308879
353.577267096
353.916507521
354.232559316
354.525938407
354.79714428
355.04665691
355.274933871
355.482407614
355.669482961
355.836534792
355.98390596
356.111905422
356.220806603
356.310846045
356.382222218
356.435093406
356.469500758
356.48622465
266.346464338
266.465863241
266.709807608
267.080472315
267.573145998
268.182590491
268.902740906
269.726959274
270.648278169
271.659613177
272.753933914
273.924391354
275.164403619
276.467705685
277.828370204
279.240806932
280.699747725
282.200222885
283.737533426
285.307222535
286.905048535
288.526960793
290.169079531
291.827679961
293.49918093
295.180137814
296.867239208
298.557306601
300.247296178
301.934301683
303.615557235
305.288441334
306.950480171
308.59934759
310.232866438
311.849008207
313.445891767
315.021781153
316.575082526
318.104340359
319.608232982
321.085567543
322.53527454
323.956401972
325.348109263
326.709660993
328.040420572
329.339843892
330.607473055
331.84293022
333.045911673
334.216182142
335.353569461
336.457959616
337.529292261
338.567556695
339.572788391
340.545066011
341.484508963
342.391275401
343.265560647
344.10759593
344.917647371
345.696015087
346.443032329
347.159064533
347.844508215
348.499789617
349.125363059
349.721708961
350.289331519
350.82875606
351.340526075
351.825200001
352.283347775
352.715547238
353.122380414
353.504429758
353.862274368
354.196486273
354.507626759
354.796242843
355.062863853
355.30799821
355.532130356
355.735717924
355.919189092
356.082940186
356.227333502
356.352695373
356.459314452
356.547440325
356.617282267
356.669007084
356.702663881
356.719021529
265.035433096
265.163694482
265.425516872
265.822798839
266.349874344
267.000413459
267.767168609
268.64231039
269.61773904
270.685346078
271.837214806
273.065759458
274.363808671
275.724643019
277.141997852
278.610042375
280.123344352
281.676827864
283.265729422
284.885556034
286.532047383
288.201143415
289.888957952
291.591758653
293.305953231
295.028081565
296.75481288
298.482946879
300.20941749
301.931297124
303.645802398
305.35029933
307.04230663
308.719497207
310.379699556
312.020897539
313.641228968
315.238983138
316.812597354
318.360652635
319.88186866
321.375098122
322.839320585
324.27363599
325.67725789
327.049506564
328.389802045
329.69765719
330.972670827
332.214521079
333.42295891
334.597802001
335.738928996
336.84627423
337.919822977
338.959607302
339.96570252
340.93822431
341.877326427
342.783199012
343.656067368
344.496191163
345.303863883
346.079412456
346.823196865
347.53560966
348.217075229
348.868048751
349.489014757
350.080485264
350.642997473
351.177111038
351.683404974
352.162474214
352.614925929
353.041375638
353.442443218
353.818748833
354.170908893
354.499532031
354.805215206
355.08853991
355.350068559
355.590341052
355.809871558
356.009145509
356.188616849
356.34870552
356.4897952
356.612231294
356.716319174
356.80232272
356.870463045
356.920916405
356.953740691
356.969692045
263.584496687
263.723352896
264.006495231
264.435399235
265.003139702
265.701960718
266.523096315
267.457218091
268.49483477
269.626613211
270.843609855
272.137416497
273.50023225
274.924878029
276.404770758
277.933872769
279.506628859
281.117900017
282.762899767
284.437136518
286.136363661
287.856538082
289.593787333
291.344385424
293.104737059
294.871369715
296.640932465
298.41019982
300.17607874
301.935615369
303.686004431
305.424596105
307.148899349
308.856585121
310.545487804
312.213605008
313.859095978
315.480278702
317.075625942
318.643760277
320.183448384
321.693594611
323.173234084
324.621525409
326.03774317
327.421270279
328.771590325
330.088279958
331.371001406
332.619495176
333.833573039
335.013111349
336.158044831
337.268360891
338.344094584
339.385324257
340.392167979
341.36478072
342.303352316
343.208106112
344.07929824
344.91721736
345.72218475
346.494554548
347.234713993
347.943083488
348.620116359
349.266298166
349.882145519
350.468204331
351.025047517
351.553272159
352.0534962
352.52635475
352.972496068
353.392577348
353.787260351
354.157207014
354.503075032
354.825513565
355.125159002
355.402630939
355.658528289
355.893425665
356.107869939
356.30237711
356.477429393
356.633472605
356.770913815
356.890119267
356.991412562
357.075073179
357.141335167
357.190385018
357.222290342
357.237793263
261.982156981
262.133778653
262.442531077
262.909246548
263.525316781
264.281104085
265.165878582
266.168418212
267.27752154
268.482398348
269.77292969
271.13980932
272.574588544
274.069651035
275.618143183
277.213881463
278.851252715
280.52511782
282.230724644
283.96363283
285.719650975
287.494785833
289.285202999
291.087198808
292.897183164
294.711672756
296.527293097
298.340787046
300.149026815
301.94902511
303.737948284
305.513126019
307.272054701
309.01240196
310.732008222
312.428886448
314.101220165
315.747360034
317.365819175
318.955267467
320.51452495
322.042554534
323.538454155
325.001448593
326.43088107
327.826204793
329.186974495
330.512838099
331.803528504
333.058855618
334.278698656
335.462998856
336.611752673
337.725005629
338.802846875
339.845404631
340.852842521
341.825356879
342.763174974
343.666554129
344.535781577
345.371174934
346.173083055
346.941887089
347.678001492
348.3818748
349.053989967
349.694864137
350.305047741
350.885122885
351.435701017
351.957419927
352.450940177
352.916941027
353.356116044
353.769168417
354.156806202
354.519737466
354.858665527
355.174284244
355.4672735
355.73829483
355.987987307
356.216963644
356.425806589
356.615065586
356.785253745
356.936845105
357.070272204
357.185923938
357.284143705
357.365227879
357.429424506
357.476931285
357.507826299
357.522836183
260.2145763
260.381733292
260.721536344
261.233839233
261.907751258
262.731124145
263.690668944
264.772762872
265.964105524
267.252186825
268.625566064
270.073988256
271.588376508
273.160742224
274.78405047
276.452069351
278.159222877
279.900458392
281.671133288
283.466921432
285.28373765
287.117678031
288.964974494
290.821963074
292.685066087
294.550787935
296.415722771
298.276570466
300.130156261
301.973448559
303.803576935
305.617844571
307.413731632
309.188900786
310.941198757
312.668655784
314.369483086
316.042068627
317.684971583
319.296915685
320.876781621
322.423598652
323.936535703
325.41489209
326.858088137
328.265655765
329.637229203
330.972535822
332.271387171
333.533670213
334.759338893
335.948406086
337.100936131
338.217038047
339.296859653
340.340582682
341.348419028
342.320608158
343.257415701
344.159133121
345.026078341
345.858597109
346.657064861
347.421888786
348.153509832
348.852404351
349.519085184
350.154101961
350.758040556
351.331521581
351.875197995
352.389751855
352.875890361
353.334341326
353.765848236
354.171165061
354.551050936
354.906264855
355.237560409
355.545680712
355.83135346
356.095286276
356.33816225
356.560635827
356.763328941
356.946827524
357.11167831
357.258385995
357.387410724
357.499165899
357.594016288
357.672276514
357.734209726
357.780025546
357.80981353
357.824283284
258.264938482
258.451236177
258.829116609
259.396937763
260.140664675
261.044762268
262.092583649
263.267455295
264.55350996
265.936232837
267.402736553
268.9418159
270.54384747
272.200598802
273.90500009
275.650915895
277.432939046
279.246216675
281.086309753
282.94908251
284.830616159
286.727141819
288.634989555
290.550553139
292.470271959
294.390631319
296.308179045
298.219553344
300.121513363
302.010967994
303.884999711
305.740877364
307.57606086
309.388206259
311.175167078
312.934993339
314.665928107
316.366402168
318.03502737
319.670588882
321.272036366
322.838474331
324.369151902
325.863452316
327.320882367
328.741061997
330.12371407
331.468654384
332.775781857
334.045068945
335.276552315
336.470323941
337.626522761
338.74532717
339.8269485
340.871625749
341.879621659
342.851220273
343.78672593
344.686463664
345.550780772
346.380049346
347.174669388
347.935072196
348.661723604
349.355126751
350.015824068
350.644398255
351.241472104
351.807707124
352.343800998
352.850483969
353.328514375
353.778673473
354.201759844
354.598583507
354.969959997
355.316704436
355.639625805
355.939521348
356.217171282
356.473333713
356.708739911
356.924089866
357.120048225
357.297240578
357.45625013
357.597614746
357.721824369
357.829318794
357.920485769
357.995659453
358.05511914
358.099087391
358.127665894
358.141545496
256.112561802
256.322796159
256.74801022
257.384251974
258.213082883
259.214349715
260.366973692
261.65040297
263.045653778
264.535920386
266.106799804
267.746222967
269.444199353
271.192472873
272.984162442
274.813433169
276.67522056
278.565012969
280.478686925
282.412384569
284.362421421
286.325214856
288.297228228
290.274931083
292.254780162
294.233226222
296.206744596
298.171881711
300.125302356
302.063835286
303.984502821
305.884531096
307.76135596
309.612625451
311.436200877
313.230155374
314.99276911
316.722522287
318.418087181
320.078319168
321.702246506
323.289059111
324.838096783
326.348837187
327.820884007
329.253955406
330.647872902
332.002550506
333.317984099
334.594240908
335.831449208
337.029788337
338.189479327
339.310776393
340.39395964
341.439329219
342.447201183
343.417905152
344.351783844
345.249194331
346.110510851
346.936128783
347.726469414
348.481984978
349.203163502
349.89053297
350.544664466
351.166173932
351.755722461
352.314014969
352.841797427
353.339852701
353.80899537
354.250065707
354.663923204
355.05143986
355.413493467
355.750961051
356.064712504
356.355604553
356.624474943
356.872137047
357.099374704
357.306937547
357.495536619
357.665840511
357.818471844
357.954004238
358.072959667
358.17580621
358.262956164
358.334764576
358.391527957
358.433482389
358.460742776
358.473979384
253.731640849
253.972349561
254.457353934
255.179082828
256.112824333
257.23206825
258.509864382
259.920743273
261.441984318
263.054246083
264.74165563
266.491514381
268.293793021
270.140561449
272.025451453
273.943203631
275.889315174
277.859782973
279.850924485
281.859254305
283.881395081
285.914006461
287.95372415
289.997111776
292.040637166
294.080687786
296.113622637
298.135848563
300.143896065
302.13448529
304.104563001
306.051307118
307.972126626
309.864660638
311.726779808
313.55658502
315.352400305
317.112763263
318.83641559
320.522293066
322.169513674
323.777364463
325.345287834
326.872867721
328.359816195
329.805960822
331.211232624
332.575654497
333.89932976
335.182430707
336.425187129
337.627875059
338.790806033
339.914317347
340.998763657
342.044510397
343.051929243
344.021395912
344.953290269
345.847998721
346.705918537
347.527463751
348.313071994
349.063211708
349.778389012
350.459153692
351.106103727
351.719888062
352.301207356
352.850812707
353.369502431
353.85811717
354.31753367
354.748657642
355.152416155
355.52974985
355.881605351
356.20892789
356.512654368
356.79370672
357.052985708
357.291365028
357.509685848
357.708751737
357.889324071
358.052117902
358.197798329
358.326977363
358.440211249
358.537998246
358.620776778
358.688923967
358.742754507
358.782519042
358.808346181
358.820883583
251.089418307
251.369766174
251.931723566
252.761940051
253.826615823
255.090430487
256.518651944
258.079618567
259.746220596
261.496457181
263.313242623
265.183722772
267.09837866
269.050132575
271.033579026
273.044387976
275.078879522
277.133743462
279.20586663
281.29222895
283.389833178
285.49564185
287.606509069
289.719113844
291.829920309
293.935203467
296.031134321
298.113905141
300.17985232
302.225552715
304.247864685
306.243917704
308.211094389
310.147024309
312.049589326
313.916924628
315.747407256
317.539641733
319.292449429
321.004858307
322.67608911
324.30553961
325.892768545
327.437479437
328.939505435
330.398795561
331.815402013
333.18946803
334.521215846
335.810934229
337.058965689
338.265693571
339.431529602
340.556902435
341.642247827
342.688000951
343.694591334
344.662440676
345.591963695
346.483571875
347.337679786
348.154713392
348.935119633
349.679376399
350.388002066
351.061563739
351.7006836
352.306042829
352.878382925
353.418504306
353.927262467
354.405561936
354.854348674
355.274601367
355.667322352
356.033528517
356.374242612
356.690485077
356.983266394
357.253579986
357.502395452
357.73065233
357.939254134
358.129063005
358.300894739
358.455514497
358.593632988
358.715903285
358.822918155
358.915207857
358.993238404
359.05741027
359.108057268
359.145444948
359.169716803
359.1814957
248.143450628
248.476714948
249.139895603
250.110199164
251.34045818
252.783121205
254.393190372
256.131308756
257.965380214
259.870881544
261.830139338
263.830994829
265.86530718
267.927610232
270.014058781
272.121684071
274.247918429
276.39032646
278.54647643
280.713889892
282.890015552
285.072185795
287.257534799
289.442890261
291.624687759
293.799009248
295.961720494
298.108678841
300.235940599
302.339899654
304.417322213
306.465305118
308.481210859
310.462656861
312.407536597
314.314029578
316.180579013
318.005867501
319.788806975
321.528531221
323.224379168
324.875875311
326.482710675
328.044723481
329.56188175
331.034268789
332.46207019
333.845561707
335.185096912
336.481093812
337.734020405
338.944379696
340.112694902
341.239495758
342.325306684
343.370637621
344.375978086
345.341794958
346.26853413
347.156625996
348.006494266
348.81856747
349.593292058
350.331146045
351.032651937
351.698387951
352.328996571
352.925189941
353.487751709
354.017535424
354.515459631
354.982500265
355.419681021
355.828062572
356.208731518
356.562789643
356.891344018
357.195497901
357.476342546
357.734949538
357.972363676
358.189596172
358.387618343