/*--------------------------------*- C++ -*----------------------------------*\
| =========                 |                                                 |
| \\      /  F ield         | OpenFOAM: The Open Source CFD Toolbox           |
|  \\    /   O peration     | Version:  v1906                                 |
|   \\  /    A nd           | Web:      www.OpenFOAM.com                      |
|    \\/     M anipulation  |                                                 |
\*---------------------------------------------------------------------------*/
FoamFile
{
    version     2.0;
    format      ascii;
    class       volScalarField;
    location    "953";
    object      p;
}
// * * * * * * * * * * * * * * * * * * * * * * * * * * * * * * * * * * * * * //

dimensions      [0 2 -2 0 0 0 0];


internalField   nonuniform List<scalar> 
9216
(
268.166384312
268.252116227
268.4261228
268.688776326
269.038646061
269.474012441
269.992739185
270.592364381
271.27009474
272.022904367
272.84751777
273.740519271
274.69832032
275.71727596
276.793632839
277.923650511
279.103528373
280.329531397
281.597895952
282.904960706
284.247052299
285.620622788
287.022116774
288.448116727
289.895193251
291.360059465
292.839406244
294.330066341
295.828836393
297.332651246
298.838394718
300.343084115
301.843672117
303.33724157
304.820800847
306.291488477
307.746365029
309.182626995
310.597398034
311.987950769
313.351499811
314.685429186
315.987088766
317.254023481
318.483773493
319.674100183
320.82278974
321.927870502
322.98742034
323.999772
324.963328074
325.876755511
326.738817378
327.548563153
328.305190056
329.008235506
329.657474165
330.253105051
330.795670632
331.286212102
331.72618833
332.117580544
332.462777531
332.764596787
333.026136575
333.250737087
333.441867555
333.603121936
333.738093423
333.850303131
333.943058964
334.019407058
334.082051411
334.133359949
334.175337443
334.209670057
334.237738804
334.260695912
334.279505405
334.295007366
334.307909092
334.318801146
334.328153369
334.336346922
334.343699427
334.350234476
334.355803499
334.360388507
334.36402273
334.366795085
334.368817745
334.370245806
334.371223493
334.371827608
334.37213648
334.372246491
268.080701199
268.166857445
268.341496772
268.605361368
268.956879275
269.39426934
269.915357664
270.517632685
271.198267671
271.954185486
272.782080563
273.678487338
274.639794193
275.662310743
276.742269922
277.875891707
279.059371827
280.288941468
281.560842771
282.871385381
284.216909915
285.593842804
286.998649338
288.42788833
289.878156378
291.346143708
292.828571162
294.322248283
295.824004449
297.330750037
298.839403137
300.346954579
301.850391616
303.346767405
304.833123676
306.306565369
307.764183933
309.203137731
310.6205778
312.013734081
313.37984489
314.716248124
316.020314613
317.289542008
318.521490756
319.713876929
320.864508472
321.971372713
323.032571043
324.046398665
325.011279374
325.925840132
326.788854034
327.599319177
328.356423431
329.059638828
329.708715955
330.30378962
330.84538549
331.334504503
331.772615695
332.16171301
332.504248505
332.803104469
333.061475356
333.282753528
333.470470864
333.628294941
333.759925295
333.868975347
333.958834096
334.032591011
334.092976734
334.142355725
334.18271875
334.215713251
334.242674242
334.26469589
334.2827045
334.29752418
334.309862699
334.320297582
334.329284381
334.337183061
334.344261597
334.350642676
334.356142389
334.360630707
334.364237568
334.367007538
334.368999788
334.370405674
334.371381109
334.371963151
334.372247303
334.372363898
267.905874561
267.993122017
268.169506464
268.4359663
268.79088763
269.23242692
269.758338648
270.366026663
271.05258297
271.814841221
272.649417154
273.552761823
274.521196244
275.550959281
276.638232676
277.779181175
278.969966669
280.206780356
281.485846548
282.803447987
284.155920794
285.539674656
286.951180689
288.386988191
289.843707071
291.318022642
292.806674051
294.306468275
295.814255728
297.326944486
298.841474215
300.354831545
301.864023487
303.366094961
304.858103192
306.337138522
307.800301261
309.244726995
310.6675674
312.066020862
313.437318174
314.778758439
316.087699369
317.361596789
318.597997438
319.794578541
320.949139338
322.059635997
323.124168021
324.141005289
325.108569017
326.025453685
326.89041038
327.702376493
328.460479315
329.16409282
329.812877632
330.406865029
330.946512153
331.432759073
331.86706122
332.25146422
332.58853029
332.881305441
333.133191438
333.347683171
333.528404583
333.679185778
333.803951801
333.906529234
333.990470188
334.058958202
334.114767084
334.160258027
334.197385194
334.227719674
334.252488613
334.272656643
334.28905836
334.302502395
334.313709992
334.323236924
334.331506156
334.338855462
334.345532674
334.351622252
334.356819834
334.361106849
334.364660661
334.367401958
334.369341992
334.37073718
334.37168151
334.37223841
334.372538505
334.372687746
267.639744651
267.728395082
267.907477132
268.177949039
268.538120765
268.98605153
269.519381782
270.135388212
270.831032189
271.603013767
272.447821422
273.361783311
274.341110566
275.3819405
276.480369635
277.632486672
278.834394408
280.082232735
281.372190531
282.700520334
284.063542166
285.457651943
286.879319279
288.325091552
289.791587444
291.275498211
292.773578312
294.282645075
295.799567491
297.321265229
298.844696567
300.3668577
301.884770858
303.395484997
304.896065442
306.383597321
307.855178309
309.307926373
310.738977263
312.145497957
313.524690074
314.873809528
316.19017568
317.471195819
318.71437756
319.917354136
321.077894882
322.19392507
323.263528183
324.284954617
325.256613021
326.177068744
327.045032464
327.859364501
328.619086185
329.323424096
329.971875848
330.564309556
331.10105889
331.582965104
332.011420165
332.388573027
332.717141472
333.000466021
333.242368619
333.446432141
333.616336434
333.756173773
333.870272583
333.962836803
334.037678895
334.098119928
334.146984469
334.186623831
334.218931615
334.245359661
334.266946431
334.284409216
334.298403338
334.309758632
334.319273283
334.327460938
334.334674792
334.34123202
334.347351137
334.352978516
334.357802112
334.361886806
334.365268582
334.367919997
334.36989353
334.371276215
334.372198174
334.372770411
334.373098155
334.37325955
267.281000689
267.371512848
267.554289285
267.830259964
268.197621795
268.654295263
269.197759455
269.825114308
270.533137901
271.318346304
272.177050731
273.105412202
274.099490044
275.155285711
276.268778924
277.435958866
278.652847762
279.915520506
281.220117583
282.562855512
283.940031714
285.348028357
286.783311607
288.242431048
289.722015188
291.218768061
292.729462324
294.250934131
295.780074768
297.313824642
298.84916425
300.383108124
301.912696086
303.434988203
304.947057658
306.445988221
307.928870494
309.39280385
310.834898117
312.252281962
313.642111777
315.001587708
316.327970036
317.618601822
318.8709301
320.082530447
321.251126157
322.374606136
323.451032161
324.478640735
325.455830708
326.381147089
327.253255034
328.070924348
328.833026898
329.538575007
330.186811834
330.777349897
331.310349581
331.786493972
332.206977216
332.574168538
332.890926745
333.161074935
333.389385253
333.579290545
333.73430651
333.858928489
333.958203558
334.036963161
334.099389207
334.148955854
334.18852171
334.220411527
334.246440216
334.267901934
334.285544818
334.299615927
334.310407032
334.318907854
334.326198593
334.332675846
334.338526301
334.34408518
334.349515956
334.354584215
334.358996408
334.362829
334.366111869
334.368717027
334.370668486
334.372070246
334.373022596
334.37362697
334.37398798
334.374166851
266.827705776
266.920602687
267.108143287
267.391207214
267.767836377
268.235763938
268.792252821
269.434168418
270.158046458
270.960161933
271.836594674
272.783289893
273.796111695
274.870889178
276.003454385
277.189672894
278.42546705
279.706833254
281.029853506
282.390702832
283.78565262
285.211071435
286.663423044
288.139263103
289.63523389
291.148058473
292.674533416
294.211521389
295.755942604
297.304766513
298.855002537
300.403691523
301.947896567
303.484695189
305.011171567
306.524411059
308.021495873
309.499504322
310.955512561
312.386601368
313.789866619
315.16243576
316.501488255
317.804281395
319.06817819
320.290677087
321.469438748
322.602307694
323.687323715
324.722719237
325.706901546
326.638415799
327.515898587
328.338025546
329.103480042
329.810972707
330.459355914
331.047842643
331.576395225
332.045494747
332.455715631
332.810056542
333.111199561
333.363681205
333.574818864
333.746885544
333.88256489
333.987049382
334.06675565
334.127552598
334.174081579
334.2099039
334.237842093
334.260168362
334.278624664
334.294350903
334.307705836
334.318009874
334.32471137
334.32937376
334.333980041
334.338509965
334.34270525
334.347113289
334.351753167
334.356215061
334.360324734
334.364032194
334.367211882
334.369730492
334.371721899
334.373199559
334.374204058
334.374895143
334.375308723
334.375516198
266.277378828
266.373244357
266.56672293
266.858622772
267.246782382
267.728689699
268.301326663
268.961256016
269.70470289
270.527635985
271.425843486
272.395001417
273.430732602
274.52865576
275.684424567
276.893757598
278.152459891
279.456437606
280.801706729
282.184397278
283.600753731
285.04713287
286.519999386
288.015920128
289.531557035
291.063659364
292.609055064
294.164641736
295.727376936
297.294268217
298.862362626
300.42873623
301.990483375
303.544706471
305.088506289
306.618973742
308.133183513
309.628190715
311.101031255
312.548727177
313.968297713
315.356776963
316.711238355
318.028825635
319.306788868
320.542523128
321.733605437
322.877825689
323.973203394
325.017986899
326.0106245
326.949709778
327.833895394
328.661790411
329.431864669
330.142410197
330.791678306
331.378191804
331.901832827
332.363015927
332.760277711
333.098864398
333.379763782
333.608241788
333.799476827
333.950636274
334.061918656
334.140100021
334.194480776
334.232641515
334.25964468
334.278855221
334.292881036
334.303906586
334.313672762
334.323300305
334.332822698
334.33967276
334.341044348
334.340186378
334.341891904
334.344584654
334.346751277
334.349947898
334.35383618
334.357761733
334.361659304
334.365271451
334.368444197
334.371079047
334.373188314
334.374772568
334.375871484
334.376651513
334.377118876
334.377350556
265.626929956
265.726419999
265.92714604
266.229819365
266.632015546
267.13090677
267.72311539
268.404819889
269.171854435
270.019805931
270.944102891
271.940093242
273.003109474
274.128520662
275.311772052
276.548413358
277.834117491
279.164691382
280.536080676
281.944369721
283.385778196
284.856655324
286.353472472
287.872814642
289.411371228
290.965926237
292.533348074
294.110578917
295.694623652
297.282538352
298.871418204
300.458385119
302.040574872
303.615124331
305.179158955
306.729781428
308.264062052
309.779032232
311.271682057
312.73896374
314.177802058
315.5851135
316.957834652
318.292960247
319.587589484
320.838977832
322.044589509
323.202142928
324.309641079
325.365374805
326.367890702
327.31591163
328.208205146
329.043400159
329.819770815
330.535055235
331.186547714
331.771375912
332.289877108
332.743521683
333.123848794
333.444928141
333.699663639
333.891974207
334.063754947
334.192380716
334.272908194
334.316378807
334.338628652
334.349713138
334.354003479
334.353841174
334.351484776
334.349311981
334.349262028
334.352887055
334.360652164
334.36606095
334.359553481
334.349229268
334.348774516
334.350761392
334.350020273
334.352081023
334.355510024
334.358958958
334.362859892
334.366501289
334.369890991
334.372807267
334.375115321
334.376870192
334.37811672
334.378939056
334.379469339
334.379721069
264.87258735
264.976448077
265.185906971
265.501543145
265.920594875
266.439830302
267.055415174
267.763044317
268.558064834
269.435593509
270.390621622
271.418103964
272.513030485
273.670480857
274.88566323
276.153939457
277.470839125
278.832065023
280.233492175
281.671162498
283.141276473
284.640183112
286.164368866
287.710446133
289.275141498
290.855283959
292.447792983
294.049666424
295.657968016
297.269814387
298.882361301
300.492789258
302.098288214
303.696041821
305.283211493
306.856921017
308.414242688
309.952186248
311.467692382
312.957632659
314.418818256
315.848019532
317.241998508
318.597555065
319.911586595
321.181158038
322.403576499
323.576461316
324.697796329
325.765949875
326.779645929
327.737867549
328.63967557
329.483916098
330.26881499
330.991448887
331.647609192
332.230938541
332.743884723
333.194593419
333.548466976
333.855549534
334.077043765
334.206869362
334.396048677
334.512742826
334.550609618
334.538020442
334.5066069
334.473804451
334.446799929
334.425196432
334.406676524
334.390920556
334.379885946
334.37792514
334.391548357
334.403046634
334.381585812
334.351239581
334.353267729
334.358357109
334.351365141
334.352734811
334.356674225
334.359444459
334.363831333
334.367665447
334.371602207
334.374959137
334.377602306
334.379561901
334.380944614
334.381806324
334.382399398
334.382662205
264.00980394
264.11889785
264.338801006
264.669913125
265.109039233
265.652431218
266.295676327
267.033863008
267.861735069
268.773834929
269.764627917
270.828603941
271.960355641
273.154634059
274.406384627
275.710766772
277.063160933
278.459166301
279.894592404
281.365446782
282.867920673
284.398373812
285.953319244
287.529408445
289.123417034
290.73223091
292.352832775
293.982288653
295.617734183
297.25636027
298.895397732
300.532100857
302.16372948
303.787529848
305.40071452
307.000442047
308.583797405
310.147774885
311.689265334
313.205050659
314.691808417
316.146130294
317.564557498
318.943636063
320.27999255
321.57042844
322.812026282
324.002256642
325.139067366
326.220936923
327.246865391
328.2162812
329.128826842
329.983963772
330.780309813
331.514420546
332.180023054
332.760668557
333.264132387
333.732290742
334.035180812
334.393447333
334.584659908
334.488238221
334.411017931
334.457563465
334.505199091
334.512752523
334.499948488
334.480885786
334.461644178
334.445354665
334.433552638
334.427193303
334.428422233
334.442305872
334.472618434
334.487424305
334.418613089
334.319095021
334.349168178
334.371934688
334.347551709
334.350749092
334.358057317
334.35851586
334.364620245
334.368509872
334.373543223
334.377711794
334.380817491
334.38299864
334.384431757
334.385331594
334.385936696
334.386207511
263.033137789
263.148477141
263.38082827
263.730345343
264.193275299
264.765208532
265.440998656
266.214974425
267.081134466
268.033323252
269.0653786
270.171247222
271.345068204
272.581227397
273.874387157
275.219496894
276.611789531
278.046768702
279.520190363
281.028041833
282.566520102
284.132010805
285.721068371
287.330397722
288.956837347
290.597343644
292.248976039
293.908882548
295.574285117
297.242464296
298.910742509
300.576465697
302.236982667
303.889622216
305.531668204
307.160333166
308.772731557
310.365854373
311.936547681
313.481498345
314.997231336
316.480123603
317.926440252
319.332397935
320.694259443
322.008458584
323.271750225
324.481369895
325.635182125
326.731787799
327.770564014
328.751611142
329.675565419
330.543196952
331.354604975
332.106947764
332.793673435
333.368763461
333.852467288
334.480092736
334.51927945
334.438023223
334.488390175
334.514710303
334.490849812
334.491625852
334.50585343
334.504418264
334.491614828
334.474587863
334.457791532
334.444105887
334.434523438
334.429352034
334.428850914
334.433300401
334.440507258
334.434728412
334.41279398
334.410007266
334.449643091
334.450580803
334.320937809
334.336916165
334.361612988
334.353680127
334.365950854
334.368453476
334.375970535
334.381464534
334.385029342
334.387298283
334.388709213
334.389564983
334.390104525
334.390366459
261.936097393
262.058889879
262.306071254
262.677458951
263.168575762
263.77416032
264.488132622
265.303868315
266.214446601
267.21286712
268.292224679
269.44583871
270.667339572
271.950717118
273.290339175
274.680947724
276.117640337
277.595842871
279.111278377
280.659935333
282.238037463
283.842016048
285.468485286
287.114220456
288.776138715
290.451281871
292.136800688
293.829939887
295.528023217
297.228437619
298.928615664
300.626015573
302.318097959
304.002298996
305.676000026
307.336494008
308.980949746
310.606375846
312.209586982
313.787176774
315.335502552
316.850689497
318.328662308
319.765214034
321.156119584
322.497298444
323.785021724
325.016147815
326.188354994
327.300331931
328.351897344
329.344027869
330.278799401
331.159193519
331.988604286
332.768412205
333.508014416
334.084500034
334.356767957
334.438643545
334.513481017
334.506106911
334.50464705
334.509897192
334.497379414
334.493781548
334.49578353
334.490125001
334.477561479
334.462063381
334.447524214
334.436410567
334.428951775
334.425151174
334.424576048
334.426133892
334.427590496
334.423281526
334.413560966
334.411285924
334.420436375
334.409537234
334.405745057
334.430855982
334.408174607
334.330770217
334.36974519
334.364936471
334.379515827
334.387005451
334.390691648
334.392643282
334.393783115
334.394468512
334.394853477
334.39506905
260.710940894
260.842650071
261.107539264
261.504959845
262.02948735
262.674755736
263.433490893
264.297869443
265.259836217
266.31137192
267.444698452
268.652420705
269.927610272
271.263841123
272.655188917
274.096205703
275.581880019
277.107590512
278.669058618
280.262304043
281.883604785
283.529462514
285.196573024
286.881801334
288.582160548
290.294793792
292.016958247
293.746010509
295.479392084
297.214614021
298.949239208
300.680861473
302.407080044
304.125468794
305.833539937
307.528702235
309.208214437
310.869135618
312.508275207
314.122147288
315.7069359
317.258480792
318.772296146
320.243636921
321.667628785
323.039472627
324.354726573
325.609645751
326.801536512
327.929063695
328.992465265
329.993691554
330.936581317
331.827222754
332.676162428
333.506884326
334.450674459
334.392286335
334.400977812
334.453752407
334.495455127
334.499060568
334.49776777
334.495201498
334.484881706
334.477721596
334.472617232
334.46386356
334.451359799
334.437476573
334.425572278
334.417290102
334.412251528
334.410322378
334.410883835
334.412722214
334.414176897
334.412874946
334.408989154
334.407814794
334.410776511
334.407288284
334.406700425
334.411696723
334.409473988
334.42394256
334.423275009
334.345420911
334.38544197
334.395893221
334.39832066
334.399146838
334.399559001
334.399891263
334.400064436
334.400223558
259.348412667
259.490841946
259.776969541
260.205497449
260.769748613
261.461912284
262.273177475
263.194207073
264.215546132
265.32795132
266.522628866
267.791383515
269.126690294
270.521705743
271.970236828
273.466683995
275.005972144
276.583479276
278.194969459
279.836533401
281.50453811
283.195585228
284.906477274
286.63419024
288.375851488
290.12872154
291.890178924
293.657706763
295.428880017
297.201351661
298.972836169
300.741088592
302.50387759
304.258951028
306.003993657
307.736576294
309.454096737
311.153713612
312.832275432
314.486249597
316.111658555
317.704035139
319.258413568
320.769379137
322.231203126
323.638090354
324.984553669
326.265899946
327.47876588
328.621569219
329.694797933
330.701112296
331.645148315
332.533611071
333.379439394
334.228406862
334.393832392
334.471880732
334.446241821
334.463181835
334.481437414
334.480550076
334.474256697
334.465298189
334.45263814
334.44107212
334.430923207
334.419858361
334.40751123
334.396064183
334.387795051
334.382744056
334.380695814
334.381456243
334.384344788
334.388280428
334.392071028
334.39462302
334.396221375
334.398991626
334.403226406
334.404791875
334.40579739
334.409472687
334.411168583
334.417351208
334.417176067
334.422263669
334.42159406
334.414548034
334.408620339
334.406528658
334.405758974
334.405562845
334.40560286
334.405736988
257.83739499
257.992803541
258.30457232
258.770488399
259.382199004
260.129985594
261.003045366
261.990122952
263.080036422
264.262080086
265.526293344
266.863605992
268.265881834
269.725888049
271.237217222
272.794185451
274.391724041
276.025276819
277.690709575
279.384234505
281.102349378
282.841789939
284.599492982
286.372567925
288.158274712
289.954006744
291.757277469
293.565709692
295.377025908
297.189037902
298.999632977
300.806754691
302.608375558
304.402459903
306.186915802
307.959534962
309.717919927
311.459398815
313.180928764
314.878991821
316.549490273
318.187654523
319.787984313
321.344255237
322.849635119
324.29696129
325.679226421
326.990278852
328.225647531
329.383223329
330.463653688
331.470248696
332.408978016
333.292529034
334.166800941
334.300115039
334.381252804
334.433525728
334.435741991
334.443511975
334.447330969
334.439235617
334.425804182
334.410373594
334.393812292
334.378582124
334.365419478
334.353491407
334.342477924
334.334443072
334.330528962
334.329599816
334.33159068
334.336283896
334.342997014
334.350802779
334.358802687
334.366356151
334.373555055
334.38110079
334.388861071
334.395190666
334.400828928
334.407077139
334.411582984
334.416253846
334.419717669
334.426305428
334.44189741
334.439819761
334.416290469
334.412626207
334.411494859
334.411056813
334.411308587
334.411533175
256.164440875
256.335709244
256.678701377
257.189900956
257.858683132
258.672783799
259.618799785
260.683036207
261.852183327
263.113802378
264.456616662
265.870632295
267.347127543
268.878553773
270.458387854
272.080967514
273.74133198
275.435080856
277.158257331
278.907256136
280.678753962
282.469657938
284.277068059
286.098249469
287.930612124
289.771695843
291.619160099
293.470777322
295.324428514
297.178098375
299.029866891
300.877893739
302.720392629
304.555592622
306.381685387
308.196756231
309.998697431
311.785102304
313.553139196
315.299406726
317.019774944
318.709224361
320.361705233
321.970058363
323.526062202
325.020701148
326.444768696
327.789872831
329.049785112
330.221500818
331.305643859
332.306798436
333.238078999
334.148528349
334.269332273
334.327567727
334.377527598
334.405897626
334.406161197
334.399487091
334.387504798
334.368854443
334.347169873
334.325350533
334.304793303
334.287016349
334.27270019
334.261585564
334.253575645
334.250221011
334.251381932
334.255631433
334.262906208
334.272926792
334.285016579
334.298351028
334.312167275
334.325919047
334.339440507
334.352798351
334.365722092
334.377466788
334.388228982
334.398294492
334.406714984
334.41408183
334.419986317
334.425406502
334.434103108
334.437183184
334.429530731
334.416301517
334.416399387
334.416028646
334.417075731
334.417641249
254.313139637
254.504008472
254.885426112
255.45199298
256.189959251
257.083626786
258.116173005
259.270792247
260.531561809
261.884014416
263.315429341
264.814891776
266.373186043
267.982589455
269.636623552
271.329804658
273.057419823
274.815341199
276.599881769
278.407689301
280.235671641
282.080945745
283.940802936
285.812684921
287.694166694
289.582945067
291.476832398
293.373755758
295.271760026
297.169011977
299.063800402
300.954527425
302.839686702
304.717825275
306.587487635
308.447139636
310.29506925
312.129260578
313.947236796
315.745869291
317.52115219
319.267948563
320.979725987
322.648325239
324.263847576
325.81481486
327.288834829
328.674029226
329.961410169
331.146377178
332.229847196
333.223854218
334.18053845
334.28269507
334.313856811
334.339132674
334.35903648
334.361120808
334.344966303
334.321317799
334.294059364
334.264346721
334.234713748
334.207434932
334.18386944
334.165043051
334.151415193
334.142800482
334.139768325
334.142559831
334.149484217
334.159884443
334.173641184
334.19032023
334.209213908
334.229533263
334.250544836
334.271666064
334.292523509
334.312861364
334.332312205
334.350376736
334.366932435
334.381898484
334.394809108
334.405731573
334.41437792
334.420814048
334.426072337
334.427902936
334.424476498
334.419010775
334.421993631
334.42022641
334.423115225
334.424342718
252.263240213
252.478664477
252.907971747
253.542998494
254.36562991
255.355483668
256.491210977
257.752034843
259.118844997
260.574845529
262.105800291
263.699967941
265.347834476
267.041744
268.775507295
270.544040795
272.343064473
274.168867814
276.018141018
277.887860964
279.775219131
281.67757802
283.592445136
285.517456035
287.450362455
289.3890244
291.331408362
293.275593436
295.219785297
297.162333483
299.101745203
301.036687431
302.965972187
304.888520877
306.803307545
308.709278394
310.605243846
312.489736121
314.360823957
316.21587529
318.051258051
319.861972946
321.641218982
323.379919823
325.066299162
326.685711339
328.221152712
329.655142274
330.974143063
332.17150094
333.254874925
334.279363823
334.356322214
334.348262992
334.338181757
334.328965709
334.312435705
334.284648806
334.247153192
334.20590389
334.164430642
334.124560704
334.088219629
334.057059065
334.032125443
334.014066371
334.003124962
333.999132227
334.002290232
334.011606502
334.025191526
334.042772183
334.064095356
334.08857941
334.115469586
334.14396596
334.173307428
334.202832761
334.232006684
334.260373319
334.287464163
334.312798211
334.336065035
334.357000609
334.375232256
334.39060817
334.402906191
334.412029095
334.418170982
334.420577989
334.418790976
334.413238385
334.408265616
334.420338159
334.42996973
334.432299092
249.989418675
250.236104238
250.725983959
251.446762542
252.374129284
253.481243462
254.740733086
256.126758294
257.616365455
259.190167923
260.832459182
262.530920212
264.276093022
266.060770087
267.87940696
269.727620558
271.601798236
273.498817655
275.415862613
277.35031381
279.299691951
281.261632845
283.233877816
285.214268535
287.200740965
289.191319975
291.184120029
293.177359238
295.169387927
297.158726163
299.144098373
301.124452109
303.098953243
305.066954994
307.027942086
308.981450366
310.926956533
312.863727771
314.790617294
316.705789176
318.606351435
320.487869892
322.343727786
324.164316384
325.936072592
327.640554679
329.254152054
330.749632465
332.106648436
333.32294486
334.455359488
334.505115292
334.443390058
334.385062267
334.334794622
334.283474302
334.228873858
334.171000485
334.111436294
334.053530776
333.99982502
333.951872566
333.910946226
333.878035915
333.853734471
333.838324211
333.831843313
333.834012285
333.844127041
333.860230506
333.88114495
333.906634248
333.936256953
333.969315496
334.00500353
334.042483922
334.080942654
334.119630914
334.157882605
334.195095609
334.230697049
334.264146907
334.295005539
334.322889149
334.34741565
334.368332443
334.385430696
334.398608153
334.407931483
334.413204737
334.414433684
334.411095237
334.402300578
334.404842418
334.440753421
334.443105748
247.459507858
247.746749986
248.314560782
249.144338168
250.202831261
251.454208723
252.863058702
254.397120983
256.028898572
257.736271232
259.502323053
261.31465602
263.164458715
265.045547451
266.953519422
268.885082792
270.837575254
272.808650701
274.796100118
276.797768759
278.811534736
280.835318748
282.867102268
284.904938808
286.946953198
288.991333179
291.036327118
293.080264504
295.121604962
297.1590068
299.191394393
301.218001119
303.23837758
305.252364687
307.260039364
309.261639103
311.257459848
313.247711215
315.232309726
317.21058749
319.180883847
321.139967773
323.082214112
324.998397783
326.873965984
328.686694081
330.403654332
331.979989937
333.393702942
334.700985474
334.733417336
334.606836539
334.4886179
334.386549659
334.289073382
334.194582828
334.104280901
334.018926607
333.939569877
333.867893549
333.805221881
333.752306472
333.709621814
333.677454519
333.65589289
333.644889659
333.644362351
333.653477258
333.670512918
333.693508305
333.722006369
333.755643825
333.793794349
333.835676342
333.880438452
333.927202078
333.975098368
334.023298842
334.071030705
334.117574154
334.162253322
334.204442667
334.243596205
334.279236546
334.310942603
334.338406728
334.36142168
334.379916361
334.394005715
334.403872466
334.410019822
334.412833728
334.411506874
334.41494847
334.483449829
334.462919969
244.631894354
244.972931595
245.64298383
246.61359059
247.838395114
249.268958147
250.859141927
252.568635654
254.364746301
256.222742381
258.12513534
260.060339311
262.02112205
264.003158096
266.003853676
268.021493377
270.054684807
272.10204448
274.162060028
276.233068562
278.313300116
280.400945133
282.494214839
284.591374736
286.690744344
288.790674014
290.889524427
292.985689207
295.077672108
297.16420688
299.244376489
301.317692062
303.38411464
305.444026452
307.498172879
309.547598111
311.593565584
313.637438411
315.680494051
317.723649638
319.767066371
321.809571433
323.847751619
325.874501217
327.876538259
329.829812158
331.690676024
333.389064215
334.971085639
335.019452206
334.830038783
334.648618687
334.489126734
334.337295518
334.193001105
334.059532682
333.938692385
333.831037498
333.73677524
333.656099371
333.58895603
333.535016586
333.493854613
333.465045358
333.448191814
333.443008342
333.44940631
333.465387452
333.488557517
333.518244379
333.554109783
333.595564334
333.641866775
333.69219813
333.745686042
333.801427849
333.858516445
333.916062499
333.973209068
334.02913833
334.083076076
334.134302664
334.182172708
334.226120935
334.265668987
334.3004595
334.330267715
334.355028087
334.374868203
334.390067757
334.401151306
334.408985019
334.415056301
334.42113265
334.404554154
334.455614779
241.451582261
241.865873394
242.673082216
243.8289225
245.267558853
246.922812913
248.734325776
250.651896108
252.637219429
254.663589928
256.71421069
258.779799635
260.856118583
262.941865254
265.037112182
267.14228609
269.257590954
271.382755228
273.516994736
275.659102873
277.807600143
279.960890005
282.117381323
284.275549668
286.433928038
288.591043124
290.745343312
292.895211455
295.039082826
297.175654621
299.304092539
301.424162311
303.536260977
305.641366367
307.74095813
309.836970834
311.931759719
314.028031102
316.128703741
318.236688068
320.354577932
322.484199987
324.625909433
326.777368983
328.930934828
331.069182748
333.15907732
335.154881514
335.289583683
335.069850114
334.843136023
334.634242944
334.428074429
334.228720168
334.044235835
333.87933834
333.735807612
333.61353173
333.511427677
333.428063837
333.361887629
333.311372448
333.275170117
333.252192508
333.241635384
333.243074296
333.25616848
333.27822003
333.306879956
333.342627106
333.38502455
333.433314882
333.486726177
333.544454396
333.605646031
333.669408719
333.734826736
333.80097623
333.866939456
333.931817688
333.994744714
334.054903911