/*--------------------------------*- C++ -*----------------------------------*\
| =========                 |                                                 |
| \\      /  F ield         | OpenFOAM: The Open Source CFD Toolbox           |
|  \\    /   O peration     | Version:  v1906                                 |
|   \\  /    A nd           | Web:      www.OpenFOAM.com                      |
|    \\/     M anipulation  |                                                 |
\*---------------------------------------------------------------------------*/
FoamFile
{
    version     2.0;
    format      ascii;
    class       volScalarField;
    location    "570";
    object      pa;
}
// * * * * * * * * * * * * * * * * * * * * * * * * * * * * * * * * * * * * * //

dimensions      [0 2 -2 0 0 0 0];


internalField   nonuniform List<scalar> 
9216
(
978.686359644
978.323883974
977.587408164
976.473770919
974.986648944
973.130318811
970.910173003
968.332589967
965.404914347
962.135346989
958.532929634
954.607424957
950.369304018
945.829620773
941.00000537
935.892540046
930.5197616
924.894545124
919.030117947
912.939956384
906.637811901
900.137624162
893.453558239
886.599935186
879.591277305
872.442255456
865.167737899
857.782751981
850.30253114
842.742487307
835.118250759
827.445648406
819.740728894
812.019743282
804.299150541
796.595593883
788.925881008
781.306952
773.755830957
766.289582323
758.92523298
751.679715974
744.569764884
737.611845351
730.82202503
724.215892765
717.808406551
711.613797071
705.645393214
699.915503277
694.435216549
689.214257836
684.260771335
679.581159881
675.179878715
671.059299315
667.219566337
663.658546911
660.371807351
657.352698023
654.592480629
652.08056705
649.804783679
647.751707522
645.906967325
644.255581295
642.78226409
641.471758485
640.309113254
639.279931932
638.370549276
637.56815821
636.860887848
636.237838427
635.689098624
635.205719576
634.779688396
634.40385721
634.071890712
633.77817661
633.517767031
633.286282153
633.079840453
632.894860866
632.728132389
632.583124515
632.463019168
632.36648862
632.292284202
632.237510224
632.198866271
632.172471867
632.154883571
632.144245339
632.138900148
632.13703312
979.048428491
978.684802305
977.947058599
976.830359987
975.338927263
973.477189724
971.250619553
968.665670692
965.729746929
962.451124989
958.838907877
954.902937741
950.653746692
946.102466846
941.260784303
936.140852797
930.755255573
925.116928194
919.239131899
913.135389727
906.819473287
900.305354414
893.60720528
886.739365694
879.716354473
872.552850546
865.263711894
857.863967139
850.368837332
842.793733757
835.154277007
827.466295482
819.745836982
812.00916292
804.272744896
796.55324921
788.86751397
781.232518746
773.665338286
766.183094368
758.802884896
751.541717502
744.416415544
737.443535078
730.639250804
724.019257867
717.598639455
711.391751614
705.412070079
699.672051694
694.182955121
688.954673066
683.995528201
679.312085837
674.908950552
670.788601468
666.951248094
663.3947565
660.114629354
657.104075881
654.354153487
651.854006583
649.591169755
647.551914161
645.72156766
644.084839609
642.626148463
641.329963886
640.18111015
639.165017999
638.267903899
637.476887479
636.780059821
636.16651327
635.626350473
635.150661138
634.731483991
634.361737767
634.035154652
633.74619804
633.48999513
633.262260672
633.059248001
632.877724057
632.714832147
632.571852156
632.453103927
632.359023146
632.286016091
632.231933069
632.194472643
632.168978414
632.151757294
632.141727554
632.13693414
632.135000077
979.786447002
979.41965827
978.677674518
977.554617265
976.054740837
974.182537925
971.943572939
969.344410679
966.392569456
963.09645413
959.46529381
955.509066234
951.238431146
946.664653052
941.799536817
936.655355201
931.244792255
925.580881041
919.676959163
913.546620603
907.203685961
900.662170265
893.936268294
887.040337961
879.98889888
872.796628854
865.478372137
858.049145121
850.52414968
842.918783255
835.248652284
827.529580725
819.777617805
812.009040338
804.2403479
796.488252347
788.769655231
781.101619137
773.501322967
765.986011914
758.572929126
751.279244314
744.121963704
737.117840196
730.283265576
723.634165532
717.185876505
710.953024766
704.949384126
699.187730792
693.679671301
688.435461342
683.463796765
678.771599303
674.363792128
670.243097902
666.40986956
662.861986678
659.594824483
656.601307428
653.872060002
651.395663177
649.159030069
647.147804655
645.346693551
643.739768778
642.310821599
641.043749458
639.922906108
638.933370148
638.061120816
637.293134832
636.617431788
636.023088623
635.500240083
635.040054335
634.634682542
634.277178813
633.961417246
633.682007093
633.43421725
633.213901783
633.017443955
632.841731147
632.683779216
632.545284354
632.432895611
632.343925941
632.273292803
632.221295111
632.186158351
632.161787722
632.145835185
632.136712199
632.13190223
632.129521436
980.907894962
980.537436173
979.78892658
978.656081148
977.143239175
975.254997489
972.997058523
970.376149717
967.399967795
964.077110411
960.417005751
956.429836376
952.126464237
947.518353365
942.617497248
937.436347036
931.987747424
926.284876103
920.341193064
914.170395451
907.786383285
901.203231613
894.435173155
887.496587065
880.401996507
873.166071062
865.803635373
858.329680825
850.75938041
843.108104563
835.391437426
827.625190395
819.825413469
812.008402242
804.190697066
796.389075809
788.620534958
780.902261991
773.251593237
765.685962134
758.222832069
750.879620885
743.673611469
736.621857169
729.741076209
723.047544013
716.556975949
710.284407336
704.244059955
698.44919823
692.911961409
687.643173147
682.652117822
677.946292278
673.531138519
669.409786416
665.582834083
662.048203391
658.801085372
655.833966609
653.136782144
650.697188056
648.501093976
646.533179832
644.777215012
643.216279483
641.833158848
640.610836242
639.532927998
638.583983514
637.749643057
637.01669239
636.373062179
635.807815744
635.311143684
634.874343393
634.489754145
634.15064859
633.85112563
633.586017461
633.350806344
633.14154131
632.954769035
632.787478133
632.636598838
632.506322262
632.402225845
632.319068424
632.254317827
632.206469134
632.172887512
632.150308931
632.13587028
632.127262943
632.122455621
632.120096883
982.415769656
982.040595421
981.283259274
980.137147062
978.606735138
976.696772561
974.413152386
971.762823616
968.753728065
965.394726618
961.695521546
957.666575264
953.319028141
948.664616495
943.715593239
938.484652245
932.984858585
927.229585559
921.23246011
915.007317164
908.568163696
901.929152486
895.104565383
888.108805526
880.956397396
873.661993915
866.240388827
858.706533682
851.07555731
843.362787269
835.583771686
827.754298281
819.890411885
812.008427154
804.12493369
796.256793505
788.421126936
780.635287414
772.916821701
765.28341722
757.752834284
750.342826632
743.071049607
735.954960998
729.01171464
722.2580518
715.710188864
709.383703239
703.293411115
697.453232756
691.876032535
686.573424127
681.555527678
676.83067723
672.405086213
668.282504687
664.463918028
660.94734452
657.727756741
654.797049328
652.144177766
649.755384015
647.615089255
645.70668024
644.012724682
642.514918277
641.194571054
640.033330986
639.013780891
638.119776985
637.336558997
636.650714906
636.05009646
635.523763051
635.061984105
634.656250661
634.299191201
633.984402465
633.706301659
633.460028322
633.241359416
633.046606311
632.872526032
632.716112931
632.575146618
632.456128295
632.362043439
632.286814982
632.227538755
632.184118429
632.154158685
632.133865872
632.120529368
632.1124879
632.107872415
632.105582278
984.314714634
983.933626115
983.165094472
982.002126209
980.449387737
978.511832396
976.195603105
973.507936289
970.45709154
967.052270063
963.303528963
959.221692053
954.818259719
950.105319312
945.095458539
939.801683208
934.237341653
928.416056929
922.351668697
916.05818531
909.549747254
902.840601608
895.945087634
888.877632297
881.652754919
874.285079273
866.789351887
859.180464882
851.473482102
843.683666995
835.826512035
827.917764416
819.973451887
812.009902895
804.043759664
796.091982274
788.171840851
780.300894199
772.496952642
764.778024741
757.162247365
749.667801105
742.312812959
735.115250735
728.092812858
721.262818545
714.642100585
708.246901686
702.09276958
696.194442218
690.565706246
685.219208429
680.166195753
675.41616787
670.97644406
666.851686257
663.043465972
659.549984324
656.366009988
653.482706271
650.887754609
648.565197686
646.497266653
644.665802927
643.052102367
641.636009145
640.396690114
639.313891536
638.368821888
637.544523568
636.825853359
636.199273403
635.652609849
635.174923981
634.756567618
634.389303643
634.066204441
633.781334749
633.529533548
633.306337137
633.107917355
632.930943453
632.772495094
632.629742499
632.502073963
632.396499794
632.311924185
632.244248968
632.192400673
632.155779358
632.129174053
632.11111434
632.099432617
632.091471464
632.086961326
632.084692372
986.610547034
986.222249262
985.440041287
984.256470549
982.676444586
980.705176832
978.349125099
975.615886669
972.51411906
969.0534491
965.244377137
961.098178089
956.626801231
951.842771231
946.759092185
941.389157208
935.746665165
929.845546954
923.699902508
917.323950335
910.731989839
903.938377164
896.957513513
889.80384548
882.491875274
875.036179673
867.451435296
859.752449118
851.954192197
844.07183579
836.120789475
828.116735579
820.075664955
812.013907154
803.948153407
795.895470048
787.873298727
779.899440894
771.992023783
764.169446719
756.450307356
748.853309715
741.397157399
734.100437646
726.981502951
720.058357726
713.348555821
706.869111928
700.636423368
694.666191078
688.973316918
683.571743443
678.474191186
673.691751204
669.233310077
665.104858153
661.308824727
657.84369802
654.704160608
651.880568672
649.359197164
647.120392623
645.142972422
643.40730325
641.89394031
640.58020839
639.442021558
638.456384084
637.60275018
636.863333043
636.222787513
635.667665474
635.185888153
634.766489427
634.399820617
634.078007747
633.794842821
633.54506957
633.324046512
633.127778185
632.952956141
632.796704692
632.656516965
632.529826137
632.417670664
632.325992369
632.252256434
632.194379989
632.151133779
632.119728518
632.096610503
632.080788801
632.070888744
632.063627591
632.059454785
632.057390548
989.310358548
988.913467891
988.1149649
986.906844186
985.294310445
983.282897843
980.879451917
978.092012816
974.929725721
971.402738057
967.522091864
963.299612548
958.747796841
953.879701902
948.708838356
943.249069189
937.514517395
931.519484167
925.278380276
918.805671754
912.115841457
905.223366209
898.142709413
890.888327148
883.474686198
875.916291152
868.227718765
860.423657167
852.518948902
844.52863617
836.468009467
828.352652089
820.19848841
812.021826393
803.839393593
795.668362798
787.526363253
779.431473265
771.402190768
763.457379269
755.616188573
747.897951919
740.322064277
732.907849408
725.674426282
718.640586566
711.824694632
705.244617618
698.917685866
692.860672263
687.089762391
681.62046425
676.467383435
671.643766163
667.16073524
663.02622956
659.243899706
655.81252836
652.727075405
649.97711104
647.548305652
645.413896151
643.546740537
641.926848449
640.536344083
639.348679836
638.334369488
637.466364988
636.72199562
636.082897082
635.534013221
635.062464993
634.656507412
634.304991251
633.997927579
633.727886313
633.489968375
633.279934779
633.093686556
632.927692022
632.77935976
632.646365938
632.526710181
632.418304092
632.323586799
632.246556773
632.185036611
632.137289694
632.101782322
632.075167217
632.056633652
632.043218474
632.034504579
632.029088243
632.025360248
632.023650365
992.42259425
992.015630263
991.198044338
989.96117884
988.310596874
986.252222332
983.793370446
980.942617213
977.709696548
974.105383561
970.141372299
965.830150204
961.184871492
956.219232393
950.94735034
945.383650288
939.542760441
933.43942085
927.088406966
920.504471021
913.702302046
906.696505506
899.501601052
892.132036959
884.60221769
876.926541937
869.119447455
861.195460956
853.169251093
845.055684285
836.869884673
828.627290714
820.343718052
812.03541777
803.71912877
795.41211992
787.132216025
778.897802205
770.727801223
762.64161977
754.659061775
746.800210052
739.085281942
731.534469285
724.167778006
717.004885847
710.065037762
703.366995316
696.929047934
690.769080178
684.904664765
679.353118134
674.131398036
669.255667713
664.740295393
660.59618256
656.82866583
653.436311039
650.415304259
647.754314978
645.443111744
643.438976397
641.702631143
640.218176223
638.976576132
637.943585631
637.079774366
636.35202077
635.735422487
635.211893393
634.767721408
634.391550743
634.072437575
633.798586566
633.55861301
633.345504929
633.157160177
632.990905004
632.842926584
632.70988345
632.590367536
632.482650553
632.385248097
632.296740987
632.220604738
632.158872057
632.110048461
632.07260313
632.044574766
632.023851081
632.008990291
631.998868588
631.991861298
631.988243987
631.985082966
631.983831136
995.957143241
995.538509786
994.698851053
993.428745615
991.734186955
989.621567174
987.098765513
984.174999758
980.860707794
977.167413649
973.107588321
968.69450694
963.942105497
958.864839183
953.477545541
947.795314856
941.833371706
935.606970699
929.131310638
922.421469584
915.492363611
908.358729184
901.035128658
893.535975279
885.875574063
878.068173155
870.128022003
862.069432822
853.906844738
845.654890139
837.328467097
828.942809036
820.513565226
812.056878062
803.589456822
795.128641419
786.692448897
778.299594555
769.969480061
761.722141721
753.578154889
745.558494414
737.684357261
729.976960408
722.457335541
715.146148209
708.063573365
701.229257089
694.662386887
688.381877831
682.406657718
676.755984198
671.449644048
666.50772597
661.949458964
657.790555492
654.038753029
650.689854094
647.743989048
645.186592054
643.030762575
641.19281085
639.6046771
638.269687127
637.209060669
636.368050182
635.687258494
635.12482172
634.654505915
634.260692432
633.932984549
633.663341704
633.442669066
633.257405578
633.091730871
632.93843459
632.80244274
632.683520403
632.576970808
632.478557439
632.38952946
632.30856061
632.234453643
632.167052459
632.109589631
632.063147202
632.027396472
632.000740621
631.980955684
631.966362147
631.955163781
631.94766141
631.943436997
631.941289326
631.939196436
631.93834707
999.925445117
999.493409534
998.628443657
997.320242606
995.575312099
993.400604574
990.804672006
987.797496276
984.390351051
980.595647755
976.426776069
971.897941556
967.024002642
961.820309875
956.302549487
950.486595105
944.388370921
938.023731689
931.408363795
924.55771264
917.48693889
910.210905444
902.744192871
895.101139757
887.295900838
879.342516438
871.254986215
863.047344035
854.733732598
846.328480183
837.846184637
829.301797641
820.710725025
812.088927865
803.453023304
794.820377385
786.209179615
777.638488653
769.128237493
760.699187646
752.372824274
744.171189225
736.116657198
728.231670605
720.538461902
713.058803581
705.813834893
698.824015232
692.109247656
685.689206887
679.583887198
673.814348577
668.40352
663.376666828
658.760512092
654.579489311
650.845563254
647.542181386
644.68170122
642.229935035
640.298350644
638.686460346
637.248536746
636.059270339
635.229248725
634.635594013
634.178739146
633.807999749
633.499903528
633.246496838
633.04350738
632.889180078
632.778990861
632.695592509
632.611087676
632.514616329
632.431125463
632.3634901
632.302141033
632.238143227
632.180623689
632.127496914
632.07723244
632.03149266
631.99232434
631.961757261
631.93908777
631.922496653
631.91037654
631.901799368
631.895671929
631.891421156
631.889260787
631.888777976
631.888255499
631.887828791
1004.34061723
1003.89328084
1002.9994832
1001.64789885
999.845644076
997.600339139
994.921336286
991.819523106
988.307161142
984.397707474
980.10563217
975.446233201
970.435451732
965.08968902
959.425627763
953.460060498
947.20973046
940.691190307
933.920686424
926.914074799
919.686774432
912.25375971
904.629590674
896.828474139
888.864346681
880.75096749
872.502012087
864.131160774
855.652182688
847.079019805
838.425880547
829.707338479
820.938455543
812.134911753
803.31314128
794.490463623
785.685197279
776.916740965
768.205606293
759.573385367
751.042639072
742.636697185
734.37937192
726.294601425
718.40605993
710.736791055
703.308936975
696.143640557
689.261190699
682.681479484
676.424853798
670.513453739
664.973072834
659.835309622
655.138537094
650.925304858
647.218620016
643.9569968
641.199245884
638.801771517
637.249350551
635.973836588
634.554632728
633.312649498
632.79320207
632.567360609
632.414710236
632.281804751
632.164371175
632.06764946
632.002443229
631.985632509
632.025608143
632.096586212
632.129528521
632.080161186
632.047079569
632.037789155
632.028052525
631.992546219
631.967184782
631.943216554
631.915925683
631.89182012
631.870590544
631.855822047
631.845264635
631.8382421
631.833792812
631.831589253
631.830613551
631.830725245
631.8310615
631.832034562
631.833386567
631.833656096
1009.21760654
1008.75287326
1007.82636972
1006.42559911
1004.55840307
1002.23319831
999.460287081
996.251628411
992.620647378
988.582028416
984.151505892
979.345654498
974.181680256
968.677213353
962.850103249
956.718219734
950.299264714
943.610603635
936.669125742
929.491144267
922.092344216
914.487782831
906.69193998
898.718810222
890.58202059
882.294956833
873.870881601
865.323037071
856.66473327
847.909433848
839.070853126
830.163068264
821.200667704
812.198916273
803.173936246
794.142889778
785.124146065
776.137414296
767.203819678
758.345898193
749.587485934
740.953483904
732.46949147
724.161321969
716.054444809
708.173431437
700.54151143
693.180352586
686.110156793
679.350167225
672.919746763
666.840324621
661.138696647
655.852443668
651.036803835
646.775523495
643.134418881
639.883746077
637.227192906
634.207652244
633.560230861
633.134852437
632.58998055
632.375082123
632.338355902
632.332022306
632.301995328
632.247086088
632.181196072
632.119969419
632.077668637
632.062957653
632.058924349
631.998404688
631.795808758
631.59607261
631.590606488
631.677523362
631.763404878
631.741377479
631.752300309
631.761273483
631.752409142
631.75047312
631.745143331
631.744918982
631.745876627
631.748984762
631.75319596
631.757764731
631.762068898
631.766276179
631.770030036
631.772825801
631.776098009
631.777128355
1014.57337148
1014.08890485
1013.12540582
1011.66903006
1009.72848494
1007.31313691
1004.43441694
1001.10554988
997.341328472
993.15787246
988.572389641
983.602939608
978.268200296
972.587234674
966.579257204
960.263401265
953.658494623
946.78285304
939.654107387
932.289079292
924.7037202
916.913121191
908.931593159
900.772803597
892.449947058
883.975918859
875.363466257
866.625302789
857.774191887
848.823020988
839.784892308
830.673243592
821.502024712
812.285906575
803.040520394
793.782707279
784.53075849
775.304622133
766.126046706
757.018626185
748.007708135
739.120128671
730.38375029
721.826805331
713.477092998
705.361135996
697.503453087
689.926121126
682.648715189
675.688695499
669.062409944
662.787199143
656.885756992
651.396533774
646.390618037
642.043697871
638.566491489
634.886633498
633.044580084
632.931468951
633.012218132
632.981819476
632.859651628
632.749490638
632.681160345
632.625054919
632.561413249
632.485329465
632.401464941
632.317070989
632.239298468
632.172490674
632.104772232
632.009643934
631.887983016
631.798860969
631.789854215
631.801972927
631.676898284
631.442954803
631.510369924
631.587693767
631.585237732
631.611146973
631.614740665
631.63044482
631.642120932
631.656487155
631.669960917
631.681491264
631.691420077
631.700034506
631.707146914
631.71256163
631.717418879
631.719353629
1020.42709919
1019.92027452
1018.91498957
1017.39585386
1015.37260874
1012.85575758
1009.85807386
1006.39427883
1002.48077008
998.135340663
993.376907269
988.225248165
982.700746135
976.824130401
970.616211455
964.097609256
957.288480827
950.208262769
942.87544908
935.307429819
927.520413042
919.529446433
911.348539175
902.990867093
894.469023013
885.795263535
876.981704972
868.040445272
858.983622904
849.823455915
840.572306444
831.242802995
821.848047756
812.401881988
802.919199891
793.416285948
783.911152296
774.423849035
764.976709986
755.594485584
746.30430409
737.135397976
728.118540313
719.285165961
710.666219376
702.290871706
694.185350502
686.37218383
678.8698936
671.693041961
664.852589084
658.356772569
652.213792081
646.437705293
641.026571127
636.029020617
633.547906507
633.377127083
633.314048337
633.328449689
633.387056234
633.377138291
633.311833812
633.21944009
633.122419091
633.029355268
632.937256875
632.841943306
632.744060149
632.64537924
632.549242335
632.457436926
632.360189692
632.239953731
632.098690777
631.971339827
631.884250692
631.809215487
631.71502901
631.667944194
631.655681662
631.511082346
631.377098921
631.477543097
631.474843693
631.515386597
631.535258541
631.562556316
631.585631207
631.603837191
631.619570106
631.632971364
631.644023996
631.652381156
631.658436634
631.661556022
1026.80046665
1026.26830574
1025.21584487
1023.62591069
1021.50948845
1018.87844714
1015.74716316
1012.13212905
1008.0516243
1003.52538567
998.574301251
993.220125565
987.485205531
981.392201462
974.96379093
968.222349892
961.189618797
953.886372474
946.332125744
938.544912117
930.541175054
922.335800048
913.942296796
905.373107747
896.639985998
887.754357426
878.72758393
869.571081418
860.296317255
850.914768886
841.437929113
831.877416891
822.245222669
812.554048311
802.817718329
793.05162831
783.273208162
773.502373236
763.761920757
754.077808014
744.479227348
734.998375298
725.669805647
716.529282142
707.612133749
698.951301958
690.575469121
682.507934524
674.766115823
667.361245913
660.297792692
653.572620124
647.169057107
641.012306227
634.608409438
634.097613591
633.953555091
633.919474652
633.922392004
633.917026637
633.913584143
633.887570355
633.825833627
633.735479006
633.630985652
633.522654756
633.412224566
633.300497622
633.186603876
633.069359828
632.950999912
632.831387153
632.703804557
632.5584594
632.397731733
632.243135929
632.110870374
631.988218842
631.861488494
631.756392683
631.669025101
631.600441318
631.571761566
631.473607423
631.286502162
631.402262346
631.421559262
631.46862799
631.50223292
631.52650835
631.547926497
631.56638086
631.581704828
631.593243886
631.600990255
631.60528366
1033.71795422
1033.15704888
1032.0512938
1030.38145818
1028.16003008
1025.40052985
1022.11925697
1018.33480777
1014.06766793
1009.33982321
1004.17441903
998.595463036
992.627547265
986.295560724
979.624365494
972.638424491
965.36138577
957.815650425
950.021968125
941.99911998
933.76375117
925.330407823
916.711801963
907.919280497
898.963409206
889.854528404
880.603123199
871.21991644
861.715731209
852.101287462
842.387090175
832.583513034
822.701097937
812.751002184
802.74553658
792.698750023
782.627047174
772.54982421
762.490079513
752.474921264
742.53585678
732.708707788
723.032953785
713.550296426
704.302331786
695.327541907
686.658204166
678.318962737
670.326525068
662.689564412
655.408862911
648.473635915
641.822306894
634.989185641
634.161793938
634.435486893
634.579681899
634.610437588
634.578318664
634.54976144
634.52452566
634.485970666
634.420801439
634.330020692
634.221759617
634.103028758
633.977075963
633.84764823
633.713707318
633.573363784
633.428019727
633.277068882
633.116814516
632.943329336
632.759983394
632.5793966
632.410994966
632.250531783
632.092440282
631.946181877
631.813892789
631.695659166
631.59728163
631.51245044
631.473281972
631.406387048
631.276195512
631.377502723
631.425077359
631.451378339
631.477708946
631.501706447
631.521564757
631.536828733
631.546807386
631.552229022
1041.20722587
1040.61363382
1039.44758293
1037.6874512
1035.34755862
1032.44343591
1028.99370786
1025.0194828
1020.54383536
1015.59134011
1010.18770111
1004.35946194
998.133752697
991.538017302
984.599674435
977.345684817
969.802028727
961.993126962
953.941270263
945.666144841
937.184557224
928.510453961
919.655297362
910.628780515
901.439754196
892.097118385
882.610380847
872.989680928
863.245374152
853.387513801
843.425527598
833.368258249
823.22436093
813.00291791
802.714145187
792.370130618
781.985626318
771.578913242
761.172705192
750.795001373
740.479744999
730.267076206
720.202851064
710.336995876
700.72026288
691.399512692
682.412110271
673.784493355
665.532917206
657.665130025
650.17845779
643.021965035
635.746777802
634.855184447
635.034356629
635.272552093
635.326983885
635.337247474
635.306323339
635.270051386
635.229818238
635.176241858
635.101371154
635.00437931
634.888559778
634.757738638
634.61580841
634.466735622
634.309474561
634.142941127
633.968294509
633.785346038
633.592613817
633.389331996
633.178921621
632.968959475
632.765253757
632.567829097
632.37631311
632.19545497
632.027292817
631.871132124
631.730060994
631.605356244
631.51043886
631.443232382
631.398131256
631.336816979
631.364859402
631.377422008
631.408711243
631.439697705
631.465272337
631.484665472
631.497329813
631.503943508
1049.29959047
1048.66870865
1047.4342723
1045.57187328
1043.09807684
1040.0308831
1036.39175767
1032.20483537
1027.49623629
1022.2934956
1016.6251732
1010.52061257
1004.0097635
997.122970145
989.890640342
982.342749951
974.508178611
966.413921772
958.084266703
949.540063142
940.798248591
931.871798788
922.770235252
913.500715449
904.069535545
894.483630506
884.751490769
874.883031864
864.88860822
854.77789626
844.559204172
834.239472341
823.824874522
813.321722451
802.737396888
792.081230198
781.365463611
770.606375747
759.825570766
749.051321216
738.31981524
727.676069197
717.174030542
706.875063251
696.843628058
687.139856304
677.807858358
668.875482313
660.358758291
652.262313861
644.540877497
636.738365591
635.837604022
636.046953665
636.203205542
636.241717861
636.218136574
636.186235145
636.137671948
636.084866508
636.025744858
635.954035428
635.86423699
635.754327065
635.624580603
635.476923972
635.316352759
635.144814701
634.961095028
634.76632093
634.561474882
634.346894736
634.122411589
633.88862966
633.648507051
633.406968968
633.168168253
632.934012402
632.706384828
632.488757141
632.283461792
632.091807408
631.916100255
631.75768685
631.622237535
631.512850958
631.430575138
631.401348954
631.35496453
631.281554807
631.336246412
631.380851165
631.414216811
631.438416725
631.454088414
631.461864796
1058.03056646
1057.35696395
1056.0447049
1054.06612772
1051.44056253
1048.18906596
1044.33662717
1039.91107864
1034.94214245
1029.4607082
1023.4984485
1017.08770261
1010.26146926
1003.05333343
995.497190274
987.626687363
979.474376214
971.070626651
962.442422762
953.612221267
944.597117572
935.408606338
926.053211778
916.534128511
906.853699682
897.016053665
887.028762579
876.902385226
866.648293943
856.27642496
845.793979074
835.205445245
824.513656868
813.721238188
802.831834735
791.851050018
780.787487549
769.654153785
758.47022991
747.263064002
736.070268494
724.941784192
713.941358378
703.146165612
692.641734247
682.511007546
672.806027485
663.554248073
654.7665455
646.400161446
637.98372964
637.067923821
637.360512827
637.507762972
637.433191257
637.33027587
637.2343451
637.150505347
637.06919517
636.990387753
636.907346676
636.813193459
636.702441699
636.571986249
636.420617965
636.249669959
636.064640717
635.866480052
635.654207239
635.429913427
635.194772668
634.949478102
634.694441435
634.430640904
634.160405825
633.887167378
633.614240803
633.344244376
633.079901961
632.824451931
632.580728691
632.351311631
632.138990587
631.946368104
631.777104561
631.632909025
631.514974939
631.432953572
631.367693043
631.315577462
631.265196326
631.328457249
631.370642152
631.400057533
631.418484992
631.427351137
1067.44057017
1066.71779805
1065.31656961
1063.20550762
1060.40731254
1056.9468455
1052.85355938
1048.15990703
1042.89991277
1037.10821601
1030.81974725
1024.06988326
1016.89477286
1009.33153584
1001.41811606
993.192673187
984.69249449
975.952494858
967.00345065
957.870207162
948.570208134
939.112815614
929.499952739
919.728499249
909.794407568
899.697520923
889.444884949
879.049611804
868.52615564
857.885934379
847.135063381
836.274635486
825.302796889
814.217270792
803.016970754
791.702684818
780.277971054
768.750814482
757.136004841
745.45790476
733.753602692
722.076738077
710.501714013
699.126894013
688.070723402
677.460539164
667.355422705
657.77097217
648.661101261
639.534285802
638.565881394
638.941636302
639.111755919
638.955760741
638.71588509
638.509832251
638.34307536
638.207296549
638.088691897
637.978338625
637.8659048
637.743095604
637.603722245
637.443882034
637.261975899
637.059946346
636.843660198
636.613740715
636.36989361
636.114735476
635.849592034
635.575163965
635.291827444
635.000285409
634.702072308
634.399507683
634.095206018
633.791828526
633.492318521
633.199960988
632.918050833
632.649931759
632.39908725
632.169056711
631.963451021
631.78452626
631.633487611
631.511952171
631.41299454
631.335183496
631.300891782
631.287522145
631.337355533
631.371882862
631.392138961
631.401754371
1077.575748
1076.79616243
1075.29257122
1073.02976666
1070.03435901
1066.33592907
1061.96977009
1056.97431169
1051.38880435
1045.25198616
1038.60194784
1031.47683661
1023.91579863
1015.9596615
1007.65103386
999.033664897
990.151051366
981.044373354
971.749926185
962.296326374
952.701950571
942.97331396
933.105363214
923.084742395
912.896587643
902.533598001
892.003291439
881.325441032
870.521625029
859.606909486
848.58616922
837.455259366
826.205337147
814.827621876
803.315438817
791.663764213
779.869450796
767.933129455
755.862432414
743.675553285
731.405311024
719.105163051
706.857990417
694.787972924
683.063787073
671.914068089
661.386994645
651.413628095
641.46812127
640.3672877
640.786575283
640.975449147
640.754239567
640.387064201
640.035017774
639.74877643
639.522390672
639.339645064
639.181974553
639.035141165
638.886766937
638.727528999
638.550610351
638.351623021
638.129406261
637.88810853
637.632609905
637.363842762
637.084262598
636.796503893
636.501821247
636.200498982
635.892318894
635.577170501
635.255517784
634.928530284
634.597952118
634.266006903
633.935439344
633.609480978
633.29169862
632.985957593
632.696383559
632.427241121