/*--------------------------------*- C++ -*----------------------------------*\
| =========                 |                                                 |
| \\      /  F ield         | OpenFOAM: The Open Source CFD Toolbox           |
|  \\    /   O peration     | Version:  v1906                                 |
|   \\  /    A nd           | Web:      www.OpenFOAM.com                      |
|    \\/     M anipulation  |                                                 |
\*---------------------------------------------------------------------------*/
FoamFile
{
    version     2.0;
    format      ascii;
    class       surfaceScalarField;
    location    "212";
    object      phia;
}
// * * * * * * * * * * * * * * * * * * * * * * * * * * * * * * * * * * * * * //

dimensions      [0 3 -1 0 0 0 0];
oriented        oriented;


internalField   nonuniform List<scalar> 
18240
(
0.0121978249236
-0.0121978256175
0.0250788001927
-0.0128809762008
0.0378851740301
-0.0128063744636
0.0505306453951
-0.012645472322
0.0629559325661
-0.0124252877111
0.0751084859338
-0.0121525543538
0.0869406961311
-0.0118322106606
0.0984097400156
-0.0114690448975
0.109477703553
-0.0110679639322
0.120111714562
-0.010634012046
0.130284003934
-0.0101722897045
0.139971857749
-0.00968785487326
0.14915748185
-0.00918562437811
0.15782777287
-0.008670292097
0.165974032881
-0.00814626023862
0.173591623906
-0.00761759211519
0.180679601349
-0.00708797762693
0.187240318353
-0.00656071810487
0.193279038041
-0.00603871983185
0.198803539691
-0.00552450275498
0.203823752605
-0.00502021301975
0.208351397976
-0.00452764647496
0.212399669592
-0.0040482716874
0.215982929012
-0.00358326051748
0.219116443992
-0.00313351501821
0.221816142532
-0.00269969962552
0.224098410296
-0.00228226776966
0.225979902076
-0.00188149284779
0.227477395628
-0.00149749352659
0.228607659939
-0.00113026535588
0.229387371641
-0.000779711645948
0.229833061416
-0.000445690793667
0.229961156803
-0.000128095301966
0.229788138817
0.000173016999744
0.229327737871
0.000460401061114
0.228594683748
0.000733053171561
0.227603425105
0.000991258784182
0.226367872975
0.00123555121472
0.224901425622
0.00146644752014
0.223216962333
0.00168446241198
0.221326853193
0.00189010932937
0.219242956092
0.00208389626594
0.216976630244
0.00226632605886
0.214538737771
0.00243789167973
0.21193966102
0.00259907698121
0.209189307506
0.00275035276336
0.206297129542
0.00289217821403
0.20327213113
0.00302499770444
0.200122888645
0.00314924275069
0.196857558627
0.00326532935478
0.193483898608
0.00337366029871
0.190009275115
0.00347462287406
0.186440684045
0.00356859136132
0.182784758441
0.00365592502985
0.17904778805
0.00373697069231
0.175235726626
0.00381206089262
0.171354210477
0.00388151645804
0.16740856517
0.0039456448176
0.163403822989
0.0040047424963
0.159344729014
0.00405909352755
0.155235757479
0.00410897185294
0.151081117268
0.00415463980505
0.1468847672
0.00419635038755
0.142650421018
0.00423434581641
0.13838156167
0.00426885966546
0.134081445884
0.00430011545997
0.129753117521
0.00432832867836
0.125399411835
0.00435370539802
0.121022967995
0.00437644414953
0.116626233128
0.00439673461704
0.112211474089
0.00441475934331
0.107780781385
0.00443069249015
0.103336080285
0.00444470139541
0.0988791347083
0.00445694539923
0.0944115577405
0.00446757725469
0.0899348155705
0.00447674202685
0.0854502374866
0.00448457835962
0.0809590199234
0.00449121745369
0.076462235995
0.00449678419115
0.0719608397203
0.00450139619711
0.0674556751466
0.00450516482115
0.0629474808182
0.00450819428122
0.0584368985591
0.0045105824894
0.0539244782865
0.00451242025464
0.0494106866058
0.0045137918927
0.0448959122601
0.00451477435777
0.0403804751265
0.00451543732847
0.0358646336387
0.00451584153176
0.031348597379
0.00451603643904
0.0268325445925
0.00451605286036
0.022316660147
0.00451588460423
0.0178012231965
0.00451543704761
0.0132868670781
0.00451435624243
0.00877532909754
0.00451153811525
0.00428057885772
0.00449475038508
0.0042805789277
0.0128052749071
-0.0250031013062
0.0264780384323
-0.0265537406046
0.0400294588954
-0.0263577956966
0.053399630085
-0.0260156443538
0.0665344859671
-0.0255601443071
0.0793821688309
-0.0250002380242
0.0918939117795
-0.0243439542611
0.104025295971
-0.0236004298535
0.115736768688
-0.0227794372333
0.126993913265
-0.0218911573395
0.137767552009
-0.0209459289622
0.148033715742
-0.0199540192698
0.157773509421
-0.0189254184997
0.166972886061
-0.0178696693456
0.175622355926
-0.0167957304761
0.183716641095
-0.0157118778384
0.191254301052
-0.0146256378898
0.198237335621
-0.0135437531754
0.204670787485
-0.012472171939
0.210562345579
-0.0114160613001
0.21592196755
-0.0103798351765
0.220761517659
-0.00936719698954
0.225094434727
-0.00838118889016
0.228935422528
-0.00742424868202
0.23230017456
-0.00649826713976
0.235205122766
-0.00560464815677
0.237667220348
-0.00474436540353
0.23970374627
-0.00391801906184
0.241332139925
-0.00312588719901
0.242569850541
-0.00236797623512
0.24343420402
-0.00164406511445
0.243942259057
-0.000953746069163
0.244110604983
-0.000296441193288
0.243954844321
0.000328777449557
0.243492334161
0.000922911281806
0.242738955762
0.00148643138236
0.241709904096
0.00202031052738
0.24041988252
0.00252557261888
0.238883079296
0.00300325083424
0.237113158679
0.00345438287206
0.235123259589
0.00388000851944
0.232925993561
0.00428116214969
0.230533451692
0.00465886803612
0.227957209079
0.00501413416116
0.225208336808
0.00534794936567
0.222297410399
0.00566127905131
0.219234524736
0.005955063995
0.216029304798
0.00623021753287
0.212690922088
0.0064876255821
0.209228106467
0.0067281448764
0.205649163088
0.00695260380189
0.201961984529
0.00716180134312
0.198174067583
0.00735650843305
0.194292525176
0.00753746735715
0.190324102598
0.00770539339817
0.186275188903
0.00786097451701
0.182151832355
0.00800487313602
0.177959751141
0.00813772597041
0.173704347926
0.00826014584162
0.169390719829
0.00837272157394
0.165023672049
0.00847601976474
0.160607727121
0.00857058469128
0.156147137651
0.00865693999088
0.151645894892
0.00873558854442
0.147107740653
0.00880701403811
0.142536175286
0.00887168080616
0.13793446884
0.00893003525913
0.133305668549
0.00898250567895
0.128652609326
0.00902950350818
0.123977920847
0.00907142309827
0.119284037466
0.00910864286018
0.114573204998
0.00914152497166
0.109847490137
0.0091704163937
0.105108787016
0.00919564854568
0.100358826215
0.00921753819441
0.095599181172
0.00923638710731
0.0908312768493
0.00925248282169
0.086056396066
0.009266098286
0.0812756878807
0.00927749251598
0.0764901739063
0.00928691023146
0.0717007564645
0.00929458240156
0.0669082249392
0.00930072587627
0.0621132637581
0.00930554380724
0.0573164588468
0.00930922524505
0.0525183055062
0.00931194536816
0.0477192150423
0.00931386491141
0.0429195225769
0.0093151299289
0.0381194936982
0.00931587051314
0.0333193312344
0.00931619904032
0.0285191779563
0.00931620625517
0.0237191077385
0.00931595495141
0.0189190732637
0.00931547163779
0.0141187116206
0.00931471802013
0.00931704759278
0.00931320227869
0.00451829663616
0.00929350148965
0.00879887565146
0.0129692437478
-0.0379723458674
0.0267761428412
-0.0403606405454
0.0404737688813
-0.0400554225574
0.0539882392654
-0.0395301155581
0.0672607053702
-0.0388326111895
0.080237163657
-0.0379766970958
0.0928675119228
-0.0369743032614
0.105106373027
-0.035839291706
0.116913531188
-0.0345865960861
0.128254190067
-0.0332318169285
0.139099061391
-0.0317908009362
0.149424312505
-0.0302792710568
0.159211399151
-0.0287125057554
0.168446804365
-0.0271050751972
0.177121708231
-0.025470634914
0.185231606674
-0.0238217768852
0.192775900823
-0.022169932575
0.199757470496
-0.0205253234199
0.206182248409
-0.0188969503537
0.212058803117
-0.0172926165498
0.217397942158
-0.0157189746875
0.222212338316
-0.0141815936589
0.22651618621
-0.0126850372239
0.230324888227
-0.0112329511825
0.233654773947
-0.00982815326964
0.236522849457
-0.00847272412214
0.238946578775
-0.0071680951035
0.24094369207
-0.00591513278391
0.242532021441
-0.0047142169242
0.243729357089
-0.0035653122836
0.244553322336
-0.00246803068784
0.245021258699
-0.00142168280507
0.245150128398
-0.00042531119193
0.244956633446
0.00052227206129
0.244457577347
0.00142196712044
0.243668588029
0.00227542039362
0.242604835004
0.00308406331746
0.241281043378
0.00384936396459
0.239711431513
0.00457286248925
0.237909687254
0.00525612687551
0.23588896236
0.00590073322849
0.233661872818
0.00650825146099
0.231240505209
0.00708023548367
0.228636424332
0.00761821483285
0.225860684638
0.00812368892056
0.2229238416
0.00859812190708
0.219835965833
0.00904293964552
0.216606656412
0.00945952679527
0.213245056285
0.00984922561403
0.209759866389
0.0102133346359
0.206159361414
0.0105531087027
0.202451403972
0.0108697586705
0.19864346011
0.0111644522397
0.194742613068
0.0114383143056
0.190755578168
0.0116924282613
0.186688715893
0.0119278367185
0.182548045956
0.0121455430534
0.178339259566
0.0123465123056
0.174067732598
0.0125316728074
0.169738537002
0.0127019171322
0.165356453079
0.0128581036999
0.160925980059
0.0130010576915
0.156451347515
0.0131315725616
0.151936525187
0.0132504108678
0.147385233613
0.0133583056517
0.142800953275
0.0134559611542
0.138186934542
0.0135440540445
0.133546206235
0.0136232340105
0.128881584976
0.0136941248294
0.12419568328
0.0137573248328
0.119490918392
0.0138134078216
0.11476952
0.0138629234137
0.110033538665
0.0139063978119
0.105284853228
0.0139443340457
0.10052517891
0.0139772126046
0.0957560745024
0.0140054915881
0.0909789502059
0.0140296072185
0.0861950746624
0.0140499739126
0.0814055825986
0.0140669846868
0.0766114817584
0.0140810111631
0.071813660398
0.0140924038739
0.0670128941656
0.014101492207
0.0622098534829
0.0141085846053
0.057405110397
0.014113968435
0.0525991458418
0.014117910042
0.047792356391
0.0141206544729
0.0429850611691
0.0141224252743
0.0381775078895
0.0141234239127
0.0333698778662
0.0141238291934
0.028562287611
0.0141237966369
0.023754783444
0.0141234592523
0.0189473208856
0.0141229343194
0.0141397315085
0.0141223075157
0.00933196775058
0.0141209661858
0.00453286877239
0.0140926006295
0.0133317444938
0.0131458729613
-0.0511182196563
0.0271307900636
-0.0543455585105
0.0410033363957
-0.0539279697197
0.0546861931479
-0.0532129731335
0.0681172041646
-0.0522636230007
0.0812400613621
-0.0510995550768
0.0940030135496
-0.0497372562043
0.106359565902
-0.0481958448024
0.118268844039
-0.0464958749376
0.12969580789
-0.0446587814828
0.140611295157
-0.0427062888761
0.15099191862
-0.0406598951828
0.160819842748
-0.0385404305142
0.170082465272
-0.036367698344
0.178772029982
-0.0341602002151
0.186885193409
-0.0319349408961
0.19442256691
-0.0297073066273
0.201388250737
-0.0274910077926
0.207789375093
-0.0252980752238
0.213635658143
-0.023138900109
0.218938989811
-0.0210223068325
0.223713045772
-0.0189556500941
0.227972935742
-0.0169449276368
0.231734886464
-0.0149949023443
0.235015960395
-0.0131092276109
0.237833808058
-0.0112905721934
0.24020645329
-0.00954074071301
0.242152108127
-0.00786078799787
0.243689015924
-0.00625112506935
0.244835319524
-0.00471161623055
0.245608954256
-0.00324166573864
0.246027564415
-0.00184029328278
0.2461084545
-0.000506201567537
0.245868584955
0.000762141324044
0.245324020642
0.00196653118735
0.244490708699
0.00310873208863
0.243384036605
0.00419073518926
0.242018810446
0.00521458990017
0.240409280552
0.00618239218406
0.238569144148
0.00709626307843
0.236511548089
0.00795832911041
0.234249093647
0.00877070572374
0.231793844649
0.00953548432641
0.229157337463
0.0102547218598
0.226350593289
0.0109304329596
0.223384131269
0.0115645837888
0.220267983053
0.0121590877457
0.217011707478
0.0127158022516
0.213624406095
0.0132365269006
0.210114738372
0.0137230022594
0.206490937345
0.0141769096504
0.202760824671
0.0145998712628
0.198931825858
0.0149934509917
0.195010984742
0.0153591553563
0.191004978013
0.0156984349453
0.186920128876
0.0160126858081
0.182762420695
0.0163032512054
0.178537509758
0.0165714232103
0.174250737985
0.0168184445657
0.169907144776
0.0170455103248
0.165511478797
0.0172537696784
0.161068208961
0.0174443275253
0.156581535354
0.017618246182
0.152055399416
0.0177765468168
0.147493494101
0.0179202109926
0.142899273352
0.0180501819272
0.138275961589
0.0181673658455
0.133626562583
0.0182726330524
0.128953868375
0.0183668190864
0.124260467649
0.0184507256066
0.119548754178
0.0185251213528
0.114820934795
0.0185907428567
0.110079037455
0.018648295222
0.105324918896
0.0186984526753
0.100560272397
0.0187418591844
0.0957866351966
0.0187791288681
0.0910053960332
0.0188108464715
0.0862178023804
0.0188375676544
0.0814249678212
0.0188598193435
0.0766278791638
0.0188780999171
0.071827403692
0.0188928794495
0.0670242961963
0.0189045998055
0.0622192061237
0.0189136747865
0.0574126845294
0.0189204901373
0.0526051910872
0.0189254035975
0.0477971008498
0.0189287448244
0.0429887108755
0.0189308153685
0.038180246283
0.0189318886274
0.0333718655125
0.0189322100924
0.028563664003
0.0189319982775
0.023755675874
0.0189314475062
0.0189478745695
0.0189307357477
0.0141401956386
0.018929986587
0.00933286790594
0.0189282940561
0.00453543080052
0.0188900378838
0.0178671753767
0.0133776073382
-0.0644958278422
0.027608062443
-0.0685760144584
0.0417183984538
-0.0680383065784
0.0556287320613
-0.0671233075665
0.0692734063457
-0.0659082980923
0.0825933399118
-0.0644194894301
0.0955346248113
-0.0626785418696
0.108049260561
-0.0607104812985
0.12009548424
-0.05854209934
0.131637938028
-0.0562012359752
0.142647650689
-0.0537160022183
0.153101862109
-0.0511141072648
0.162983720381
-0.0484222894258
0.172281882589
-0.0456658611725
0.180990049391
-0.0428683676159
0.189106460064
-0.0400513521494
0.196633371185
-0.0372342183079
0.203576537407
-0.0344341745564
0.209944709017
-0.0316662473549
0.215749156588
-0.0289433481865
0.221003230139
-0.0262763808687
0.225721956756
-0.0236743771813
0.229921678943
-0.0211446502757
0.233619733571
-0.0186929574092
0.236834170539
-0.0163236649982
0.239583508809
-0.0140399108691
0.241886527393
-0.0118437596839
0.243762088006
-0.00973634898549
0.245228986568
-0.00771802398968
0.246305830222
-0.00578846022955
0.247010937303
-0.0039467731486
0.247362258272
-0.00219161456969
0.24737732206
-0.000521265654449
0.247073177741
0.00106628536597
0.246466349409
0.00257335926756
0.245572793732
0.00400228752426
0.24440792985
0.00535559884558
0.242986608189
0.00663591134362
0.241323105101
0.0078458950694
0.239431124288
0.00898824369714
0.237323802348
0.0100656508693
0.235013717047
0.0110807908524
0.232512898112
0.0120363031023
0.229832839764
0.012934780056
0.226984514795
0.0137787577896
0.223978389509
0.0145707089441
0.220824439458
0.0153130376783
0.217532165429
0.0160080761684
0.214110609721
0.0166580825093
0.210568372258
0.0172652396294
0.206913626677
0.0178316551505
0.203154135994
0.0183593618709
0.19929726806
0.0188503188623
0.195350010457
0.0193064129022
0.191318985051
0.019729460304
0.187210461955
0.0201212088639
0.183030373089
0.02048334004
0.178784325139
0.0208174711351
0.174477612114
0.0211251575756
0.170115227312
0.0214078951166
0.165701874925
0.0216671220648
0.161241981081
0.0219042213725
0.156739704573
0.0221205227034
0.152198947069
0.0223173043375
0.147623363067
0.0224957950206
0.143016369384
0.0226571756392
0.138381154441
0.022802580827
0.13372068714
0.0229331003946
0.129037725589
0.023049780687
0.124334825478
0.0231536257704
0.119614348341
0.0232455985505
0.114878469531
0.0233266217307
0.110129186116
0.0233975787081
0.105368324541
0.0234593143249
0.10059754824
0.0235126355662
0.0958183650634
0.0235583121287
0.0910321346786
0.0235970769462
0.0862400758233
0.0236296266025
0.0814432735577
0.0236566217069
0.076642686393
0.023678687182
0.0718391534335
0.023696412513
0.0670334014207
0.0237103519242
0.0622260517824
0.0237210245338
0.0574176275863
0.023728914444
0.0526085604711
0.0237344708265
0.0477991974342
0.0237381079776
0.0429898074935
0.0237402054298
0.03818058808
0.0237411081658
0.0333716711469
0.0237411271538
0.0285631290535
0.0237405405004
0.0237549810334
0.0237395956618
0.0189472026723
0.0237385142354
0.0141397598611
0.0237374295152
0.00933291803992
0.0237351360297
0.00453622607368
0.0236867300157
0.0224034015206
0.0136719916483
-0.0781678203568
0.0282182537176
-0.0831222773977
0.0426335812389
-0.0824536349514
0.0568348152893
-0.0813245424574
0.0707519589922
-0.0798254426116
0.0843225007275
-0.0779900319637
0.0974898425234
-0.0758458844417
0.110204121479
-0.0734247610105
0.122422516858
-0.0707604954532
0.134109362003
-0.0678880818333
0.14523604147
-0.0648426823766
0.15578071421
-0.0616587806756
0.165727900934
-0.0583694767976
0.175067974729
-0.0550059355963
0.183796590969
-0.0515969844624
0.191914087714
-0.0481688494832
0.199424882323
-0.0447450134828
0.206336884104
-0.0413461768874
0.212660937668
-0.037990301447
0.218410306655
-0.0346927176855
0.223600203801
-0.0314662785057
0.228247369876
-0.0283215437324
0.232369701857
-0.0252669827144
0.235985928702
-0.0223091846955
0.23911533211
-0.0194530688303
0.241777508733
-0.0167020879012
0.243992170063
-0.0140584214064
0.245778975969
-0.0115231552687
0.247157398076
-0.00909644645834
0.248146609312
-0.00677767181396
0.248765396179
-0.00456556034717
0.24903209058
-0.00245830928982
0.248964518232
-0.000453693606752
0.248579927158
0.00145087616482
0.247895018844
0.00325826733417
0.246925901557
0.00497140457392
0.245688085774
0.00659341440533
0.244196475543
0.0081275213628
0.24246537206
0.00957699835235
0.240508480062
0.0109451355046
0.238338917655
0.0122352130989
0.23596922848
0.0134504798586
0.233411395793
0.0145941356329
0.230676857857
0.0156693178448
0.227776524342
0.0166790911683
0.224720793289
0.0176264398703
0.221519568435
0.0185142624163
0.218182276592
0.019345367903
0.214717884976
0.0201224740287
0.211134918245
0.0208482062705
0.207441475249
0.0215250980675
0.203645245291
0.0221555917584
0.199753523949
0.0227420401427
0.195773228323
0.023286708474
0.191710911785
0.0237917767963
0.187572778103
0.0242593425084
0.183364695055
0.0246914230589
0.179092207451
0.0250899587171
0.174760549645
0.0254568153681
0.170374657495
0.0257937872593
0.165939179861
0.0261025996991
0.161458489598
0.0263849116417
0.156936694141
0.0266423181737
0.152377645648
0.0268763528507
0.147784950786
0.0270884899089
0.143161980147
0.0272801463104
0.138511877361
0.027452683652
0.133837567894
0.0276074099054
0.129141767611
0.0277455810204
0.124426991071
0.0278684023656
0.119695559642
0.0279770300408
0.114949609402
0.0280725720374
0.110191098899
0.0281560892828
0.10542181675
0.0282285965497
0.10064338914
0.0282910632583
0.0958572871829
0.0283444141719
0.0910648342298
0.0283895299899
0.0862672130758
0.0284272478511
0.0814654731201
0.0284583617611
0.0766605374669
0.0284836229369
0.0718532099904
0.0285037400945
0.0670441823518
0.0285193796701
0.0622340409939
0.0285311660016
0.0574232740856
0.0285396814644
0.0526122784332
0.0285454665934
0.0478013663272
0.0285490202013
0.0429907723327
0.0285507995459
0.0381806600216
0.0285512206023
0.0333711287491
0.0285506585567
0.0285622207498
0.028549448634
0.0237539293462
0.0285478871906
0.0189462097537
0.0285462339539
0.0141390097469
0.028544629668
0.00933255022152
0.0285415956931
0.00453630448294
0.0284829759033
0.0269397060876
0.0140346478553
-0.0922024691082
0.0289712272962
-0.0980588576842
0.0437630729004
-0.0972454814289
0.0583226578751
-0.0958841282801
0.0725745151231
-0.0940773006912
0.0864518967794
-0.0918674144291
0.0998949323817
-0.0892889208332
0.112851553406
-0.0863813828014
0.125277765686
-0.083186708479
0.137137682924
-0.0797479997947
0.14840330676
-0.0761083069147
0.159054111326
-0.0723095859203
0.169076483276
-0.0683918494064
0.178463067128
-0.0643925200843
0.187212059849
-0.0603459778006
0.195326491202
-0.0562832814311
0.202813518399
-0.0522320412556
0.209683755958
-0.0482164150012
0.215950654807
-0.0442572008333
0.221629938972
-0.0403720023671
0.226739103616
-0.0365754436492
0.231296974747
-0.0328794153449
0.235323328501
-0.0292933369321
0.238838566207
-0.0258244228481
0.241863440553
-0.0224779436064
0.244418827623
-0.0192574753848
0.24652553955
-0.0161651337318
0.248204172628
-0.0132017887277
0.249474986096
-0.010367260293
0.250357807197
-0.007660493267
0.250871958497
-0.00507971198377
0.251036203624
-0.00262255473854
0.250868704909
-0.000286195194652
0.250386939333
0.00193264146844
0.249607841334
0.00403736508647
0.24854765631
0.0060315893647
0.247221986273
0.00791908422105
0.245645786883
0.00970372054288
0.24383337802
0.0113894070172
0.241798455989
0.0129800573491
0.239554108451
0.0144795604605
0.237112831058
0.0158917570861
0.234486545325
0.0172204212108
0.231686617284
0.0184692457418
0.228723876582
0.0196418317359
0.225608635731
0.0207416805971
0.22235070929
0.0217721887427
0.218959432795
0.0227366442929
0.215443681311
0.023638225416
0.211811887497
0.0244799999987
0.208072059107
0.025264926379
0.204231795896
0.0259958549008
0.200298305874
0.0266755301045
0.196278420913
0.027306593384
0.192178611696
0.0278915859697
0.188005002017
0.0284329521516
0.183763382449
0.0289330425996
0.179459223391
0.0293941177548
0.175097687543
0.0298183512032
0.17068364181
0.0302078329869
0.166221668691
0.03056457282
0.161716077169
0.0308905031723
0.157170913152
0.0311874822056
0.152589969484
0.0314572965403
0.147976795572
0.0317016638483
0.143334706658
0.031922235259
0.138666792765
0.0321205975845
0.133975927361
0.0322982753551
0.129264775755
0.0324567326777
0.124535803264
0.0325973749136
0.119791283177
0.0327215501905
0.115033304539
0.0328305507434
0.110263779775
0.0329256141194
0.105484452187
0.0330079242157
0.100696903327
0.0330786122007
0.0959025602846
0.0331387573017
0.0911027028843
0.0331893874821
0.0862984708201
0.033231480011
0.0814908707392
0.0332659619416
0.0766807832772
0.0332937105018
0.0718689700638
0.0333155534138
0.0670560806961
0.0333322691463
0.0622426596921
0.0333445871164
0.0574291534201
0.0333531878495
0.0526159170123
0.033358703117
0.0478032212622
0.0333617160701
0.0429912595292
0.0333627614012
0.0381801546907
0.0333623255682
0.0333699662566
0.0333608471207
0.0285606978826
0.0333587171389
0.0237523057612
0.033356279451
0.0189447083248
0.0333538315194
0.0141378125683
0.0333515255402
0.00933177665106
0.0333476317664
0.00453601978867
0.0332787329355
0.0314757259455
0.014471817405
-0.106674287436
0.02987940116
-0.113466442316
0.0451249844934
-0.112491065641
0.0601154288108
-0.110874573465
0.0747684512815
-0.108730324005
0.0890121318973
-0.106111095869
0.10278269553
-0.103059485267
0.116025545497
-0.0996242335483
0.128695472371
-0.0958566361103
0.140756570179
-0.0918090983381
0.1521818519
-0.0875335893481
0.162952645357
-0.0830803800674
0.173057837853
-0.0784970425698
0.182493033307
-0.0738277161851
0.191259675535
-0.0691126206534
0.199364180107
-0.0643877866081
0.206817106042
-0.0596849677733
0.213632388441
-0.0550316979635
0.219826644634
-0.0504514575696
0.225418559571
-0.0459639178293
0.230428351093
-0.0415852356766
0.234877312139
-0.0373283768785
0.238787424565
-0.0332034498276
0.242181037952
-0.0292180366882
0.245080606161
-0.0253775122504
0.247508474329
-0.0216853439719
0.249486709319
-0.018143369124
0.251036967137
-0.0147520469332
0.252180391499
-0.0115106850247
0.25293753835
-0.00841764047436
0.253328322068
-0.00547049604219
0.253371979741
-0.00266621273677
0.253087042249
-1.25800547488e-06
0.252491224529
0.00252845891893
0.251601704348
0.00492688502396
0.250434866376
0.00719842710544
0.249006399639
0.00934755073921
0.247331302623
0.0113788173511
0.245423901787
0.0132968076581
0.243297870394
0.015106088558
0.240966249244
0.0168111814364
0.23844146831
0.0184165378575
0.235735368861
0.0199265205081
0.232859225716
0.0213453887439
0.229823769354
0.0226772879666
0.226639207651
0.0239262421771
0.223315247126
0.0250961491561
0.219861113534
0.0261907777811
0.216285571778
0.0272137670791
0.212596945033
0.0281686266588
0.208803133102
0.029058738235
0.204911629947
0.0298873579888
0.200929540432
0.0306576195618
0.196863596262
0.0313725375038
0.192720171155
0.0320350110348
0.188505295278
0.0326478279954
0.184224668957
0.0332136688943
0.179883675728
0.0337351109659
0.175487394739
0.034214632182
0.171040612563
0.0346546151589
0.166547834459
0.0350573509278
0.162013295108
0.0354250425327
0.157440968891
0.0357598084395
0.152834579718
0.0360636857362
0.148197610477
0.0363386331193
0.143533312113
0.0365865336581
0.138844712399
0.0368091973395
0.134134624409
0.0370083633927
0.129405654737
0.037185702402
0.124660211504
0.0373428182053
0.119900512146
0.0374812496121
0.115128591049
0.0376024719099
0.110346307032
0.0377078982104
0.105555350705
0.0377988806218
0.100757251721
0.0378767112687
0.0959533859429
0.0379426231684
0.0911449825411
0.0379977909769
0.0863331310326
0.0380433316164
0.0815187882789
0.038080304796
0.0767027854483
0.0381097134364
0.0718858349565
0.0381325040127
0.0670685373884
0.038149566824
0.0622513884115
0.0381617362053
0.0574347856822
0.0381697906928
0.0526190357603
0.0381744531556
0.0478043610312
0.0381763909189
0.0429909066743
0.0381762158817
0.0381787477118
0.038174484658
0.0333678962252
0.0381716987399
0.0285583088709
0.0381683046301
0.0237498948982
0.0381646935493
0.0189425246355
0.0381612019097
0.0141360531908
0.0381579971363
0.00933057239426
0.0381531127014
0.00453546535363
0.0380738401257
0.0360111913846
0.0149910298526
-0.121665318253
0.0309583069569
-0.129433720264
0.046742084892
-0.128274844482
0.0622422016355
-0.126374691086
0.0773679806775
-0.123856103908
0.0920412672457
-0.120784383275
0.106193711638
-0.117211930476
0.119767913012
-0.113198435715
0.13271751672
-0.108806240589
0.145006953815
-0.10409853618
0.156610824538
-0.0991374607964
0.167513038297
-0.0939825945265
0.177705801244
-0.0886898061962
0.187188532602
-0.0833104481987
0.195966774621
-0.0778908633067
0.204051144637
-0.072472157237
0.211456362297
-0.0670901860253
0.218200371863
-0.0617757081004
0.224303569024
-0.0565546552819
0.229788133741
-0.0514484830771
0.234677465169
-0.0464745676179
0.23899571117
-0.0416466233726
0.242767382941
-0.0369751220757
0.246017044503
-0.0324676987073
0.248769066718
-0.0281295349073
0.2510474361
-0.0239637137766
0.252875609419
-0.0199715428514
0.254276406197
-0.0161528441011
0.255271932106
-0.0125062113095
0.255883527269
-0.00902923599655
0.256131735091
-0.00571870420881
0.256036290848
-0.0025707688215
0.255616113806
0.000418918734548
0.254889158521
0.00325541393845
0.253872841777
0.0059432015259
0.25258367744
0.00848759121497
0.251037427309
0.0108938006543
0.249249116307
0.0131671281494
0.247233058689
0.0153128650833
0.245002884295
0.0173362627706
0.242571565664
0.0192424998967
0.239951445148
0.0210366582131
0.237154261672
0.0227237038349
0.234191176859
0.0243084734175
0.231072800363
0.0257956643328
0.227809214272
0.0271898281492
0.22440999651
0.0284953668074
0.220884243208
0.029716530983
0.217240589999
0.030857420197
0.213487232264
0.0319219843111
0.209631944333
0.0329140260929
0.205682097662
0.0338372045957
0.201644678036
0.0346950391315
0.197526301833
0.0354909136594
0.19333323139
0.036228081438
0.189071389533
0.0369096698209
0.18474637331
0.0375386850933
0.180363466988
0.038118017272
0.175927654359
0.0386504448015
0.171443630417
0.0391386390994
0.166915812441
0.0395851689095
0.162348350547
0.039992504438
0.157745137757
0.0403630212484
0.153109819611
0.0406990039064
0.148445803398
0.0410026493638
0.143756267011
0.0412760700822
0.139044167498
0.0415212968951
0.134312249324
0.041740281616
0.129563052382
0.0419348993978
0.124798919794
0.0421069508534
0.120022005522
0.042258163949
0.11523428182
0.0423901956827
0.110437546547
0.0425046335589
0.105633430373
0.0426029968761
0.100823403889
0.0426867378384
0.0960087846403
0.0427572425064
0.091190744109
0.0428158316024
0.0863703146427
0.042863761181
0.0815483963584
0.0429022231822
0.0767257640224
0.0429323458777
0.0719030739179
0.0429551942253
0.0670808707092
0.0429717701434
0.0622595943081
0.0429830127194
0.0574395867517
0.0429897983644
0.0526210990966
0.0429929409284
0.0478042983499
0.0429931917864
0.0429892744484
0.0429912399076
0.0381760473237
0.0429877119121
0.0333645740933
0.0429831721021
0.0285547564359
0.0429781224198
0.0237464482288
0.0429730018987
0.0189394631418
0.042968187128
0.0141335973079
0.0429638630845
0.00932887402345
0.0429578361454
0.0045346458738
0.0428680684496
0.0405458373263
0.015601560059
-0.137266879314
0.0322272656619
-0.146059426744
0.0486427129696
-0.144690292704
0.0647390677717
-0.142471046788
0.0804153937854
-0.139532430797
0.0955861031804
-0.135955093525
0.110177582656
-0.131803410783
0.12412943931
-0.127150293179
0.137394411998
-0.122071214061
0.149937846501
-0.116641971445
0.161736752591
-0.110936367622
0.172778598248
-0.105024440898
0.183059961528
-0.0989711701652
0.192585142119
-0.092835629457
0.201364809742
-0.086670531572
0.209414742922
-0.0805220910404
0.216754691096
-0.0744301347987
0.223407376279
-0.0684283938633
0.229397638112
-0.0625449176719
0.234751717292
-0.0568025627973
0.239496666937
-0.0512195177812
0.243659878278
-0.0458098352143
0.247268705954
-0.0405839502324
0.250350178124
-0.035549171342
0.252930777533
-0.0307101347618
0.255036280901
-0.0260692175742
0.256691645583
-0.0216269079446
0.257920933952
-0.0173821328657
0.258747267453
-0.0133325451884
0.259192803046
-0.0094747719538
0.25927872722
-0.00580462872954
0.259025275484
-0.00231731741749
0.258451761128
0.000992432791096
0.257576399471
0.00413077533437
0.256416784861
0.00710281589879
0.25498954865
0.0099148272014
0.253310502477
0.0125728466153
0.251394673613
0.0150829568126
0.249256338066
0.0174512004404
0.246909055499
0.0196835451595
0.244365703315
0.0217858519133
0.241638509684
0.0237638516866
0.238739085204
0.0256231281683
0.235678453096
0.0273691053892
0.23246707788
0.0290070394221
0.229114892521
0.0305420133916
0.225631324051
0.0319789351703
0.222025317713
0.0333225372222
0.218305359673
0.0345773781492
0.214479498346
0.0357478455584
0.210555364431
0.0368381599372
0.206540189696
0.0378523792682
0.202440824605
0.0387944041688
0.198263754851
0.0396679833682
0.194015116874
0.0404767193778
0.189700712436
0.0412240742301
0.185326022318
0.0419133751895
0.18089621922
0.0425478203558