/*--------------------------------*- C++ -*----------------------------------*\
| =========                 |                                                 |
| \\      /  F ield         | OpenFOAM: The Open Source CFD Toolbox           |
|  \\    /   O peration     | Version:  v1906                                 |
|   \\  /    A nd           | Web:      www.OpenFOAM.com                      |
|    \\/     M anipulation  |                                                 |
\*---------------------------------------------------------------------------*/
FoamFile
{
    version     2.0;
    format      ascii;
    class       volVectorField;
    location    "212";
    object      U;
}
// * * * * * * * * * * * * * * * * * * * * * * * * * * * * * * * * * * * * * //

dimensions      [0 1 -1 0 0 0 0];


internalField   nonuniform List<vector> 
9216
(
(-0.0937712276177 0.0938353001529 0)
(-0.0964340446354 0.291976058266 4.5134402926e-26)
(-0.095983026682 0.491545185523 -6.50439244053e-30)
(-0.0948955642359 0.690495715184 0)
(-0.0934090904106 0.886693444959 0)
(-0.091560634036 1.07944664997 0)
(-0.0893827593534 1.26804202849 0)
(-0.0869041789731 1.45182244074 0)
(-0.0841537671705 1.63018935744 0)
(-0.0811613690453 1.80260460267 0)
(-0.0779575981795 1.96859249548 0)
(-0.0745734189723 2.12774119684 0)
(-0.0710395946427 2.27970299476 0)
(-0.0673862342769 2.42419349787 0)
(-0.0636423176477 2.56098986482 0)
(-0.0598353767088 2.68992818121 0)
(-0.0559911677624 2.8109001684 0)
(-0.0521335099218 2.92384936005 0)
(-0.0482841025735 3.02876692357 0)
(-0.0444625026268 3.12568724764 0)
(-0.0406860602343 3.2146834407 0)
(-0.0369700009943 3.29586283116 0)
(-0.0333274449927 3.36936257402 0)
(-0.0297695579546 3.4353454212 0)
(-0.026305619897 3.49399572148 0)
(-0.0229432137694 3.54551567839 0)
(-0.0196883168168 3.59012190018 0)
(-0.0165455037605 3.62804224926 0)
(-0.0135180449458 3.65951300433 0)
(-0.0106081183604 3.68477633634 0)
(-0.00781693373709 3.70407812036 0)
(-0.00514503941588 3.7176661283 0)
(-0.00259281894708 3.72578929757 0)
(-0.000162307393727 3.72869104134 0)
(0.00215223064118 3.72663872092 0)
(0.00435860056566 3.71984893639 0)
(0.00645723549553 3.70855375743 0)
(0.00844926852045 3.69297989279 0)
(0.010337109108 3.67334879901 0)
(0.0121236991283 3.64987606614 0)
(0.0138122773925 3.62277067335 0)
(0.015406204971 3.59223461149 0)
(0.016908949746 3.55846267199 0)
(0.0183239917952 3.52164233653 0)
(0.0196548436817 3.48195373335 0)
(0.020904976261 3.43956965288 0)
(0.0220778498381 3.39465560221 0)
(0.0231768498087 3.34736989959 0)
(0.0242053234145 3.29786379181 0)
(0.0251665223152 3.2462815993 0)
(0.0260636427329 3.19276087265 0)
(0.0268997734483 3.13743256827 0)
(0.0276779378969 3.08042122733 0)
(0.0284010464971 3.02184516765 0)
(0.0290719395735 2.9618166731 0)
(0.0296933432352 2.90044219157 0)
(0.0302679122874 2.83782252668 0)
(0.0307981890518 2.77405303519 0)
(0.0312866455958 2.70922381543 0)
(0.0317356450836 2.6434198999 0)
(0.0321474828405 2.5767214371 0)
(0.0325243499227 2.50920387678 0)
(0.0328683726317 2.44093814347 0)
(0.0331815781219 2.37199081307 0)
(0.033465932102 2.3024242774 0)
(0.0337233063483 2.23229691182 0)
(0.0339555143847 2.16166323084 0)
(0.0341642808517 2.09057404706 0)
(0.034351275033 2.01907661829 0)
(0.0345180820508 1.94721479862 0)
(0.0346662341316 1.87502917774 0)
(0.034797183649 1.80255722497 0)
(0.0349123320685 1.72983342188 0)
(0.0350130048616 1.65688940016 0)
(0.0351004780756 1.58375406856 0)
(0.0351759551723 1.51045374558 0)
(0.0352405911954 1.43701228171 0)
(0.0352954715764 1.36345118792 0)
(0.0353416338642 1.28978975415 0)
(0.0353800485455 1.21604517448 0)
(0.0354116382923 1.14223266283 0)
(0.0354372607908 1.0683655758 0)
(0.0354577253671 0.994455526637 0)
(0.0354737776461 0.920512507136 0)
(0.0354861130174 0.846545001906 0)
(0.0354953620308 0.772560112833 0)
(0.0355020979898 0.698563680365 0)
(0.0355068165566 0.624560425078 0)
(0.0355099204063 0.550554110085 0)
(0.0355116474724 0.476547781508 0)
(0.0355119001209 0.402544219704 0)
(0.0355097623717 0.328546714371 0)
(0.0355015317858 0.254563045486 0)
(0.0354823414549 0.180571244305 0)
(0.0353795576673 0.107054143304 0)
(0.0343259308996 0.0343260901851 0)
(-0.292338173229 0.0970775907263 0)
(-0.308635284757 0.310103297205 0)
(-0.307122210536 0.522294626437 -4.569228816e-26)
(-0.303605623771 0.733970670645 0)
(-0.29885063434 0.942555571205 0)
(-0.292969519398 1.14741981351 0)
(-0.286044504252 1.34783118989 0)
(-0.278159958689 1.54309881519 0)
(-0.269405297797 1.73258893412 0)
(-0.259874492953 1.91573061666 0)
(-0.249664556999 2.09201926326 0)
(-0.238873846754 2.26101842802 0)
(-0.227600266133 2.4223601957 0)
(-0.215939715917 2.575744296 0)
(-0.203984635938 2.72093614212 0)
(-0.19182290439 2.85776395965 0)
(-0.179536861876 2.98611519761 0)
(-0.167202706381 3.10593238887 0)
(-0.154889984114 3.21720863696 0)
(-0.142661419826 3.31998287304 0)
(-0.130572787914 3.41433502528 0)
(-0.118673073952 3.50038120739 0)
(-0.107004614632 3.57826902689 0)
(-0.0956034775756 3.64817308094 0)
(-0.084499763528 3.71029070087 0)
(-0.0737181053796 3.76483797976 0)
(-0.0632780459474 3.81204611211 0)
(-0.0531945817108 3.85215805421 0)
(-0.0434785577382 3.88542550917 0)
(-0.03413721581 3.91210622227 0)
(-0.0251745956658 3.9324615514 0)
(-0.016592134053 3.94675421992 0)
(-0.00838922525577 3.95524560395 0)
(-0.000564825122764 3.95819751993 0)
(0.00688949967592 3.95584528074 0)
(0.0139844802606 3.94846180327 0)
(0.0207264668268 3.93629889655 0)
(0.0271230593161 3.91960089595 0)
(0.0331834123752 3.89860468627 0)
(0.0389175545932 3.8735397153 0)
(0.0443361237051 3.84462798085 0)
(0.0494500834947 3.81208388233 0)
(0.0542706487002 3.77611408492 0)
(0.058809098662 3.73691743986 0)
(0.063076759949 3.69468495773 0)
(0.0670848623024 3.6495998347 0)
(0.0708445506177 3.60183751868 0)
(0.074366767628 3.55156581394 0)
(0.0776622850801 3.49894501118 0)
(0.0807416059743 3.44412804369 0)
(0.0836150089177 3.38726065784 0)
(0.0862924651534 3.32848160025 0)
(0.0887836917057 3.26792281129 0)
(0.0910980796035 3.20570962847 0)
(0.0932447524297 3.14196099038 0)
(0.09523250303 3.076789646 0)
(0.0970698548874 3.01030236052 0)
(0.0987650052651 2.94260012351 0)
(0.100325887428 2.87377835107 0)
(0.101760118733 2.80392708838 0)
(0.103075062247 2.7331312048 0)
(0.1042777787 2.66147058823 0)
(0.105375086413 2.5890203313 0)
(0.106373516398 2.5158509164 0)
(0.107279369831 2.44202839223 0)
(0.108098675808 2.36761454924 0)
(0.108837245821 2.29266708661 0)
(0.109500633892 2.2172397784 0)
(0.110094187701 2.14138263166 0)
(0.110623010942 2.06514204396 0)
(0.111092010871 1.98856095347 0)
(0.111505862852 1.91167898888 0)
(0.111869054186 1.83453261242 0)
(0.112185850874 1.75715526328 0)
(0.112460337658 1.67957749462 0)
(0.112696387074 1.6018271115 0)
(0.112897695674 1.52392930297 0)
(0.113067755466 1.44590677553 0)
(0.113209886286 1.36777988127 0)
(0.113327209704 1.28956674781 0)
(0.11342267748 1.2112834034 0)
(0.11349904791 1.13294390436 0)
(0.113558910065 1.05456045808 0)
(0.113604662129 0.976143548902 0)
(0.11363853025 0.89770206025 0)
(0.113662546542 0.819243400337 0)
(0.113678557295 0.740773624686 0)
(0.113688189114 0.662297561584 0)
(0.113692819717 0.583818928675 0)
(0.113693468996 0.505340422374 0)
(0.113690576141 0.426863741028 0)
(0.113683442513 0.348388900069 0)
(0.11366852652 0.269914557317 0)
(0.113632192144 0.191375232714 0)
(0.113355917204 0.113400531655 0)
(0.107078894657 0.0354027823659 0)
(-0.494481652043 0.0980981654434 0)
(-0.522280933818 0.313233178725 0)
(-0.519329689464 0.52717727576 -4.54001929173e-26)
(-0.513253020247 0.740777758534 0)
(-0.505154866259 0.95122789068 0)
(-0.495173958612 1.15786893026 0)
(-0.483432177999 1.35994872794 0)
(-0.470066774283 1.55676376389 0)
(-0.455227885179 1.74767093218 0)
(-0.439074931182 1.93209268177 0)
(-0.421773059088 2.10952045164 0)
(-0.403489780807 2.2795164055 0)
(-0.384391816655 2.44171362132 0)
(-0.36464231679 2.59581494517 0)
(-0.344398432447 2.74159071705 0)
(-0.32380936413 2.87887556874 0)
(-0.303014795492 3.00756449884 0)
(-0.282143799664 3.12760841498 0)
(-0.26131408358 3.23900932462 0)
(-0.240631636815 3.34181533181 0)
(-0.220190627674 3.43611558025 0)
(-0.200073609239 3.52203525595 0)
(-0.180351872011 3.59973074447 0)
(-0.161086012461 3.66938501242 0)
(-0.142326557555 3.73120326734 0)
(-0.124114726662 3.78540892967 0)
(-0.106483178796 3.83223993852 0)
(-0.0894568396176 3.87194539837 0)
(-0.0730536647768 3.90478256518 0)
(-0.0572854440285 3.93101415938 0)
(-0.0421585042351 3.95090598576 0)
(-0.0276743989469 3.96472484151 0)
(-0.0138303543911 3.9727366379 0)
(-0.000619033824096 3.97520549352 0)
(0.0119679027914 3.97239347636 0)
(0.0239396433425 3.96455419227 0)
(0.0353105957645 3.95193818838 0)
(0.04609641377 3.93479002244 0)
(0.0563136603779 3.91334738838 0)
(0.065979776724 3.88784069829 0)
(0.0751129336042 3.8584928181 0)
(0.0837317927406 3.82551886903 0)
(0.0918553437454 3.78912609763 0)
(0.0995027076207 3.7495138113 0)
(0.106693024332 3.70687337021 0)
(0.113445306467 3.66138822865 0)
(0.119778370857 3.61323401651 0)
(0.125710732044 3.56257865497 0)
(0.131260567167 3.50958249843 0)
(0.1364456394 3.45439849851 0)
(0.141283287158 3.3971723836 0)
(0.145790369674 3.33804285141 0)
(0.149983273468 3.27714176937 0)
(0.153877873947 3.21459438147 0)
(0.15748955368 3.15051951748 0)
(0.160833175295 3.08502980416 0)
(0.163923107378 3.01823187521 0)
(0.16677320512 2.9502265802 0)
(0.169396840661 2.88110918986 0)
(0.171806888868 2.81096959867 0)
(0.174015759793 2.73989252231 0)
(0.176035387668 2.66795769156 0)
(0.1778772638 2.59524004036 0)
(0.179552427441 2.5218098899 0)
(0.181071497949 2.44773312675 0)
(0.182444666627 2.37307137707 0)
(0.183681727349 2.29788217502 0)
(0.184792068804 2.22221912745 0)
(0.185784703082 2.14613207327 0)
(0.186668257992 2.06966723955 0)
(0.187451003312 1.9928673927 0)
(0.188140843032 1.91577198694 0)
(0.188745339136 1.83841730843 0)
(0.189271703733 1.76083661721 0)
(0.189726820331 1.68306028533 0)
(0.190117235926 1.60511593337 0)
(0.190449179783 1.52702856359 0)
(0.190728555571 1.44882069205 0)
(0.190960957707 1.37051247782 0)
(0.191151663621 1.29212185162 0)
(0.191305647651 1.21366464189 0)
(0.191427573423 1.13515470077 0)
(0.191521805068 1.05660402785 0)
(0.19159239929 0.978022894002 0)
(0.191643112961 0.899419963057 0)
(0.191677393115 0.820802413098 0)
(0.191698377591 0.742176053892 0)
(0.191708877194 0.663545439293 0)
(0.191711360119 0.584913964117 0)
(0.191707915273 0.506283922852 0)
(0.191700221087 0.427656535745 0)
(0.191689574059 0.349031410009 0)
(0.19167694087 0.270408745728 0)
(0.191657248687 0.191726615893 0)
(0.191334006292 0.113693893765 0)
(0.180645185486 0.0355088946836 0)
(-0.699856749795 0.0992967613839 0)
(-0.73947720344 0.316999680025 0)
(-0.735250749465 0.53339464879 4.50580454579e-26)
(-0.726562598813 0.749429375879 0)
(-0.714995396991 0.962215015255 0)
(-0.700752514424 1.17106333826 0)
(-0.684008191936 1.3751959013 0)
(-0.664958836521 1.57389006057 0)
(-0.643819905295 1.76648877673 0)
(-0.620820400118 1.95240521045 0)
(-0.59619747878 2.13112585608 0)
(-0.570191414046 2.30221196039 0)
(-0.543040984258 2.46529931816 0)
(-0.51497942263 2.62009666079 0)
(-0.486230963133 2.76638286785 0)
(-0.457008047732 2.90400323357 0)
(-0.427509161178 3.03286501738 0)
(-0.397917298711 3.15293249207 0)
(-0.368398981941 3.26422168438 0)
(-0.339103795066 3.36679497687 0)
(-0.310164333326 3.46075571488 0)
(-0.281696527114 3.5462429343 0)
(-0.253800231498 3.62342630159 0)
(-0.226560051926 3.69250133281 0)
(-0.200046306074 3.75368493888 0)
(-0.17431610765 3.80721132548 0)
(-0.14941448704 3.85332826186 0)
(-0.125375551066 3.89229372029 0)
(-0.102223611142 3.92437287885 0)
(-0.0799742953875 3.94983547266 0)
(-0.0586355826836 3.96895347442 0)
(-0.0382087800205 3.98199910043 0)
(-0.0186893449304 3.98924301601 0)
(-6.80412186664e-05 3.99095292711 0)
(0.0176690340089 3.98739663651 0)
(0.0345374266561 3.97882773903 0)
(0.0505569040263 3.96549954187 0)
(0.0657494694988 3.94765809324 0)
(0.0801387667491 3.92554230954 0)
(0.0937497444479 3.89938360433 0)
(0.10660832989 3.86940558048 0)
(0.118741111292 3.83582384989 0)
(0.130175079351 3.7988459353 0)
(0.140937388144 3.75867123724 0)
(0.151055171131 3.71549105562 0)
(0.160555370623 3.66948865711 0)
(0.169464614704 3.62083938009 0)
(0.177809100633 3.56971077016 0)
(0.185614518321 3.51626273969 0)
(0.192905974361 3.46064774642 0)
(0.199707949921 3.40301098598 0)
(0.206044254552 3.34349059492 0)
(0.21193800881 3.28221786034 0)
(0.217411619292 3.21931743398 0)
(0.222486778408 3.15490754793 0)
(0.227184454072 3.08910023057 0)
(0.231524900857 3.02200152086 0)
(0.235527659317 2.95371168012 0)
(0.239211574203 2.88432540013 0)
(0.242594799719 2.81393200717 0)
(0.245694821606 2.74261566117 0)
(0.248528465662 2.67045555005 0)
(0.251111921389 2.59752607861 0)
(0.25346075191 2.52389705249 0)
(0.255589917594 2.44963385656 0)
(0.257513786077 2.37479762847 0)
(0.259246154825 2.29944542702 0)
(0.26080026044 2.22363039594 0)
(0.262188799504 2.14740192295 0)
(0.263423936697 2.07080579484 0)
(0.264517323558 1.9938843482 0)
(0.265480105189 1.91667661684 0)
(0.266322936785 1.83921847544 0)
(0.267055988864 1.76154278042 0)
(0.267688961556 1.68367950762 0)
(0.268231088425 1.60565588776 0)
(0.268691148591 1.52749653923 0)
(0.269077469275 1.44922359917 0)
(0.269397935858 1.37085685238 0)
(0.269659993283 1.29241385888 0)
(0.269870654152 1.21391007977 0)
(0.270036499039 1.13535900204 0)
(0.270163682578 1.05677226187 0)
(0.270257932536 0.978159767018 0)
(0.270324553527 0.899529817449 0)
(0.270368424278 0.820889224208 0)
(0.270393998282 0.742243424657 0)
(0.270405299151 0.663596591934 0)
(0.270405920867 0.584951733254 0)
(0.270399033473 0.506310764466 0)
(0.270387422094 0.427674607333 0)
(0.270373609744 0.349042842971 0)
(0.270359830835 0.270416772594 0)
(0.270337396737 0.191736019236 0)
(0.269883650355 0.113724564328 0)
(0.254692785377 0.0355262421128 0)
(-0.908038885315 0.100881324424 0)
(-0.959466928162 0.322033407359 0)
(-0.953914821306 0.541811583155 0)
(-0.942516617109 0.761147583153 0)
(-0.92734383865 0.977088615255 0)
(-0.908671059846 1.1889127727 0)
(-0.886731580935 1.39580859113 0)
(-0.861787042288 1.59702780347 0)
(-0.834123860923 1.79189447384 0)
(-0.804045939674 1.97980931604 0)
(-0.771867406562 2.16025247863 0)
(-0.737905812628 2.33278448761 0)
(-0.702475969747 2.49704544432 0)
(-0.665884571957 2.65275272417 0)
(-0.628425673863 2.79969744437 0)
(-0.590377067818 2.9377399732 0)
(-0.551997536456 3.06680474457 0)
(-0.513524941356 3.18687461941 0)
(-0.475175061148 3.29798500797 0)
(-0.437141097319 3.40021793427 0)
(-0.399593735549 3.49369619112 0)
(-0.362681671696 3.57857770194 0)
(-0.326532492511 3.65505017615 0)
(-0.291253831984 3.72332611849 0)
(-0.256934710607 3.78363823056 0)
(-0.223646999531 3.83623522397 0)
(-0.191446938882 3.88137804995 0)
(-0.160376674306 3.91933653848 0)
(-0.130465761409 3.95038643182 0)
(-0.101732620539 3.97480679154 0)
(-0.074185906699 3.99287775292 0)
(-0.0478257949557 4.00487864395 0)
(-0.0226450909473 4.01108590765 0)
(0.0013689286474 4.0117732344 0)
(0.0242358201318 4.00721147792 0)
(0.0459773146432 3.9976579684 0)
(0.066619494152 3.98336918089 0)
(0.0861913829788 3.96459345897 0)
(0.104724169181 3.94157142886 0)
(0.122250671181 3.9145357894 0)
(0.13880488471 3.88371105367 0)
(0.154421584542 3.84931341597 0)
(0.169135988565 3.81155069991 0)
(0.182983467104 3.77062236799 0)
(0.19599930409 3.72671958197 0)
(0.20821849358 3.68002530481 0)
(0.219675578134 3.63071443602 0)
(0.230404513206 3.57895397364 0)
(0.240438564435 3.52490319678 0)
(0.249810222989 3.46871386373 0)
(0.258551146425 3.41053042138 0)
(0.266692111216 3.3504902222 0)
(0.274262984881 3.28872374592 0)
(0.281292704828 3.22535482335 0)
(0.287809272192 3.1605008603 0)
(0.293839748615 3.09427306 0)
(0.299410264474 3.02677664272 0)
(0.304546027299 2.95811106166 0)
(0.309271338918 2.88837021422 0)
(0.313609610822 2.81764264833 0)
(0.317583386242 2.74601176328 0)
(0.321214359082 2.67355600505 0)
(0.32452339807 2.60034905582 0)
(0.32753056689 2.526460018 0)
(0.330255148443 2.45195359254 0)
(0.332715664576 2.37689025195 0)
(0.334929899161 2.30132640812 0)
(0.336914916408 2.22531457524 0)
(0.338687081965 2.14890352803 0)
(0.340262079233 2.07213845567 0)
(0.341654928067 1.99506111173 0)
(0.342879998815 1.91770996027 0)
(0.343951028463 1.84012031864 0)
(0.344881132344 1.76232449711 0)
(0.345682817749 1.68435193562 0)
(0.346367993394 1.60622933819 0)
(0.346947980626 1.52798080476 0)
(0.347433520836 1.4496279613 0)
(0.347834784444 1.37119008792 0)
(0.348161376464 1.29268424544 0)
(0.348422343477 1.21412540057 0)
(0.348626177537 1.13552654975 0)
(0.3487808213 1.05689884178 0)
(0.348893670452 0.978251699221 0)
(0.348971577203 0.899592938334 0)
(0.349020851666 0.820928887302 0)
(0.34904726478 0.7422645018 0)
(0.349056051367 0.663603476987 0)
(0.349051919081 0.584948354807 0)
(0.349039068363 0.506300621826 0)
(0.349021239176 0.427660863078 0)
(0.349001799123 0.349028511514 0)
(0.348983448509 0.270405223293 0)
(0.348953339903 0.191730603072 0)
(0.348363084692 0.113728870848 0)
(0.328726796649 0.0355311975896 0)
(-1.11997107509 0.102886238048 0)
(-1.18335373068 0.328435977673 0)
(-1.17639413886 0.552550040359 0)
(-1.1621448562 0.776104390561 0)
(-1.1431797341 0.996068199148 0)
(-1.11985069605 1.21167825173 0)
(-1.09245720431 1.42208247715 0)
(-1.06133360771 1.62650051732 0)
(-1.02684473945 1.82423279558 0)
(-0.989376602381 2.01466474834 0)
(-0.9493270326 2.19726922591 0)
(-0.907096967484 2.37160679586 0)
(-0.863082595956 2.53732411356 0)
(-0.817668573013 2.69415067006 0)
(-0.771222393675 2.84189424776 0)
(-0.724089955124 2.98043541299 0)
(-0.676592269721 3.10972135524 0)
(-0.629023251937 3.22975935004 0)
(-0.581648464362 3.34061008256 0)
(-0.53470469607 3.44238102648 0)
(-0.488400232706 3.53522003093 0)
(-0.442915685788 3.61930922901 0)
(-0.398405249683 3.69485934746 0)
(-0.354998273527 3.76210446727 0)
(-0.312801042724 3.82129726109 0)
(-0.271898686873 3.8727047141 0)
(-0.232357139006 3.91660432042 0)
(-0.19422509223 3.95328073644 0)
(-0.157535905554 3.98302286526 0)
(-0.122309428951 4.00612134252 0)
(-0.0885537194906 4.02286638614 0)
(-0.0562666425999 4.03354605766 0)
(-0.0254372429872 4.03844376474 0)
(0.0039521329142 4.0378409012 0)
(0.0319270434332 4.03201171568 0)
(0.0585159669627 4.02121822837 0)
(0.0837522860447 4.00572061141 0)
(0.107672733848 3.98576995134 0)
(0.13031657879 3.96160894753 0)
(0.151724964986 3.93347181915 0)
(0.171940353309 3.90158412499 0)
(0.191006043987 3.86616269901 0)
(0.208965772695 3.82741565956 0)
(0.225863368409 3.78554247337 0)
(0.241742469219 3.74073406433 0)
(0.256646286122 3.69317295807 0)
(0.270617411949 3.64303345479 0)
(0.283697666453 3.59048182359 0)
(0.295927975669 3.5356765131 0)
(0.307348277666 3.47876837352 0)
(0.317997453704 3.4199008864 0)
(0.327913277995 3.35921039883 0)
(0.337132385864 3.29682635951 0)
(0.345690254428 3.23287155445 0)
(0.353621196297 3.16746234061 0)
(0.360958361136 3.10070887631 0)
(0.367733746154 3.03271534703 0)
(0.373978211017 2.9635801862 0)
(0.379721498626 2.89339629021 0)
(0.384992257807 2.82225122736 0)
(0.389818069648 2.7502274406 0)
(0.394225473962 2.67740244395 0)
(0.398239997823 2.60384901256 0)
(0.401886183015 2.52963536679 0)
(0.405187614462 2.4548253502 0)
(0.408166946802 2.37947860192 0)
(0.410845931209 2.30365072357 0)
(0.413245439915 2.22739344112 0)
(0.415385490537 2.15075476191 0)
(0.41728526788 2.07377912732 0)
(0.4189631453 1.99650756127 0)
(0.42043670351 1.91897781505 0)
(0.421722748825 1.84122450865 0)
(0.422837328933 1.76327926909 0)
(0.42379574809 1.68517086587 0)
(0.424612579994 1.60692534401 0)
(0.425301680128 1.52856615482 0)
(0.425876195988 1.45011428471 0)
(0.42634857684 1.37158838229 0)
(0.426730581609 1.29300488391 0)
(0.427033286375 1.21437813785 0)
(0.427267090245 1.13572052732 0)
(0.427441720953 1.05704259225 0)
(0.427566239159 0.978353150041 0)
(0.427649042738 0.899659415166 0)
(0.427697870447 0.820967117475 0)
(0.427719806577 0.742280619104 0)
(0.427721287064 0.663603029962 0)
(0.427708110164 0.584936322977 0)
(0.42768545485 0.506281446834 0)
(0.427657911887 0.427638504913 0)
(0.427629517253 0.349006522934 0)
(0.427603228663 0.270386928785 0)
(0.42756227598 0.191718460139 0)
(0.426833601194 0.113722582229 0)
(0.402766116617 0.0355292088661 0)
(-1.33656741517 0.105348654237 0)
(-1.41212072679 0.336303087629 0)
(-1.40364253242 0.565750890561 4.4258547468e-26)
(-1.38635540824 0.79449047451 0)
(-1.36335499641 1.01939071513 0)
(-1.33507827707 1.23963662807 0)
(-1.30189939203 1.4543265151 0)
(-1.26423469265 1.66264097016 0)
(-1.22253692371 1.86385205796 0)
(-1.17728343131 2.05732747432 0)
(-1.12896440128 2.24253243975 0)
(-1.07807193763 2.41902913403 0)
(-1.02509034625 2.58647394576 0)
(-0.97048784453 2.74461294732 0)
(-0.914709801281 2.89327601505 0)
(-0.858173515733 3.03236999983 0)
(-0.801264466042 3.16187131714 0)
(-0.744333903588 3.28181827584 0)
(-0.687697632179 3.39230340935 0)
(-0.63163579478 3.49346601624 0)
(-0.576393484628 3.58548506453 0)
(-0.522182005748 3.66857256675 0)
(-0.469180619899 3.7429674928 0)
(-0.417538636778 3.80893025478 0)
(-0.367377722718 3.86673777251 0)
(-0.318794325479 3.91667910894 0)
(-0.271862130598 3.95905165102 0)
(-0.226634484644 3.99415780224 0)
(-0.183146734827 4.02230214759 0)
(-0.141418450001 4.04378905038 0)
(-0.101455496433 4.05892062999 0)
(-0.0632519595024 4.06799521391 0)
(-0.0267917566161 4.07130428592 0)
(0.00794927495887 4.06913877387 0)
(0.041003151902 4.0617757766 0)
(0.072406221959 4.04948355599 0)
(0.102200069744 4.03252627662 0)
(0.130429915984 4.01115808025 0)
(0.157143769126 3.98562399036 0)
(0.182391659598 3.95615989605 0)
(0.206224992025 3.92299246622 0)
(0.228695997854 3.88633916996 0)
(0.249857273333 3.84640835964 0)
(0.269761391759 3.80339940018 0)
(0.28846058206 3.75750283536 0)
(0.306006464614 3.70890058288 0)
(0.322449837781 3.657766151 0)
(0.337840507477 3.60426487095 0)
(0.352227154611 3.54855414015 0)
(0.365657234039 3.49078367212 0)
(0.378176901076 3.43109574987 0)
(0.389830960403 3.36962547995 0)
(0.400662834455 3.30650104498 0)
(0.410714547144 3.24184395308 0)
(0.420026720863 3.17576928258 0)
(0.428638583477 3.10838592135 0)
(0.436587983924 3.03979679965 0)
(0.443911413797 2.97009911639 0)
(0.45064403413 2.89938455814 0)
(0.456819705249 2.82773951104 0)
(0.462471019336 2.75524526538 0)
(0.467629334023 2.68197821313 0)
(0.472324806955 2.60801003847 0)
(0.476586429979 2.53340790168 0)
(0.480442063138 2.45823461657 0)
(0.483918467378 2.38254882194 0)
(0.487041336322 2.30640514727 0)
(0.489835326211 2.22985437322 0)
(0.492324084491 2.15294358708 0)
(0.494530276292 2.07571633381 0)
(0.496475609349 1.99821276289 0)
(0.498180856743 1.92046977137 0)
(0.499665878049 1.84252114357 0)
(0.500949638343 1.76439768771 0)
(0.502050225688 1.68612736977 0)
(0.502984866633 1.60773544499 0)
(0.503769940307 1.52924458714 0)
(0.504420990734 1.45067501597 0)
(0.504952737912 1.37204462302 0)
(0.505379087339 1.29336909594 0)
(0.505713138508 1.21466204162 0)
(0.50596719211 1.13593510818 0)
(0.50615275645 1.05719810596 0)
(0.506280552925 0.978459127662 0)
(0.50636052113 0.899724667665 0)
(0.50640182366 0.820999740565 0)
(0.506412851459 0.742287999226 0)
(0.506401230284 0.663591852784 0)
(0.506373829631 0.584912586249 0)
(0.506336775083 0.50625047925 0)
(0.506295463358 0.427604991326 0)
(0.506254559314 0.348974515139 0)
(0.506217315662 0.270359916664 0)
(0.506163390307 0.191698759843 0)
(0.505295830583 0.113709292952 0)
(0.476801933582 0.035523929518 0)
(-1.55881784068 0.108305377186 0)
(-1.64681344159 0.345745572292 0)
(-1.63667827245 0.58159195077 -4.38962579815e-26)
(-1.61611849557 0.816547443749 0)
(-1.58877800582 1.04735500332 0)
(-1.55518942987 1.27313541532 0)
(-1.51581255248 1.49292698629 0)
(-1.47115751962 1.70586371711 0)
(-1.42177699435 1.91118461169 0)
(-1.36825130472 2.10823764782 0)
(-1.31117379123 2.29648092659 0)
(-1.25113735562 2.4754809038 0)
(-1.18872265847 2.64490812709 0)
(-1.12448821624 2.80453102762 0)
(-1.05896249408 2.95420830668 0)
(-0.992637965623 3.09388042021 0)
(-0.925967015402 3.22356060322 0)
(-0.859359495951 3.34332580254 0)
(-0.793181713532 3.45330780833 0)
(-0.727756602484 3.55368480145 0)
(-0.663364850056 3.64467346677 0)
(-0.600246748975 3.72652176606 0)
(-0.538604576801 3.79950241799 0)
(-0.478605328249 3.86390709704 0)
(-0.420383653812 3.9200413363 0)
(-0.364044885756 3.96822010063 0)
(-0.309668057057 4.00876398454 0)
(-0.257308841918 4.04199598225 0)
(-0.207002365299 4.06823877429 0)
(-0.158765845775 4.08781247711 0)
(-0.11260104755 4.10103279132 0)
(-0.0684965313109 4.10820969831 0)
(-0.0264295189024 4.10964376451 0)
(0.0136326106786 4.10563720829 0)
(0.0517287515049 4.09646899314 0)
(0.0879045831081 4.08241530326 0)
(0.12221091307 4.06374442808 0)
(0.154702319828 4.04071376089 0)
(0.185436304878 4.01357079248 0)
(0.214472429462 3.98255313536 0)
(0.241871590857 3.94788854896 0)
(0.267695415698 3.90979505883 0)
(0.292005750114 3.86848112523 0)
(0.31486423486 3.82414584758 0)
(0.33633195526 3.77697919684 0)
(0.356469156058 3.72716226808 0)
(0.375335012739 3.67486754702 0)
(0.392987451235 3.6202591853 0)
(0.409483009321 3.56349328045 0)
(0.424876733203 3.50471815706 0)
(0.43922210408 3.44407464646 0)
(0.452570989581 3.38169636287 0)
(0.464973616085 3.31770997416 0)
(0.476478557972 3.25223546628 0)
(0.487132740851 3.18538640015 0)
(0.496981455719 3.11727016056 0)
(0.506068381924 3.04798819673 0)
(0.514435616639 2.97763625415 0)
(0.522123709348 2.90630459793 0)
(0.529171699634 2.83407822751 0)
(0.535617157283 2.76103708313 0)
(0.541496223429 2.68725624424 0)
(0.546843652136 2.61280612022 0)
(0.551692851512 2.53775263379 0)
(0.556075924 2.46215739761 0)
(0.560023705234 2.38607788438 0)
(0.563565801296 2.30956759102 0)
(0.56673062397 2.23267619729 0)
(0.569545423985 2.15544971943 0)
(0.572036321961 2.0779306591 0)
(0.574228337193 2.00015814817 0)
(0.576145414063 1.92216808975 0)
(0.5778104463 1.84399329584 0)
(0.579245298943 1.76566362194 0)
(0.580470828278 1.68720609901 0)
(0.581506899649 1.60864506314 0)
(0.582372403436 1.5300022831 0)
(0.583085269144 1.45129708618 0)
(0.583662477891 1.37254648246 0)
(0.584120073281 1.29376528778 0)
(0.584473170934 1.21496624562 0)
(0.584735966712 1.13616014799 0)
(0.584921743914 1.05735595553 0)
(0.585042879536 0.978560916924 0)
(0.585110849924 0.899780687847 0)
(0.585136236042 0.821019449502 0)
(0.585128728769 0.742280027184 0)
(0.585097134592 0.663564009366 0)
(0.585049382003 0.584871868817 0)
(0.584992528383 0.506203082056 0)
(0.584932764834 0.427556312431 0)
(0.584875395072 0.348929143164 0)
(0.584824038053 0.270321685235 0)
(0.584754987937 0.19167021016 0)
(0.583747716661 0.113689716816 0)
(0.550829039597 0.035516304133 0)
(-1.78779343311 0.111799303637 0)
(-1.88855533425 0.356897446567 0)
(-1.87659306608 0.600293451304 0)
(-1.85247099256 0.842575331008 0)
(-1.82041479364 1.08033144531 0)
(-1.78106675682 1.31260397711 0)
(-1.73498646004 1.5383595222 0)
(-1.68279282766 1.75667736445 0)
(-1.62515354305 1.96675887266 0)
(-1.56276641265 2.16793104515 0)
(-1.49634123916 2.35964654016 0)
(-1.42658342465 2.54148022757 0)
(-1.35417983128 2.71312288756 0)
(-1.27978716409 2.87437279054 0)
(-1.20402293847 3.02512585527 0)
(-1.12745893658 3.16536501067 0)
(-1.05061694443 3.29514928924 0)
(-0.973966490651 3.41460307339 0)
(-0.8979242735 3.5239058098 0)
(-0.822854956471 3.62328241138 0)
(-0.749073026913 3.71299448358 0)
(-0.676845439501 3.79333244506 0)
(-0.606394801094 3.86460856083 0)
(-0.537902891315 3.92715086782 0)
(-0.471514350464 3.98129794664 0)
(-0.407340401408 4.0273944766 0)
(-0.345462503389 4.06578750199 0)
(-0.285935862961 4.09682333387 0)
(-0.228792750297 4.12084501275 0)
(-0.174045588385 4.13819026262 0)
(-0.121689799196 4.14918985944 0)
(-0.0717063950849 4.15416661661 0)
(-0.0240641826845 4.15343107183 0)
(0.0212802505795 4.14729842557 0)
(0.0643731330407 4.13604807946 0)
(0.105271209022 4.11996587525 0)
(0.144035626887 4.09932413522 0)
(0.180731284978 4.07438357999 0)
(0.215426016031 4.04539419773 0)
(0.248189629595 4.01259527052 0)
(0.279093124422 3.97621553225 0)
(0.308208034431 3.93647340084 0)
(0.335605882477 3.89357724281 0)
(0.361357728778 3.84772566228 0)
(0.385533801955 3.79910780703 0)
(0.408203201482 3.74790368487 0)
(0.429433661716 3.69428448526 0)
(0.449291368624 3.6384129017 0)
(0.467840821438 3.58044345182 0)
(0.485144732286 3.52052279256 0)
(0.501263957753 3.45879002832 0)
(0.516257456993 3.39537701078 0)
(0.530182271791 3.3304086293 0)
(0.543093524476 3.26400309119 0)
(0.555044430238 3.19627219138 0)
(0.566086320775 3.12732157144 0)
(0.576268676762 3.05725096779 0)
(0.585639166861 2.98615444945 0)
(0.594243691483 2.91412064538 0)
(0.602126429664 2.84123296201 0)
(0.609329887816 2.76756979115 0)
(0.6158949492 2.69320470904 0)
(0.621860923301 2.61820666682 0)
(0.627265594328 2.54264017313 0)
(0.632145268338 2.46656546931 0)
(0.636534818474 2.39003869775 0)
(0.640467728054 2.31311206412 0)
(0.643976131215 2.23583399368 0)
(0.647090851011 2.15824928257 0)
(0.649841434807 2.08039924431 0)
(0.652256187011 2.00232185212 0)
(0.654362199072 1.92405187747 0)
(0.656185376857 1.84562102536 0)
(0.65775046545 1.76705806655 0)
(0.659081071489 1.68838896732 0)
(0.660199683141 1.609637017 0)
(0.66112768789 1.53082295351 0)
(0.661885388233 1.45196508735 0)
(0.662492015482 1.37307942414 0)
(0.662965741795 1.29417978604 0)
(0.663323690642 1.2152779322 0)
(0.663581945836 1.1363836784 0)
(0.663755559343 1.05750501613 0)
(0.66385855805 0.97864823113 0)
(0.663903949712 0.899818021744 0)
(0.663903728278 0.821017617106 0)
(0.663868878829 0.7422488956 0)
(0.663809382236 0.663512503975 0)
(0.663734219467 0.584807978162 0)
(0.663651374961 0.506133861088 0)
(0.663567836474 0.427487882534 0)
(0.663489566295 0.348866673301 0)
(0.663420602503 0.270269453433 0)
(0.663333975616 0.191631129091 0)
(0.662185697206 0.113663420066 0)
(0.624842869781 0.0355064369337 0)
(-2.02466288656 0.115882136852 0)
(-2.13856873922 0.369921810719 0)