/*--------------------------------*- C++ -*----------------------------------*\
| =========                 |                                                 |
| \\      /  F ield         | OpenFOAM: The Open Source CFD Toolbox           |
|  \\    /   O peration     | Version:  v1906                                 |
|   \\  /    A nd           | Web:      www.OpenFOAM.com                      |
|    \\/     M anipulation  |                                                 |
\*---------------------------------------------------------------------------*/
FoamFile
{
    version     2.0;
    format      ascii;
    class       volVectorField;
    location    "585";
    object      Ua;
}
// * * * * * * * * * * * * * * * * * * * * * * * * * * * * * * * * * * * * * //

dimensions      [0 1 -1 0 0 0 0];


internalField   nonuniform List<vector> 
9216
(
(-0.0103683823821 0.0103751751806 0)
(-0.0109418230212 0.0334843572063 3.9164675219e-27)
(-0.0109379541229 0.0569500803602 -7.0809152092e-31)
(-0.0108354597425 0.0804231386219 0)
(-0.0106893934141 0.103506433475 0)
(-0.0105039257532 0.12610565256 0)
(-0.0102835992667 0.148119426933 0)
(-0.0100317051072 0.169455656426 0)
(-0.00975111670496 0.190031596856 0)
(-0.00944487014526 0.209773880588 0)
(-0.00911584602351 0.2286187935 0)
(-0.00876714208308 0.246512277344 0)
(-0.00840160943761 0.263409971573 0)
(-0.00802226432018 0.279276909013 0)
(-0.0076317679867 0.29408725192 0)
(-0.0072329051567 0.307823732228 0)
(-0.00682802332605 0.32047717081 0)
(-0.00641957938621 0.332045766234 0)
(-0.00600954336619 0.34253450196 0)
(-0.00560000805051 0.351954384512 0)
(-0.00519255769909 0.360321831344 0)
(-0.00478893324822 0.367657939136 0)
(-0.00439036520412 0.37398791654 0)
(-0.00399828479338 0.379340431084 0)
(-0.00361361899333 0.383747120238 0)
(-0.00323753938746 0.387242035711 0)
(-0.00287071983035 0.389861237377 0)
(-0.00251411638479 0.391642330661 0)
(-0.00216819083053 0.392624135193 0)
(-0.00183372236623 0.392846310711 0)
(-0.00151101088324 0.392349038391 0)
(-0.00120060733912 0.391172964594 0)
(-0.000902559124629 0.389358407193 0)
(-0.000617342040307 0.386945429154 0)
(-0.000344933997344 0.383973772489 0)
(-8.56614021282e-05 0.380482528517 0)
(0.000160658628948 0.376510008448 0)
(0.000393831517354 0.372093574992 0)
(0.00061416425705 0.367269524516 0)
(0.000821573640512 0.362072967939 0)
(0.00101647302398 0.35653774181 0)
(0.00119887584663 0.350696329644 0)
(0.00136928431496 0.344579796045 0)
(0.0015277926765 0.33821774401 0)
(0.00167497366152 0.331638270216 0)
(0.00181098534794 0.324867956416 0)
(0.0019364506919 0.317931843014 0)
(0.00205157284113 0.310853451527 0)
(0.00215700412059 0.303654775463 0)
(0.00225297378827 0.296356331957 0)
(0.00234014236569 0.288977166724 0)
(0.00241874665492 0.281534930754 0)
(0.00248943625106 0.274045896919 0)
(0.00255243962925 0.26652505783 0)
(0.00260837917036 0.258986148945 0)
(0.0026574626563 0.251441761368 0)
(0.00270027390707 0.243903367092 0)
(0.00273699285112 0.236381441065 0)
(0.00276815834335 0.228885482367 0)
(0.00279392026202 0.221424138672 0)
(0.0028147717426 0.214005219029 0)
(0.00283083557015 0.20663581562 0)
(0.00284256266268 0.199322303444 0)
(0.00285005523319 0.192070454528 0)
(0.00285372906241 0.184885422704 0)
(0.00285367487956 0.177771848044 0)
(0.00285028180546 0.17073382542 0)
(0.00284363863036 0.163774997829 0)
(0.00283411659847 0.156898510322 0)
(0.00282181144585 0.150107093275 0)
(0.00280708375907 0.143403003603 0)
(0.0027900428747 0.136788099527 0)
(0.00277104383484 0.130263772947 0)
(0.0027502135972 0.123831018665 0)
(0.00272790376603 0.117490361307 0)
(0.00270425975266 0.111241921678 0)
(0.00267962910452 0.105085342404 0)
(0.00265417372085 0.099019854494 0)
(0.00262823370881 0.093044204736 0)
(0.00260198287189 0.0871567247812 0)
(0.00257574838418 0.0813552634196 0)
(0.00254970929142 0.0756372605635 0)
(0.00252417213694 0.0699996866866 0)
(0.00249931196409 0.064439124207 0)
(0.00247540336536 0.0589517181631 0)
(0.0024526014067 0.0535332714 0)
(0.00243112313051 0.0481792192388 0)
(0.00241105476754 0.0428847661915 0)
(0.00239245003 0.0376449526458 0)
(0.00237507019271 0.0324550006751 0)
(0.00235814779336 0.0273108761966 0)
(0.0023393839906 0.0222111062951 0)
(0.00231251949396 0.0171617373108 0)
(0.00224927858744 0.012221003157 0)
(0.0021312908028 0.00698085045731 0)
(0.00315779648496 0.00315766471273 0)
(-0.0335642474073 0.0110346766895 0)
(-0.037102722862 0.0373885585438 0)
(-0.0370154958245 0.0636698088795 -4.11135430222e-27)
(-0.0365130523493 0.0899834512551 0)
(-0.035814946021 0.115825631489 0)
(-0.0349479485504 0.141111488404 0)
(-0.0339268421135 0.165733287124 0)
(-0.0327660186431 0.189589661597 0)
(-0.03148019194 0.212588475734 0)
(-0.0300848821417 0.234647865567 0)
(-0.0285956646269 0.255696761599 0)
(-0.0270284733268 0.275675041496 0)
(-0.0253986954892 0.294533528292 0)
(-0.0237215869259 0.31223369643 0)
(-0.0220113452552 0.328747294371 0)
(-0.0202816889977 0.344055747763 0)
(-0.0185449387489 0.358149539644 0)
(-0.016812761794 0.37102744137 0)
(-0.0150952624782 0.382695776342 0)
(-0.0134018743648 0.393167597045 0)
(-0.0117404467344 0.402461938874 0)
(-0.0101182563506 0.410603034837 0)
(-0.00854107017088 0.417619632999 0)
(-0.00701424423085 0.423544303396 0)
(-0.00554174221768 0.428412854346 0)
(-0.00412729352595 0.432263749028 0)
(-0.0027733557032 0.435137622883 0)
(-0.00148231344604 0.437076801151 0)
(-0.000255384136445 0.438124901077 0)
(0.000906147803949 0.438326425712 0)
(0.00200206509283 0.437726464933 0)
(0.00303201759833 0.436370139627 0)
(0.00399671762051 0.434302829773 0)
(0.00489654297118 0.431569654216 0)
(0.00573279645757 0.428215104439 0)
(0.00650643567598 0.424282935994 0)
(0.00721931291448 0.419815983298 0)
(0.00787284916124 0.414856002995 0)
(0.00846930101242 0.409443534447 0)
(0.00901042838161 0.403617781136 0)
(0.00949877573666 0.397416504238 0)
(0.00993633680798 0.390875942627 0)
(0.0103258418873 0.384030736716 0)
(0.0106694252167 0.376913883743 0)
(0.0109699114763 0.369556689361 0)
(0.011229491335 0.36198875561 0)
(0.0114510001809 0.354237957926 0)
(0.0116366082867 0.346330463414 0)
(0.0117890860673 0.338290731452 0)
(0.0119105150089 0.330141559727 0)
(0.0120035337694 0.321904105544 0)
(0.0120700767428 0.31359795596 0)
(0.0121125963608 0.305241166218 0)
(0.0121328354221 0.29685034921 0)
(0.0121330206645 0.288440725714 0)
(0.0121146750607 0.280026226995 0)
(0.0120797782745 0.271619550936 0)
(0.0120296238162 0.263232271012 0)
(0.0119659413795 0.254874891569 0)
(0.0118898033323 0.246556956194 0)
(0.0118027042597 0.238287096225 0)
(0.0117055198236 0.230073132526 0)
(0.0115995383682 0.221922112094 0)
(0.0114854748025 0.213840398574 0)
(0.0113644497164 0.205833693979 0)
(0.0112370598414 0.197907115404 0)
(0.0111043001715 0.19006520055 0)
(0.0109666925119 0.182311969934 0)
(0.0108251471007 0.174650917237 0)
(0.0106801501053 0.167085058332 0)
(0.0105325617407 0.159616908738 0)
(0.0103828637683 0.152248521997 0)
(0.0102318922856 0.144981457928 0)
(0.0100801458694 0.137816813884 0)
(0.00992845182293 0.130755187685 0)
(0.00977733579489 0.12379670539 0)
(0.009627621247 0.116940983038 0)
(0.00947986099072 0.110187154525 0)
(0.00933487001385 0.103533835568 0)
(0.00919321939074 0.096979154626 0)
(0.00905570306715 0.0905207220982 0)
(0.00892289401906 0.084155666791 0)
(0.00879554525011 0.0778806125352 0)
(0.00867420720595 0.0716917222175 0)
(0.00855956158401 0.0655846840208 0)
(0.00845209489677 0.0595547650918 0)
(0.00835235518113 0.0535968088106 0)
(0.00826065729821 0.0477052958563 0)
(0.00817720859222 0.0418743368566 0)
(0.00810171355018 0.0360976717095 0)
(0.00803305235791 0.0303683961011 0)
(0.00796803374362 0.024678080589 0)
(0.00789845494102 0.01901292193 0)
(0.00780107714501 0.0133420841473 0)
(0.00755301324229 0.0075359047104 0)
(0.00697666055119 0.00212545566543 0)
(-0.0574617031993 0.0111818452038 0)
(-0.0636148614133 0.0380052429976 0)
(-0.063396684406 0.064618483214 -4.1150994625e-27)
(-0.0625254861285 0.0913154048257 0)
(-0.0613437824045 0.117529652714 0)
(-0.0598856508777 0.143171004213 0)
(-0.0581717539148 0.168127873023 0)
(-0.0562245355107 0.192296602253 0)
(-0.0540681973601 0.215583352715 0)
(-0.0517283183839 0.237905076635 0)
(-0.049231019537 0.259189982419 0)
(-0.046602678923 0.279377696498 0)
(-0.0438691472388 0.298419195736 0)
(-0.0410556184894 0.316276492354 0)
(-0.0381859437523 0.332922171247 0)
(-0.0352826876539 0.348338758602 0)
(-0.0323665592971 0.362518014866 0)
(-0.0294566535272 0.375460131822 0)
(-0.0265699901719 0.387172918348 0)
(-0.0237219152133 0.397670953258 0)
(-0.0209257191287 0.406974778021 0)
(-0.0181931561154 0.415110102525 0)
(-0.0155340996693 0.422107081336 0)
(-0.0129571307008 0.427999627136 0)
(-0.010469188082 0.432824803539 0)
(-0.00807618368949 0.436622258778 0)
(-0.00578261960834 0.43943373045 0)
(-0.00359220636994 0.441302583323 0)
(-0.00150743815685 0.442273404118 0)
(0.000469792480267 0.442391619174 0)
(0.00233866386083 0.441703172543 0)
(0.00409879872733 0.44025418349 0)
(0.0057506926336 0.438090680341 0)
(0.00729517798315 0.435258369971 0)
(0.00873390984189 0.431802383388 0)
(0.0100687171085 0.427767071227 0)
(0.0113021283473 0.423195822104 0)
(0.01243674442 0.418130902807 0)
(0.0134757711613 0.412613320266 0)
(0.0144223916158 0.406682701934 0)
(0.0152803072149 0.400377193933 0)
(0.0160531127876 0.39373337783 0)
(0.0167448423969 0.386786200866 0)
(0.0173593488653 0.379568925602 0)
(0.0179008503718 0.372113089873 0)
(0.0183733163427 0.364448487173 0)
(0.0187810114703 0.356603154048 0)
(0.0191278907306 0.348603379133 0)
(0.019418138556 0.340473716513 0)
(0.0196555763167 0.332237021373 0)
(0.0198441951092 0.323914486374 0)
(0.0199875797255 0.315525700448 0)
(0.0200894341924 0.307088704652 0)
(0.0201530261341 0.298620069484 0)
(0.0201817041365 0.290134964488 0)
(0.0201783661093 0.281647247726 0)
(0.0201459672724 0.273169542856 0)
(0.0200870150358 0.264713333829 0)
(0.0200040655516 0.256289042026 0)
(0.0198992466384 0.247906118867 0)
(0.0197747401546 0.239573116647 0)
(0.0196323331971 0.231297772909 0)
(0.0194738827867 0.223087069286 0)
(0.0193008948195 0.214947302861 0)
(0.0191149673551 0.20688412983 0)
(0.0189173961202 0.19890262142 0)
(0.018709592677 0.191007290838 0)
(0.0184927152767 0.183202133299 0)
(0.0182680587696 0.175490637347 0)
(0.0180367096735 0.167875810689 0)
(0.0177999053544 0.160360178219 0)
(0.0175587127091 0.15294579662 0)
(0.0173143551383 0.145634242976 0)
(0.0170679146193 0.138426622083 0)
(0.0168206257996 0.131323549651 0)
(0.0165736017803 0.124325156307 0)
(0.0163280954825 0.117431069643 0)
(0.0160852496741 0.110640418766 0)
(0.0158463262112 0.103951818588 0)
(0.0156124810299 0.0973633779827 0)
(0.0153849621329 0.0908726892432 0)
(0.0151649099914 0.0844768421544 0)
(0.0149535247827 0.0781724202931 0)
(0.0147518918483 0.0719555221458 0)
(0.014561117254 0.0658217646419 0)
(0.0143821751228 0.0597663098222 0)
(0.0142160057985 0.053783870216 0)
(0.0140633739225 0.0478687270944 0)
(0.013924912448 0.0420147032218 0)
(0.0138009708911 0.0362150906656 0)
(0.0136916131617 0.0304624083128 0)
(0.0135966246116 0.0247478326384 0)
(0.0135160144519 0.0190596492875 0)
(0.0134501598284 0.0133774582333 0)
(0.0133460447378 0.00774273551377 0)
(0.0121919669661 0.00223413095661 0)
(-0.0819175430168 0.0113115226389 0)
(-0.0907602585341 0.0385852881086 0)
(-0.0904400654216 0.0655449114988 4.11318795902e-27)
(-0.0891818261595 0.0926090851712 0)
(-0.0874779462328 0.119174462771 0)
(-0.0853784987033 0.145145810187 0)
(-0.0829132148819 0.170407208675 0)
(-0.080114362447 0.194852013839 0)
(-0.0770169833203 0.218384323285 0)
(-0.073658040303 0.240919845898 0)
(-0.0700754118474 0.262386272467 0)
(-0.0663071522606 0.282723376303 0)
(-0.0623906483012 0.301882855192 0)
(-0.0583620936195 0.319827938832 0)
(-0.0542558497809 0.336532822853 0)
(-0.0501041612613 0.351981952568 0)
(-0.0459367328863 0.36616921384 0)
(-0.0417806793631 0.379097052124 0)
(-0.037660299612 0.390775570925 0)
(-0.0335972250088 0.401221625607 0)
(-0.0296103435121 0.410457953709 0)
(-0.0257160864341 0.418512348353 0)
(-0.0219284358697 0.42541690186 0)
(-0.0182592779846 0.431207314014 0)
(-0.0147184261799 0.435922277312 0)
(-0.0113139802012 0.439602923691 0)
(-0.00805231988515 0.44229233545 0)
(-0.00493843917725 0.444035101995 0)
(-0.00197589761418 0.444876923025 0)
(0.000832872429121 0.444864243422 0)
(0.00348664993525 0.444043925214 0)
(0.00598514003387 0.442462969646 0)
(0.00832900730508 0.440168131219 0)
(0.0105196797566 0.437205796825 0)
(0.0125594302203 0.433621707519 0)
(0.0144510877155 0.42946075649 0)
(0.0161981636724 0.424766812949 0)
(0.0178045777236 0.419582565066 0)
(0.0192747930639 0.413949384484 0)
(0.0206135489059 0.407907209936 0)
(0.0218260042953 0.401494448446 0)
(0.0229174770375 0.394747893827 0)
(0.0238935931406 0.387702660161 0)
(0.024760031397 0.380392131853 0)
(0.0255226757826 0.372847926898 0)
(0.0261873651911 0.365099876518 0)
(0.0267600470081 0.357176016712 0)
(0.027246532952 0.349102596205 0)
(0.0276526535184 0.340904094972 0)
(0.0279840218782 0.332603258729 0)
(0.0282461899625 0.324221142147 0)
(0.0284444235217 0.31577716693 0)
(0.0285838614455 0.307289185952 0)
(0.0286693050841 0.298773560103 0)
(0.0287053822255 0.290245237644 0)
(0.0286963534801 0.281717843359 0)
(0.0286462816675 0.273203766071 0)
(0.0285588566261 0.264714252461 0)
(0.0284375693529 0.256259494934 0)
(0.0282855552893 0.247848722416 0)
(0.0281057712327 0.239490281323 0)
(0.0279008554506 0.231191716543 0)
(0.0276733040929 0.222959839575 0)
(0.0274253455835 0.214800794816 0)
(0.02715911266 0.206720111184 0)
(0.0268765277588 0.198722751145 0)
(0.0265794666348 0.190813144493 0)
(0.0262696516963 0.182995219989 0)
(0.0259488037129 0.175272422407 0)
(0.0256185404506 0.167647728768 0)
(0.0252805137974 0.160123651487 0)
(0.0249363120766 0.152702242733 0)
(0.0245875810827 0.145385087789 0)
(0.0242359292789 0.138173301872 0)
(0.0238830322542 0.131067518172 0)
(0.0235305410154 0.124067881595 0)
(0.0231801703202 0.117174035876 0)
(0.0228336108012 0.110385118271 0)
(0.0224926021861 0.103699749391 0)
(0.0221588504395 0.0971160320641 0)
(0.0218340871679 0.0906315466501 0)
(0.0215199928639 0.0842433562039 0)
(0.0212182435843 0.0779480087028 0)
(0.0209304409922 0.0717415490852 0)
(0.0206581467078 0.0656195278126 0)
(0.0204028188354 0.0595770170813 0)
(0.0201658336042 0.0536086192626 0)
(0.0199484288501 0.0477084741387 0)
(0.0197517193008 0.0418702425163 0)
(0.0195766712567 0.0360870614168 0)
(0.0194241891932 0.0303514434708 0)
(0.0192953292791 0.0246551061561 0)
(0.0191917022441 0.018988765968 0)
(0.0191124648771 0.013337584022 0)
(0.0189684928192 0.0077768076932 0)
(0.0170756016355 0.00228288421663 0)
(-0.106773918661 0.0114782785062 0)
(-0.118313793834 0.039345945467 0)
(-0.117885231812 0.0667847691194 0)
(-0.11622464015 0.0943414175906 0)
(-0.113976872389 0.121374994139 0)
(-0.111209210457 0.147784760654 0)
(-0.107961745672 0.173449541487 0)
(-0.104277714609 0.198258736492 0)
(-0.10020397579 0.222113680977 0)
(-0.0957898035403 0.244928450578 0)
(-0.0910856221665 0.266630130012 0)
(-0.0861419095893 0.287158809358 0)
(-0.0810081728627 0.3064673022 0)
(-0.0757321410522 0.324520626931 0)
(-0.0703590421653 0.341295303302 0)
(-0.0649311144725 0.356778504972 0)
(-0.0594871922938 0.37096711728 0)
(-0.0540625230082 0.3838667374 0)
(-0.0486886313665 0.395490660495 0)
(-0.0433933934003 0.405858882559 0)
(-0.0382011134117 0.414997153715 0)
(-0.0331327719219 0.422936100471 0)
(-0.0282062204702 0.429710434732 0)
(-0.0234365021778 0.435358251367 0)
(-0.0188360667292 0.439920414682 0)
(-0.0144150782023 0.443440021444 0)
(-0.0101815866107 0.445961930395 0)
(-0.0061417842468 0.447532342248 0)
(-0.00230012063611 0.448198420994 0)
(0.00134048669821 0.448007945942 0)
(0.00477857620509 0.447008990631 0)
(0.00801398457241 0.445249675557 0)
(0.0110476778776 0.442777721309 0)
(0.0138817037026 0.439640430389 0)
(0.0165190896959 0.435884344121 0)
(0.0189636788433 0.431555065845 0)
(0.0212200925135 0.426697089304 0)
(0.0232935735418 0.421353646982 0)
(0.0251899619661 0.415566579313 0)
(0.0269155494014 0.409376222804 0)
(0.0284770653885 0.402821315312 0)
(0.0298815408707 0.395938917699 0)
(0.0311363018883 0.388764350414 0)
(0.0322488394752 0.381331145331 0)
(0.0332268077546 0.37367101159 0)
(0.0340778985696 0.365813816379 0)
(0.0348098425936 0.357787579191 0)
(0.0354302888334 0.349618480965 0)
(0.0359468092423 0.341330886264 0)
(0.0363667850067 0.332947379814 0)
(0.0366974168364 0.324488814806 0)
(0.036945621333 0.315974374187 0)
(0.0371180500684 0.307421641536 0)
(0.0372209996953 0.298846682326 0)
(0.0372604428303 0.290264131324 0)
(0.0372419549169 0.281687286797 0)
(0.0371707587398 0.273128206721 0)
(0.0370516693713 0.264597807586 0)
(0.0368891522635 0.256105960681 0)
(0.0366872855669 0.247661586867 0)
(0.0364498296768 0.239272744874 0)
(0.0361802041739 0.230946714605 0)
(0.0358815649883 0.22269007084 0)
(0.0355567918193 0.2145087497 0)
(0.0352085680584 0.206408103838 0)
(0.0348393738558 0.198392949452 0)
(0.0344515637755 0.190467601677 0)
(0.0340473609101 0.182635902248 0)
(0.0336289278444 0.174901236568 0)
(0.0331983580571 0.167266544557 0)
(0.0327577369392 0.159734322747 0)
(0.0323091280565 0.152306622425 0)
(0.0318546224052 0.14498504149 0)
(0.031396318482 0.137770714854 0)
(0.0309363593541 0.130664301043 0)
(0.0304769067729 0.123665969805 0)
(0.030020166781 0.116775388241 0)
(0.0295683590005 0.109991710009 0)
(0.029123732257 0.103313564852 0)
(0.0286885307429 0.0967390527443 0)
(0.0282650015084 0.0902657396313 0)
(0.0278553593289 0.0838906586172 0)
(0.0274617879218 0.0776103132167 0)
(0.0270864052853 0.0714206860158 0)
(0.0267312604545 0.0653172488201 0)
(0.0263983013569 0.0592949765176 0)
(0.0260893703255 0.053348359518 0)
(0.0258061807042 0.0474714156 0)
(0.0255503248378 0.0416576940246 0)
(0.025323289362 0.035900275603 0)
(0.0251265375212 0.0301917852954 0)
(0.0249616635876 0.024524421402 0)
(0.0248303714375 0.0188901408507 0)
(0.0247286390296 0.013275746077 0)
(0.0245334226683 0.0077610403172 0)
(0.0220212414152 0.00229025810053 0)
(-0.132170940387 0.0116864511407 0)
(-0.146450466109 0.0403149065277 0)
(-0.145901041309 0.0683728855907 0)
(-0.143814558281 0.0965617873772 0)
(-0.140991744714 0.12419451081 0)
(-0.137518246998 0.151163745452 0)
(-0.133445851423 0.177341938987 0)
(-0.128830142765 0.202613593291 0)
(-0.123731110808 0.226876637451 0)
(-0.118211587599 0.250043197009 0)
(-0.112335654349 0.272039747513 0)
(-0.106167212247 0.292806968531 0)
(-0.0997687166911 0.312299296776 0)
(-0.0932001311766 0.33048423292 0)
(-0.0865180652987 0.347341457457 0)
(-0.0797751412996 0.362861805851 0)
(-0.0730195369082 0.377046153507 0)
(-0.0662947434193 0.389904256098 0)
(-0.0596394722981 0.40145359063 0)
(-0.0530877421258 0.411718236223 0)
(-0.0466690630702 0.420727829881 0)
(-0.0404087429743 0.42851662178 0)
(-0.0343282203829 0.435122645918 0)
(-0.0284454496599 0.44058700803 0)
(-0.0227752458464 0.444953283388 0)
(-0.0173296307452 0.448267006926 0)
(-0.0121181038997 0.45057523559 0)
(-0.00714790298732 0.451926161684 0)
(-0.00242419244814 0.452368761546 0)
(0.00204974183715 0.451952467563 0)
(0.00627234796912 0.450726860837 0)
(0.0102436905809 0.448741457269 0)
(0.0139651716513 0.446045178833 0)
(0.0174395476993 0.442686471399 0)
(0.0206707320282 0.438712870813 0)
(0.0236636581071 0.4341708642 0)
(0.0264241745118 0.429105720917 0)
(0.0289589112517 0.423561348009 0)
(0.0312751911356 0.417580166165 0)
(0.0333809115295 0.41120300382 0)
(0.0352844694352 0.404469007607 0)
(0.0369946547263 0.397415568055 0)
(0.0385205842305 0.390078259651 0)
(0.0398716020961 0.382490795131 0)
(0.0410572190111 0.374684993647 0)
(0.0420870169833 0.366690763255 0)
(0.0429705920546 0.358536097507 0)
(0.0437174633783 0.350247086732 0)
(0.0443370204264 0.341847943511 0)
(0.0448384386724 0.333361042686 0)
(0.0452306345268 0.324806974818 0)
(0.0455221918769 0.316204612885 0)
(0.0457213293348 0.307571190327 0)
(0.045835842419 0.298922389527 0)
(0.0458730875169 0.29027243808 0)
(0.045839943637 0.281634211414 0)
(0.0457428158981 0.273019338533 0)
(0.0455876185034 0.26443830926 0)
(0.045379797943 0.255900579619 0)
(0.0451243361041 0.247414673936 0)
(0.0448257906046 0.238988280556 0)
(0.0444883142453 0.230628340316 0)
(0.0441157075604 0.222341125275 0)
(0.0437114490123 0.214132307637 0)
(0.0432787535318 0.20600701714 0)
(0.0428206070059 0.19796988769 0)
(0.0423398243477 0.190025092304 0)
(0.0418390822093 0.182176367949 0)
(0.0413209709705 0.174427029976 0)
(0.0407880207775 0.166779978314 0)
(0.0402427433755 0.15923769557 0)
(0.0396876483865 0.151802239544 0)
(0.0391252728127 0.144475230479 0)
(0.0385581862985 0.137257835622 0)
(0.0379890079249 0.130150751385 0)
(0.0374204008894 0.12315418556 0)
(0.0368550776749 0.116267839667 0)
(0.0362957857409 0.109490893618 0)
(0.0357453030946 0.102821992478 0)
(0.0352064173282 0.0962592371457 0)
(0.034681914113 0.0898001784232 0)
(0.0341745521674 0.0834418158651 0)
(0.0336870473392 0.0771806005162 0)
(0.0332220462276 0.0710124424574 0)
(0.0327821087649 0.0649327219163 0)
(0.0323696838816 0.0589363042094 0)
(0.0319870952104 0.0530175569582 0)
(0.0316365259183 0.0471703697859 0)
(0.031320019488 0.0413881767046 0)
(0.0310394931673 0.0356639867982 0)
(0.0307967819982 0.0299904434706 0)
(0.0305936909452 0.0243599138538 0)
(0.0304316413978 0.0187646908409 0)
(0.0303038330736 0.0131916242896 0)
(0.0300565265861 0.00771872617753 0)
(0.0269571846809 0.00228451382135 0)
(-0.158242743474 0.0119412233711 0)
(-0.175323193499 0.0415100798046 0)
(-0.174635417534 0.0703338824185 4.13671617885e-27)
(-0.172091468127 0.099303471269 0)
(-0.168652694798 0.127674245878 0)
(-0.164424597766 0.155330753827 0)
(-0.159472259352 0.182137696009 0)
(-0.153865312986 0.20797368517 0)
(-0.147678554667 0.232732648578 0)
(-0.140989957017 0.256324549517 0)
(-0.133878685397 0.278675389684 0)
(-0.126423319899 0.299726871642 0)
(-0.118700315366 0.319435734614 0)
(-0.110782725761 0.337772832955 0)
(-0.102739184906 0.354722020549 0)
(-0.0946331522604 0.370278898731 0)
(-0.0865224030438 0.384449482347 0)
(-0.0784587636687 0.397248835786 0)
(-0.0704880603071 0.408699729703 0)
(-0.0626502688692 0.418831365441 0)
(-0.0549798160281 0.42767820861 0)
(-0.0475060027761 0.435278962322 0)
(-0.0402534851655 0.441675696798 0)
(-0.0332427792904 0.446913134865 0)
(-0.0264907313431 0.451038077293 0)
(-0.0200109404579 0.454098939642 0)
(-0.0138141036957 0.456145367436 0)
(-0.00790830322696 0.457227898529 0)
(-0.00229923087433 0.457397650039 0)
(0.0030096150233 0.456706012168 0)
(0.00801674420463 0.455204362536 0)
(0.0127225918258 0.452943880196 0)
(0.0171291458002 0.449974927692 0)
(0.021239991413 0.446347308922 0)
(0.0250600675362 0.442109745673 0)
(0.0285955138312 0.437309776208 0)
(0.031853529033 0.431993590194 0)
(0.0348422296518 0.426205893674 0)
(0.0375705289896 0.419989793794 0)
(0.0400480158765 0.413386700612 0)
(0.0422848510563 0.406436243906 0)
(0.0442916598924 0.399176203801 0)
(0.046079439196 0.391642454526 0)
(0.0476594574261 0.383868921354 0)
(0.0490431666049 0.3758875509 0)
(0.0502421062663 0.367728295357 0)
(0.0512678183933 0.359419111101 0)
(0.0521317548373 0.350985972277 0)
(0.0528451966695 0.342452899634 0)
(0.0534191681268 0.333842004745 0)
(0.0538643648302 0.325173549217 0)
(0.0541910798597 0.316466018241 0)
(0.0544091470853 0.307736207153 0)
(0.0545278858378 0.298999319364 0)
(0.0545560654347 0.290269073367 0)
(0.0545018736877 0.281557816419 0)
(0.0543729065089 0.272876642007 0)
(0.0541761625219 0.26423550831 0)
(0.0539180581696 0.25564335466 0)
(0.0536044469823 0.247108213391 0)
(0.0532406568899 0.238637314507 0)
(0.0528315292417 0.230237181158 0)
(0.0523814720457 0.221913714118 0)
(0.0518945114495 0.213672264194 0)
(0.0513743529292 0.205517691733 0)
(0.0508244369798 0.197454413141 0)
(0.0502480000776 0.189486434511 0)
(0.0496481268348 0.181617373192 0)
(0.0490278036832 0.173850468195 0)
(0.0483899613914 0.166188580869 0)
(0.0477375164799 0.158634187256 0)
(0.047073400325 0.151189363893 0)
(0.0464005857549 0.143855768668 0)
(0.0457221013852 0.136634618504 0)
(0.0450410431492 0.129526665397 0)
(0.0443605745988 0.122532172387 0)
(0.0436839249175 0.115650890721 0)
(0.0430143773868 0.108882039451 0)
(0.0423552565866 0.10222428832 0)
(0.0417099080814 0.0956757448287 0)
(0.0410816780828 0.0892339459176 0)
(0.0404738877456 0.0828958547346 0)
(0.0398898087504 0.076657862554 0)
(0.0393326357296 0.0705157959279 0)
(0.038805461425 0.0644649288877 0)
(0.0383112512263 0.058499999922 0)
(0.0378528225941 0.0526152335895 0)
(0.0374328276142 0.0468043674442 0)
(0.0370537442354 0.0410606848502 0)
(0.0367178757576 0.0353770597365 0)
(0.0364273594069 0.029746033213 0)
(0.0361841468706 0.0241598908127 0)
(0.0359894619294 0.0186107909796 0)
(0.0358343942025 0.0130851846225 0)
(0.0355362920157 0.00765807124147 0)
(0.0318635723245 0.00227192128105 0)
(-0.185135693006 0.0122468403173 0)
(-0.205093868127 0.042951356998 0)
(-0.204245585365 0.0726980682809 -4.13451310773e-27)
(-0.201204013 0.102607492556 0)
(-0.197097437408 0.131864622259 0)
(-0.192053308622 0.160343970515 0)
(-0.186152091725 0.187900917744 0)
(-0.179479631917 0.214407154211 0)
(-0.172127647001 0.239752075736 0)
(-0.16419122675 0.263843411801 0)
(-0.15576639166 0.286607012095 0)
(-0.146947935776 0.307986249003 0)
(-0.137827590375 0.32794106944 0)
(-0.128492519778 0.346446782135 0)
(-0.11902414148 0.363492652782 0)
(-0.109497265079 0.379080370017 0)
(-0.0999795355339 0.393222440482 0)
(-0.090531171332 0.40594057018 0)
(-0.0812049742645 0.417264090253 0)
(-0.0720465850007 0.427228484531 0)
(-0.0630949363801 0.435874070974 0)
(-0.0543828505766 0.443244876642 0)
(-0.045937707468 0.449387726448 0)
(-0.0377821189326 0.454351541459 0)
(-0.0299345444192 0.458186818658 0)
(-0.0224098125818 0.460945246077 0)
(-0.0152195301125 0.462679400802 0)
(-0.00837239284253 0.46344248279 0)
(-0.00187442045561 0.463288053732 0)
(0.0042708512138 0.462269746206 0)
(0.0100621938286 0.460441073946 0)
(0.0155005091229 0.457854987837 0)
(0.0205885910412 0.454563673013 0)
(0.0253310001455 0.450618451466 0)
(0.0297338579985 0.446069420797 0)
(0.0338046545584 0.440965327724 0)
(0.0375520776544 0.435353417681 0)
(0.0409858538768 0.429279311458 0)
(0.0441166062457 0.422786901253 0)
(0.0469557213946 0.41591826215 0)
(0.0495152291042 0.408713576572 0)
(0.0518076860171 0.401211070415 0)
(0.053846066589 0.393446960623 0)
(0.0556436540558 0.38545541456 0)
(0.0572139355376 0.377268521942 0)
(0.0585704953118 0.368916280337 0)
(0.0597269114436 0.360426595248 0)
(0.0606966510465 0.351825295793 0)
(0.0614929703255 0.343136166731 0)
(0.0621288158264 0.334380997319 0)
(0.0626167337946 0.325579646915 0)
(0.0629687848641 0.316750126778 0)
(0.0631964711363 0.30790869671 0)
(0.063310672979 0.299069974724 0)
(0.0633216020281 0.290247057146 0)
(0.06323876715 0.281451646299 0)
(0.063070958644 0.272694182348 0)
(0.062826246446 0.263983976027 0)
(0.0625119961773 0.255329338672 0)
(0.0621348977736 0.246737706505 0)
(0.0617010091957 0.238215756105 0)
(0.0612158091933 0.229769508782 0)
(0.0606842606587 0.221404421773 0)
(0.0601108782413 0.213125465096 0)
(0.0594998012431 0.204937183146 0)
(0.0588548656601 0.196843741095 0)
(0.0581796763527 0.188848956299 0)
(0.0574776738468 0.180956315851 0)
(0.0567521970566 0.173168981382 0)
(0.0560065373648 0.165489782982 0)
(0.0552439858665 0.157921203896 0)
(0.0544678702703 0.150465358216 0)
(0.0536815837767 0.143123963373 0)
(0.0528886034179 0.135898309634 0)
(0.0520925005689 0.128789228235 0)
(0.0512969419297 0.121797060082 0)
(0.0505056838535 0.114921626278 0)
(0.0497225589199 0.10816220197 0)
(0.0489514576024 0.101517494341 0)
(0.0481963043418 0.0949856257558 0)
(0.0474610306877 0.0885641224444 0)
(0.0467495451052 0.082249909274 0)
(0.0460657018461 0.0760393106203 0)
(0.0454132687172 0.0699280574882 0)
(0.0447958958862 0.063911300738 0)
(0.0442170858283 0.0579836302921 0)
(0.0436801663799 0.0521391003681 0)
(0.0431882672376 0.0463712609958 0)
(0.0427443013833 0.0406731974328 0)
(0.0423509503808 0.0350375798874 0)
(0.0420106494279 0.0294567337718 0)
(0.04172553191 0.0239227048644 0)
(0.0414967738157 0.0184273342228 0)
(0.0413137737967 0.0129565931181 0)
(0.0409658511036 0.00758220598738 0)
(0.0367281467157 0.0022547400647 0)
(-0.213010109784 0.0126079334981 0)
(-0.235937862576 0.0446628342638 0)
(-0.234901324584 0.075503300766 0)
(-0.231312019777 0.106525191779 0)
(-0.226473117771 0.136828530817 0)
(-0.220536845889 0.166275612905 0)
(-0.213601785424 0.194710765582 0)
(-0.205772754013 0.221997717397 0)
(-0.197161043118 0.24802092134 0)
(-0.187881294228 0.272686004016 0)
(-0.178048532874 0.295919238415 0)
(-0.167775600879 0.317666592792 0)
(-0.157171012618 0.337892415028 0)
(-0.146337226038 0.356577856215 0)
(-0.135369308819 0.373719112822 0)
(-0.124353982488 0.389325551707 0)
(-0.113369030948 0.403417776583 0)
(-0.102483063087 0.41602569676 0)
(-0.0917556124993 0.427186665471 0)
(-0.0812375443789 0.436943759711 0)
(-0.0709717164743 0.44534427126 0)
(-0.0609938183607 0.452438464044 0)
(-0.0513332929181 0.458278626029 0)
(-0.0420142400282 0.462918407152 0)
(-0.0330562143282 0.466412397145 0)
(-0.0244748622284 0.468815869068 0)
(-0.0162823838574 0.470184605041 0)
(-0.00848784632354 0.470574732725 0)
(-0.00109739709011 0.470042529822 0)
(0.00588557060376 0.468644153139 0)
(0.0124602824992 0.466435512247 0)
(0.0186282955931 0.463471641156 0)
(0.0243933746129 0.459806726151 0)
(0.0297612629381 0.455493837991 0)
(0.0347394476654 0.450584623947 0)
(0.0393369396918 0.445129187554 0)
(0.0435640742387 0.439175954207 0)
(0.0474323314258 0.432771564214 0)
(0.050954176559 0.425960783842 0)
(0.0541429158727 0.418786429012 0)
(0.05701256418 0.41128929866 0)
(0.059577719576 0.403508116784 0)
(0.0618534426767 0.395479483468 0)
(0.0638551372452 0.387237835977 0)
(0.0655984314583 0.378815421367 0)
(0.0670990582762 0.370242282253 0)
(0.0683727356029 0.361546257407 0)
(0.0694350460965 0.352752998765 0)
(0.0703013186843 0.343886006253 0)
(0.0709865130129 0.334966681325 0)