/*--------------------------------*- C++ -*----------------------------------*\
| =========                 |                                                 |
| \\      /  F ield         | OpenFOAM: The Open Source CFD Toolbox           |
|  \\    /   O peration     | Version:  v1906                                 |
|   \\  /    A nd           | Web:      www.OpenFOAM.com                      |
|    \\/     M anipulation  |                                                 |
\*---------------------------------------------------------------------------*/
FoamFile
{
    version     2.0;
    format      ascii;
    class       volScalarField;
    location    "724";
    object      pa;
}
// * * * * * * * * * * * * * * * * * * * * * * * * * * * * * * * * * * * * * //

dimensions      [0 2 -2 0 0 0 0];


internalField   nonuniform List<scalar> 
9216
(
976.945555691
976.58114779
975.840729514
974.721108233
973.22594667
971.3595131
969.127175264
966.535298115
963.591193881
960.303044466
956.679852687
952.731357394
948.467986177
943.90076566
939.041280973
933.901586014
928.494175288
922.831898485
916.927949242
910.7957872
904.44914655
897.901967038
891.168423021
884.262863105
877.199858242
869.994148056
862.660704507
855.214681798
847.671490514
840.046747161
832.356352665
824.616437193
816.843433883
809.054014874
801.265152967
793.494043408
785.758142965
778.075074242
770.46263351
762.938676108
755.521085819
748.227643735
741.075954476
734.083305757
727.2665485
720.641959042
714.225070054
708.030550825
702.071984075
696.361782439
690.910906594
685.728840433
680.823253719
676.20006597
671.863072823
667.814130238
664.052775055
660.576543608
657.380613298
654.458240914
651.800440662
649.39650783
647.23375448
645.298119788
643.574053616
642.045276634
640.694912316
639.506308002
638.463159279
637.550094702
636.752624501
636.057468331
635.452397888
634.926411427
634.469534384
634.072902872
633.728558712
633.429500106
633.169500737
632.94314553
632.745656333
632.572904707
632.421242145
632.287492568
632.168304471
632.065024934
631.980018803
631.912544269
631.861224044
631.82371085
631.797480138
631.779726714
631.768000879
631.760964049
631.757453109
631.756235669
977.3094915
976.943934664
976.202260108
975.079586687
973.580127458
971.708299966
969.469556266
966.870331855
963.918003187
960.620822304
956.987858626
953.028924237
948.754513009
944.175723272
939.30420081
934.152064621
928.731859406
923.056489246
917.13918407
910.993444706
904.633026101
898.071895381
891.324232495
884.40440092
877.326964246
870.106667326
862.758465514
855.297512682
847.739198423
840.099138486
832.393214008
824.637558668
816.848593697
809.043006692
801.237773363
793.450121331
785.697531445
777.99768078
770.368415848
762.827671115
755.393408981
748.083513547
740.915695531
733.907365409
727.075504592
720.436525709
714.006112562
707.799077146
701.829169943
696.108943621
690.649535386
685.460550714
680.549827321
675.923363001
671.585086607
667.536863827
663.778308172
660.306886861
657.117790517
654.20413512
651.556889613
649.165141655
647.016068618
645.095280869
643.386920821
641.874206816
640.539857361
639.366777361
638.338412281
637.439163429
636.654473144
635.9709879
635.376510358
634.860049057
634.411710395
634.022677563
633.685080532
633.391966006
633.137191758
632.915399897
632.721903252
632.552642833
632.404088743
632.273230135
632.157398546
632.056111182
631.972257292
631.90673921
631.856488202
631.819637556
631.794338874
631.777286912
631.765877818
631.759285558
631.756157644
631.754905605
978.051309684
977.68259058
976.936690554
975.807679704
974.299805975
972.417548396
970.166453024
967.553063895
964.584873833
961.270260162
957.618420089
953.639297913
949.343516395
944.742302355
939.847420882
934.671105569
929.226001443
923.52510509
917.581720983
911.409415278
905.021988425
898.43344443
891.657980401
884.709970822
877.603972464
870.354721194
862.977148842
855.486388649
847.897799435
840.226974825
832.489769323
824.702305297
816.880994202
809.042535753
801.203926529
793.382443351
785.595631613
777.861265904
770.19731065
762.621852676
755.15302948
747.808932005
740.607500049
733.566398269
726.702882471
720.033655662
713.57471093
707.341174989
701.347131567
695.605457603
690.127628922
684.923556068
680.001381427
675.367337141
671.025564634
666.97803635
663.224441537
659.762199811
656.586432396
653.690067629
651.063886314
648.696670331
646.575238611
644.684649534
643.00830317
641.528419561
640.226740639
639.08530743
638.086977076
637.21576699
636.456942615
635.79706768
635.223970467
634.726731416
634.295592654
633.921875353
633.597858558
633.316713041
633.072435716
632.85980894
632.674300412
632.511990063
632.369489506
632.243903006
632.132571198
632.035208977
631.95644347
631.895010378
631.846870015
631.811835053
631.788381545
631.772276604
631.761847927
631.755939539
631.752852543
631.751332215
979.17850965
978.806127722
978.053723166
976.914956394
975.394160521
973.495918105
971.22591345
968.590852377
965.598406101
962.257143446
958.57646018
954.566503528
950.238097197
945.602664866
940.672157981
935.458984892
929.975947713
924.236182847
918.253111982
912.040398188
905.611914216
898.98171612
892.164029541
885.173240265
878.023896667
870.730714363
863.308591104
855.772621224
848.138118195
840.420633766
832.635983032
824.800261975
816.929867944
809.041510035
801.15221735
793.279333047
785.44050196
777.653640173
769.936893708
762.308576894
754.787096757
747.390857593
740.138150843
733.047029104
726.135167132
719.419713261
712.917129832
706.643029894
700.612001433
694.837430609
689.33130753
684.104034392
679.164217464
674.518480028
670.171278248
666.124778932
662.378759845
658.930597747
655.775264348
652.905433637
650.311575799
647.982091145
645.903272764
644.05945693
642.432840443
641.00396077
639.752864464
638.660198189
637.707904001
636.879491585
636.160008023
635.535948058
634.99519353
634.526971603
634.121751654
633.771098721
633.46751803
633.204366387
632.975833279
632.776927851
632.603351742
632.451396902
632.317868783
632.200025178
632.095153754
632.004555655
631.932596798
631.876016082
631.832572465
631.800881072
631.77893586
631.764327612
631.755099891
631.749671933
631.746668113
631.745198325
980.694074922
980.316988675
979.555786298
978.403796115
976.865488491
974.945597914
972.64999918
969.985619119
966.960373516
963.583093332
959.863447231
955.811860394
951.439432804
946.757857447
941.779341787
936.516532541
930.982447188
925.190411679
919.154007648
912.887027796
906.403442393
899.717374552
892.843086728
885.794975082
878.587573746
871.235564876
863.753796426
856.157303094
848.461332503
840.681371774
832.83317717
824.932799857
816.996611686
809.041324828
801.084005703
793.142078063
785.233315562
777.375818577
769.587975458
761.888404476
754.295876987
746.82922068
739.507204481
732.348406988
725.371071072
718.592948395
712.031135922
705.70190661
699.620533035
693.801101478
688.256311412
682.997259356
678.03320459
673.371337016
669.016556725
664.971311598
661.235499297
657.80643402
654.678861036
651.845087863
649.295174449
647.017121311
644.99661095
643.217312245
641.6597119
640.301609721
639.120326914
638.094432528
637.204664019
636.434017388
635.767395054
635.191282785
634.693665173
634.264017785
633.893176542
633.573095791
633.296597699
633.057255403
632.849479203
632.66861224
632.510691746
632.372300653
632.250509361
632.142792218
632.046490139
631.965069394
631.901535147
631.851467403
631.812627622
631.784621521
631.765658099
631.753017193
631.744796652
631.739926711
631.737172556
631.735808372
982.602633882
982.219647897
981.447286082
980.27849447
978.717933522
976.770541963
974.442444205
971.740854109
968.674004496
965.251065613
961.482059371
957.37777033
952.949655703
948.209756155
943.170609588
937.845169583
932.246730555
926.388860989
920.285346474
913.950143256
907.397343372
900.641151115
893.69587102
886.575906115
879.2957659
871.870082138
864.313631688
856.641364307
848.868434813
841.010237481
833.082442962
825.101032859
817.082334092
809.043048828
801.000277775
792.971533552
784.974741944
777.028226905
769.150677261
761.361092142
753.678703852
746.122878209
738.712992715
731.468296763
724.407756276
717.549889756
710.91259789
704.51299149
698.367214012
692.49025344
686.895735494
681.595680654
676.600233384
671.917361838
667.552571447
663.508693998
659.78577081
656.381047609
653.288912333
650.501133183
648.007218899
645.794900722
643.849193982
642.153881419
640.687168171
639.422224087
638.332017216
637.392124539
636.58193435
635.884204994
635.283985127
634.76785174
634.323925805
633.942060481
633.61368309
633.331368026
633.088364506
632.878413264
632.696089484
632.537249944
632.398416112
632.276535824
632.169027661
632.073620581
631.988628411
631.918500361
631.863201228
631.819645875
631.786832484
631.764176179
631.748078358
631.737473846
631.730743442
631.726192966
631.723678212
631.722415888
984.90998409
984.519806361
983.733811862
982.544483609
980.956723626
978.975730709
976.60794411
973.860938167
970.743342997
967.264753308
963.435632649
959.267214319
954.771401419
949.960667936
944.84796333
939.446622426
933.77028303
927.832812829
921.648247677
915.23074215
908.594533646
901.753919772
894.723249105
887.516923818
880.14941325
872.635276224
864.989190942
857.225990345
849.360702198
841.40859205
833.385209574
825.306433144
817.188515527
809.048126162
800.902387083
792.768899305
784.665756118
776.611538934
768.625291905
760.72647213
752.934872634
745.270518258
737.753534691
730.403995947
723.241754829
716.286265953
709.556407204
703.070305635
696.845165407
690.897087537
685.240862343
679.889709065
674.854946984
670.145599255
665.767990394
661.725438562
658.01816774
654.643365
651.594863238
648.863533493
646.43803605
644.306303649
642.452172366
640.862656836
639.512934361
638.367672836
637.392729955
636.559496484
635.846292286
635.236560883
634.716191042
634.271909525
633.891857879
633.566418615
633.288004241
633.050223626
632.846915799
632.671727614
632.519093996
632.385800095
632.269104784
632.16633865
632.075343222
631.994207875
631.922444854
631.864129391
631.818022024
631.782589549
631.756758636
631.73855806
631.7255169
631.716965948
631.711925371
631.708200529
631.706128494
631.70511168
987.623193706
987.224443649
986.42220496
985.208403783
983.588239663
981.567232438
979.152209136
976.351186852
973.173282774
969.62861122
965.728175688
961.483757609
956.907804149
952.013317574
946.813748349
941.322894592
935.554810054
929.523723197
923.243969236
916.729937085
909.996032011
903.056654544
895.926194776
888.61904095
881.149600083
873.532328648
865.781770903
857.912603313
849.93968359
841.878103517
833.743246001
825.550841404
817.317026869
809.058403771
800.792089732
792.535761665
784.307685297
776.126725409
768.012331946
759.984496923
752.063678309
744.270689922
736.626557392
729.152347046
721.868974487
714.797008345
707.956478016
701.366702149
695.046128796
689.012184149
683.281086368
677.867580663
672.784543814
668.042446682
663.648715517
659.607269645
655.918492721
652.57969526
649.583881054
646.920167621
644.575629698
642.539849329
640.792236969
639.333520273
638.134357539
637.142017719
636.310635733
635.605963662
635.00669494
634.499316307
634.072036652
633.711389362
633.404881344
633.143600986
632.921690871
632.734640606
632.577195357
632.442126024
632.322668067
632.217719526
632.125777343
632.044317847
631.971654184
631.906550518
631.849482133
631.803550064
631.767663424
631.740577538
631.721211678
631.707261448
631.698186133
631.691932322
631.688252037
631.686166495
631.684681294
631.684035761
990.750680249
990.341880051
989.520616556
988.278158547
986.620064927
984.552245728
982.081998144
979.217875215
975.969582636
972.347861494
968.364365788
964.031536475
959.362474857
954.370817626
949.070616329
943.476223729
937.602190109
931.463172166
925.073857453
918.448906357
911.602913375
904.550387767
897.305753089
889.883363311
882.297533013
874.562578196
866.692865144
858.702864872
850.607212369
842.420769779
834.158695494
825.836513473
817.470188826
809.076203462
800.671628343
792.274187899
783.90231091
775.575160461
767.312636115
759.13534114
751.064508714
743.12188424
735.329563408
727.709793001
720.28474691
713.076295878
706.105797318
699.393918632
692.960515657
686.82452956
681.003880902
675.515231562
670.373557297
665.591351851
661.177600602
657.13683302
653.469363426
650.173434624
647.240985262
644.657271943
642.405880583
640.482830205
638.846916762
637.548391439
636.547847274
635.753008277
635.099262867
634.545319589
634.074566688
633.681906143
633.360959505
633.096122525
632.872096929
632.681063807
632.520482699
632.389542834
632.284771759
632.196010842
632.111785356
632.036772388
631.971841885
631.913430491
631.860252181
631.812449311
631.770584403
631.737401995
631.71206
631.693570981
631.680597248
631.67169174
631.666018384
631.662826407
631.660944285
631.66053375
631.659795557
631.659611425
994.302301558
993.881857749
993.038586143
991.762986663
990.061049622
987.93915431
985.405162744
982.4682704
979.138887007
975.428502121
971.34954528
966.915242911
962.139474582
957.036631364
951.62147874
945.909027301
939.914414274
933.652799833
927.139281457
920.388829824
913.416248008
906.236155017
898.862992136
891.311049629
883.59450922
875.727498159
867.724150378
859.598672466
851.365413227
843.038937612
834.634107983
826.166167707
817.650835184
809.104401428
800.543827305
791.986835303
783.451988609
774.958747778
766.527496007
758.179522161
749.936952492
741.822624654
733.859900967
726.072429947
718.483867952
711.117599403
703.996477743
697.142656757
690.57749693
684.321592522
678.394801046
672.81617443
667.603525533
662.77237591
658.334039481
654.293440802
650.649539375
647.404341408
644.549601283
642.060168992
639.912455346
638.128872654
636.575754005
635.480045928
634.758732834
634.223987055
633.786927656
633.395642255
633.052134871
632.776982929
632.579184934
632.430341155
632.301876396
632.187476111
632.091318315
632.020684366
631.977202479
631.94337461
631.892313152
631.846215041
631.810956031
631.777133574
631.743449201
631.713571035
631.686531533
631.666083183
631.651383025
631.641887971
631.635929515
631.632452707
631.630322168
631.629794966
631.630515463
631.631682596
631.632062475
631.632341891
998.289462333
997.855644248
996.987136515
995.673549499
993.921387651
991.737592078
989.130699108
986.110669476
982.688749464
978.877315935
974.689716252
970.140105159
965.243281488
960.014526904
954.469449516
948.623835296
942.49351155
936.094226806
929.441552361
922.550809704
915.437027378
908.114928158
900.598945353
892.903263722
885.04187904
877.028668977
868.87746951
860.602153
852.216707912
843.735322034
835.172475438
826.543038368
817.862386164
809.146522538
800.41220777
791.677085234
782.959797452
774.28007934
765.658816403
757.118052635
748.680934068
740.371575094
732.214842034
724.23605438
716.460631079
708.913710378
701.61982612
694.602690088
687.885176694
681.489511083
675.437606402
669.751363608
664.4525341
659.561429792
655.093492009
651.053226304
647.43271148
644.246227687
641.493641071
639.116405729
637.07560732
635.481258621
633.695777845
632.802834338
632.562299087
632.423364473
632.293386439
632.168037509
632.058308306
631.970193146
631.890809858
631.805793703
631.718306081
631.640843834
631.5872979
631.578595536
631.627039484
631.688535337
631.668903467
631.647318678
631.647874805
631.640356657
631.6233198
631.612618593
631.598852877
631.591549225
631.587133477
631.586279927
631.58707092
631.589065116
631.591621236
631.594311679
631.597262744
631.600243033
631.602109003
631.602901383
1002.72524189
1002.2761526
1001.37888909
1000.02203525
998.212708423
995.958519972
993.268808814
990.154443527
986.6276597
982.7018806
978.391533519
973.711864109
968.678750852
963.308521743
957.617775093
951.623208004
945.341456869
938.788956353
931.981823414
924.935773476
917.666073533
910.187534818
902.514542767
894.661118566
886.641002138
878.467746016
870.154810073
861.715652509
853.163817238
844.51302344
835.777267144
826.970932693
818.108930139
809.206848871
800.281123556
791.349204787
782.429723436
773.542633517
764.709317596
755.952633716
747.296882099
738.767670993
730.391662401
722.19619882
714.208821697
706.456748125
698.966382545
691.7630224
684.870874027
678.313482519
672.114599097
666.299229038
660.894480565
655.928819463
651.426803565
647.391247473
643.78520549
640.657837071
638.057763858
635.73977981
633.553346716
632.705176662
632.292938356
632.246762504
632.288935249
632.281989045
632.238863989
632.176078517
632.103787986
632.029350182
631.954754326
631.879436323
631.806488896
631.743469924
631.70353394
631.703527717
631.728201917
631.667286449
631.444249259
631.399265079
631.471354755
631.508586266
631.499633586
631.513986364
631.5079025
631.514914754
631.519287738
631.527360133
631.534951409
631.542690659
631.550125601
631.556979936
631.562616196
631.56734457
631.570917283
631.572425031
1007.62454642
1007.15809046
1006.22820095
1004.82228369
1002.94818499
1000.61431604
997.830969379
994.610088141
990.965074061
986.91057925
982.462295773
977.636744879
972.451067473
966.922816145
961.06975012
954.909635782
948.460058527
941.738253748
934.760967179
927.544354542
920.103929229
912.45456196
904.610530792
896.58561219
888.393198351
880.046422678
871.558278112
862.94172014
854.209757207
845.375539176
836.452461843
827.454288595
818.395311918
809.290542096
800.155919499
791.00854054
781.866884441
772.751023018
763.682792989
754.685903484
745.78594708
737.010278452
728.387728954
719.948129595
711.721660013
703.738069405
696.025915568
688.612046511
681.521552658
674.778516807
668.407515376
662.43612297
656.897994112
651.835958705
647.298274219
643.291281098
639.651303791
636.421872875
634.023479297
632.673127758
632.575541144
632.602566189
632.559458154
632.541867257
632.540014252
632.51572499
632.471805768
632.410310727
632.334911446
632.251597981
632.163305745
632.071040037
631.978449905
631.891510661
631.819177547
631.769005683
631.725899112
631.649744834
631.5768028
631.576572796
631.573093373
631.432453201
631.340526858
631.421786459
631.409287056
631.437292552
631.446896722
631.466221917
631.481081762
631.494832418
631.507478248
631.518524713
631.527591202
631.534421845
631.53973607
631.542033346
1013.00429182
1012.51813247
1011.55132881
1010.08993282
1008.14266118
1005.71887986
1002.83001505
999.489280477
995.711449312
991.512611771
986.90993456
981.921423664
976.565689775
970.861714569
964.828616431
958.485417823
951.850820204
944.942997695
937.779423534
930.376745558
922.750724189
914.916241542
906.887379893
898.677557118
890.29969491
881.766390845
873.090067372
864.283085083
855.357825465
846.326765126
837.202571399
827.998228557
818.72722391
809.403778019
800.043113225
790.661748391
781.277805169
771.911305952
762.584440046
753.321763514
744.150288049
735.099406466
726.200589887
717.486804359
708.991616231
700.748031096
692.787242055
685.137617239
677.824425953
670.870700036
664.29952219
658.138195565
652.42594743
647.227412734
642.653226279
638.751828982
634.737901191
633.184048833
633.016349603
632.996486988
632.982430987
632.994660521
632.964261588
632.924268294
632.886909853
632.84522394
632.792996021
632.725146772
632.642421953
632.548457873
632.445440962
632.336065182
632.224793676
632.117576964
632.021550724
631.9406338
631.864384206
631.772855642
631.682517579
631.621894402
631.563197878
631.512644291
631.509079711
631.452518419
631.269099658
631.359881984
631.366000655
631.40554448
631.426567811
631.446227179
631.464810398
631.480573067
631.49322354
631.50265316
631.509568609
631.512766975
1018.88362199
1018.3751323
1017.36662283
1015.84259271
1013.81279937
1011.28775251
1008.28022798
1004.80494236
1000.87827924
996.5180062
991.743001358
986.572989851
981.028285982
975.12953418
968.897443613
962.352515778
955.514772142
948.403496099
941.037010692
933.432516335
925.606011987
917.572314971
909.345180985
900.937506276
892.361574986
883.629302033
874.752425409
865.742624009
856.611573316
847.370979979
838.032648643
828.608602299
819.111294575
809.553889536
799.950599411
790.317063126
780.670750946
771.031376374
761.421290176
751.865815858
742.393471831
733.035998994
723.82809982
714.806757789
706.010055007
697.475449757
689.237681903
681.326861386
673.767468324
666.579170535
659.779161438
653.387250242
647.433296746
641.964143938
637.028009206
633.690714362
633.450426051
633.504046224
633.531830595
633.554461454
633.528426625
633.485998723
633.429703622
633.372412794
633.317141533
633.259272642
633.192138748
633.110600372
633.015227427
632.90752622
632.788683824
632.662297893
632.532870956
632.405750281
632.286303816
632.176637329
632.070609989
631.958680438
631.847764958
631.752697126
631.664298332
631.584064105
631.522619556
631.458547862
631.437362078
631.400635563
631.252880157
631.34945448
631.371465667
631.396939448
631.422994784
631.444205635
631.460900867
631.473168554
631.481531529
631.485737527
1025.28417162
1024.75036904
1023.69475795
1022.10004886
1019.97725216
1017.33825281
1014.19743919
1010.57130814
1006.47813266
1001.93762985
996.970652888
991.598904834
985.844663332
979.730501149
973.278989321
966.512378335
959.45226379
952.119256451
944.532687207
936.710385418
928.668568606
920.421872915
911.983532073
903.365682497
894.579736067
885.636737125
876.547619175
867.323316671
857.974755312
848.512801996
838.948267739
829.292008078
819.5551651
809.749511468
799.887873311
789.984608597
780.056128977
770.121453451
760.202767825
750.325959
740.521038711
730.822386083
721.268621645
711.901938051
702.766621689
693.906569914
685.36187544
677.165189899
669.339418713
661.898381283
654.84893137
648.191105396
641.883676502
635.660174707
634.317503219
633.96586063
634.070158323
634.181294879
634.199564972
634.163835586
634.109711575
634.046430954
633.975779995
633.903567986
633.830562718
633.753118408
633.666106327
633.565992135
633.453878777
633.329659231
633.193609745
633.049186146
632.900349116
632.751509819
632.606630881
632.467183854
632.330394809
632.192908985
632.058868095
631.935455399
631.820185312
631.712695172
631.617703574
631.530445036
631.465176294
631.404736877
631.384648341
631.366196548
631.312904553
631.346081155
631.383810827
631.411057356
631.431896602
631.447054169
631.457046827
631.462182524
1032.23038217
1031.66785045
1030.55900781
1028.88450228
1026.65685982
1023.88962995
1020.59913728
1016.8039943
1012.52469025
1007.78319884
1002.60263583
997.006959889
991.020693949
984.668636855
977.975539461
970.965732045
963.662708993
956.0886965
948.264248333
940.207927884
931.936139844
923.46316454
914.801419636
905.961923941
896.954875258
887.790198271
878.47790642
869.028185227
859.451244732
849.757101753
839.955461041
830.055777482
820.067542104
810.000716687
799.86626536
789.676745306
779.446962054
769.194683623
758.941419639
748.713201838
738.541339296
728.462994978
718.521431305
708.765555917
699.248311368
690.02333565
681.139453493
672.633874771
664.527546317
656.827670691
649.527049634
642.564005789
635.484259126
634.582742147
634.743545346
634.850051844
634.92560624
634.923210568
634.892026043
634.831561342
634.758607488
634.679351321
634.595042202
634.507706042
634.416682635
634.318915331
634.210764434
634.091142052
633.960524956
633.817415802
633.662308292
633.49793392
633.327521544
633.154621329
632.982359468
632.812281625
632.643909899
632.476999132
632.314626323
632.160740657
632.015729511
631.880582953
631.757772909
631.646365637
631.550401799
631.469372301
631.41747683
631.39063768
631.351875965
631.285442811
631.34840611
631.383065088
631.407653376
631.425646151
631.437391638
631.443349261
1039.74988521
1039.15466927
1037.98557298
1036.22085039
1033.87487717
1030.96323143
1027.50458065
1023.52006496
1019.03277533
1014.06728416
1008.64927246
1002.80523857
996.56224397
989.9476404
982.988730392
975.712335067
968.144271809
960.3087761
952.227931055
943.921193184
935.405115934
926.693367452
917.79710193
908.725668883
899.48753155
890.091148981
880.545523098
870.860210753
861.044894472
851.108845869
841.060588085
830.90790465
820.658209585
810.319129
799.899172656
789.408445276
778.859426694
768.267875801
757.653838727
747.042783748
736.466755216
725.965534192
715.587550271
705.390127277
695.438270466
685.800678729
676.541246228
667.70569432
659.313086381
651.361799451
643.795035422
636.135302487
635.16639328
635.409378122
635.689637251
635.754209061
635.756539026
635.708629785
635.642999941
635.561318837
635.47197541
635.378252252
635.280505045
635.178321834
635.069856129
634.952258772
634.8232113
634.68403269
634.533659064
634.36979012
634.193722194
634.007424039
633.813469312
633.614722875
633.413826419
633.212575299
633.01188162
632.812970672
632.618520214
632.431470157
632.253528771
632.086625695
631.932917391
631.793456358
631.670606278
631.565565589
631.48238222
631.420170597
631.363814633
631.343920912
631.332989118
631.364852793
631.390177062
631.410208824
631.423616437
631.430309643
1047.87396856
1047.24144514
1046.0039726
1044.13701963
1041.65723237
1038.58268343
1034.93490454
1030.73808226
1026.01836919
1020.80331024
1015.12145053
1009.0020927
1002.47511917
995.570779705
988.319361132
980.750691963
972.893479487
964.774522767
956.417890154
947.84419038
939.070097968
930.108301464
920.968006884
911.656020378
902.178241032
892.54114835
882.752705164
872.822212808
862.759309484
852.572831405
842.270103288
831.856895072
821.337982605
810.717992452
800.002266844
789.197664363
778.31344719
767.362338913
756.361829445
745.335656101
734.315500291
723.342927956
712.471413007
701.768164083
691.314475108
681.202505169
671.523551411
662.339692039
653.661115244
645.432882286
637.171023017
636.154251949
636.376215432
636.621033567
636.702367869
636.679941878
636.624929739
636.542434316
636.448964812
636.348279104
636.244814221
636.138457969
636.027595125
635.910150363
635.783665066
635.64570441
635.495379656
635.335233952
635.163363437
634.977511523
634.77915208
634.569835497
634.351589845
634.126685713
633.897353071
633.665475014
633.432645473
633.200751536
632.972390722
632.750349524
632.537076833
632.335129714
632.147068688
631.975112735
631.821767056
631.688929688
631.57859709
631.48972635
631.416970839
631.371503729
631.35507971
631.348714616
631.376993107
631.400921465
631.416486588
631.423952473
1056.63814765
1055.96285475
1054.64751729
1052.66435779
1050.0328235
1046.77407824
1042.91320794
1038.47812208
1033.49859455
1028.00553891
1022.0306222
1015.60614822
1008.76504961
1001.54081482
993.96721216
986.077733455
977.904746922
969.478414027
960.825487597
951.968172748
942.923293797
933.702054143
924.310662012
914.751963318
905.027906636
895.142164225
885.101773081
874.916662438
864.597464807
854.153244579
843.590175038
832.911510321
822.118585201
811.212179213
800.19363943
789.065683994
777.833273138
766.504818664
755.09375369
743.620391767
732.114164496
720.616417991
709.184128085
697.894386877
686.848858291
676.175649717
666.020746908
656.473401043
647.472809984
638.504930324
637.420834685
637.664682286
637.845879422
637.835587988
637.761561554
637.657899078
637.544706133
637.425279333
637.307197622
637.190227395
637.07358894
636.953979732
636.827963083
636.692479215
636.544931694
636.383779164
636.210439967
636.026839361
635.83077764
635.621523228
635.400271371
635.168169178
634.926627455
634.677243868
634.421703264
634.161670495
633.898867094
633.635351673
633.373679263
633.116686087
632.867281072
632.628537562
632.403591655
632.19549459
632.007284845
631.841562038
631.70035501
631.583721991
631.490157948
631.422842241
631.38188182
631.360228277
631.363376104
631.398042026
631.417125847
631.425219467
1066.0828644
1065.35830501
1063.9538766
1061.83810522
1059.03386118
1055.56616064
1051.46459313
1046.76171909
1041.49163702
1035.68902568
1029.38882035
1022.62636782
1015.4377523
1007.85999416
999.930903897
991.688475021
983.169798611
974.409566491
965.438309726
956.280610137
946.953633705
937.466451163
927.820677966
918.012860002
908.038573497
897.897221504
887.595323089
877.145361511
866.56104868
855.85292929
845.026091744
834.080390783
823.012456637
811.818113393
800.493854511
789.037333508
777.447999143
765.728383931
753.885989326
741.935462793
729.901083741
717.820373143
705.74941983
693.771337162
682.008300084
670.639630597
659.92748116
649.970527844
640.167523213
638.936107227
639.188687408
639.348986435
639.228401627
639.035962642
638.849301765
638.671339743
638.507073406
638.355654935
638.216038157
638.082763952
637.950453867
637.81338067
637.666900306
637.507582013
637.333196058
637.143619681
636.942814841
636.731677195
636.50853115
636.274615693
636.030700313
635.777397498
635.51530491
635.245131118
634.967757839
634.684277745
634.396088544
634.105040638
633.813503536
633.524274246
633.240477366
632.965548534
632.703145137
632.457026506
632.230941224
632.028308718
631.851900529
631.703217895
631.582872325
631.492354335
631.43066719
631.39266674
631.37636436
631.408532859
631.429442052
631.435349032
1076.25433486
1075.47278931
1073.96575458
1071.69796568
1068.69628129
1064.99050284
1060.61611057
1055.61167715
1050.01655092
1043.8695252
1037.20870548
1030.07221473
1022.49913555
1014.53019289
1006.20785372
997.575688436
988.676980903
979.552669668
970.238786136
960.763668523
951.145407927
941.390232113
931.492797501
921.439445549
911.214975318
900.811682843
890.236584406
879.508837361
868.649291873
857.672170752
846.58137085
835.371580495
824.032526804
812.553618794
800.92583236
789.141031825
777.191864037
765.073135907
752.784252552
740.331532063
727.730448791
715.009064336
702.214135496
689.422776503
676.764045541
664.463143802
653.020997245
642.169838386
640.689085585
640.880862412
641.041856901
640.847746203
640.525988507
640.215786881
639.94503526
639.71047833
639.508182394
639.330546276
639.169616478
639.016123589
638.861888586
638.699854431
638.524817163
638.333394074
638.124158129
637.89881976
637.663344016
637.419230385
637.166240475
636.906559115
636.64078951
636.368844314
636.090252903
635.804532529
635.511437076
635.211125772
634.904289067
634.592242391
634.276949831
633.960969172
633.647384805
633.339764672
633.042089432
632.758651504