/*--------------------------------*- C++ -*----------------------------------*\
| =========                 |                                                 |
| \\      /  F ield         | OpenFOAM: The Open Source CFD Toolbox           |
|  \\    /   O peration     | Version:  v1906                                 |
|   \\  /    A nd           | Web:      www.OpenFOAM.com                      |
|    \\/     M anipulation  |                                                 |
\*---------------------------------------------------------------------------*/
FoamFile
{
    version     2.0;
    format      ascii;
    class       volScalarField;
    location    "537";
    object      pa;
}
// * * * * * * * * * * * * * * * * * * * * * * * * * * * * * * * * * * * * * //

dimensions      [0 2 -2 0 0 0 0];


internalField   nonuniform List<scalar> 
9216
(
915.862907704
915.557138736
914.924576642
913.959722821
912.667987777
911.055431692
909.129600259
906.899402887
904.374974394
901.567548726
898.489318876
895.153307156
891.573220831
887.763325528
883.738305409
879.513148244
875.103017415
870.523154618
865.788768093
860.914955885
855.916611868
850.808369861
845.604526807
840.319006175
834.965296307
829.556430612
824.104938621
818.62284031
813.121607547
807.612170108
802.104885295
796.609555498
791.135404754
785.691100428
780.284736904
774.923866827
769.615487993
764.366079041
759.181590124
754.067482685
749.028722795
744.069823874
739.194841923
734.407420202
729.710785653
725.107794645
720.600929959
716.192346778
711.883869634
707.677037904
703.573102183
699.57306862
695.677694263
691.887529665
688.202912882
684.624009909
681.150807133
677.783149337
674.52073057
671.363129623
668.309799438
665.360100106
662.513287088
659.768541919
657.124959615
654.581577335
652.137361422
649.791234319
647.542061681
645.38867782
643.329873332
641.364419258
639.491055591
637.70851429
636.01550894
634.410756642
632.892969014
631.460872893
630.113202767
628.848720146
627.666207439
626.564485767
625.54241024
624.598885938
623.732864429
622.943357556
622.229434849
621.590234376
621.02495985
620.532885848
620.113348313
619.765730049
619.489406124
619.283557736
619.144931384
619.088852729
916.167665915
915.860168273
915.225959088
914.256747806
912.958806699
911.33848037
909.403483553
907.162868391
904.626911736
901.806990395
898.715444322
895.365440862
891.770832397
887.946022545
883.905829695
879.665364632
875.239907665
870.644803724
865.895357455
861.006748609
855.993946502
850.871645791
845.654199398
840.35557292
834.989293744
829.568421448
824.105510449
818.612593679
813.101156327
807.582130532
802.06587849
796.562194981
791.080298283
785.628842492
780.215913096
774.849043904
769.535218579
764.280892757
759.091999217
753.973973643
748.931762648
743.969852229
739.092277801
734.302654451
729.60418823
724.999707383
720.491674206
716.082216495
711.773139319
707.565955995
703.461899184
699.461950779
695.566851815
691.777130743
688.093111773
684.514941154
681.0425937
677.675896847
674.414535295
671.258072787
668.205954942
665.257528876
662.412044459
659.668672002
657.026502288
654.484562642
652.041816137
649.697176399
647.449506401
645.29763233
643.24034235
641.276399812
639.404542281
637.623494276
635.931966794
634.328669657
632.812311656
631.381612504
630.035303629
628.772139634
627.590899699
626.490398395
625.469487567
624.527066306
623.662083137
622.873544888
622.160518967
621.522140829
620.957616164
620.466227139
620.047336247
619.700398884
619.424992738
619.220934434
619.08870273
619.032722892
916.801655534
916.489427311
915.849456794
914.871542449
913.562055584
911.927477202
909.975716445
907.716045192
905.158978214
902.316141171
899.200129956
895.824368195
892.202961973
888.350559839
884.282215013
880.013257821
875.55917334
870.935492353
866.157688735
861.241091536
856.200803195
851.051632485
845.808032217
840.484050855
835.093287008
829.648856715
824.163361722
818.648869573
813.116893081
807.578380907
802.04370629
796.522665893
791.024476554
785.557781627
780.13065334
774.750604997
769.424598551
764.159061464
758.95989814
753.832510288
748.78181126
743.812248973
738.927822289
734.132105644
729.428266695
724.819091873
720.307004581
715.89409094
711.58211786
707.3725583
703.266608598
699.265212624
695.369077825
691.578697767
687.894366465
684.316198945
680.844143577
677.478000449
674.217431622
671.061977268
668.011063926
665.064018556
662.22007502
659.478386321
656.838029665
654.298017239
651.857300261
649.514778699
647.269304709
645.119691672
643.064717402
641.103132793
639.233665097
637.455026407
635.765917192
634.165034731
632.651077
631.222751074
629.878777362
628.617897904
627.43888088
626.340528656
625.321682435
624.381229876
623.518109713
622.731318773
622.019916442
621.383031039
620.819864376
620.32969839
619.911902233
619.565944897
619.291416931
619.088087917
618.956191883
618.894182462
917.776314685
917.458640138
916.809667372
915.818156987
914.490675456
912.833935019
910.8561391
908.566896759
905.977090981
903.098735323
899.944824355
896.529181781
892.866308222
888.971233685
884.859375189
880.546403834
876.048120398
871.38034308
866.558805164
861.5990657
856.516429823
851.325881501
846.042024475
840.679034162
835.250615807
829.769971947
824.249774293
818.702143567
813.138632359
807.570215005
802.007279459
796.459625546
790.936464792
785.446424732
779.997554937
774.597337961
769.25269993
763.970025876
758.755174198
753.613495384
748.549849335
743.568626539
738.673767406
733.86878507
729.156785963
724.540493495
720.022269137
715.604136262
711.287801056
707.074675824
702.965899082
698.962357716
695.064705668
691.273384422
687.588639829
684.010540536
680.538992657
677.173755926
673.914456123
670.760598926
667.711580178
664.766697617
661.925159228
659.18609316
656.548554545
654.011534013
651.573963405
649.234723322
646.992648183
644.846533206
642.795139201
640.837199327
638.971423913
637.196507229
635.511132524
633.913978936
632.403726826
630.979064842
629.638695527
628.381342466
627.205756068
626.110720649
625.095060239
624.157645435
623.297399061
622.513302638
621.804401814
621.169812466
620.608726165
620.120416585
619.704246423
619.359676275
619.086275458
618.883740008
618.752148147
618.688909855
919.095676484
918.770997478
918.109719604
917.099589914
915.747473717
914.060420299
912.047042469
909.717415735
907.082931482
904.156138688
900.950581083
897.480632781
893.76133554
889.808241706
885.637264616
881.264539454
876.706295044
871.97873858
867.097952597
862.079805311
856.939872646
851.693372443
846.355108489
840.93942464
835.460166417
829.930650558
824.363640021
818.771325359
813.165310197
807.556602108
801.955606769
796.372127009
790.815364926
785.293925918
779.815827276
774.388509454
769.018848573
763.713171962
758.477274434
753.316437071
748.235446264
743.238614846
738.329803056
733.512441237
728.78955198
724.163773646
719.637382984
715.212318758
710.890204134
706.672369722
702.559875051
698.553530372
694.653916613
690.861405376
687.17617688
683.598237748
680.12743661
676.763479463
673.505942838
670.354286717
667.307865374
664.365938052
661.527677763
658.792180096
656.158470391
653.625511141
651.192208032
648.857416422
646.619946735
644.47857047
642.432025366
640.47902131
638.61824559
636.848368951
635.168051129
633.575947177
632.070713346
630.651013697
629.315526287
628.06294997
626.892010767
625.801468708
624.790124207
623.856824761
623.000471152
622.220023835
621.51450885
620.883023859
620.324743847
619.83892703
619.424920685
619.082166687
618.810205775
618.608681611
618.477604576
618.414204401
920.766388771
920.43284823
919.75580992
918.721793592
917.338074403
915.612155758
913.553190988
911.171866664
908.480237325
905.491548176
902.220054781
898.680842579
894.889650297
890.862700867
886.616542404
882.167901514
877.533550156
872.730187109
867.774334046
862.682246206
857.469836614
852.152613013
846.745625789
841.263425729
835.720029783
830.128893923
824.50289166
818.854297871
813.194776982
807.535375598
801.886518885
796.25801106
790.659039687
785.098180169
779.583406939
774.122105659
768.721087493
763.386605588
758.124372939
752.939581937
747.83692486
742.82061563
737.894412132
733.061639453
728.32521331
723.687664067
719.151160579
714.717534273
710.388302692
706.164692917
702.047664108
698.037929562
694.135977586
690.342091591
686.656368748
683.078737667
679.608974491
676.246717926
672.991482666
669.842671776
666.799587584
663.861441667
661.027363546
658.296408704
655.66756557
653.139762103
650.711871622
648.382718514
646.151083456
644.01570875
641.975303402
640.02854849
638.174102437
636.410606676
634.736691316
633.150981221
631.652102124
630.238687118
628.909383148
627.662857802
626.497806033
625.412957063
624.407081134
623.478996315
622.627575066
621.851750751
621.15052384
620.522967979
619.968235731
619.485564083
619.074279464
618.733801605
618.463645499
618.263423284
618.133117651
618.069986387
922.796891298
922.452431438
921.755937414
920.692420986
919.269684014
917.495813808
915.38065253
912.935661137
910.173730511
907.10898031
903.756556418
900.132430438
896.253205688
892.135933524
887.79794264
883.256683575
878.529589595
873.633954836
868.586829518
863.404931897
858.10457554
852.701610571
847.211376711
841.648666343
836.027695448
830.36208106
824.66482379
818.948294921
813.224227375
807.503710652
801.797189482
796.114466258
790.46470718
784.856448325
779.297609242
773.795506684
768.356870641
762.987862342
757.694093632
752.480647821
747.352101493
742.312547408
737.365618018
732.514509755
727.762007593
723.110510059
718.56205417
714.118340451
709.78075752
705.550406365
701.428123808
697.414505288
693.509926472
689.714563869
686.028413984
682.451311248
678.982944338
675.622871158
672.370532207
669.225262653
666.186302906
663.252808087
660.423856219
657.69845559
655.075551151
652.554030388
650.132728571
647.810433789
645.585891666
643.457810131
641.424864128
639.485700566
637.63894338
635.883198955
634.217061735
632.639120223
631.14796319
629.742186216
628.420398396
627.181229284
626.023335909
624.945409896
623.946184553
623.024441918
622.17901966
621.40881781
620.712805227
620.090025792
619.539604204
619.060751337
618.65276892
618.3150529
618.047095268
617.848487127
617.71919698
617.656563538
925.197572443
924.839934541
924.11998435
923.020907146
921.551164256
919.719575031
917.536841231
915.015385056
912.169130357
909.013271384
905.564042747
901.838494307
897.854276188
893.62943762
889.182242551
884.531003926
879.693937943
874.689038747
869.533973415
864.245996218
858.841880591
853.337866487
847.749620549
842.092206288
836.380061809
830.626983003
824.846110895
819.049922391
813.2502243
807.458150615
801.684164025
795.9380596
790.228973432
784.565391248
778.955163928
773.405523418
767.923100832
762.513946197
757.183549607
751.936863538
746.778326194
741.711885682
736.741024927
731.868787137
727.097801712
722.430310383
717.868193465
713.412995969
709.065953448
704.828017289
700.699879317
696.681995436
692.774608174
688.977767899
685.291352611
681.715086154
678.24855481
674.891222219
671.642442654
668.501472695
665.467481406
662.539559126
659.716725053
656.997933759
654.38208086
651.86800801
649.454507415
647.140326045
644.924169721
642.804707208
640.780574455
638.850379071
637.012705112
635.266118243
633.609171274
632.040410102
630.558380018
629.161632359
627.848731451
626.618261787
625.468835366
624.399099131
623.407742413
622.493504331
621.655181033
620.891632753
620.201790565
619.584662799
619.039340998
618.565005343
618.160929375
617.8264835
617.56113734
617.36446428
617.236420469
617.174441169
927.98094878
927.607640913
926.859852934
925.718593275
924.193137915
922.293212988
920.030579669
917.418838564
914.473172428
911.210077573
907.647100017
903.802580971
899.695416895
895.34483814
890.770208728
885.990849261
881.025883906
875.894111942
870.613903298
865.203116871
859.679039232
854.05834079
848.357045618
842.59051133
836.77341545
830.919745818
825.04279336
819.155146864
813.268689854
807.394600271
801.543354478
795.724732897
789.947830766
784.22106993
778.55221673
772.948400487
767.416133856
761.961334732
756.589349257
751.304975916
746.11249043
741.015671495
736.017827095
731.121821449
726.330102268
721.644728365
717.067397251
712.599472698
708.242011899
703.995792138
699.861336591
695.838939167
691.92868801
688.130487615
684.444079225
680.869059533
677.404897458
674.0509491
670.806470768
667.670630267
664.642516439
661.721147249
658.905476456
656.194399225
653.586756768
651.081340361
648.676894858
646.372122009
644.165683674
642.056205201
640.042279024
638.122468651
636.295313075
634.559331698
632.913029741
631.354904191
629.883450198
628.497167925
627.194569748
625.974187772
624.834581535
623.774345859
622.792118719
621.886589062
621.056504485
620.300678669
619.617998509
619.007430837
618.468028665
617.998936838
617.599397019
617.268751548
617.006446484
616.812037176
616.685464924
616.624270363
931.161874788
930.770119784
929.989641596
928.798881477
927.20811834
925.228194855
922.872169883
920.155077976
917.093623502
913.70586563
910.010913822
906.028638452
901.779402158
897.283815379
892.562518552
887.635992419
882.524397484
877.247442747
871.824283222
866.273444404
860.612770842
854.859394503
849.029718036
843.139407529
837.203390169
831.235853285
825.250243213
819.259263792
813.27487572
807.308297981
801.37001413
795.469780218
789.616637127
783.81892677
778.084312674
772.419801333
766.831765327
761.325967514
755.907586212
750.581241079
745.351019808
740.220505395
735.192804117
730.270573947
725.456053466
720.751090969
716.15717374
711.675457155
707.306793503
703.05176015
698.910686898
694.883682127
690.970657584
687.17135144
683.485349549
679.912104608
676.450953255
673.101130945
669.861784746
666.73198404
663.710729371
660.796959538
657.989557247
655.287353501
652.689131072
650.193627251
647.799536211
645.505511174
643.310166655
641.212080929
639.209798916
637.301835575
635.486679911
633.762799621
632.12864641
630.582661937
629.123284378
627.748955513
626.458128278
625.249274676
624.120893959
623.071520963
622.099734497
621.204165681
620.383506122
619.636515838
618.962030829
618.358970212
617.826342836
617.363253286
616.968907231
616.642615763
616.383798928
616.191991881
616.067117634
616.006830851
934.757797221
934.344466634
933.525861866
932.277423263
930.610663084
928.537797925
926.073472043
923.234458491
920.039291298
916.50789376
912.661225364
908.520952268
904.109146124
899.448014187
894.559662173
889.465891162
884.188029141
878.746797695
873.162213092
867.453519962
861.639153668
855.736725911
849.763026368
843.734033012
837.664924238
831.570088376
825.463128646
819.356864625
813.263332595
807.19378778
801.158712007
795.16782456
789.23009537
783.353767423
777.546380163
771.814794476
766.165218801
760.603236028
755.133830819
749.761417527
744.489868557
739.322543421
734.262318277
729.31161611
724.472437266
719.7463904
715.134723477
710.638354788
706.257903555
701.993720005
697.845914409
693.814384946
689.898843868
686.098841864
682.413790177
678.84298047
675.385602143
672.040757229
668.807472759
665.684710845
662.671376525
659.766323757
656.968359692
654.276247675
651.68870918
649.204425116
646.82203672
644.540146422
642.357318854
640.272082314
638.282930771
636.388326619
634.586704204
632.876474208
631.256028852
629.723747926
628.278005538
626.917177552
625.639649554
624.443825285
623.328135383
622.291046325
621.331069433
620.446769832
619.636775233
618.899784425
618.23457539
617.640012932
617.115055747
616.658762863
616.270299406
615.948941363
615.694079608
615.505226331
615.382282525
615.32302609
938.789069471
938.350596352
937.487705683
936.172347196
934.417556361
932.237243369
929.64799049
926.66867549
923.320026017
919.624178837
915.604270257
911.284061285
906.687601099
901.838929789
896.761820836
891.479563654
886.014787114
880.389324672
874.624121185
868.739179389
862.753541709
856.685299758
850.551621751
844.36878664
838.152215311
831.916492191
825.675375775
819.441800609
813.227876131
807.044887546
800.903303849
794.8127918
788.782230292
782.819740634
776.932713556
771.1278384
765.411132856
759.78797258
754.263120875
748.840758425
743.524513491
738.317492556
733.222311658
728.241128252
723.375673674
718.627285933
713.996942821
709.485294936
705.092698526
700.819247622
696.664805262
692.629033224
688.711420041
684.911306743
681.227910195
677.660343621
674.20763434
670.868738497
667.642553016
664.527924758
661.523657262
658.628515231
655.841227235
653.160486893
650.584953047
648.113249215
645.74396281
643.47564436
641.306807145
639.235927406
637.261445405
635.381767406
633.595268718
631.900297782
630.295181326
628.778230506
627.347747959
626.002035657
624.739403435
623.55817804
622.456712574
621.433396161
620.486663698
619.615005552
618.816977048
618.09120765
617.436409701
616.851386633
616.335040568
615.886379242
615.504522224
615.188706153
614.938289059
614.752756905
614.631985218
614.573884659
943.279341014
942.811610599
941.897371627
940.504533289
938.648022244
936.343846758
933.61096365
930.470799718
926.946707918
923.063444301
918.846694066
914.322647886
909.517628437
904.457765362
899.168716655
893.675436233
888.001988636
882.17141299
876.20563738
870.125442826
863.950471704
857.699270931
851.389355499
845.037275993
838.65867483
832.268321909
825.880128162
819.507143511
813.161549022
806.854653369
800.596899749
794.397881917
788.26636337
782.210316493
776.23695439
770.352765506
764.563547233
758.874438522
753.289951568
747.81400336
742.44994736
737.200605854
732.068302903
727.054898132
722.161821072
717.390106151
712.740427955
708.213136732
703.808293622
699.525705415
695.364958179
691.325449444
687.406418247
683.606972747
679.926114843
676.362761669
672.91576362
669.583919038
666.365985446
663.260687708
660.26672323
657.382764728
654.607460857
651.939435295
649.37728466
646.919575833
644.564843052
642.311585294
640.158264184
638.103302845
636.145085791
634.281960122
632.512237992
630.834200463
629.246102628
627.74617997
626.332655813
625.003749737
623.757686785
622.592707297
621.507077189
620.499098502
619.567120037
618.709547917
617.92485593
617.21159548
616.56840507
615.994019165
615.487276405
615.047127051
614.672639696
614.363006892
614.117549858
613.935725049
613.817378932
613.760564346
948.25604432
947.754247578
946.780464761
945.297940207
943.323971389
940.877182675
937.979452605
934.655299056
930.931213439
926.835041171
922.395437885
917.641396056
912.601836234
907.305255523
901.779428338
896.051157799
890.14608007
884.088525954
877.901444313
871.60638848
865.223561174
858.771904967
852.26921785
845.732268159
839.176885045
832.618009347
826.069704859
819.545142858
813.056578812
806.615340453
800.231828593
793.915537258
787.675085569
781.518263265
775.452071824
769.482765329
763.615888499
757.85631181
752.208264933
746.67536942
741.26067175
735.966677032
730.79538375
725.748319335
720.826576709
716.030851441
711.361479601
706.818475862
702.401571701
698.110253057
693.943797044
689.901306904
685.981744726
682.183961149
678.506721721
674.948729372
671.508642952
668.18509162
664.976685353
661.882021655
658.899688995
656.028267304
653.266326184
650.612421299
648.065089661
645.622844273
643.284168795
641.047512615
638.911286852
636.873861528
634.933564235
633.088680383
631.337455152
629.678097083
628.108783302
626.627666177
625.232881334
623.922556772
622.694822938
621.54782351
620.4797267
619.48873685
618.573106122
617.731146089
616.961239045
616.26184888
615.631531385
615.068943876
614.572854057
614.142148051
613.7758376
613.473066179
613.233113912
613.055404116
612.939750844
612.884358274
953.751007283
953.209449219
952.166485688
950.579995716
948.470281225
945.859258231
942.772418797
939.238036295
935.286349102
930.948832818
926.25758562
921.244810463
915.942377229
910.381449554
904.592166143
898.603374186
892.442419136
886.135000292
879.705102324
873.175009377
866.565398929
859.895499731
853.183283352
846.445649196
839.698562782
832.957122577
826.23555708
819.547179017
812.904331167
806.318357069
799.799595296
793.357407291
787.000228187
780.735623515
774.570342692
768.510367726
762.560955393
756.726674287
751.011438696
745.418541794
739.950689321
734.610034653
729.398215096
724.316389551
719.365277132
714.545196893
709.856108288
705.297652423
700.869193496
696.569860115
692.398585529
688.35414619
684.435197545
680.640306512
676.967979765
673.416687575
669.984882742
666.671014757
663.473539172
660.390922656
657.421644066
654.564192265
651.817061221
649.178743231
646.64772088
644.222458575
641.901394174
639.68293145
637.565433742
635.5472193
633.626558492
631.801673109
630.070737735
628.43188322
626.883202047
625.422755515
624.04858244
622.758709213
621.551160926
620.423973329
619.375205364
618.402952012
617.505357236
616.680626765
615.927040547
615.242964661
614.626862575
614.077305595
613.592982463
613.172708004
612.815430853
612.520239952
612.286369836
612.11320713
612.000529796
611.946701982
959.801234016
959.213067812
958.089433245
956.382057761
954.11510787
951.314684279
948.010776048
944.236226846
940.025739017
935.415031527
930.440163917
925.136989009
919.540700544
913.685447514
907.603998705
901.327453862
894.885010542
888.303804198
881.608842622
874.823050992
867.967430937
861.061314965
854.122672374
847.168401065
840.214536561
833.276332986
826.368222722
819.503708099
812.695250605
805.954209616
799.290835564
792.714310926
786.232833053
779.853690444
773.583332403
767.427426538
761.390904501
755.477998681
749.692274739
744.036663621
738.513495456
733.124535564
727.871022641
722.753708392
717.772898602
712.928495307
708.220040315
703.646759746
699.207609478
694.901320618
690.72644429
686.68139441
682.764487547
678.973978599
675.308091671
671.765045349
668.343072267
665.040432723
661.855422755
658.786376925
655.83166658
652.989694199
650.258884796
647.637675124
645.124501737
642.717788617
640.415935319
638.217306205
636.120221475
634.122950322
632.223706604
630.420647083
628.711872333
627.095430126
625.569321194
624.131507066
622.779919749
621.512472934
620.327074441
619.221639601
618.194105269
617.242444169
616.364679298
615.558898127
614.823266352
614.15604101
613.555582786
613.020367405
612.548995993
612.140204393
611.792871406
611.506025789
611.278851702
611.110695125
611.001294462
610.949181954
966.449912514
965.806772732
964.588548364
962.739956896
960.290219824
957.270824577
953.717392199
949.668333223
945.163646487
940.243972794
934.949884797
929.321342237
923.397251373
917.21508296
910.810523183
904.217154461
897.4661826
890.58624228
883.603319606
876.540826855
869.419845667
862.259521215
855.077543754
847.8906108
840.714746423
833.565391001
826.45727606
819.404194436
812.418788147
805.512438105
798.695262827
791.976196262
785.363123054
778.86298633
772.481877897
766.225104986
760.097236523
754.102135639
748.242986862
742.522325124
736.94206891
731.50355762
726.207591695
721.054474791
716.044057123
711.175780369
706.448724133
701.861654379
697.413073286
693.101270025
688.924370939
684.880387882
680.967262924
677.182908294
673.525240207
669.992206099
666.58180467
663.292098943
660.121222445
657.067379278
654.128838686
651.303925247
648.591005548
645.988472635
643.494729162
641.108170461
638.827168363
636.650056751
634.575119418
632.600580838
630.724600064
628.945267982
627.260607752
625.668578379
624.167081028
622.753967846
621.42705286
620.184124667
619.022960485
617.941341263
616.937067464
616.007975189
615.151952317
614.366954327
613.651019575
613.002283752
612.418993394
611.899518264
611.442362572
611.046174962
610.709757303
610.432072039
610.212247991
610.049586673
609.943783017
609.893544777
973.747739728
973.039211625
971.709240028
969.69462244
967.031332733
963.757886637
959.917002047
955.553862274
950.714704747
945.445811056
939.79282245
933.800255097
927.511115643
920.96654714
914.20546998
907.264216326
900.17618768
892.971589054
885.677308088
878.317006109
870.911465618
863.479186484
856.0371444
848.60153547
841.188281079
833.813112357
826.491265448
819.237018722
812.063306229
804.981533679
798.001605864
791.132098974
784.380476152
777.753245769
771.256075233
764.893863825
758.670783814
752.590300433
746.655187731
740.867551394
735.228861379
729.739991169
724.401261137
719.21248345
714.173007993
709.281769503
704.537337172
699.937966996
695.481657086
691.166204686
686.989263468
682.948398682
679.041138315
675.265018119
671.617619369
668.096598199
664.699706346
661.424803155
658.26985949
655.232954139
652.312263924
649.506048524
646.812631512
644.230378779
641.757675882
639.39290544
637.134425927
634.980552731
632.929542449
630.979580855
629.128775009
627.375149448
625.716646449
624.15112995
622.676392821
621.290166957
619.990135807
618.773948863
617.639237698
616.583633148
615.604783213
614.700371294
613.868134348
613.10588064
612.411506732
611.783013495
611.218520915
610.71628159
610.274692821
609.892307296
609.567842378
609.300187943
609.088412242
608.931768049
608.829903197
608.781707747
981.754696898
980.967543051
979.504241559
977.292789115
974.378398573
970.808892422
966.635970594
961.913017324
956.693524845
951.030120619
944.974018964
938.574692567
931.879611724
924.933953298
917.780233036
910.457865634
903.002700941
895.446622457
887.817320499
880.138361752
872.429653798
864.708331532
856.989959205
849.289763325
841.623473807
834.007374485
826.45762196
818.98934167
811.615940659
804.34882742
797.197537874
790.170104309
783.273408252
776.513408986
769.89527489
763.423454126
757.101699
750.933058933
744.919873916
739.063788477
733.365785283
727.826229276
722.44491595
717.221120223
712.153644228
707.240866234
702.480792571
697.871114321
693.409268725
689.092504407
684.917947521
680.882666086
676.983729134
673.218258497
669.583471137
666.07671123
662.695471347
659.437403171
656.300318191
653.282179615
650.381086656
647.595252872
644.922980032
642.362629348
639.912591563
637.571257661
635.336991463
633.208105519
631.182841128
629.259353305
627.435700883
625.709841901
624.079633859
622.542838482
621.097130292
619.740108508
618.469311572
617.282233907
616.176344327
615.149105716
614.197995449
613.320526113
612.514266065
611.776859381
611.106044861
610.499673744
609.955725988
609.472324916
609.047750238
608.680449399
608.369047377
608.112354762
607.909373892
607.759304792
607.661744045
607.615770023
990.542484869
989.659476906
988.035066141
985.587750238
982.375759918
978.459421976
973.901813883
968.766138565
963.114143394
957.005388439
950.49702297
943.643761038
936.497841659
929.108846172
921.523318646
913.784204048
905.930179944
897.995010749
890.007101064
881.989455565
873.960246618
865.934104564
857.924038061
849.943540144
842.008090457
834.135113506
826.342501713
818.64687646
811.06238555
803.600342278
796.269601728
789.077322713
782.02957555
775.131632837
768.388089936
761.802915842
755.379444109
749.120310763
743.027407768
737.101886424
731.34419958
725.754156116
720.330978348
715.073355726
709.979493505
705.047161131
700.27374552
695.656311533
691.191671022
686.876458315
682.707208522
678.68043365
674.792692514
671.040650788
667.421129243
663.931138748
660.56790196
657.32886189
654.21167855
651.214214885
648.33451391
645.570768773
642.921287962
640.384457512
637.958702448
635.642449194
633.434090906
631.331957072
629.334288735
627.439219975
625.644766135
623.948818535
622.349145298
620.84339742
619.429119344
618.103763123
616.864705558
615.709267639
614.634735847
613.638384762
612.717500484
611.869404311
611.091476093
610.38117678
609.73606969
609.153840194
608.632313542
608.169470775
607.763462632
607.412621545
607.115471813
606.870738035
606.677351126
606.53445389
606.441587962
606.398025358
1000.19794321
999.196082631
997.373845165
994.640072191
991.071993121
986.746951557
981.742337063
976.132844294
969.989270551
963.378396532
956.363381833
949.004256794
941.358231196
933.479674377
925.419709514
917.225455986
908.939028889
900.596477372
892.226919657
883.852210612
875.487522995
867.143161037
858.827637553
850.551385403
842.329659617
834.182293066
826.130485496
818.193488999
810.386564158
802.720609021
795.203149725
787.839901642
780.635813452
773.59533171
766.722423012
760.020583139
753.492776705
747.141266068
740.967493014
734.97207835
729.154892957
723.515133954
718.05139703
712.761736886
707.643712409
702.694430568
697.910598034
693.288584953
688.824502933
684.514294848
680.353829395
676.33899353
672.465776135
668.730338863
665.129071236
661.658629155
658.315956474
655.098290696
652.003153969
649.028331543
646.17183967
643.431885567
640.80682173
638.295097293
635.895208712
633.605652308
631.424880664
629.351264907
627.383064206
625.518403581
623.755260208
622.09145807
620.524669952
619.05242576
617.672125775
616.381057899
615.176417898
614.055332146
613.014882249
612.05213116
611.16415013
610.348045884
609.600987305
608.920230982
608.303145122
607.747231371
607.250144385
606.809708967
606.423934872
606.091029329
605.809407524
605.577701011
605.394763811
605.259677542
605.171924641
605.130975281
1010.82796935
1009.67574011
1007.6056676
1004.5180502
1000.51910738
995.709490436
990.184188313
984.030766233
977.329307826
970.153515116
962.572138793
954.650263465
946.450115813
938.031263281
929.450150709
920.759037848
912.004485375
903.225620455
894.452527506
885.705268098
876.994207487
868.322391137
859.690434461
851.103227773
842.57602076
834.133768439
825.803986461
817.610507537
809.570111814
801.692433784
793.982339893
786.44311446
779.078238971
771.891263934
764.88552027
758.064094068
751.429725356
744.984407668
738.729140093
732.663953776
726.788065198
721.099989211
715.597635195
710.278375458
705.139076918
700.176131292
695.385500991
690.762783824
686.303302873
682.002216334
677.854635552
673.855739548
670.000877146
666.285650985
662.705980977
659.258146176
655.938805762
652.745000213
649.674135019
646.723949241
643.892472005
641.177969691
638.578887056
636.093785096
633.721278826
631.459977622
629.308431004
627.265081991
625.328230094
623.496004955
621.766351182
620.137023594
618.605591637
617.169451014
615.825840822
614.571864625
613.404514549
612.320697763
611.317265008
610.391040756
609.538854357
608.757571395
608.044124308