/*--------------------------------*- C++ -*----------------------------------*\
| =========                 |                                                 |
| \\      /  F ield         | OpenFOAM: The Open Source CFD Toolbox           |
|  \\    /   O peration     | Version:  v1906                                 |
|   \\  /    A nd           | Web:      www.OpenFOAM.com                      |
|    \\/     M anipulation  |                                                 |
\*---------------------------------------------------------------------------*/
FoamFile
{
    version     2.0;
    format      ascii;
    class       surfaceScalarField;
    location    "565";
    object      phia;
}
// * * * * * * * * * * * * * * * * * * * * * * * * * * * * * * * * * * * * * //

dimensions      [0 3 -1 0 0 0 0];
oriented        oriented;


internalField   nonuniform List<scalar> 
18240
(
0.000845810115535
-0.000845619741418
0.00173354635665
-0.000887499332752
0.00261914795995
-0.000885415874591
0.00349758435135
-0.000878189491529
0.00436588357111
-0.000868126758072
0.00522162476099
-0.000855486057815
0.00606228286609
-0.000840498972423
0.00688581192156
-0.000823267161341
0.00768995286847
-0.000803995461895
0.00847299569758
-0.000782775775671
0.00923295860276
-0.000759831570336
0.00996848026367
-0.000735250988073
0.0106778663651
-0.000709268961217
0.0113600989625
-0.000681959804714
0.0120137588454
-0.000653557113961
0.0126381424793
-0.000624110166928
0.0132320707117
-0.000593839581035
0.0137951042817
-0.00056276086021
0.0143262516692
-0.000531072824177
0.0148252742802
-0.000498752030638
0.0152913063137
-0.000465971102262
0.0157242407136
-0.000432667293045
0.0161232752831
-0.000398987076848
0.0164883700947
-0.000364832442473
0.0168187330504
-0.000330328270564
0.0171143388669
-0.000295349416407
0.0173743678898
-0.000260006795562
0.0175987759933
-0.0002241588342
0.0177866991957
-0.00018791265437
0.0179380635788
-0.000151123418956
0.0180519685328
-0.000113905621671
0.018128322363
-7.61223591362e-05
0.0181662189816
-3.79076590823e-05
0.0181655904488
8.49204573411e-07
0.0181255867312
3.99827992668e-05
0.0180462282364
7.95669521819e-05
0.0179268028836
0.000119395388908
0.0177675027922
0.000159494725161
0.0175678515322
0.000199612791881
0.0173283063596
0.000239724248298
0.0170487287307
0.000279531593573
0.0167299324922
0.000318957863841
0.0163722142765
0.000357665412112
0.0159768281519
0.000395528324102
0.015544596104
0.000432173670533
0.0150772912174
0.00046742560519
0.0145763534792
0.000500874903375
0.014044163778
0.000532287035289
0.0134828895756
0.000561208394451
0.0128956279848
0.00058733419575
0.0122853966291
0.000610164284661
0.0116561129548
0.00062933151673
0.0110117247333
0.000644322349743
0.0103569815549
0.000654768259704
0.00969668091159
0.000660239114367
0.00903619613523
0.000660491137316
0.00838082061046
0.000655321548796
0.00773605946739
0.000644754212137
0.00710708169895
0.000628933502134
0.00649882573201
0.000608241094853
0.00591558544145
0.000583207244422
0.00536102860123
0.000554538248893
0.00483801273721
0.000522994750402
0.00434864916279
0.000489342799087
0.00389431962211
0.000454319045926
0.00347565949742
0.000418637714204
0.00309265215791
0.000383005659097
0.0027445746583
0.000348054899684
0.00243023566312
0.000314345638272
0.0021479262152
0.000282289437911
0.00189573213941
0.000252209270692
0.00167143204186
0.000224284904705
0.00147280944733
0.000198645584934
0.00129749512141
0.000175305226812
0.00114327233256
0.000154252025117
0.00100789560945
0.000135374387211
0.000889371063939
0.000118558491064
0.000785751252786
0.000103624076207
0.000695370890374
9.04172568855e-05
0.000616640180642
7.87400706797e-05
0.000548255890168
6.84220271228e-05
0.000489036598355
5.92318023449e-05
0.000438196645459
5.0876788163e-05
0.000395587710316
4.26223517689e-05
0.000361441927329
3.41806428601e-05
0.000330671943681
3.07867135524e-05
0.000301623511718
2.90844952624e-05
0.000276022548583
2.56245668445e-05
0.000250386608878
2.56772933874e-05
0.000222286558649
2.81359232798e-05
0.000193348723055
2.89903559672e-05
0.000163559785737
2.98424265225e-05
0.00012975811084
3.38669035145e-05
8.95725565448e-05
4.02593975587e-05
4.34799122078e-05
4.61764102408e-05
4.35223843911e-05
0.000893055649346
-0.00173846678027
0.00184134305728
-0.00183555594314
0.00278437482651
-0.00182823225808
0.00371883856593
-0.00181242204239
0.0046421892841
-0.00179126663942
0.00555195481697
-0.00176502062292
0.00644561143958
-0.001733950178
0.00732088177869
-0.00169830764859
0.00817549694657
-0.00165841168504
0.00900749981026
-0.00161455108376
0.00981493847165
-0.00156707857933
0.0105962082794
-0.00151629663323
0.0113496894325
-0.00146256653753
0.012074127519
-0.00140617813159
0.0127682199598
-0.00134747459401
0.0134310324412
-0.00128670820768
0.0140615392074
-0.00122418057453
0.014659073083
-0.00116008648006
0.0152228255573
-0.00109466908264
0.0157523284948
-0.0010280536814
0.0162469206205
-0.00096041698381
0.0167062593062
-0.00089181239196
0.017129760369
-0.000822352080524
0.0175171380459
-0.000752024872658
0.017867824672
-0.000680889276752
0.0181815364068
-0.000608884829647
0.018457678846
-0.000536034118946
0.0186959352597
-0.000462248361409
0.0188956635133
-0.000387536416515
0.0190565026521
-0.000311805603638
0.019177768112
-0.00023507721071
0.0192590739046
-0.000157281628414
0.0192997268359
-7.84774467689e-05
0.0192993582946
1.35326761626e-06
0.0192573268278
8.20866165942e-05
0.0191733541946
0.000163663462924
0.0190469380321
0.000245872910039
0.0188779843516
0.00032855988743
0.0186662336232
0.000411413718581
0.0184118805788
0.000494175578635
0.0181150164679
0.000576434532808
0.017776226597
0.000657831964201
0.0173960533948
0.00073786591254
0.0169755635973
0.00081608739619
0.0165158404351
0.000891912427873
0.0160185156956
0.000964803721775
0.0154853040168
0.00103409033811
0.0149184973822
0.00109913030988
0.0143205548894
0.00115914287236
0.0136945536446
0.00121335497253
0.0130438379243
0.00126086089742
0.012372405892
0.00130076669039
0.0116845995832
0.00133210039582
0.0109853858725
0.00135397120196
0.010280047646
0.00136554322749
0.00957431647725
0.00136620190173
0.00887403972468
0.00135556251487
0.0081851694314
0.00133359898057
0.00751342841893
0.00130064083054
0.0068641934395
0.00125744961943
0.00624219146321
0.00120518082834
0.00565136196511
0.00114534405094
0.00509474902368
0.00107958607416
0.00457456381635
0.00100950775861
0.00409224720773
0.000936620026193
0.003648457465
0.000862409497463
0.00324310043883
0.000788351915167
0.0028753377131
0.000715802905449
0.00254376062267
0.000645917992793
0.00224646921016
0.000579571656189
0.00198129125534
0.000517389890038
0.00174581840283
0.000459755553484
0.0015375844012
0.000406889738722
0.00135404961838
0.00035884460716
0.00119276505019
0.000315553400332
0.00105134592852
0.0002768048338
0.000927611823734
0.000242315261504
0.000819521391364
0.000211731921999
0.000725264257764
0.000184701432841
0.000643175913601
0.000160849983649
0.000571800546023
0.000139826601866
0.000509780351551
0.000121275739196
0.000455818803539
0.000104867656363
0.000408200881747
9.02640814007e-05
0.000364672099533
7.77371572174e-05
0.000326089441546
6.93942662972e-05
0.000294737243715
6.04668224672e-05
0.000268375263851
5.20161061458e-05
0.000243859015391
5.02288434908e-05
0.0002187917252
5.32434630992e-05
0.000190942646309
5.68885723511e-05
0.000161115292749
5.97235896866e-05
0.000128987828169
6.60572169391e-05
9.12412876849e-05
7.80803988779e-05
4.48559453324e-05
9.26403095636e-05
8.84153349726e-05
0.000901280861274
-0.00263953491899
0.00185524613458
-0.00278929636755
0.00280501198029
-0.00277777436125
0.00374626168301
-0.00275344584953
0.00467624514748
-0.00272102948265
0.00559236753191
-0.00268091898214
0.00649210680738
-0.00263347261613
0.00737311071294
-0.00257909057037
0.00823313992674
-0.00251822873281
0.00907016612554
-0.00245136046643
0.00988228861245
-0.0023789945909
0.0106678366332
-0.00230163299449
0.0114252636242
-0.00221979354394
0.0121532546331
-0.00213396352567
0.0128506005331
-0.00204462781111
0.0135163106477
-0.00195221952979
0.014149469232
-0.00185715438068
0.0147493539059
-0.00175977990715
0.0153152776884
-0.00166041664536
0.0158467144485
-0.00155930736432
0.0163431301951
-0.00145666550996
0.0168041172146
-0.00135262507439
0.0172292187874
-0.00124729592676
0.0176180734346
-0.00114071438351
0.0179702365259
-0.00103290440671
0.0182853354189
-0.000923828198168
0.0185628909245
-0.000813451766949
0.0188024832226
-0.000701695064887
0.019003575237
-0.000588500821408
0.0191656889232
-0.00047378394405
0.019288232705
-0.000357503907776
0.0193706869381
-0.00023961106898
0.0194124373899
-0.000120121501579
0.0194129694962
9.3501499344e-07
0.0193717089946
0.000123442473024
0.0192882225748
0.000247252376937
0.01916206597
0.000372113545599
0.0189929871612
0.00049772931527
0.0187807806229
0.000623692524018
0.0185254874465
0.000749546983478
0.0182272532612
0.000874728872275
0.017886519348
0.000998631111031
0.0175038831857
0.00112054959664
0.0170802767143
0.00123974543425
0.0166168323366
0.0013553911657
0.0161150496568
0.00146662348471
0.0155766760627
0.00157248444111
0.0150038683096
0.00167195987555
0.0143990996611
0.00176391773154
0.0137653211913
0.00184713957593
0.0131058990313
0.00192027518397
0.0124247627315
0.00198189432282
0.0117263478701
0.00203049504331
0.011015685175
0.00206461311952
0.0102982895508
0.00208291011853
0.00958012754429
0.0020843351737
0.00886741367327
0.00206824360256
0.00816645973575
0.00203452071337
0.00748342409811
0.00198364343773
0.00682407185545
0.00191677111187
0.00619347175938
0.00183575157786
0.00559570617525
0.00174308417717
0.00503380376321
0.00164146550414
0.00450990873569
0.00153338208842
0.0040254358931
0.00142107438591
0.00358101703807
0.00130681040686
0.00317643571149
0.00119291832356
0.0028106561113
0.00108156882603
0.00248199752007
0.000974567540486
0.00218831238412
0.000873250224139
0.00192718599406
0.0007785152634
0.00169603965957
0.000690903141252
0.00149223498061
0.00061070108234
0.00131310734955
0.000537980501543
0.00115606551187
0.000472608615157
0.00101864617101
0.000414239299334
0.000898597268874
0.000362384164712
0.000793867681885
0.000316482859627
0.000702625285627
0.000275968928971
0.000623221990098
0.000240278621075
0.000554198694141
0.000208877599738
0.000494225910181
0.000181275451756
0.000442057524452
0.000157064290605
0.000396351103931
0.000135996583638
0.000355918333156
0.000118197023899
0.000320064738098
0.00010527528356
0.00028627063208
9.42913810358e-05
0.000254257452909
8.40605345566e-05
0.000228151054723
7.63706641633e-05
0.000206681963913
7.47538020255e-05
0.000179155650686
8.44631850435e-05
0.000146221572995
9.27122000598e-05
0.000111985245445
0.000100356286848
7.45903537047e-05
0.000115541405526
3.80214520307e-05
0.000129275978155
0.00012647142742
0.000909732379048
-0.00354905288166
0.00187171450601
-0.00375104985054
0.00282958939453
-0.00373542348588
0.00377881131492
-0.00370244120038
0.00471651328887
-0.00365850769489
0.00564000432963
-0.00360418631556
0.00654671542934
-0.00353996315222
0.00743423642942
-0.00346639146378
0.00830031175392
-0.00338408785403
0.00914287578276
-0.00329370903017
0.00996003632418
-0.00319594429293
0.0107501045781
-0.00309149139474
0.0115115662349
-0.00298105065987
0.0122431064469
-0.00286530036221
0.012943569554
-0.00274489343297
0.0136119798092
-0.00262043365117
0.0142474913743
-0.00249247625386
0.0148494062546
-0.00236150658588
0.0154171170113
-0.0022279460884
0.0159501241928
-0.00209213487242
0.0164479750819
-0.00195434403231
0.0169102835286
-0.00181476289417
0.0173366682462
-0.00167351763188
0.0177267777113
-0.00153066268286
0.0180802309632
-0.00138620438743
0.0183966493335
-0.0012400952048
0.0186756015556
-0.00109226070047
0.0189166429848
-0.000942595196328
0.0191192660869
-0.000790990874301
0.0192829474548
-0.000637334326556
0.0194071046772
-0.00048153851568
0.019491151155
-0.000323537131866
0.0195344607405
-0.000163319192029
0.0195364314305
-9.26141970341e-07
0.0194964580437
0.000163516753405
0.0194140037842
0.000329804937268
0.0192885804323
0.000497626417264
0.019119825004
0.000666571416157
0.0189074842698
0.000836111047702
0.0186514913025
0.00100561457552
0.0183519492995
0.00117433648221
0.0180092018754
0.00134144056928
0.0176238118065
0.00150599250427
0.0171966214021
0.00166698454718
0.0167287267329
0.00182332506591
0.0162215316789
0.00197385292752
0.0156767273396
0.00211731336666
0.0150963527875
0.0022523534238
0.0144827970759
0.00237748241735
0.0138388827784
0.00249105689569
0.0131679019226
0.00259124950379
0.0124737186874
0.00267606537558
0.011760813716
0.00274337986956
0.0110343473356
0.00279105515803
0.0103001229829
0.0028171044369
0.00956450826765
0.00281991796113
0.00883424311273
0.00279847322547
0.00811622952749
0.00275249871943
0.00741729656483
0.00268254018614
0.00674387988744
0.00259015329653
0.00610163915767
0.00247796077006
0.00549485639287
0.00234983963675
0.0049264101525
0.00220988761253
0.00439825200179
0.00206151807791
0.00391179987802
0.00190750621555
0.00346770469433
0.00175088558672
0.00306558593154
0.00159501951269
0.00270405744731
0.00144308233008
0.0023809887879
0.00129762546737
0.00209380567741
0.00116042693613
0.00183973760832
0.00103258179145
0.00161594488069
0.000914698005493
0.00141956824535
0.000807084382478
0.00124773975118
0.000709817597596
0.00109766519169
0.00062269644284
0.000966739794412
0.000545180874507
0.000852635929972
0.000476508484646
0.000753289429425
0.000415852511276
0.00066687122687
0.000362413106229
0.000591762327615
0.000315414899146
0.000526549774121
0.000274118703477
0.000469989539595
0.000237864382545
0.000420967013625
0.000206115278386
0.000378198035607
0.000178793125985
0.000341027007143
0.000155395288993
0.000304952868698
0.000141378848225
0.000271074747546
0.000128201110769
0.000240906179635
0.000114262341639
0.000210639834673
0.000106673302875
0.000179693846525
0.000105740153691
0.000156325980623
0.000107877790617
0.000124995999536
0.000124096297501
8.87934907067e-05
0.000136615861318
5.82745219185e-05
0.000146120045454
3.00875378557e-05
0.00015752372753
0.000156588841227
0.00092066491843
-0.00446950094971
0.00189381235867
-0.00472397067491
0.00286270391124
-0.00470408576588
0.00382266539914
-0.00466217518699
0.00477072852335
-0.00460634434867
0.00570410442598
-0.00453733724111
0.00662015137644
-0.00445578706317
0.00751639514656
-0.00436241399209
0.00839054047395
-0.00425801450357
0.0092404884864
-0.00414344064892
0.0100643389933
-0.00401958152354
0.0108603998014
-0.00388734164996
0.0116271790414
-0.00374762292562
0.012363386208
-0.00360130368422
0.0130679150961
-0.00344922248577
0.0137398373367
-0.00329215952331
0.0143783771995
-0.00313082411892
0.0149828993147
-0.00296584048562
0.0155528777462
-0.00279774101474
0.0160878807617
-0.00262695840885
0.0165875376295
-0.00245382639698
0.0170515241614
-0.00227857916827
0.0174795311479
-0.0021013595742
0.0178712541518
-0.00192222503215
0.0182263665616
-0.00174116151871
0.0185445157526
-0.00155809363584
0.018825302217
-0.00137290192798
0.0190682826947
-0.00118543503135
0.0192729557086
-0.000995528867807
0.0194387718729
-0.000803020166535
0.0195651266037
-0.000607768676785
0.019651378124
-0.000409668874278
0.0196968487069
-0.000208675868313
0.019700852355
-4.82082185872e-06
0.0196627054249
0.000201766632267
0.0195817638931
0.000410844341144
0.0194574427944
0.000622039239616
0.0192892605152
0.000834840160972
0.0190768629859
0.00104858873705
0.0188200688793
0.00126248337361
0.0185188912229
0.00147558230767
0.01817357524
0.00168681889083
0.0177846098229
0.00189501335384
0.0173527521455
0.00209889128633
0.0168790273308
0.0022970914643
0.016364743898
0.00248817081918
0.0158114935703
0.00267058993985
0.0152211774756
0.00284268782366
0.0145960338199
0.00300263582173
0.0139387058596
0.00314838635064
0.0132523262588
0.00327762230869
0.0125406401658
0.00338773713846
0.0118081267805
0.00347587197172
0.0110601053487
0.00353904952483
0.0103027564324
0.00357442190292
0.00954302494828
0.0035796132913
0.00878839108734
0.00355306984111
0.00804658643484
0.00349426222058
0.00732543258375
0.00340365458666
0.00663242552452
0.00328312180153
0.005974303685
0.00313604835574
0.00535557732238
0.00296853731397
0.00477858875705
0.00278685039523
0.00424479316585
0.00259529044307
0.0037557745994
0.00239650209548
0.00331240980228
0.00219422777544
0.00291412347669
0.0019932860757
0.00255894700922
0.00179824183259
0.00224401732237
0.00161254375926
0.00196609737098
0.00143834073853
0.00172192803988
0.0012767498815
0.00150835236609
0.00112827744247
0.00132226237972
0.000993180567454
0.00116051660163
0.000871573263071
0.00102000780081
0.000763218332881
0.000897913426571
0.000667292960629
0.00079182902927
0.000582614711426
0.000699703968842
0.000508002768908
0.000619735193896
0.000442409825785
0.000550344504601
0.000384835321842
0.000490201133441
0.000334292500055
0.00043820541222
0.000289890348588
0.000393520798364
0.000250829839199
0.000355582686999
0.000216759568503
0.000322112889751
0.000188893955801
0.000289602449139
0.000173920284503
0.00025677696565
0.000161059575492
0.000219735271301
0.000151338496118
0.000185367085106
0.000141078361169
0.000153501373968
0.000137647147173
0.000127268657006
0.000134155049694
0.000104394801391
0.000147021213867
7.33851478104e-05
0.00016768179352
4.50619321273e-05
0.000174496276319
2.27179070688e-05
0.000179919434276
0.000179333701015
0.000934384882465
-0.00540366735913
0.00192183015873
-0.00571118290696
0.00290476693631
-0.00568679215229
0.0038783825267
-0.00563556029668
0.00483958800083
-0.00556732133206
0.00578548448236
-0.00548300644695
0.00671333657017
-0.0053834139043
0.00762059364125
-0.00526944770758
0.00850490503452
-0.00514210509862
0.00936413459033
-0.00500245183081
0.0101963666992
-0.00485159835712
0.0109999113576
-0.00469067392041
0.011773300121
-0.00452080289702
0.012515281645
-0.00434307969552
0.0132248077971
-0.00415854714412
0.0139010202863
-0.00396817415576
0.0145432280415
-0.00377283841879
0.0151508865777
-0.00357330950509
0.0157235691094
-0.00337023874114
0.0162609419187
-0.00316415061754
0.0167627333351
-0.0029554421891
0.017228709695
-0.00274438431062
0.0176586469463
-0.00253113077105
0.0180523115257
-0.00231572812658
0.018409438138
-0.00209813195422
0.0187297178391
-0.00187822183657
0.0190127830644
-0.00165582104911
0.0192582029446
-0.00143071357713
0.0194654751855
-0.00120266525009
0.0196340282574
-0.00097144223208
0.0197632206195
-0.000736835589537
0.0198523505637
-0.000498678329466
0.0199006647624
-0.000256875232256
0.0199073789389
-1.14252280776e-05
0.0198716975785
0.000237552018815
0.019792846432
0.00048979433699
0.0196701035127
0.000744875160786
0.0195028410663
0.00100219031491
0.0192905630057
0.0012609485193
0.0190329487654
0.00152017383444
0.0187298871316
0.00177871388991
0.0183815101716
0.00203525989798
0.0179882113636
0.00228836940515
0.0175506593656
0.00253649395769
0.0170697949822
0.00277799888882
0.0165468274212
0.00301117387652
0.0159832240626
0.00323422015219
0.0153807168457
0.00344521373569
0.0147413261998
0.00364203597857
0.0140674313305
0.00382228241814
0.0133618867992
0.00398315922451
0.0126282027089
0.00412140597841
0.0118707604368
0.00423329163375
0.0110950244835
0.00431475717597
0.0103076477413
0.00436176437645
0.00951637429238
0.00437085004834
0.00872967881765
0.00433972260397
0.00795634666197
0.00426755097962
0.00720557881225
0.00415437755815
0.00648647574611
0.00400218212278
0.0058079685134
0.00381451855206
0.00517475281281
0.00360172253689
0.00458758477262
0.00337399268977
0.00404665211553
0.00313619847142
0.00355431456938
0.00288881573831
0.0031122706862
0.00263624842046
0.00271971630649
0.00238581876871
0.00237367238743
0.00214427000109
0.00207005739575
0.00191614740821
0.00180463559462
0.00170375871767
0.00157352592774
0.00150786086494
0.00137327849503
0.00132852971389
0.00120059775583
0.00116587029035
0.00105199939605
0.00102018143204
0.000923862148776
0.000891370546508
0.000813014001929
0.000778160887256
0.000717015919177
0.000678636948801
0.000633918978426
0.000591127952724
0.000561975169946
0.000514384261077
0.000499632572599
0.000447210819886
0.000445644957838
0.000388313095841
0.00039900531425
0.000336562556164
0.000358945896266
0.000290920654112
0.000324806229319
0.000250929110939
0.000291155661763
0.000222574553904
0.000258170060815
0.000206937605996
0.000227860992614
0.000191401922487
0.000199704853024
0.000179530542469
0.00016731478131
0.000173507987825
0.000134218046717
0.000170785965221
0.000100695218595
0.000167721816365
7.84587675122e-05
0.000169304640161
5.99207572788e-05
0.000186269130816
3.65532184056e-05
0.000197913285977
1.81801095572e-05
0.000198340321621
0.00019753708152
0.000951104745528
-0.00635455032551
0.00195605197003
-0.00671589888374
0.00295617662417
-0.00668668219287
0.00394647629451
-0.00662562759029
0.00492371621594
-0.00654432964919
0.00588486279831
-0.00644392331881
0.00682706669865
-0.00632538981722
0.00774768414614
-0.00618983942575
0.00864429608365
-0.00603849364515
0.00951472152732
-0.0058726567012
0.0103570259211
-0.00569368503589
0.0111695237704
-0.00550295739471
0.0119507762488
-0.00530184429877
0.0126995830362
-0.00509167921058
0.0134149693614
-0.00487372988817
0.0140961673759
-0.00464917279047
0.0147425933434
-0.00441906903337
0.0153538200365
-0.00418434538873
0.0159295465802
-0.00394577879489
0.0164695656586
-0.00370398801868
0.0169737309539
-0.00345943035344
0.0174419250428
-0.00321240628864
0.0178740305656
-0.0029630689047
0.0182699044734
-0.00271143979959
0.0186293572603
-0.00245742734031
0.0189521360801
-0.00220084849867
0.0192379125746
-0.00194145030321
0.0194862738273
-0.0016789328828
0.0196967170177
-0.00141297146793
0.0198686467927
-0.00114324038217
0.0200013768032
-0.00086943903167
0.0200941345501
-0.000591314909618
0.0201460727981
-0.000308697433677
0.0201562868233
-2.15286623938e-05
0.0201238392811
0.000270104968529
0.0200477925227
0.000565941006293
0.0199272483275
0.000865514022239
0.0197613934406
0.00116813428539
0.0195495488412
0.00147287681201
0.0192912190941
0.00177858146932
0.0189861376748
0.00208386744257
0.0186343032546
0.00238716013419
0.0182360024055
0.00268672961877
0.0177918152449
0.00298073329053
0.0173026031364
0.00326725557694
0.0167694819135
0.00354433138245
0.0161937884328
0.00380994151979
0.0155770556585
0.00406196544845
0.0149210170562
0.00429808476887
0.0142276674954
0.0045156332562
0.0134994096469
0.00471140970904
0.012739309874
0.00488149047839
0.0119514582793
0.00502112031068
0.01114137405
0.00512481282091
0.0103162891128
0.00518681541636
0.00948506411397
0.00520203449114
0.0086575301983
0.00516721368603
0.00784355953474
0.00508147232437
0.00705417596037
0.00494371172472
0.00630065044105
0.00475566007564
0.00559705526994
0.00451807157597
0.00494807131699
0.00425067639016
0.00435005996772
0.00397197753319
0.00379995134095
0.00368628608115
0.00330292520914
0.00338582051683
0.00286301553253
0.00307613763938
0.00247902093866
0.00276979646298
0.00214602933038
0.00247724982658
0.00185787364607
0.00220429752233
0.00160881294178
0.00195282271397
0.00139425205641
0.00172242692943
0.00121067097769
0.00151212253399
0.00105485335683
0.00132169767868
0.000922931606016
0.00115211588827
0.000810304993561
0.00100401449393
0.000713181124226
0.000875306693829
0.000629261997901
0.0007625850279
0.000556941058633
0.000663479971029
0.000494562655088
0.000576797857426
0.0004405204964
0.000501289871078
0.000393696243603
0.000435174017638
0.000353186823885
0.000377107313825
0.000318332903151
0.00032580815302
0.00028875472827
0.000280538916711
0.000257557825607
0.000253803239455
0.000228676015083
0.000235852402292
0.000198040153861
0.000222072699836
0.000168373290827
0.000209234463005
0.000138200999636
0.000203720410798
0.000111957184904
0.000197071484778
8.35161878195e-05
0.000196206338536
5.77272863966e-05
0.000195137449007
4.4976827259e-05
0.000199065382266
2.86045331322e-05
0.000214330422356
1.41409734101e-05
0.000212846356526
0.000211700455371
0.000971014182035
-0.00732534066405
0.00199682925847
-0.00774147466594
0.00301743312028
-0.00770704987821
0.00402759397102
-0.00763555208616
0.00502389209295
-0.00754039353644
0.00600313251472
-0.00742293083808
0.00696232703112
-0.00728435354735
0.00789872076272
-0.00712600445009
0.00880981199844
-0.00694935883303
0.00969336740752
-0.00675598872334
0.0105474298812
-0.0065475273534
0.0113703217667
-0.00632563227831
0.0121606408395
-0.00609195011208
0.0129172518893
-0.00584808057763
0.0136392707415
-0.00559554323753
0.0143260440027
-0.00533574449647
0.0149771212573
-0.0050699492883
0.0155922239155
-0.00479925530616
0.0161712080172
-0.004524575011
0.0167140264321
-0.00424662305995
0.0172206884834
-0.00396591411466
0.0176912231659
-0.0036827673752
0.0181256439029
-0.00339732127637
0.0185239204308
-0.00310955277841
0.0188859544498
-0.00281930312694
0.019211562976
-0.00252630367591
0.0195004645031
-0.00223020383525
0.0197522708577
-0.00193059616985
0.0199664798292
-0.00162704274245
0.0201424721624
-0.00131909998093
0.0202795098325
-0.00100634936105
0.0203767395798
-0.000688422313819
0.0204332015331
-0.000365042439771
0.0204478468487
-3.60620379784e-05
0.0204195629054
0.000298495469607
0.0203472103459
0.000638395107365
0.0202296684574
0.00098315205128
0.0200658909928
0.00133200280106
0.0198549663101
0.00168388698654
0.0195961807618
0.00203744711865
0.0192890759931
0.0023910462859
0.0189334962303
0.00274280792219
0.0185296145727
0.00309067235826
0.0180779352111
0.003432466503
0.0175792645786
0.00376597191027
0.0170346567207
0.00408897690985
0.0164453378791
0.00439928914954
0.0158126339132
0.00469468982588
0.0151379240929
0.00497280602375
0.0144226696759
0.00523089034923
0.0136685671985
0.00546550647971
0.0128778909235
0.00567215224657
0.0120540660049
0.00584492455942
0.0112024208422
0.00597642966216
0.0103308752598
0.00605832670303
0.00944999987768
0.00608287205148
0.00857161800665
0.0060455483479
0.00770609413922
0.00594694218859
0.00686667552338
0.00578307295889
0.00606638859539
0.00555588756274
0.00533298912577
0.00525142501929
0.00467052446845
0.00491310790698
0.00406346436048
0.00457901816903
0.00350011251505
0.00424961750212
0.00299516791038
0.00389075414523
0.00255850510284
0.00351278211276
0.00218760740186
0.00314068903863
0.0018735309779
0.00279131752795
0.00160643543045
0.00247140155184
0.00137833601422
0.00218092746862
0.00118397586813
0.00191680427366
0.00102040314938
0.00167570448163
0.000885285399284
0.00145682831598
0.000774397842363
0.00126301663822
0.000681007988081
0.001097420446
0.000600032199095
0.000956311410905
0.000529904283906
0.000832743764729
0.000469999287738
0.000723423335935
0.00041874118066
0.000628096272857
0.00037414523942
0.000545928390003
0.00033537688549
0.000473983966973
0.000301622517476
0.000410900764656
0.000272185002991
0.000355282137879
0.00024659931199
0.000306158474384
0.000219465441872
0.000280970945231
0.000194075281266
0.00026127743278
0.000167826949816
0.000248357615019
0.000138760014038
0.000238340106097
0.000111989096274
0.00023053132331
8.4929705413e-05
0.000224172456282
6.57405810157e-05
0.000215438007347
4.56799721376e-05
0.000215240877968
3.09658274369e-05
0.000213820631343
2.17664208045e-05
0.000223572532709
1.04016609831e-05
0.000224252071862
0.00022212152032
0.00099433132685
-0.00831944382649
0.00204457976929
-0.00879148552285
0.0030891539146
-0.00875138258389
0.00412253188186
-0.00866869111747
0.00514107411242
-0.00855869759677
0.00614138924668
-0.00842300987774
0.00712032442196
-0.0082630544527
0.00807499231071
-0.00808044053607
0.00900279445275
-0.00787693165902
0.0099014361024
-0.00765440412828
0.0107689354841
-0.007414803523
0.0116036254428
-0.00716010266175
0.0124041501217
-0.00689225871126
0.0131694538263
-0.00661317233128
0.0138987647377
-0.00632464609573
0.0145915699104
-0.00602834616031
0.0152475849096
-0.00572576501675
0.0158667148855
-0.00541819089489
0.0164490120403
-0.00510668229476
0.0169946275618
-0.00479205384712
0.0175037646958
-0.00447487123323
0.0179766319484
-0.00415545991722
0.0184134033772
-0.0038339228453
0.0188141840225
-0.00351016895486
0.0191789854279
-0.00318394497918
0.0195077066859
-0.0028548707992
0.0198001232477
-0.00252247120339
0.0200558773517
-0.00218620648786
0.0202744720276
-0.00184549856854
0.0204552641844
-0.00149975867097
0.0205974613384
-0.00114841798626
0.0207001193288
-0.000790957116653
0.020762149226
-0.000426954046093
0.0207823311688
-5.61309631512e-05
0.0207593417432
0.000321593062854
0.0206917932699
0.000706046528358
0.0205782887002
0.00109675471065
0.0204174880206
0.00149289626941
0.0202081861287
0.0018932765789
0.0199493937748
0.00229632148919
0.0196404163027
0.00270010007209
0.0192809168982
0.00310237708094
0.0188709550459
0.00350069704096
0.0184109862239
0.00389249043117
0.0179018164386
0.00427518904418
0.0173445078065
0.00464632456866
0.0167402452629
0.0050035826579
0.01609018338
0.00534477441957
0.0153953105121
0.00566769295896
0.0146563897692
0.00596981703914
0.0138740627181
0.00624782988396
0.013049254146
0.00649695036714
0.0121840139039
0.00671014490891
0.0112828958214
0.00687752379963
0.0103545566065
0.00698663557938
0.00941254941512
0.00702483737565
0.00847239274832
0.00698565559106
0.00754230034381
0.00687696727723
0.00663832015359
0.00668698083868
0.00576877618228
0.00642536152546
0.00500128745297
0.00601885673132
0.00433735418239
0.00557700994343
0.00372919252783
0.00518716391542
0.00314182364819
0.00483697414592
0.00262095230282
0.00441161163755
0.00218950986215
0.00394421674296
0.00183972408395
0.00349046918964
0.00155386376887
0.00307717917305
0.00131559604167
0.0027096779904
0.00111381150851
0.00238272055989
0.000942904249802
0.00208772516837
0.0008020567246
0.00181655139285
0.000691831823997
0.00156706422381
0.000608031264325
0.00134681609382
0.000538796000139
0.00116667612567
0.000475888914368
0.00101924179368
0.000420453731206
0.000888219237415
0.000374438466517
0.000769479775393
0.000336110081961
0.000666471284324
0.000301920895274
0.000580166614032
0.000272006188205
0.000503945147893
0.000245677976252
0.000437271911677
0.000222034487402
0.000378965386641
0.000198884921292