/*--------------------------------*- C++ -*----------------------------------*\
| =========                 |                                                 |
| \\      /  F ield         | OpenFOAM: The Open Source CFD Toolbox           |
|  \\    /   O peration     | Version:  v1906                                 |
|   \\  /    A nd           | Web:      www.OpenFOAM.com                      |
|    \\/     M anipulation  |                                                 |
\*---------------------------------------------------------------------------*/
FoamFile
{
    version     2.0;
    format      ascii;
    class       volScalarField;
    location    "848";
    object      p;
}
// * * * * * * * * * * * * * * * * * * * * * * * * * * * * * * * * * * * * * //

dimensions      [0 2 -2 0 0 0 0];


internalField   nonuniform List<scalar> 
9216
(
273.667522586
273.747280935
273.912318515
274.164039591
274.501024739
274.921686243
275.424057221
276.005826547
276.664383511
277.396851377
278.200132118
279.070937853
280.005835025
281.00127124
282.053616317
283.159182399
284.314260523
285.515133192
286.758106328
288.039514583
289.355749356
290.703257735
292.078567622
293.47828142
294.899099338
296.337808857
297.791307092
299.25658688
300.730758816
302.211034584
303.694749097
305.179340967
306.662374875
308.141521
309.614577131
311.079445457
312.534155219
313.976838031
315.405750554
316.819248359
318.215808634
319.594002829
320.952519344
322.290135234
323.605738849
324.898300868
326.166896854
327.410677915
328.62889315
329.820860208
330.985987581
332.123745338
333.233687216
334.315421768
335.368634166
336.39305799
337.388496653
338.354795989
339.29186519
340.19965033
341.07815468
341.927413272
342.747512428
343.538565441
344.300731181
345.034190928
345.73916591
346.415895327
347.06465271
347.685725159
348.279428415
348.846087371
349.386049786
349.899668102
350.387311776
350.84935045
351.2861649
351.69813162
352.08563239
352.449040349
352.788728212
353.105055891
353.398377413
353.669030143
353.917340461
354.143614662
354.348143488
354.531194831
354.693017371
354.833835577
354.953853671
355.053255518
355.13221612
355.190934287
355.230013301
355.246919302
273.587815229
273.667936024
273.833317478
274.086040696
274.424461555
274.846918008
275.351397922
275.935553547
276.59673743
277.332038313
278.138322302
279.012269046
279.95041191
280.949170289
282.004885552
283.113847187
284.2723231
285.47657888
286.722902383
288.007616508
289.327098837
290.677788923
292.056204111
293.458942504
294.88269609
296.324250444
297.780496077
299.248425689
300.725144383
302.207865008
303.693917548
305.180743213
306.665903299
308.147071249
309.622041304
311.088719854
312.545133359
313.989418482
315.419829637
316.834728152
318.232589415
319.611991215
320.971620527
322.310261197
323.626800431
324.920216007
326.18958254
327.434058406
328.652891857
329.845407846
331.011014049
332.14918776
333.259481866
334.341511971
335.394962335
336.419573345
337.415147429
338.381536945
339.318650043
340.226439032
341.104906121
341.954092291
342.774082841
343.564996756
344.326991979
345.060255257
345.765007041
346.441491806
347.089982504
347.710771327
348.304173671
348.870519344
349.410155997
349.923440799
350.410743328
350.872437738
351.308905131
351.720526256
352.107683391
352.470753625
352.810110297
353.126116917
353.419128209
353.689484724
353.937513543
354.16352365
354.367806346
354.550631436
354.71224742
354.852878458
354.972724024
355.071955308
355.150709865
355.209068476
355.246947826
355.263828272
273.422033339
273.50330252
273.670216771
273.925245017
274.266711034
274.692908135
275.201762686
275.790859383
276.457478953
277.198637787
278.011129485
278.891564489
279.836409716
280.842023998
281.90469241
283.020655224
284.186135611
285.397361574
286.650587161
287.942108013
289.268277073
290.625514947
292.0103214
293.419281824
294.849075754
296.296480557
297.758377921
299.231755584
300.713712449
302.201458862
303.692320709
305.183738602
306.673271184
308.158593149
309.63749783
311.10789442
312.567809802
314.015384869
315.448875711
316.86664915
318.267183341
319.649062631
321.010977647
322.351719622
323.670180082
324.965344768
326.236293047
327.482191587
328.702293601
329.895932427
331.062520713
332.201544027
333.312560082
334.39519249
335.449130076
336.47412087
337.469971548
338.436541702
339.373743416
340.28153583
341.159924824
342.008957862
342.828723735
343.619347647
344.380990953
345.113846441
345.818138
346.494116047
347.142057069
347.762259164
348.355041404
348.920739481
349.459704878
349.972300609
350.458900208
350.919883589
351.355635874
351.766543412
352.152992483
352.515365526
352.854039771
353.169383725
353.461755783
353.731501033
353.978949886
354.204415251
354.40819123
354.590550666
354.751743872
354.891996404
355.011507381
355.11044643
355.188949378
355.247106509
355.284879809
355.302856513
273.16714929
273.249705531
273.419017321
273.677650181
274.023866614
274.455884295
274.971535639
275.568300504
276.243348221
276.993581704
277.815681914
278.706150894
279.661353008
280.677552649
281.75094885
282.877705487
284.053978157
285.275936684
286.539784778
287.841775849
289.178226799
290.545528647
291.940156012
293.358674055
294.797745009
296.254132656
297.724706916
299.206446673
300.696443071
302.191901152
303.690142194
305.188604325
306.684844086
308.176536312
309.661474767
311.13757111
312.602854831
314.05547142
315.493681564
316.915858579
318.320486943
319.706159089
321.07157338
322.415530379
323.736930394
325.034769364
326.308136111
327.556207993
328.778247992
329.973600275
331.141687247
332.282005149
333.39412118
334.477669231
335.532347162
336.557912746
337.554181142
338.521021095
339.458352615
340.366143431
341.244406863
342.093198498
342.912614206
343.702786989
344.463885073
345.196108871
345.899689085
346.574883715
347.221976124
347.84127204
348.433097542
348.997796039
349.535726154
350.047258685
350.532774391
350.992660959
351.427310731
351.837117701
352.222475231
352.583773141
352.921395458
353.235717649
353.527104462
353.79590736
354.0424625
354.267088404
354.470084104
354.651727067
354.812271466
354.951946232
355.070953196
355.169464935
355.24762228
355.305529935
355.343179499
355.361357554
272.822082035
272.906287217
273.078888602
273.342475486
273.695216937
274.135219855
274.660184561
275.267444339
275.954013518
276.716637328
277.551841092
278.455977403
279.425270278
280.455855176
281.543814703
282.685209526
283.876104933
285.112592971
286.390810939
287.706956323
289.057299075
290.438191306
291.846075264
293.277489545
294.729074342
296.197575495
297.679848072
299.172859085
300.673690002
302.179538544
303.687720381
305.195670006
306.70094178
308.201210336
309.69427055
311.17803698
312.650543214
314.109940508
315.554496367
316.98259243
318.392722355
319.783489051
321.15360198
322.501873861
323.827217521
325.128642221
326.405250206
327.656232806
328.880866831
330.078510594
331.248600288
332.390646062
333.504228502
334.588994859
335.644655725
336.670981489
337.667799255
338.634989568
339.57248359
340.480260083
341.358342824
342.20679781
343.02573085
343.815284933
344.575637928
345.30700003
346.009611491
346.683740082
347.329678789
347.947743228
348.538269266
349.101610367
349.638135121
350.148224513
350.632269376
351.090667616
351.523821616
351.932135464
352.316012357
352.675851884
353.012047496
353.324983899
353.615034645
353.882559695
354.127903178
354.351391165
354.553329636
354.734002478
354.893669648
355.032565378
355.150896472
355.248840754
355.326545856
355.384127474
355.421590732
355.439761742
272.385048864
272.471345757
272.648183049
272.918157068
273.279307805
273.729591252
274.266531107
274.887266267
275.588606816
276.367091325
277.219042413
278.140619195
279.127865294
280.176751547
281.28321309
282.443180774
283.65260727
284.907488294
286.203879625
287.537910496
288.905794077
290.303835569
291.728438524
293.176109749
294.643463255
296.127223418
297.624227668
299.131428714
300.645896503
302.164819822
303.685507673
305.205390076
306.722018955
308.233068691
309.736335795
311.229738446
312.711315651
314.179225925
315.631745649
317.067266972
318.484295437
319.881447202
321.257446052
322.611120081
323.941398237
325.247306618
326.527964722
327.782581516
329.010451549
330.210950954
331.383533576
332.527727045
333.643129042
334.729403561
335.786277403
336.813536714
337.811023759
338.778633767
339.716312007
340.624050922
341.501887483
342.349900561
343.168208489
343.956966601
344.716364903
345.446625698
346.148001279
346.82077154
347.465241624
348.08173946
348.670613312
349.232229213
349.766968396
350.275224627
350.757401536
351.213909882
351.645164823
352.051583158
352.433580605
352.791569075
353.12595402
353.437131813
353.725487223
353.991390959
354.235197333
354.45724201
354.657839903
354.837283169
354.995839356
355.133749673
355.251227436
355.34845689
355.425592316
355.482756657
355.519961528
355.538035251
271.853772532
271.942660329
272.124762145
272.402674578
272.77426867
273.237303153
273.789072907
274.426466833
275.146034215
275.944051626
276.816586703
277.759557147
278.768783474
279.840034744
280.969067091
282.1516553
283.383618041
284.660837526
285.979274478
287.334979267
288.724100076
290.142888795
291.587705311
293.055020657
294.541419472
296.043601982
297.558385749
299.082707245
300.613623313
302.148312479
303.684076072
305.218338965
306.748650405
308.272684586
309.788240161
311.293239801
312.785729251
314.263875955
315.725967263
317.17040823
318.59571905
320.000532134
321.383588897
322.743736273
324.079923017
325.391195833
326.676695371
327.935652145
329.167382404
330.371284006
331.54683233
332.693576256
333.811134254
334.899190597
335.957491731
336.985842801
337.98410437
338.952189296
339.890059796
340.797724673
341.67523669
342.522690068
343.340218095
344.127990804
344.886212705
345.615120531
346.314980986
346.98608846
347.628762698
348.243346408
348.830202803
349.389713057
349.922273704
350.428293958
350.908192981
351.362397102
351.791337011
352.195444938
352.575151835
352.930884588
353.263063264
353.572098422
353.8583885
354.12231729
354.364251523
354.58453857
354.783504272
354.961450911
355.118655337
355.255367279
355.371807856
355.46816841
355.544609771
355.601260676
355.6381367
355.656059965
271.225430399
271.317466797
271.505968899
271.793526113
272.177793172
272.656276111
273.225978616
273.883473758
274.624983986
275.446460384
276.343656796
277.312196821
278.347632092
279.445491242
280.601319639
281.810710567
283.069328822
284.372927945
285.717362274
287.098595004
288.512703302
289.955881371
291.424442199
292.914818567
294.423563723
295.947352003
297.482979545
299.027365152
300.577551281
302.130705101
303.68411931
305.235213092
306.781532854
308.320752657
309.850673858
311.369224576
312.874458692
314.364554375
315.837812158
317.292652574
318.727613393
320.141346492
321.532614404
322.900286591
324.243335496
325.56083241
326.851943232
328.115924127
329.352117181
330.559946044
331.738911657
332.888588042
334.008618254
335.098710461
336.158634228
337.188216984
338.187340709
339.155938819
340.093993271
341.001531842
341.878625603
342.725386512
343.541965146
344.328548504
345.08535786
345.812646629
346.51069822
347.179823843
347.820360244
348.432667363
349.0171259
349.574134773
350.104108493
350.607474447
351.084670103
351.536140163
351.962333666
352.363701078
352.740691378
353.093749166
353.423311811
353.729806666
354.013648357
354.275236168
354.514951547
354.73315573
354.93018751
355.10636116
355.261964536
355.397257351
355.512469683
355.607800869
355.683418523
355.739456637
355.775934929
355.793667735
270.496592102
270.592405137
270.788580276
271.087687771
271.487107649
271.984025086
272.575076515
273.256439916
274.023932665
274.873106587
275.799334952
276.797888992
277.864002394
278.992923409
280.179955207
281.420485662
282.710008199
284.044135361
285.418606816
286.829293277
288.272197688
289.743454702
291.239329338
292.756215403
294.290634133
295.839233267
297.398786687
298.966194574
300.538484005
302.112809831
303.686455324
305.256833381
306.821487336
308.378091297
309.924449888
311.458497705
312.978298249
314.482042357
315.96804611
317.43474829
318.880707375
320.304598158
321.705208015
323.081432885
324.432273015
325.756828537
327.054294912
328.323958318
329.565191006
330.777446707
331.960256101
333.113222422
334.236017201
335.32837623
336.390095713
337.421028682
338.421081639
339.39021147
340.328422577
341.235764265
342.112328302
342.958246671
343.773689437
344.558862719
345.31400669
346.039393603
346.735325768
347.402133477
348.040172821
348.649823411
349.231485963
349.785579765
350.31254002
350.812815072
351.286863542
351.735151389
352.158148909
352.556327711
352.930157685
353.280103991
353.606624084
353.910164813
354.191159598
354.450025709
354.687161677
354.902944828
355.097728979
355.271842298
355.42558534
355.559229308
355.673014504
355.767149073
355.841808044
355.897131262
355.933142997
355.950649382
269.663143889
269.763449895
269.968745389
270.281562369
270.698932384
271.217634145
271.833842464
272.543243375
273.34115532
274.222644319
275.182626737
276.215956921
277.317498269
278.482177983
279.705026839
280.981206077
282.306023778
283.674943164
285.083585013
286.527726169
288.003295686
289.506369907
291.03316738
292.58004428
294.143490746
295.720128321
297.306708513
298.900112354
300.49735074
302.095565302
303.692029049
305.284147929
306.869461957
308.445645401
310.010506741
311.56198813
313.09816429
314.617240806
316.117551879
317.597557529
319.055840337
320.491101739
321.902157971
323.287935691
324.647467381
325.979886552
327.284422844
328.560397066
329.807216239
331.024368682
332.211419219
333.368004522
334.493828657
335.588658858
336.65232157
337.684698768
338.685724582
339.655382214
340.593701156
341.50075466
342.376657467
343.221563712
344.035665
344.819188557
345.572395453
346.295578795
346.989061885
347.653196271
348.288359678
348.894953793
349.473401885
350.024146264
350.547645587
351.044372016
351.514808262
351.959444528
352.378775386
352.773296612
353.143502015
353.489880277
353.812911839
354.113065861
354.390797268
354.646543908
354.880723846
355.0937328
355.285941746
355.457694695
355.609306674
355.741061897
355.853212153
355.945975575
356.019535401
356.074037765
356.109512714
356.126757662
268.720193433
268.825821258
269.041907321
269.37091591
269.809435196
270.353728063
270.999388867
271.741491824
272.574742711
273.493619467
274.492494086
275.565732784
276.707773555
277.91318225
279.176689811
280.493213903
281.857868486
283.2659646
284.71300531
286.194677164
287.706840081
289.245517052
290.806884667
292.387265116
293.983120028
295.59104624
297.207773405
298.83016315
300.455209427
302.080039637
303.701915516
305.31823523
306.92653509
308.524489552
310.109911512
311.680751822
313.235098125
314.77117303
316.287331641
317.782058495
319.253963962
320.701780187
322.124356624
323.520655261
324.889745587
326.23079939
327.543085437
328.825964126
330.078882137
331.301367179
332.493022855
333.653523729
334.782610613
335.880086148
336.945810685
337.979698525
338.981714501
339.951870932
340.890224915
341.79687595
342.671963838
343.515666816
344.328199865
345.109813132
345.860790381
346.581447436
347.272130534
347.933214555
348.565101075
349.168216236
349.743008394
350.289945575
350.809512719
351.302208759
351.768543541
352.209034629
352.624204027
353.014574844
353.380667956
353.722998672
354.042073458
354.33838673
354.612417752
354.86462765
355.09545658
355.305321043
355.494611388
355.663689497
355.812886674
355.942501763
356.052799473
356.144008947
356.216322634
356.269894045
356.304759599
356.321707251
267.661948435
267.773871585
268.002704332
268.350798941
268.814176065
269.388441002
270.068456044
270.848533654
271.722628024
272.68450768
273.727900105
274.846605479
276.034579642
277.285989109
278.59524254
279.957003727
281.366191066
282.817967975
284.307727933
285.831077033
287.383816154
288.961924298
290.561544047
292.178969779
293.810638891
295.453126001
297.103139852
298.757522448
300.413249804
302.067433716
303.717323276
305.360307719
306.993919018
308.615831677
310.223863521
311.815975273
313.390269343
314.944987838
316.478509832
317.989347969
319.476144477
320.937666653
322.372801952
323.780552705
325.160030611
326.510451035
327.831127225
329.121464489
330.380954423
331.609169238
332.805756253
333.970432617
335.10298031
336.203241478
337.27111415
338.306548357
339.309542693
340.280141297
341.218431268
342.124540455
342.998635599
343.840920741
344.651635845
345.43105552
346.179487808
346.897272896
347.584781744
348.242414504
348.870598745
349.469787402
350.040456469
350.583102426
351.09823942
351.586396219
352.048112991
352.483937931
352.894423794
353.280124359
353.641590886
353.979368587
354.293993147
354.585987336
354.855857731
355.10409157
355.331153769
355.53748411
355.72349462
355.889567157
356.03605121
356.163261921
356.271478321
356.360941956
356.431855493
356.484380407
356.518560771
356.535174123
266.481560695
266.600940211
266.844845157
267.215449639
267.708041958
268.317383512
269.037408898
269.861479588
270.782627574
271.79376786
272.887869495
274.058082924
275.297825786
276.600832629
277.961175741
279.373264576
280.831830756
282.331904416
283.868786465
285.43802005
287.035363508
288.656766283
290.298348718
291.9563862
293.627297786
295.307639101
296.994099015
298.683499316
300.372796503
302.059084645
303.739598141
305.411715785
307.072964101
308.721017277
310.353698489
311.968979556
313.564979656
315.139963121
316.692336393
318.220644212
319.72356515
321.199906589
322.648599229
324.068691263
325.459342275
326.819816994
328.149478946
329.447784122
330.714274691
331.948572862
333.150374936
334.319445636
335.455612761
336.558762246
337.628833664
338.665816227
339.669745297
340.640699439
341.578797959
342.484198938
343.357097658
344.197725371
345.006348295
345.783266761
346.528814364
347.243357063
347.927292105
348.581046719
349.205076502
349.799863493
350.365913889
350.903755441
351.413934529
351.897012974
352.353564622
352.78417176
353.18942141
353.56990156
353.926197376
354.258887434
354.568540023
354.855709538
355.120933005
355.364726752
355.587583261
355.789968206
355.972317708
356.135035797
356.278492116
356.403019869
356.508913996
356.596429596
356.665780693
356.717137943
356.750553595
356.766793676
265.170924227
265.299166865
265.560951125
265.958174727
266.485171234
267.135610165
267.902243317
268.7772406
269.752501549
270.81991698
271.971569525
273.199872796
274.497654868
275.858195827
277.275230612
278.742928092
280.255855776
281.808937565
283.397409865
285.016779647
286.662786626
288.331370841
290.018646266
291.720880764
293.434482297
295.155991031
296.882076512
298.609538779
300.335312122
302.056469291
303.770227229
305.473952293
307.165163555
308.841534295
310.500893376
312.141225004
313.760667328
315.357509956
316.930190495
318.477290239
319.997529127
321.489760084
322.952962892
324.386237672
325.788798148
327.159964729
328.49915756
329.805889572
331.079759643
332.320445906
333.52769931
334.701337475
335.841238957
336.947337961
338.019619603
339.058115753
340.062901511
341.034092315
341.971841677
342.876339488
343.747810832
344.586515186
345.392745922
346.166829934
346.909127311
347.620030863
348.299965456
348.949386997
349.568781056
350.158661044
350.719565966
351.252057751
351.756718193
352.234145563
352.684950959
353.109754447
353.509181077
353.883856822
354.234404505
354.56143976
354.865567075
355.14737594
355.407437146
355.646299256
355.864485269
356.0624895
356.240774682
356.399769319
356.539865284
356.661415656
356.764732818
356.850086955
356.917704541
356.967766016
357.000333119
357.016159126
263.72041126
263.859249549
264.142355338
264.571203298
265.138867695
265.837591934
266.658609265
267.592590444
268.630043336
269.761633957
270.978417949
272.271986378
273.634537709
275.058892301
276.538466619
278.067222626
279.639604843
281.250474071
282.895043731
284.568822203
286.267562929
287.987222914
289.723929895
291.473958124
293.233712598
294.999721133
296.768633165
298.537223597
300.302399792
302.061208281
303.810844143
305.548657932
307.27215902
308.979018777
310.667071974
312.334316604
313.978912266
315.599177293
317.193584757
318.760757539
320.299462578
321.808604474
323.287218564
324.73446365
326.149614473
327.532054079
328.881266151
330.196827404
331.478400087
332.725724697
333.93861294
335.116941071
336.26064366
337.369707918
338.444168648
339.484103904
340.489631411
341.460905765
342.398116388
343.301486199
344.171270896
345.007758727
345.811270597
346.582160348
347.320815031
348.02765502
348.703133805
349.347737376
349.961983084
350.546417961
351.10161648
351.628177792
352.126722472
352.597888882
353.042329206
353.460705264
353.853684173
354.221933952
354.566119107
354.886896283
355.184910002
355.460788542
355.715139984
355.948548451
356.161570578
356.354732203
356.528525325
356.683405325
356.819788443
356.938049554
357.038520201
357.121486888
357.18718976
357.235820326
357.267450302
357.28281889
262.11852292
262.270127681
262.57884556
263.045507874
263.661505679
264.417200423
265.301861252
266.304265065
267.413209377
268.617902952
269.908225895
271.274871108
272.709389155
274.20416308
275.752338764
277.347732286
278.984730194
280.658193178
282.363369003
284.095817301
285.85134674
287.625964222
289.41583557
291.217257406
293.026639984
294.840500385
296.65546455
298.468275783
300.275806756
302.075070598
303.863234058
305.637627252
307.395747028
309.13526146
310.854011404
312.550010231
314.221441856
315.866657302
317.484170031
319.072650231
320.630918228
322.157937185
323.652805267
325.114747447
326.543107111
327.93733759
329.296993711
330.621723439
331.911259687
333.165412312
334.384060444
335.567145164
336.714662724
337.826658368
338.903220918
339.944478186
340.950593333
341.921762161
342.858211359
343.760197618
344.628007517
345.461957999
346.26239727
347.029705874
347.764297755
348.466621065
349.137158573
349.776427483
350.384978614
350.963394848
351.512288885
352.032300317
352.524092129
352.988346709
353.425761497
353.837044378
354.222908926
354.584069593
354.921236913
355.235112786
355.526385883
355.795727214
356.043785897
356.27118515
356.478518529
356.666346443
356.835192934
356.985542767
357.117838809
357.232479689
357.329817755
357.410157467
357.473753795
357.520809922
357.551408913
357.566274427
260.351420546
260.518561919
260.858332916
261.370586263
262.044430395
262.86771595
263.827152751
264.909116718
266.10030616
267.388209768
268.761385711
270.209578009
271.723708924
273.295789161
274.918783234
276.586458828
278.293239653
280.034072863
281.804315763
283.599642225
285.415967174
287.249386882
289.096133541
290.952543533
292.815039587
294.68012657
296.544399131
298.404557658
300.257427909
302.099978745
303.929340201
305.742815954
307.537886673
309.312215518
311.063649679
312.790219843
314.490137646
316.161791447
317.80374078
319.414709711
320.993579226
322.53937886
324.051277767
325.528575472
326.970692457
328.377160775
329.747614738
331.081781761
332.379473375
333.640576487
334.865044911
336.052891335
337.20417983
338.31901908
339.397556477
340.439973247
341.446480685
342.417317578
343.352748783
344.253064926
345.118583023
345.949647877
346.746633955
347.509947503
348.240028572
348.93735274
349.602432233
350.23581632
350.838090823
351.409876721
351.951827834
352.464627679
352.948985605
353.405632355
353.835315203
354.238792832
354.616830062
354.970192558
355.299641589
355.605928889
355.889791698
356.151947982
356.393091897
356.613889505
356.814974773
356.996945879
357.160361827
357.305739391
357.433550379
357.544219234
357.638120939
357.715579209
357.776865113
357.822194845
357.851663312
357.865977069
258.402286746
258.58857043
258.96642196
259.534198106
260.277862796
261.181879558
262.229599942
263.404348806
264.690257316
266.072809179
267.539115691
269.077970497
270.679749236
272.336218688
274.040308458
275.78588268
277.567533883
279.380409026
281.220069005
283.082378079
284.963417585
286.859418872
288.766712325
290.681692136
292.600798185
294.520516325
296.43739497
298.348072926
300.249309896
302.138015299
304.011272154
305.866349839
307.700708827
309.512005712
311.298094528
313.057025778
314.787042985
316.486577354
318.154241125
319.788819815
321.389263412
322.954676704
324.484309068
325.977543949
327.433888316
328.852962237
330.234488667
331.578283433
332.884245438
334.152347053
335.382624799
336.575170418
337.730122544
338.847659159
339.927991095
340.971356733
341.978018092
342.948258367
343.882380945
344.780709787
345.643591026
346.471395496
347.264521894
348.023400178
348.748494868
349.440307861
350.099380489
350.726294573
351.321672345
351.886175167
352.420501101
352.925381418
353.401576235
353.849869469
354.271063327
354.665972525
355.035418403
355.38022307
355.701203637
355.999166638
356.274902638
356.529181095
356.762745473
356.976308671
357.170548757
357.346105057
357.503574588
357.643508866
357.76641107
357.872733544
357.962875638
358.037182039
358.095941103
358.139382634
358.167614812
358.181325377
256.250438197
256.4606606
256.885849737
257.522052209
258.350828015
259.352022123
260.504553768
261.787869069
263.182982292
264.673085907
266.24377536
267.882980269
269.580709065
271.328704845
273.120085928
274.949017005
276.810433305
278.699823031
280.613062661
282.546294384
284.495833879
286.458098783
288.429552837
290.406666084
292.38589586
294.363693582
296.336535271
298.300968046
300.253657341
302.191432489
304.111316393
306.010535814
307.88652721
309.736939211
311.559633684
313.352684296
315.114371706
316.843176575
318.537771592
320.197012512
321.81992793
323.405708068
324.953692984
326.463360572
327.934314691
329.366273647
330.759059043
332.112584933
333.426847167
334.701912887
335.937910197
337.135018187
338.29345753
339.413481987
340.495371078
341.539424243
342.545956679
343.515297009
344.447786794
345.343781808
346.203654832
347.02779967
347.816635917
348.570614043
349.290220272
349.975980827
350.628465115
351.248287609
351.836108213
352.392631086
352.918601973
353.414804223
353.882053713
354.321192999
354.733084959
355.118606192
355.478640402
355.814071873
356.125779142
356.414628909
356.681470206
356.927128844
357.152402173
357.358054176
357.544810933
357.713356469
357.864329019
357.998317677
358.115859468
358.217436811
358.303475335
358.374342021
358.430343814
358.471725497
358.498609009
358.511661448
253.870067467
254.110766836
254.595751367
255.317448241
256.251143628
257.370324978
258.648039533
260.058815258
261.579929114
263.192037492
264.879265621
266.628913444
268.430950511
270.277445895
272.162030811
274.079445483
276.025186872
277.995251756
279.98595757
281.993818978
284.015458797
286.04753698
288.086689676
290.129481112
292.172379843
294.211774133
296.244023811
298.265536521
300.272843478
302.262665463
304.23194991
306.177875422
308.097851655
309.989518364
311.850746824
313.679638495
315.474517949
317.233923272
318.956596609
320.641474138
322.287674209
323.894484185
325.461346752
326.987846078
328.473694434
329.918719527
331.322852487
332.686116247
334.008614114
335.290518286
336.532058384
337.733510167
338.895184798
340.01741906
341.100566973
342.144993159
343.15106833
344.119167042
345.049667818
345.942955511
346.799425659
347.619490355
348.403585137
349.152176199
349.865767331
350.544905941
351.190187688
351.802259331
352.381819614
352.929618119
353.446452211
353.933162308
354.390625842
354.819750302
355.221465778
355.596717347
355.946457565
356.271639208
356.573208317
356.852097587
357.10922005
357.345463109
357.561682887
357.758698986
357.937289634
358.098187305
358.242074773
358.369581656
358.481281394
358.577688652
358.65925711
358.726377792
358.779377412
358.81851629
358.843931603
358.856267789
251.22841462
251.508756516
252.070700581
252.900894331
253.965535393
255.229300274
256.657453548
258.218330298
259.884817736
261.634912394
263.451526443
265.3218041
267.236225227
269.187711323
271.170856406
273.181330159
275.215452531
277.269913269
279.341599209
281.427490349
283.524589613
285.629859847
287.740155666
289.8521568
291.962328281
294.066946114
296.162182297
298.24423004
300.3094265
302.354349249
304.375857384
306.37108112
308.3374038
310.272455708
312.174119385
314.040530663
315.870067158
317.661333927
319.413152811
321.124552205
322.794753229
324.423154003
326.009313554
327.552935667
329.053853697
330.512016835
331.927477389
333.300378665
334.630942885
335.919458743
337.166268577
338.371755465
339.536330737
340.660422518
341.744465865
342.78889508
343.794138609
344.760616855
345.688742996
346.578926732
347.431580588
348.247128233
349.02601406
349.768713206
350.475741106
351.147661818
351.785094439
352.38871715
352.95926865
353.497546948
354.004405671
354.480748263
354.927520568
355.345702383
355.73629856
356.100330124
356.438825728
356.752813572
357.043313826
357.311331469
357.557849515
357.783822574
357.990170794
358.177774217
358.347467615
358.500035827
358.636209648
358.756662234
358.862006026
358.952790158
359.029498283
359.092546757
359.14228333
359.17898521
359.202805263
359.214363119
248.28303276
248.616295474
249.279471233
250.249764014
251.480002905
252.922632334
254.532650061
256.270694944
258.104667063
260.010040068
261.969138116
263.969800703
266.003885857
268.065926764
270.152077894
272.259370376
274.385236529
276.527240986
278.682952038
280.849891288
283.025507552
285.207133492
287.391903838
289.576647158
291.757800192
293.931446172
296.093452114
298.239676397
300.36617621
302.469346219
304.545953376
306.593095316
308.608135332
310.588691636
312.532658471
314.438216049
316.303808215
318.12811813
319.910058235
321.64876276
323.343571046
324.994007943
326.599764797
328.160680099
329.676722107
331.147974307
332.574622433
333.956942317
335.295287557
336.590076099
337.841775801
339.050889405
340.217939751
341.343456026
342.427961935
343.471966482
344.475958027
345.440402016
346.365742638
347.252408255
348.100820243
348.911404446
349.684604315
350.420894539
351.120794037
351.784877204
352.413782588
353.008218365
353.568964365
354.096870624
354.592852726
355.057884422
355.492988284
355.899225206
356.277683607
356.629468972
356.955694108
357.257470235
357.535898804
357.79206387
358.027024842
358.241809594