/*--------------------------------*- C++ -*----------------------------------*\
| =========                 |                                                 |
| \\      /  F ield         | OpenFOAM: The Open Source CFD Toolbox           |
|  \\    /   O peration     | Version:  v1906                                 |
|   \\  /    A nd           | Web:      www.OpenFOAM.com                      |
|    \\/     M anipulation  |                                                 |
\*---------------------------------------------------------------------------*/
FoamFile
{
    version     2.0;
    format      ascii;
    class       volVectorField;
    location    "907";
    object      Ua;
}
// * * * * * * * * * * * * * * * * * * * * * * * * * * * * * * * * * * * * * //

dimensions      [0 1 -1 0 0 0 0];


internalField   nonuniform List<vector> 
9216
(
(-0.0103648977211 0.0103718963141 0)
(-0.0109380481649 0.0334736053373 3.91539563145e-27)
(-0.0109340920459 0.0569316097687 -7.07866403471e-31)
(-0.0108315013775 0.0803967275475 0)
(-0.0106853231515 0.103471895813 0)
(-0.0104997124175 0.126062766058 0)
(-0.010279234602 0.148067928388 0)
(-0.0100271625452 0.169395263866 0)
(-0.00974639852735 0.189962004765 0)
(-0.00943995685064 0.20969478207 0)
(-0.00911075089368 0.228529878031 0)
(-0.0087618530119 0.246413250751 0)
(-0.00839614984753 0.263300555102 0)
(-0.00801662892499 0.279156855594 0)
(-0.00762598866329 0.293956345908 0)
(-0.00722698213926 0.307681801351 0)
(-0.00682199481824 0.32032408626 0)
(-0.00641344965661 0.33188144977 0)
(-0.00600335466367 0.342358926328 0)
(-0.00559376703496 0.351767575953 0)
(-0.00518630847768 0.360123870471 0)
(-0.0047826834643 0.367448958948 0)
(-0.00438415885566 0.373768103999 0)
(-0.00399212922136 0.379110021323 0)
(-0.00360755645275 0.383506399081 0)
(-0.00323157602516 0.386991330445 0)
(-0.0028648948757 0.389600920471 0)
(-0.00250843410466 0.391372807925 0)
(-0.00216268653046 0.392345850865 0)
(-0.00182839812765 0.392559733425 0)
(-0.00150589751036 0.392054667963 0)
(-0.00119570419057 0.390871319773 0)
(-0.000897892682156 0.389050021975 0)
(-0.000612909885133 0.386630849987 0)
(-0.000340757577615 0.383653560533 0)
(-8.17363306672e-05 0.380157246426 0)
(0.000164315457437 0.376180227212 0)
(0.000397226039357 0.371759860576 0)
(0.000617283868118 0.366932445811 0)
(0.000824425466399 0.361733083534 0)
(0.00101904838615 0.356195608834 0)
(0.00120118262248 0.350352490746 0)
(0.00137131735355 0.344234788913 0)
(0.00152956024744 0.337872088838 0)
(0.00167647371976 0.331292479661 0)
(0.00181222618706 0.324522523568 0)
(0.0019374329744 0.317587251551 0)
(0.00205230462403 0.310510164375 0)
(0.00215748839846 0.30331324492 0)
(0.00225321814993 0.296016989012 0)
(0.00234015181242 0.288640430939 0)
(0.0024185281822 0.28120120037 0)
(0.00248899657721 0.273715558306 0)
(0.00255178506336 0.266198476342 0)
(0.00260751790061 0.258663677798 0)
(0.00265640028632 0.251123733331 0)
(0.00269901986514 0.243590102681 0)
(0.00273555202424 0.236073241065 0)
(0.00276654118223 0.22858263526 0)
(0.00279213095412 0.221126914083 0)
(0.00281282153254 0.213713874342 0)
(0.00282872794481 0.206350590369 0)
(0.00284030941921 0.199043425096 0)
(0.00284765915597 0.191798133893 0)
(0.00285120223961 0.184619858883 0)
(0.00285101937287 0.177513224876 0)
(0.00284750972419 0.170482315591 0)
(0.00284075129929 0.163530760386 0)
(0.00283112588231 0.156661693936 0)
(0.00281871793246 0.149877834813 0)
(0.00280389883072 0.14318143051 0)
(0.00278676642504 0.136574329425 0)
(0.00276768657852 0.130057915102 0)
(0.00274677483827 0.123633174535 0)
(0.0027243934472 0.117300625039 0)
(0.00270067678204 0.111060381485 0)
(0.00267598266327 0.104912080024 0)
(0.00265046263567 0.0988549472189 0)
(0.0026244665767 0.092887723732 0)
(0.00259815895055 0.0870087374813 0)
(0.00257187616504 0.0812158304994 0)
(0.00254578939902 0.0755064381852 0)
(0.00252021415914 0.0698775214883 0)
(0.00249532007299 0.0643256540894 0)
(0.00247139179881 0.058846963078 0)
(0.00244858469066 0.0534372282105 0)
(0.00242713343375 0.0480918394544 0)
(0.00240714531151 0.0428059259296 0)
(0.00238873461296 0.0375743743672 0)
(0.00237179374352 0.0323920947127 0)
(0.00235589162807 0.0272543613702 0)
(0.00233958585771 0.022158022694 0)
(0.00231885588799 0.0171046257278 0)
(0.00227607606452 0.0121268006322 0)
(0.00219567290245 0.00699244151944 0)
(0.0027800809765 0.0027798170986 0)
(-0.0335531002844 0.0110312709722 0)
(-0.0370900803693 0.0373766344792 0)
(-0.0370025902631 0.0636492907003 -4.11023072026e-27)
(-0.0364998909134 0.0899540808244 0)
(-0.0358014801852 0.115787208681 0)
(-0.0349341084065 0.141063758463 0)
(-0.0339125986961 0.165675951288 0)
(-0.0327513240783 0.189522394305 0)
(-0.0314650487182 0.212510928702 0)
(-0.0300692692149 0.234559685202 0)
(-0.0285796167847 0.255597593979 0)
(-0.0270119958375 0.275564548559 0)
(-0.0253818521305 0.294411392559 0)
(-0.0237044055107 0.312099634652 0)
(-0.0219939125545 0.328601061185 0)
(-0.0202640495422 0.343897146088 0)
(-0.0185271949766 0.357978422855 0)
(-0.0167949684645 0.370843720091 0)
(-0.0150775301613 0.382499419111 0)
(-0.0133842616612 0.392958633661 0)
(-0.0117230653938 0.402240459742 0)
(-0.0101011633155 0.410369191102 0)
(-0.0085243724907 0.417373634947 0)
(-0.00699799274171 0.423286417917 0)
(-0.00552603470373 0.428143402772 0)
(-0.00411217164548 0.431983102374 0)
(-0.00275890481083 0.434846199564 0)
(-0.00146856415771 0.436775060637 0)
(-0.000242407554658 0.437813341856 0)
(0.000918332714912 0.438005577783 0)
(0.00201340211423 0.43739688834 0)
(0.0030424991504 0.436032412945 0)
(0.00400630249566 0.433957560066 0)
(0.0049052338713 0.431217456465 0)
(0.00574056556535 0.427856608425 0)
(0.00651329452229 0.42391877408 0)
(0.00722524590997 0.419446795577 0)
(0.00787787493103 0.41448242507 0)
(0.00847341456228 0.409066203463 0)
(0.00901365368539 0.403237323972 0)
(0.00950111667964 0.397033544304 0)
(0.0099378209641 0.390491088522 0)
(0.0103264803382 0.383644589634 0)
(0.0106692475972 0.376527026767 0)
(0.0109689345149 0.369169695293 0)
(0.0112277453672 0.361602176877 0)
(0.0114485062246 0.353852334649 0)
(0.0116333963324 0.345946314017 0)
(0.011785180301 0.337908560778 0)
(0.0119059442771 0.329761850281 0)
(0.011998324543 0.321527325486 0)
(0.0120642562318 0.313224551032 0)
(0.0121061926608 0.304871567454 0)
(0.0121258738146 0.296484965481 0)
(0.0121255303817 0.288079951031 0)
(0.0121066793589 0.279670433722 0)
(0.0120713071487 0.2712690966 0)
(0.0120206984752 0.262887492138 0)
(0.0119565922482 0.254536109954 0)
(0.0118800495946 0.246224473431 0)
(0.0117925764246 0.237961199417 0)
(0.0116950350279 0.229754089497 0)
(0.0115887267998 0.221610176549 0)
(0.0114743514839 0.213535806062 0)
(0.011353044044 0.205536666526 0)
(0.0112253845901 0.197617858215 0)
(0.0110923834255 0.189783906127 0)
(0.0109545446502 0.182038815567 0)
(0.0108127943776 0.174386068603 0)
(0.0106676003865 0.16682866773 0)
(0.0105198390011 0.159369118159 0)
(0.0103699733568 0.152009462071 0)
(0.0102188556034 0.144751250431 0)
(0.0100669659339 0.137595571289 0)
(0.00991514740708 0.130543015052 0)
(0.00976390804815 0.123593700408 0)
(0.00961408660556 0.116747237217 0)
(0.00946621958863 0.110002753544 0)
(0.00932113674734 0.103358859652 0)
(0.00917939485427 0.0968136789693 0)
(0.00904180231006 0.0903648162244 0)
(0.00890892085598 0.0840093946596 0)
(0.00878151865898 0.0777440304355 0)
(0.00866014046505 0.0715648777641 0)
(0.00854548763572 0.0654676114649 0)
(0.0084380544038 0.0594474814477 0)
(0.0083384279469 0.0534993044577 0)
(0.00824697584765 0.0476175263465 0)
(0.00816403119014 0.0417962130626 0)
(0.00808954652301 0.0360290757862 0)
(0.00802296072422 0.0303092956624 0)
(0.00796233486082 0.0246289751527 0)
(0.00790246024776 0.0189766284288 0)
(0.00782773022225 0.0133277224703 0)
(0.00764550655295 0.00762864094047 0)
(0.00698802632096 0.00218990907314 0)
(-0.0574427438633 0.0111784854912 0)
(-0.0635933329492 0.0379933912552 0)
(-0.0633747199752 0.0645981105822 -4.11397576563e-27)
(-0.0625030872223 0.0912862262204 0)
(-0.0613208404514 0.11749145366 0)
(-0.0598620572184 0.143123511012 0)
(-0.0581474353552 0.168070768358 0)
(-0.0561994281847 0.19222953803 0)
(-0.0540422797725 0.215505959611 0)
(-0.0517015773048 0.237816977784 0)
(-0.04920348647 0.259090803387 0)
(-0.0465743894588 0.279267078082 0)
(-0.0438401805843 0.298296802895 0)
(-0.0410260516767 0.316142024855 0)
(-0.0381558939042 0.332775370638 0)
(-0.0352522625157 0.348179416061 0)
(-0.0323359019091 0.362345975794 0)
(-0.0294258904468 0.375275300629 0)
(-0.0265392780385 0.386975260684 0)
(-0.0236913878675 0.397460497932 0)
(-0.0208955355001 0.406751617122 0)
(-0.0181634472655 0.414874390763 0)
(-0.015505017299 0.421859034476 0)
(-0.0129287949977 0.427739519301 0)
(-0.0104417361937 0.432552964402 0)
(-0.00804971912009 0.436339069279 0)
(-0.00575725994805 0.439139619257 0)
(-0.00356803486063 0.440998021555 0)
(-0.00148455006502 0.441958901508 0)
(0.000491335643508 0.4420677182 0)
(0.00235878995196 0.441370444869 0)
(0.00411746843059 0.439913223029 0)
(0.00576785631586 0.437742101342 0)
(0.00731081585306 0.434902800431 0)
(0.0087479930172 0.431440462498 0)
(0.0100812435173 0.427399443737 0)
(0.0113130872918 0.422823136481 0)
(0.0124461487848 0.417753806027 0)
(0.0134836256266 0.412232456679 0)
(0.0144287210956 0.406298708648 0)
(0.0152851288597 0.399990700338 0)
(0.0160564606232 0.393345001561 0)
(0.016746743235 0.386396547941 0)
(0.0173598431679 0.379178586981 0)
(0.0178999720566 0.371722642113 0)
(0.0183711099451 0.364058489509 0)
(0.0187775158184 0.356214149456 0)
(0.0191231525178 0.348215891904 0)
(0.0194121997485 0.340088253598 0)
(0.0196484842817 0.33185407034 0)
(0.0198359936105 0.323534516936 0)
(0.0199783157802 0.315149162746 0)
(0.0200791524181 0.306716030845 0)
(0.020141772527 0.298251672286 0)
(0.0201695235353 0.289771238741 0)
(0.0201653031089 0.281288569156 0)
(0.0201320665023 0.272816269573 0)
(0.0200723194409 0.264365805269 0)
(0.0199886191997 0.255947580357 0)
(0.0198830906218 0.247571028135 0)
(0.0197579176004 0.239244684086 0)
(0.0196148830651 0.230976268303 0)
(0.0194558467835 0.222772746209 0)
(0.0192823093923 0.214640398299 0)
(0.0190958721914 0.20658486537 0)
(0.0188978246576 0.198611203156 0)
(0.0186895818979 0.190723910541 0)
(0.0184722950753 0.182926968617 0)
(0.0182472627381 0.175223852955 0)
(0.018015563679 0.167617558784 0)
(0.0177784390329 0.160110599624 0)
(0.0175369476143 0.152705021526 0)
(0.0172923166463 0.145402391961 0)
(0.0170456200104 0.138203807039 0)
(0.0167980962922 0.131109874622 0)
(0.016550850902 0.124120718506 0)
(0.0163051409604 0.117235960024 0)
(0.0160621024507 0.110454722987 0)
(0.0158230019751 0.103775617201 0)
(0.0155889902727 0.0971967472021 0)
(0.0153613212393 0.0907157006161 0)
(0.0151411329101 0.0843295629769 0)
(0.0149296339965 0.0780349126529 0)
(0.0147279128713 0.0718278429192 0)
(0.0145370910122 0.065703964094 0)
(0.0143581586016 0.0596584320455 0)
(0.0141920911838 0.0536859541059 0)
(0.0140397052694 0.0477808150197 0)
(0.0139017274641 0.041936864414 0)
(0.0137786571554 0.0361474870454 0)
(0.013670793112 0.0304054573064 0)
(0.0135782079377 0.0247025817658 0)
(0.0135010161345 0.0190286998564 0)
(0.0134382389548 0.0133658777645 0)
(0.0133312988797 0.007769587469 0)
(0.0120973752999 0.00226094065211 0)
(-0.0818908136927 0.0113082632613 0)
(-0.0907298758162 0.0385736830782 0)
(-0.0904090498104 0.0655249623755 4.11206575436e-27)
(-0.0891501780506 0.0925804862937 0)
(-0.0874454996271 0.119136978671 0)
(-0.0853451015913 0.145099140781 0)
(-0.0828787520009 0.170351008198 0)
(-0.0800787500471 0.194785902751 0)
(-0.0769801807883 0.218307900645 0)
(-0.0736200398853 0.240832702661 0)
(-0.0700362491033 0.26228800387 0)
(-0.0662668919493 0.282613594221 0)
(-0.0623493941119 0.301761198938 0)
(-0.0583199713005 0.319694085236 0)
(-0.0542130167149 0.336386494541 0)
(-0.0500607879849 0.351822925097 0)
(-0.045893013035 0.365997321094 0)
(-0.0417368105525 0.378912190388 0)
(-0.0376164940259 0.390577701483 0)
(-0.0335536903901 0.401010776006 0)
(-0.0295672944966 0.4102342179 0)
(-0.0256737261721 0.41827588555 0)
(-0.0218869680107 0.425167934702 0)
(-0.0182188893122 0.430946125551 0)
(-0.0146792991136 0.43564920769 0)
(-0.0112762767044 0.439318365789 0)
(-0.00801619424966 0.441996730637 0)
(-0.00490402337857 0.443728934974 0)
(-0.00194331413887 0.444560717161 0)
(0.000863523720708 0.444538555226 0)
(0.00351527924799 0.443709339993 0)
(0.0060116801062 0.442120095186 0)
(0.00835339993518 0.43981759367 0)
(0.0105418866381 0.436848236671 0)
(0.0125794218081 0.433257775134 0)
(0.014468851986 0.429091107648 0)
(0.0162136960518 0.424392105631 0)
(0.017817888494 0.419203455561 0)
(0.0192858985039 0.413566524875 0)
(0.0206224773862 0.407521244872 0)
(0.0218327887206 0.401106013277 0)
(0.0229221596907 0.394357612019 0)
(0.0238962195062 0.387311142053 0)
(0.0247606538103 0.379999972685 0)
(0.0255213486497 0.372455706104 0)
(0.0261841475116 0.364708156278 0)
(0.0267549989971 0.356785341695 0)
(0.027239717499 0.348713492574 0)
(0.0276441341621 0.340517070454 0)
(0.0279738632662 0.332218801958 0)
(0.0282344571163 0.32383972296 0)
(0.028431181353 0.31539923597 0)
(0.0285691752021 0.306915175081 0)
(0.0286532389753 0.298403882159 0)
(0.0286880009308 0.28988028691 0)
(0.0286777199324 0.281357995437 0)
(0.0286264594779 0.272849378342 0)
(0.0285379070772 0.264365664031 0)
(0.0284155545992 0.255917027086 0)
(0.0282625346236 0.247512678649 0)
(0.028081804917 0.239160947789 0)
(0.0278760003362 0.230869362196 0)
(0.0276476179575 0.222644716641 0)
(0.0273988822073 0.214493139092 0)
(0.0271319265575 0.206420142581 0)
(0.0268486688356 0.198430674158 0)
(0.0265509852251 0.190529148849 0)
(0.0262405929465 0.18271948133 0)
(0.0259192128486 0.175005103038 0)
(0.0255884570458 0.167388978541 0)
(0.0252499772054 0.15987360864 0)
(0.0249053557516 0.152461034937 0)
(0.0245562381122 0.145152833029 0)
(0.0242042269202 0.137950109582 0)
(0.0238509975052 0.130853490082 0)
(0.0234981955267 0.123863112868 0)
(0.0231475359473 0.116978615813 0)
(0.0228007050524 0.110199131345 0)
(0.0224594437286 0.103523275718 0)
(0.0221254552863 0.0969491482452 0)
(0.0218004742095 0.0904743259726 0)
(0.0214861811416 0.0840958693124 0)
(0.0211842581912 0.0778103236945 0)
(0.0208963121989 0.0716137324413 0)
(0.020623917237 0.0655016453491 0)
(0.0203685465308 0.0594691371931 0)
(0.0201316022279 0.0535108190866 0)
(0.019914356753 0.0476208541072 0)
(0.019717974188 0.0417929554132 0)
(0.0195434769108 0.0360203709296 0)
(0.0193918083826 0.0302958325729 0)
(0.0192639530199 0.0246114517976 0)
(0.0191610984876 0.0189585891228 0)
(0.019080937598 0.0133228187443 0)
(0.0189315341288 0.0077809286059 0)
(0.0170178217246 0.00228921272841 0)
(-0.106739613439 0.0114751611839 0)
(-0.118274773964 0.0393346973514 0)
(-0.117845368167 0.0667654218562 0)
(-0.116183922316 0.0943136436203 0)
(-0.113935073664 0.12133852765 0)
(-0.111166128258 0.147739265382 0)
(-0.107917222732 0.173394631014 0)
(-0.10423164195 0.198193987699 0)
(-0.100156297164 0.222038648333 0)
(-0.0957405133335 0.244842680698 0)
(-0.0910347664196 0.266533175765 0)
(-0.0860895803681 0.2870502431 0)
(-0.0809545068159 0.306346727776 0)
(-0.0756773115 0.324387690163 0)
(-0.0703032563456 0.341149700899 0)
(-0.0648746046142 0.356619991685 0)
(-0.0594302125571 0.370795511456 0)
(-0.0540053405388 0.383681924808 0)
(-0.0486315236054 0.395292596747 0)
(-0.0433366397857 0.405647593998 0)
(-0.0381449934276 0.414772737163 0)
(-0.0330775578247 0.422698721679 0)
(-0.0281521762202 0.429460326012 0)
(-0.0233838774057 0.435095708183 0)
(-0.0187850965878 0.439645791728 0)
(-0.0143659786719 0.443153727947 0)
(-0.0101345552122 0.445664425226 0)
(-0.00609699669286 0.447224128525 0)
(-0.00225773226628 0.44788004078 0)
(0.00138034303517 0.447679974615 0)
(0.00481578823802 0.446672032083 0)
(0.00804846277687 0.444904355463 0)
(0.01107935114 0.442424682815 0)
(0.0139105206364 0.439280330397 0)
(0.016545016469 0.435517848242 0)
(0.0189866987194 0.431182844151 0)
(0.0212402039086 0.426319812707 0)
(0.02331078905 0.420971983678 0)
(0.0252043067455 0.415181191873 0)
(0.0269270597794 0.408987765339 0)
(0.0284857876659 0.402430431248 0)
(0.0298875296035 0.395546237629 0)
(0.0311396191865 0.388370490524 0)
(0.0322495530397 0.380936705879 0)
(0.033224990707 0.373276575902 0)
(0.0340736273136 0.365419949867 0)
(0.0348031972032 0.357394828815 0)
(0.0354213507866 0.349227374695 0)
(0.0359356623526 0.340941932891 0)
(0.0363535130624 0.33256106873 0)
(0.0366821050467 0.324105616057 0)
(0.0369283538808 0.315594738465 0)
(0.0370989120003 0.307046000356 0)
(0.0372000743802 0.298475448137 0)
(0.0372378142142 0.28989769774 0)
(0.0372177048626 0.281326028757 0)
(0.0371449695423 0.272772480724 0)
(0.0370244209523 0.26424795187 0)
(0.0368605248556 0.255762295454 0)
(0.0366573567436 0.24732441452 0)
(0.0364186771126 0.238942350221 0)
(0.0361479025121 0.230623365159 0)
(0.0358481886192 0.22237401712 0)
(0.035522411611 0.21420022562 0)
(0.0351732541127 0.206107327119 0)
(0.0348031921597 0.198100122181 0)
(0.0344145789308 0.190182910867 0)
(0.0340096327858 0.18235952059 0)
(0.0335905142927 0.174633323166 0)
(0.0331593116658 0.167007245869 0)
(0.0327181077648 0.15948377347 0)
(0.0322689605837 0.152064946605 0)
(0.0318139583257 0.144752353502 0)
(0.0313551939625 0.137547120601 0)
(0.0308948078897 0.130449898961 0)
(0.0304349568549 0.123460852051 0)
(0.0299778448426 0.116579641625 0)
(0.0295256875689 0.109805417077 0)
(0.0290807330173 0.103136804662 0)
(0.0286452232733 0.0965719017988 0)
(0.0282214065277 0.0901082725074 0)
(0.02781149818 0.0837429488701 0)
(0.0274176861744 0.0774724341643 0)
(0.0270420932545 0.0712927122085 0)
(0.0266867774319 0.0651992580919 0)
(0.0263536973575 0.0591870540245 0)
(0.0260447105244 0.0532506046378 0)
(0.0257615462883 0.0473839546209 0)
(0.0255058110163 0.0415807015095 0)
(0.0252789883362 0.0358340083506 0)
(0.0250824908867 0.0301366274993 0)
(0.0249177451351 0.0244809238997 0)
(0.0247860474167 0.0188589981534 0)
(0.0246825325208 0.0132574304586 0)
(0.0244833494945 0.00775537678836 0)
(0.0219672252539 0.00229041942172 0)
(-0.132129317851 0.0116835202121 0)
(-0.146403087335 0.0403041333213 0)
(-0.145852589394 0.0683543357411 0)
(-0.143764999652 0.0965351039053 0)
(-0.140940785064 0.124159388477 0)
(-0.137465625834 0.151119799676 0)
(-0.133391366637 0.177288729352 0)
(-0.128773656531 0.202550638936 0)
(-0.123672552551 0.226803433848 0)
(-0.118150953646 0.24995923258 0)
(-0.112273005975 0.27194451963 0)
(-0.106102671085 0.292699998259 0)
(-0.0997024593637 0.312180142049 0)
(-0.0931323821385 0.330352499842 0)
(-0.086449089708 0.347196809683 0)
(-0.0797052369015 0.36270397195 0)
(-0.0729490265435 0.376874932445 0)
(-0.0662239671422 0.389719520867 0)
(-0.0595687804288 0.401255290268 0)
(-0.0530174883176 0.411506396266 0)
(-0.0465995983911 0.420502551533 0)
(-0.0403404102711 0.428278079835 0)
(-0.0342613495962 0.434871085727 0)
(-0.0283803536478 0.440322741516 0)
(-0.0227122170218 0.444676684432 0)
(-0.0172689384193 0.447978506104 0)
(-0.0120599922281 0.450275314613 0)
(-0.00709258978788 0.451615347495 0)
(-0.00237186831934 0.452047620429 0)
(0.00209891342253 0.451621599133 0)
(0.00631823073477 0.450386892976 0)
(0.0102861755762 0.448393038134 0)
(0.014004173813 0.445688973603 0)
(0.0174750056342 0.442323157779 0)
(0.0207026070128 0.438343133831 0)
(0.0236919318342 0.433795391925 0)
(0.0264488480618 0.428725200672 0)
(0.028980002596 0.423176462874 0)
(0.0312927341603 0.417191591968 0)
(0.0333949534038 0.410811406402 0)
(0.0352950697944 0.404075040557 0)
(0.0370018830202 0.397019870703 0)
(0.0385245191568 0.38968145549 0)
(0.0398723290172 0.382093490469 0)
(0.0410548297004 0.374287776629 0)
(0.0420816071828 0.366294203072 0)
(0.0429622615761 0.358140743909 0)
(0.0437063138465 0.349853469677 0)
(0.0443231557428 0.341456573044 0)
(0.0448219629635 0.332972408893 0)
(0.0452116529502 0.324421547936 0)
(0.0455008087598 0.315822843446 0)
(0.0456976492673 0.307193509381 0)
(0.0458099685401 0.298549208863 0)
(0.0458451228158 0.289904150477 0)
(0.045809989323 0.281271190866 0)
(0.045710972813 0.272661940478 0)
(0.0455539855051 0.264086870784 0)
(0.0453444733357 0.255555419655 0)
(0.0450874159746 0.247076093459 0)
(0.0447873701914 0.238656562785 0)
(0.0444484861925 0.230303750953 0)
(0.044074563179 0.222023912765 0)
(0.0436690764484 0.213822703518 0)
(0.0432352389119 0.205705236434 0)
(0.0427760325546 0.197676129419 0)
(0.0422942694447 0.189739540069 0)
(0.0417926215256 0.181899190665 0)
(0.0412736754951 0.17415838266 0)
(0.0407399560645 0.166520003042 0)
(0.0401939706134 0.15898652247 0)
(0.0396382228577 0.15155998794 0)
(0.0390752450821 0.144242010032 0)
(0.038507600978 0.137033747588 0)
(0.0379379050446 0.129935889812 0)
(0.0373688150428 0.122948638564 0)
(0.0368030396148 0.116071690582 0)
(0.036243321955 0.109304222182 0)
(0.0356924376472 0.102644875857 0)
(0.0351531718947 0.0960917509874 0)
(0.0346283100713 0.0896423977794 0)
(0.0341206110979 0.0832938162437 0)
(0.0336327933279 0.0770424589883 0)
(0.0331675067359 0.0708842392378 0)
(0.0327273168479 0.0648145425233 0)
(0.0323146787104 0.0588282429314 0)
(0.0319319225354 0.052919722106 0)
(0.031581234657 0.0470828918319 0)
(0.0312646530889 0.0413112194434 0)
(0.0309840683679 0.0355977602946 0)
(0.0307412469951 0.0299352121984 0)
(0.0305378498528 0.0243159782862 0)
(0.030375043535 0.0187323021954 0)
(0.0302456683235 0.0131707354311 0)
(0.0299960713245 0.00770857087062 0)
(0.0268993809337 0.00228217382184 0)
(-0.158194141528 0.0119385299478 0)
(-0.17526781762 0.0414999159915 0)
(-0.174578713968 0.0703163525205 4.13559051987e-27)
(-0.172033365659 0.0992781825407 0)
(-0.168592821013 0.127640840694 0)
(-0.164362626061 0.155288785381 0)
(-0.159407937835 0.182086653904 0)
(-0.153798472065 0.207913014378 0)
(-0.147609109844 0.2326617691 0)
(-0.140917908405 0.256242875811 0)
(-0.133804114148 0.278582349045 0)
(-0.12634638241 0.299621920834 0)
(-0.118621235485 0.319318374469 0)
(-0.110701785974 0.3376426206 0)
(-0.102656716569 0.354578579295 0)
(-0.0945495258504 0.370121925572 0)
(-0.0864380182065 0.384278753291 0)
(-0.0783740399764 0.397064209116 0)
(-0.0704034282157 0.408501147464 0)
(-0.0625661617642 0.41861885327 0)
(-0.0548966625964 0.427451874202 0)
(-0.0474242206594 0.435038992624 0)
(-0.0401734749366 0.441422354194 0)
(-0.0331649198429 0.446646752426 0)
(-0.0264153755611 0.450759053344 0)
(-0.0199384124029 0.453807731742 0)
(-0.0137446959818 0.45584248602 0)
(-0.00784227594355 0.456913900335 0)
(-0.00223681050521 0.457073131531 0)
(0.00306823523558 0.456371603131 0)
(0.00807140551689 0.454860723503 0)
(0.0127731649413 0.452591680513 0)
(0.0171755337358 0.449614862776 0)
(0.0212821247084 0.445980081983 0)
(0.0250979038257 0.441736065412 0)
(0.0286290353112 0.436930352524 0)
(0.0318827408925 0.431609130289 0)
(0.0348671573454 0.425817098573 0)
(0.0375912166362 0.419597355278 0)
(0.0400645235029 0.412991298563 0)
(0.0422972530916 0.406038544044 0)
(0.0443000425088 0.398776855804 0)
(0.0460838990072 0.391242090507 0)
(0.047660099027 0.383468154671 0)
(0.0490401015557 0.375486975273 0)
(0.0502354509101 0.367328484262 0)
(0.0512576931842 0.359020617394 0)
(0.0521182824843 0.350589328043 0)
(0.0528285018287 0.342058616179 0)
(0.0533993758843 0.333450572745 0)
(0.0538416007448 0.32478543893 0)
(0.0541654687557 0.316081679812 0)
(0.054380813387 0.307356070922 0)
(0.054496952606 0.298623796199 0)
(0.0545226549041 0.289898554962 0)
(0.0544661064531 0.281192675583 0)
(0.054334902152 0.272517232894 0)
(0.0541360388441 0.263882166637 0)
(0.0538759318014 0.255296397867 0)
(0.0535604325699 0.246767940817 0)
(0.0531948675978 0.238304007524 0)
(0.0527840758336 0.229911103364 0)
(0.0523324632342 0.221595111535 0)
(0.0518440528548 0.213361365558 0)
(0.0513225472748 0.205214708846 0)
(0.0507713829626 0.197159541348 0)
(0.0501937924593 0.189199853273 0)
(0.0495928552994 0.181339246815 0)
(0.0489715529087 0.173580946665 0)
(0.0483328100015 0.165927800849 0)
(0.047679537203 0.158382273173 0)
(0.0470146591564 0.150946429173 0)
(0.0463411423097 0.143621917016 0)
(0.0456620083755 0.136409945295 0)
(0.0449803470183 0.129311259049 0)
(0.0442993153894 0.122326115786 0)
(0.0436221372355 0.115454262574 0)
(0.0429520906923 0.108694915623 0)
(0.0422924964875 0.10204674306 0)
(0.0416466970209 0.0955078519606 0)
(0.0410180368942 0.0890757799285 0)
(0.0404098366198 0.082747491897 0)
(0.0398253688493 0.0765193820733 0)
(0.039267830093 0.0703872813332 0)
(0.0387403160406 0.0643464697304 0)
(0.038245794813 0.058391694063 0)
(0.0377870852485 0.0525171901612 0)
(0.0373668362285 0.0467167104417 0)
(0.0369875133934 0.0409835566635 0)
(0.0366513907579 0.0353106219143 0)
(0.0363605492441 0.029690457266 0)
(0.0361168470295 0.0241153275146 0)
(0.0359213794668 0.0185772996194 0)
(0.0357651296189 0.0130625981694 0)
(0.0354658668684 0.0076457231993 0)
(0.0317989417162 0.00226850569452 0)
(-0.185080541311 0.0122444402051 0)
(-0.20503095337 0.0429419600845 0)
(-0.204181056306 0.0726818205559 -4.13338902197e-27)
(-0.201137741564 0.102583953765 0)
(-0.197028959793 0.131833368888 0)
(-0.19198222195 0.160304475926 0)
(-0.186078088073 0.187852582923 0)
(-0.179402507021 0.214349330416 0)
(-0.172047303091 0.239684088317 0)
(-0.164107671042 0.263764583133 0)
(-0.155679731121 0.286516682907 0)
(-0.146858369052 0.307883797349 0)
(-0.137735397522 0.327825926907 0)
(-0.128398050748 0.346318447112 0)
(-0.118927803802 0.363350700785 0)
(-0.109399511571 0.378924461224 0)
(-0.0998808521667 0.393052324714 0)
(-0.0904320658872 0.405756089606 0)
(-0.0811059656126 0.417065180122 0)
(-0.0719481935061 0.427015172193 0)
(-0.0629976750564 0.435646473447 0)
(-0.0542872174648 0.443003196914 0)
(-0.045844178778 0.449132248709 0)
(-0.0376911434642 0.454082625412 0)
(-0.0298465387727 0.457904893111 0)
(-0.0223251577044 0.460650801962 0)
(-0.0151385686254 0.462372983885 0)
(-0.00829542766895 0.463124686215 0)
(-0.00180171407439 0.462959510654 0)
(0.00433907639242 0.46193112271 0)
(0.0101257556973 0.460093063539 0)
(0.015559263615 0.457498298082 0)
(0.0206424288473 0.454199029324 0)
(0.0253798456383 0.450246587128 0)
(0.0297776671455 0.445691072545 0)
(0.0338434122497 0.440581231199 0)
(0.0375857953335 0.434964303481 0)
(0.0410145667239 0.428885901611 0)
(0.0441403707726 0.422389906172 0)
(0.0469746126432 0.415518378005 0)
(0.049529338349 0.408311483113 0)
(0.0518171181147 0.400807429175 0)
(0.0538509379128 0.393042413533 0)
(0.0556440901119 0.385050582893 0)
(0.0572100692331 0.376864005607 0)
(0.058562464928 0.36851265744 0)
(0.0597148593089 0.36002442192 0)
(0.0606807219229 0.351425106215 0)
(0.0614733105184 0.34273847334 0)
(0.0621055719969 0.333986291123 0)
(0.0625900524913 0.325188397904 0)
(0.0629388117236 0.316362784366 0)
(0.0631633507688 0.307525690197 0)
(0.0632745484709 0.298691713725 0)
(0.0632826150715 0.289873931983 0)
(0.0631970577225 0.281084028326 0)
(0.0630266652457 0.272332424219 0)
(0.0627795058206 0.263628411886 0)
(0.0624629435201 0.254980284301 0)
(0.0620836663729 0.246395459421 0)
(0.0616477305039 0.237880595648 0)
(0.061160612307 0.229441696208 0)
(0.0606272721961 0.221084200385 0)
(0.0600522216358 0.212813060446 0)
(0.0594395964314 0.204632803334 0)
(0.0587932282284 0.196547577185 0)
(0.0581167170995 0.188561182879 0)
(0.0574134978751 0.180677091755 0)
(0.0566869033242 0.172898450568 0)
(0.0559402178534 0.165228075579 0)
(0.0551767252575 0.157668437405 0)
(0.0543997453341 0.150221638852 0)
(0.0536126633106 0.142889387515 0)
(0.0528189479836 0.135672965369 0)
(0.0520221628 0.128573196947 0)
(0.0512259667029 0.121590418054 0)
(0.0504341090205 0.114724446267 0)
(0.0496504159332 0.107974554723 0)
(0.0488787726501 0.101339450013 0)
(0.0481230993596 0.0948172552285 0)
(0.0473873247694 0.0884054985259 0)
(0.0466753556988 0.082101107811 0)
(0.0459910461333 0.0759004115426 0)
(0.0453381645355 0.0697991458478 0)
(0.0447203623839 0.0637924677436 0)
(0.0441411430652 0.0578749743531 0)
(0.0436038336879 0.0520407279805 0)
(0.0431115592448 0.0462832871307 0)
(0.0426672210762 0.0405957443022 0)
(0.0422734782802 0.0349707719757 0)
(0.0419327295447 0.0294006856705 0)
(0.0416470579466 0.0238774937674 0)
(0.0414175884578 0.0183929526382 0)
(0.0412337249192 0.0129328936728 0)
(0.0408853226585 0.00756871090289 0)
(0.036655316771 0.00225082035355 0)
(-0.212948946026 0.0126058942321 0)
(-0.235867982624 0.0446543913618 0)
(-0.234829501502 0.0754886439436 0)
(-0.231238045434 0.10650382341 0)
(-0.226396419885 0.136799941908 0)
(-0.220456933174 0.166239176153 0)
(-0.213518286429 0.194665770103 0)
(-0.205685427044 0.221943397391 0)
(-0.197069778586 0.247956484788 0)
(-0.187786111576 0.272610660133 0)
(-0.177949572863 0.295832222603 0)
(-0.167673114529 0.317567188325 0)
(-0.157065347644 0.3377799711 0)
(-0.146228812033 0.356451802218 0)
(-0.135258641766 0.373578969008 0)
(-0.124241609566 0.3891709365 0)
(-0.113255535835 0.403248410957 0)
(-0.102369052394 0.415841406079 0)
(-0.0916417031787 0.426987379213 0)
(-0.0811243525173 0.436729509421 0)
(-0.0708598471105 0.445115187033 0)
(-0.0608838566789 0.452194769722 0)
(-0.0512257964142 0.458020633338 0)
(-0.0419097320777 0.462646508879 0)
(-0.0329551787719 0.466127059573 0)
(-0.0243777394574 0.468517623835 0)
(-0.0161895679548 0.469874040701 0)
(-0.0083996836796 0.470252486242 0)
(-0.00101418589516 0.469709278221 0)
(0.00596357964284 0.468300605787 0)
(0.0125328864992 0.466082404013 0)
(0.0186953356018 0.463109719443 0)
(0.0244547320438 0.459436753914 0)
(0.0298168583091 0.455116583675 0)
(0.0347892378584 0.450200856791 0)
(0.0393809148217 0.444739672952 0)
(0.0436022547194 0.438781449669 0)
(0.0474647647383 0.43237281585 0)
(0.0509809342974 0.425558523309 0)
(0.0541640905694 0.418381370973 0)
(0.0570282664819 0.410882138664 0)
(0.0595880752739 0.403099529626 0)
(0.0618585901529 0.395070121925 0)
(0.0638552248399 0.386828329959 0)
(0.0655936153076 0.378406377384 0)
(0.0670895001217 0.369834283219 0)
(0.0683586011083 0.361139862677 0)
(0.0694165031669 0.352348744418 0)
(0.0702785363032 0.343484405512 0)