/*--------------------------------*- C++ -*----------------------------------*\
| =========                 |                                                 |
| \\      /  F ield         | OpenFOAM: The Open Source CFD Toolbox           |
|  \\    /   O peration     | Version:  v1906                                 |
|   \\  /    A nd           | Web:      www.OpenFOAM.com                      |
|    \\/     M anipulation  |                                                 |
\*---------------------------------------------------------------------------*/
FoamFile
{
    version     2.0;
    format      ascii;
    class       volScalarField;
    location    "9";
    object      p;
}
// * * * * * * * * * * * * * * * * * * * * * * * * * * * * * * * * * * * * * //

dimensions      [0 2 -2 0 0 0 0];


internalField   nonuniform List<scalar> 
9216
(
1122.18456279
1121.96730691
1121.59995813
1121.12071916
1120.56899932
1119.93477339
1119.20814766
1118.40900386
1117.51540497
1116.50751989
1115.50463394
1114.49297571
1113.38951311
1112.23524482
1111.03538073
1109.79999738
1108.50686954
1107.10499536
1105.57066876
1103.89791415
1102.18050154
1100.4261607
1098.72465735
1097.13815884
1095.56544707
1093.96845255
1092.34309084
1090.69953715
1089.04736387
1087.39875397
1085.76044691
1084.14082988
1082.54323121
1080.97172213
1079.42195679
1077.88603581
1076.36194005
1075.0362286
1073.91200892
1072.83589937
1071.77347863
1070.73811786
1069.73924741
1068.78400984
1067.8721737
1067.00616426
1066.18321544
1065.40434133
1064.66620827
1063.96944929
1063.31014414
1062.68896423
1062.10211628
1061.55059313
1061.03084529
1060.54418325
1060.08730666
1059.66178273
1059.2645308
1058.89726514
1058.55707675
1058.24581453
1057.96133387
1057.69966231
1057.40731525
1057.30555704
1057.33573216
1057.20840616
1056.92968928
1056.65392634
1056.42685752
1056.24370735
1056.0957971
1055.97783388
1055.88565644
1055.81715071
1055.7702341
1055.74393528
1055.73703912
1055.74910159
1055.77952473
1055.828414
1055.89595166
1055.98297855
1056.08919031
1056.20506741
1056.28541057
1056.31682262
1056.35143241
1056.40628305
1056.47865468
1056.55912958
1056.63054427
1056.66876173
1056.67988837
1056.68044058
1122.42515541
1122.19072231
1121.81413638
1121.32577486
1120.75316801
1120.10966571
1119.36636164
1118.55677318
1117.68073485
1116.69412211
1115.66828292
1114.59595602
1113.46447042
1112.29728171
1111.07217026
1109.8353159
1108.5641801
1107.17188976
1105.61835199
1103.83022019
1102.05546152
1100.2506939
1098.50478492
1096.95335267
1095.39676981
1093.8009083
1092.17459016
1090.52947284
1088.87859378
1087.23163556
1085.59805282
1083.98419588
1082.39652332
1080.838684
1079.31473654
1077.82884711
1076.39830933
1075.08612805
1073.89945477
1072.77915277
1071.70173811
1070.66387306
1069.66908415
1068.71986917
1067.81622871
1066.95759164
1066.14336681
1065.37199714
1064.64210786
1063.95192443
1063.29969938
1062.68383112
1062.10279608
1061.5553706
1061.04029167
1060.55667706
1060.10348655
1059.68011729
1059.28570337
1058.91986238
1058.58191488
1058.27180272
1057.98941263
1057.73567413
1057.51547852
1057.37715857
1057.2836904
1057.12134394
1056.88811516
1056.65249683
1056.44561366
1056.27217398
1056.1297109
1056.01493459
1055.92511818
1055.85821296
1055.81265376
1055.787257
1055.78108193
1055.79344875
1055.8239022
1055.87236221
1055.93931591
1056.02654234
1056.13686273
1056.2583985
1056.3267109
1056.32753314
1056.34919746
1056.40502536
1056.48641976
1056.58733678
1056.66519652
1056.6902042
1056.69508636
1056.68955312
1122.83453427
1122.59169805
1122.20973182
1121.72507777
1121.14290923
1120.46281236
1119.70582495
1118.86608515
1117.96101422
1116.91184895
1115.8367514
1114.74568297
1113.56745704
1112.36817407
1111.06136893
1109.76853048
1108.50848382
1107.11634509
1105.57744382
1103.89569685
1102.14134322
1100.35460948
1098.58973869
1096.91693811
1095.27296199
1093.62626364
1091.97045355
1090.30863437
1088.64867007
1086.99819624
1085.3653842
1083.7567054
1082.17873207
1080.63688379
1079.13710107
1077.68715616
1076.30107848
1075.00142239
1073.79119664
1072.64875633
1071.56108153
1070.52349215
1069.53527587
1068.59584556
1067.70356422
1066.85689115
1066.05506315
1065.29601578
1064.57783617
1063.89834932
1063.25583671
1062.64854309
1062.07516071
1061.53435752
1061.02515362
1060.54653603
1060.09776539
1059.67807113
1059.28690052
1058.92369422
1058.58812169
1058.27999434
1057.99967333
1057.74887673
1057.5329192
1057.36118378
1057.21212046
1057.0387775
1056.83488189
1056.62908138
1056.44201845
1056.28086932
1056.14636648
1056.03708211
1055.95132151
1055.88750123
1055.84434691
1055.82075221
1055.81583518
1055.82882083
1055.85911435
1055.9062284
1055.96983765
1056.04959683
1056.14381867
1056.24181881
1056.30446006
1056.33619107
1056.38158608
1056.45353109
1056.55187339
1056.67299369
1056.75716717
1056.75513021
1056.72523785
1056.71120157
1123.43815856
1123.19287014
1122.80607449
1122.30038028
1121.69372433
1120.98449925
1120.17986245
1119.28248562
1118.32625525
1117.30062777
1116.14138538
1114.91930009
1113.65565313
1112.44073942
1111.2200752
1109.89946833
1108.52529092
1107.0567607
1105.4818487
1103.80795365
1102.06819081
1100.29725057
1098.53065024
1096.80012865
1095.09335862
1093.39658957
1091.70457706
1090.018426
1088.34300565
1086.68452042
1085.04969954
1083.44493184
1081.87642336
1080.35054183
1078.87278829
1077.45059923
1076.09329141
1074.80758103
1073.59220213
1072.43981339
1071.34584795
1070.3097044
1069.33058081
1068.40329691
1067.52450287
1066.69372802
1065.90862393
1065.16621437
1064.46367677
1063.79858922
1063.1689491
1062.57312571
1062.00976851
1061.47776791
1060.97616805
1060.50417295
1060.06107111
1059.64627385
1059.25924668
1058.89957899
1058.5669363
1058.26118886
1057.9824371
1057.73132552
1057.50901414
1057.31609579
1057.14075523
1056.96211698
1056.77487606
1056.59049592
1056.42084173
1056.27221033
1056.14657306
1056.0437928
1055.96294751
1055.9029515
1055.86274498
1055.84136213
1055.83790899
1055.85155414
1055.88148078
1055.92682803
1055.98653295
1056.05898588
1056.14098428
1056.22471519
1056.29388394
1056.35283071
1056.42172896
1056.51171114
1056.62740112
1056.7657635
1056.85763981
1056.8172868
1056.76393897
1056.74870681
1124.24410128
1123.96696376
1123.56642217
1123.0566182
1122.42937862
1121.68199003
1120.81087991
1119.84012789
1118.81867767
1117.71058776
1116.48658827
1115.15326882
1113.89786035
1112.69137595
1111.4080355
1110.0264058
1108.5682053
1107.02783277
1105.40379483
1103.70487929
1101.95258541
1100.17203147
1098.38695389
1096.61574035
1094.86090234
1093.12004593
1091.39225038
1089.67941891
1087.98565346
1086.31632534
1084.67732093
1083.07458926
1081.51387806
1080.00147545
1078.54204169
1077.14114302
1075.80479877
1074.53298727
1073.32116762
1072.1669773
1071.07163223
1070.03845249
1069.06905491
1068.1548392
1067.29109846
1066.47897499
1065.71393895
1064.99152631
1064.30794323
1063.66027105
1063.04628357
1062.46434254
1061.91317065
1061.39180173
1060.89942443
1060.43539775
1059.99914239
1059.59019002
1059.20809669
1058.85251006
1058.52309304
1058.21959845
1057.94177587
1057.68938055
1057.46183582
1057.25747964
1057.06965854
1056.88863672
1056.71088618
1056.54076665
1056.38455755
1056.24669234
1056.12922213
1056.03261127
1055.95647706
1055.90010162
1055.86263394
1055.84321012
1055.84094825
1055.85495809
1055.88427878
1055.92782053
1055.98420605
1056.05154255
1056.12695798
1056.20585811
1056.28225674
1056.35875876
1056.44518119
1056.5498074
1056.67891382
1056.83011845
1056.91562995
1056.82944635
1056.78174506
1056.75602426
1125.18826566
1124.91078549
1124.50100531
1123.97720351
1123.32809119
1122.54699223
1121.59722087
1120.53533214
1119.42891653
1118.25133112
1116.96481302
1115.6309833
1114.30419368
1113.0358254
1111.67296044
1110.2148926
1108.67670052
1107.06389013
1105.38159409
1103.63965808
1101.85417688
1100.04374721
1098.22575567
1096.41386893
1094.61497586
1092.83226728
1091.06829261
1089.32639893
1087.610924
1085.92695616
1084.27993784
1082.67534378
1081.11840664
1079.61486825
1078.16840996
1076.78289896
1075.46181376
1074.20175529
1072.99610589
1071.84406596
1070.75047763
1069.72168626
1068.76223986
1067.86105679
1067.01261413
1066.22000128
1065.47644521
1064.77565018
1064.11265948
1063.48390912
1062.88691338
1062.31998584
1061.78194644
1061.27196893
1060.78942176
1060.33382148
1059.90474942
1059.50185303
1059.12479125
1058.77325104
1058.44689372
1058.14535953
1057.86817918
1057.61470097
1057.38384893
1057.1736884
1056.98027426
1056.79873382
1056.62685631
1056.46618316
1056.3198762
1056.19070707
1056.08029814
1055.98924344
1055.91743995
1055.86440613
1055.82945528
1055.81180608
1055.81060383
1055.82493166
1055.85377026
1055.89595592
1055.95008916
1056.01444646
1056.08687856
1056.16484207
1056.24619195
1056.33260499
1056.42929208
1056.5421137
1056.67730303
1056.83166379
1056.89878838
1056.80603685
1056.76589458
1056.73320633
1126.28126085
1126.00522179
1125.59021801
1125.05500885
1124.35632446
1123.54040804
1122.51850863
1121.38245224
1120.20427696
1118.9397032
1117.53070496
1116.22613778
1114.9025447
1113.51966193
1112.05091299
1110.49940458
1108.87415955
1107.18256026
1105.43218961
1103.63310398
1101.79850388
1099.94305595
1098.08069402
1096.2230728
1094.37845669
1092.55266082
1090.75042455
1088.97636632
1087.23533641
1085.53245109
1083.87292956
1082.2618384
1080.703933
1079.20420381
1077.7654614
1076.38999639
1075.07958197
1073.82848389
1072.62836872
1071.47968232
1070.38950533
1069.36626837
1068.41680054
1067.52897815
1066.69620833
1065.92303295
1065.20154773
1064.52317713
1063.88158207
1063.27244986
1062.69299012
1062.14146033
1061.6167827
1061.11828943
1060.64554368
1060.1982402
1059.77613255
1059.37900039
1059.00661365
1058.65871824
1058.33500114
1058.03506519
1057.7583699
1057.50415944
1057.27133387
1057.05824414
1056.86242695
1056.68121101
1056.51318336
1056.35877882
1056.2195171
1056.09699395
1055.99230548
1055.90593683
1055.83786902
1055.78774104
1055.75497298
1055.73884771
1055.73854503
1055.75315299
1055.7816536
1055.8229014
1055.87559283
1055.93825947
1056.00931333
1056.08723685
1056.17113487
1056.26194561
1056.36238852
1056.47617866
1056.60820036
1056.75435351
1056.80392093
1056.74437155
1056.7081135
1056.68617297
1127.52541523
1127.24774876
1126.83358732
1126.30027793
1125.59136356
1124.64092291
1123.58794232
1122.40258577
1121.16288254
1119.82474561
1118.32099414
1116.92852081
1115.57374011
1114.10458266
1112.53572312
1110.8855718
1109.16679899
1107.38897402
1105.5610828
1103.6931794
1101.79687373
1099.88456041
1097.9682166
1096.05844761
1094.16395063
1092.29178285
1090.44797027
1088.63804804
1086.86735897
1085.1411561
1083.46454623
1081.84224863
1080.27863244
1078.7778351
1077.34194253
1075.97187159
1074.66808183
1073.42253766
1072.22576603
1071.08005085
1069.99378091
1068.97668565
1068.03724604
1067.16330132
1066.34666173
1065.59281737
1064.89372995
1064.23823006
1063.61843416
1063.02921563
1062.4674474
1061.93133531
1061.41990917
1060.93268169
1060.46942301
1060.03002911
1059.61443697
1059.22258035
1058.854354
1058.50959425
1058.18805002
1057.88935945
1057.61301068
1057.35829824
1057.12426232
1056.90961976
1056.71275269
1056.53205465
1056.36656747
1056.21628639
1056.08187716
1055.96418083
1055.86384037
1055.78115306
1055.71607168
1055.6682742
1055.63723495
1055.6222819
1055.62262687
1055.63738124
1055.66555506
1055.70605571
1055.75768786
1055.81918183
1055.88926602
1055.96682624
1056.05118987
1056.14251122
1056.24161745
1056.3495655
1056.46676755
1056.5812862
1056.57252038
1056.6017734
1056.59469042
1056.5907921
1128.90954783
1128.63001738
1128.22257561
1127.68729164
1126.95273154
1125.94555736
1124.82315502
1123.5955245
1122.31086173
1120.92255119
1119.36002046
1117.8619137
1116.40537054
1114.82157552
1113.13768603
1111.37799268
1109.55682004
1107.6844271
1105.77009164
1103.82354212
1101.85534131
1099.87651819
1097.89787709
1095.92939982
1093.97989305
1092.05702284
1090.16755529
1088.31764015
1086.51300327
1084.75904468
1083.06080171
1081.42268188
1079.84876788
1078.34229135
1076.90470882
1075.53588771
1074.23461522
1072.99063427
1071.7944221
1070.65034042
1069.56760552
1068.55676615
1067.62745481
1066.76745697
1065.96716896
1065.23292393
1064.55648675
1063.92406292
1063.32617903
1062.75686875
1062.2126651
1061.69173015
1061.193217
1060.71683567
1060.26258148
1059.83056802
1059.42093279
1059.0337805
1058.66915121
1058.32699706
1058.00716424
1057.70937334
1057.43320117
1057.17805663
1056.94316491
1056.7275566
1056.53012208
1056.34980815
1056.18591875
1056.03826837
1055.90707522
1055.7927124
1055.69548375
1055.61549687
1055.55263026
1055.50655061
1055.47675096
1055.46258391
1055.46328767
1055.4779992
1055.50576343
1055.54553909
1055.5962141
1055.65663671
1055.72567797
1055.80232449
1055.88579362
1055.97558546
1056.07120185
1056.17145418
1056.27227313
1056.357563
1056.36874326
1056.45950786
1056.44102767
1056.42792171
1130.4199781
1130.13673376
1129.73694897
1129.2112045
1128.4110513
1127.38686889
1126.22307113
1124.96128835
1123.64556201
1122.23342666
1120.66087317
1119.02088505
1117.40670035
1115.67444452
1113.85663601
1111.97538115
1110.04281901
1108.06793455
1106.05926584
1104.02584788
1101.97739969
1099.92404124
1097.87584101
1095.84238078
1093.8324821
1091.85412644
1089.914522
1088.02022194
1086.17723275
1084.39107479
1082.66672545
1081.00829228
1079.41965234
1077.90305816
1076.45945821
1075.08781298
1073.78488616
1072.53838832
1071.33949931
1070.19496914
1069.11474626
1068.10993135
1067.1906826
1066.34438166
1065.56055486
1064.8462965
1064.19267786
1063.58332553
1063.00719559
1062.45750495
1061.93046489
1061.42421823
1060.93805976
1060.47191884
1060.02603096
1059.60074579
1059.1964142
1058.81332971
1058.45169265
1058.11159364
1057.7929984
1057.49574054
1057.21951229
1056.96386096
1056.72819057
1056.51178016
1056.31383892
1056.13362635
1055.97060069
1055.82450196
1055.69530601
1055.58310003
1055.4879469
1055.40979518
1055.34843692
1055.30350537
1055.27448838
1055.26074927
1055.26154253
1055.27602772
1055.303278
1055.34229184
1055.39200813
1055.45133566
1055.51919559
1055.59457786
1055.67658933
1055.76445056
1055.85735774
1055.95424304
1056.05314347
1056.14877033
1056.22446661
1056.29064576
1056.22710055
1056.20295245
1132.04173471
1131.75414079
1131.3619866
1130.85077003
1130.03135673
1128.96833679
1127.77157344
1126.48485126
1125.1454032
1123.72179031
1122.2171332
1120.36946603
1118.54993638
1116.64586193
1114.68177446
1112.6708065
1110.62024707
1108.53667933
1106.42734735
1104.30043039
1102.16492056
1100.0303104
1097.90619695
1095.80192632
1093.72632857
1091.68758718
1089.69319929
1087.75000163
1085.86420822
1084.04143631
1082.28659448
1080.60349233
1078.99585725
1077.46482655
1076.01097736
1074.63237122
1073.32347282
1072.07039021
1070.8652802
1069.71761037
1068.63843733
1067.6392138
1066.72984346
1065.89674455
1065.12940644
1064.43555824
1063.80481793
1063.21831515
1062.66351174
1062.13286365
1061.622309
1061.13000489
1060.65541806
1060.19871687
1059.76039672
1059.34105587
1058.94127358
1058.56154262
1058.20223844
1057.86360206
1057.5457354
1057.2485975
1056.97200871
1056.71565383
1056.47909849
1056.26181137
1056.06321488
1055.88275652
1055.71999252
1055.57463056
1055.44651303
1055.33554892
1055.24163629
1055.16459789
1055.10414716
1055.05987472
1055.03125302
1055.01764431
1055.01831286
1055.03243289
1055.05909881
1055.09733356
1055.14610431
1055.20434309
1055.27097997
1055.34498044
1055.4253858
1055.51134339
1055.60213036
1055.69727233
1055.79681364
1055.90085914
1056.00228698
1056.03860366
1055.90488662
1055.92040857
1133.7529672
1133.46099027
1133.08256821
1132.58763879
1131.76144891
1130.67229248
1129.45281981
1128.14693947
1126.77046375
1125.26090034
1123.72051822
1121.79520029
1119.77617712
1117.7053064
1115.59630536
1113.45421279
1111.28278193
1109.08674657
1106.87226192
1104.64677737
1102.4187518
1100.19727503
1097.99169342
1095.81125936
1093.66487019
1091.56088817
1089.50704675
1087.51040867
1085.57736195
1083.71360508
1081.92395315
1080.21194923
1078.58120556
1077.03160161
1075.56332751
1074.1734397
1072.85400895
1071.59013562
1070.37503171
1069.22128502
1068.1414939
1067.14734729
1066.24760124
1065.42700714
1064.67611647
1064.00312298
1063.39519063
1062.83108953
1062.29690506
1061.78443063
1061.28939845
1060.81003209
1060.34600233
1059.89774313
1059.46602462
1059.05170867
1058.6556108
1058.27843405
1057.92073491
1057.58291476
1057.26521647
1056.96773152
1056.69040656
1056.43305795
1056.19538849
1055.97701574
1055.77750867
1055.59643844
1055.43342439
1055.28816294
1055.16041812
1055.04998824
1054.95665684
1054.8801533
1054.82012318
1054.77611695
1054.74758567
1054.73388629
1054.73428584
1054.74796915
1054.77404362
1054.81154791
1054.85946092
1054.91671855
1054.98223477
1055.05493155
1055.13377233
1055.21781004
1055.30627055
1055.39876051
1055.49577092
1055.59892081
1055.70292515
1055.71673962
1055.58966546
1055.62170215
1135.51941644
1135.22065117
1134.8736728
1134.40877324
1133.58231404
1132.47825916
1131.25286656
1129.94321382
1128.54272182
1126.95085137
1125.19335112
1123.19775285
1121.04540145
1118.83241651
1116.5870636
1114.31654216
1112.02422825
1109.71411887
1107.39172482
1105.06404079
1102.73922141
1100.42619485
1098.13426176
1095.87274719
1093.65071021
1091.47673898
1089.35880893
1087.3042054
1085.31948408
1083.41041727
1081.5816847
1079.83669245
1078.17867431
1076.60650105
1075.11986181
1073.71405617
1072.37920541
1071.10005564
1069.87110549
1068.70854605
1067.62647475
1066.63685998
1065.74642947
1064.93744567
1064.20290753
1063.55122613
1062.96588723
1062.42349261
1061.90892905
1061.41345697
1060.93269837
1060.46500239
1060.01028648
1059.56927307
1059.1430256
1058.73267745
1058.3392897
1057.96377809
1057.60688608
1057.2691756
1056.95103372
1056.65268058
1056.37418589
1056.11548327
1055.87639414
1055.65665062
1055.45592969
1055.27388533
1055.1101824
1054.96451234
1054.83659386
1054.72615208
1054.63289312
1054.55647537
1054.49649142
1054.45245457
1054.42379624
1054.40986436
1054.40992768
1054.42317724
1054.4487316
1054.48563917
1054.53288561
1054.58940065
1054.65407171
1054.72575601
1054.80329647
1054.88553764
1054.97135117
1055.05973582
1055.150153
1055.2427899
1055.33105164
1055.32219776
1055.2784497
1055.29908199
1137.29698406
1136.98349933
1136.69509988
1136.2902553
1135.47671402
1134.36063332
1133.14785414
1131.86359652
1130.47952565
1128.87010815
1126.87037845
1124.69167169
1122.38117429
1120.02505431
1117.64669365
1115.25078404
1112.83926822
1110.41525323
1107.98374259
1105.55148385
1103.12658825
1100.71807296
1098.33543411
1095.98825672
1093.68590626
1091.43728569
1089.25067026
1087.13359895
1085.09281687
1083.13416388
1081.26213242
1079.48017475
1077.79056321
1076.19179876
1074.68295958
1073.25630352
1071.90078665
1070.60165565
1069.35524832
1068.18155844
1067.09567583
1066.11007355
1065.22860173
1064.43015175
1063.71184524
1063.08194612
1062.51880713
1061.99714981
1061.50089583
1061.02094573
1060.55292098
1060.09537037
1059.64849862
1059.21334462
1058.79127668
1058.38370957
1057.99195066
1057.61713181
1057.26018024
1056.92181886
1056.6025729
1056.30278778
1056.0226448
1055.76218392
1055.52132394
1055.29988954
1055.09763577
1054.91427739
1054.7495094
1054.60302362
1054.47450818
1054.363641
1054.27007185
1054.19340822
1054.13319929
1054.08892919
1054.06001026
1054.04578381
1054.04551861
1054.0584138
1054.08359824
1054.12013329
1054.16701275
1054.22316624
1054.287459
1054.35868906
1054.43556713
1054.51666579
1054.60030588
1054.68431083
1054.76551635
1054.83760271
1054.87798718
1054.76589565
1054.87085558
1054.9289541
1139.04164709
1138.70491647
1138.50354821
1138.19526594
1137.41956978
1136.29942636
1135.10373013
1133.86656481
1132.52938855
1130.98562142
1128.65234514
1126.24026774
1123.7632916
1121.26904774
1118.76489968
1116.24973048
1113.72317302
1111.18737484
1108.64701693
1106.10890691
1103.5814339
1101.07403137
1098.59667188
1096.15944314
1093.77219706
1091.44428764
1089.18437994
1087.0003316
1084.89911687
1082.8866369
1080.96715528
1079.14426624
1077.41878751
1075.78922299
1074.25391633
1072.8012297
1071.41965167
1070.09578365
1068.82865558
1067.6419649
1066.55098567
1065.5689974
1064.6961123
1063.90698572
1063.20488762
1062.59721555
1062.05564089
1061.55342768
1061.07383905
1060.60761163
1060.15049529
1059.70131189
1059.2606004
1058.82973727
1058.41040972
1058.0043151
1057.61300922
1057.23783435
1056.87989942
1056.54007977
1056.21903409
1055.9172215
1055.63492633
1055.37227832
1055.12927927
1054.90582431
1054.70172901
1054.51674929
1054.35060309
1054.20298031
1054.07354977
1053.96195398
1053.86780367
1053.790666
1053.7300582
1053.68543906
1053.65620737
1053.64169813
1053.64118408
1053.65387339
1053.67891144
1053.71537795
1053.76228793
1053.81858768
1053.88315146
1053.95476375
1054.0320815
1054.11353977
1054.19715091
1054.28006992
1054.35757401
1054.41910471
1054.43566592
1054.33775793
1054.50632958
1054.57357388
1140.70261744
1140.34505564
1140.25197999
1140.07542707
1139.36528356
1138.25752693
1137.07830706
1135.87373927
1134.5101136
1132.83958921
1130.36380957
1127.76759898
1125.156923
1122.54600092
1119.93100169
1117.30713946
1114.67260323
1112.02909846
1109.38147768
1106.7370803
1104.10504139
1101.4956221
1098.91963674
1096.38796543
1093.91117834
1091.49924719
1089.16134896
1086.9057423
1084.73967893
1082.66908888
1080.69802657
1078.83026068
1077.06482329
1075.40002535
1073.83330659
1072.3489754
1070.93593146
1069.58277357
1068.29195735
1067.09084929
1065.99387721
1065.01533592
1064.15039198
1063.36951513
1062.68410056
1062.09885404
1061.57781685
1061.09337495
1060.62845471
1060.17383665
1059.72552434
1059.28269275
1058.84625531
1058.41795019
1057.9997887
1057.59375363
1057.20164202
1056.82500237
1056.4651141
1056.12299831
1055.79943404
1055.49498541
1055.21002423
1054.94475845
1054.69925442
1054.47346387
1054.26724413
1054.0803817
1053.91260662
1053.76360756
1053.63303556
1053.52050809
1053.42560372
1053.34786032
1053.2867678
1053.24176692
1053.21224439
1053.19753394
1053.19691341
1053.20960633
1053.23477925
1053.27154252
1053.31894734
1053.37598568
1053.44158448
1053.51459529
1053.59376326
1053.67766177
1053.76457504
1053.85228332
1053.93764808
1054.01490135
1054.07051164
1054.08425603
1054.20344186
1054.24369114
1142.21011692
1141.84500327
1141.88132497
1141.86688646
1141.25012129
1140.18109703
1139.04100009
1137.87311798
1136.44831403
1134.45905282
1131.9273976
1129.24446273
1126.54427473
1123.84406172
1121.13795745
1118.41962961
1115.68671184
1112.94120862
1110.18884594
1107.43818555
1104.69972215
1101.98508914
1099.30638454
1096.67564023
1094.10441362
1091.60349506
1089.18271306
1086.85082219
1084.61538475
1082.48228011
1080.45553785
1078.53862916
1076.72919972
1075.02494456
1073.42127924
1071.89912498
1070.44910527
1069.06227935
1067.74520423
1066.52886288
1065.42595974
1064.45022729
1063.59116853
1062.8194278
1062.15246954
1061.58860178
1061.08647296
1060.61769445
1060.16508197
1059.7196421
1059.27776065
1058.8390379
1058.40480468
1057.97717523
1057.55849138
1057.15101405
1056.75677567
1056.37751709
1056.01467909
1055.66941293
1055.34260781
1055.03491634
1054.74678662
1054.4784872
1054.23013676
1054.0017258
1053.79314243
1053.60418945
1053.43460404
1053.28406758
1053.1522168
1053.03864524
1052.94290712
1052.86451391
1052.8029354
1052.75759569
1052.72787482
1052.71310584
1052.7125771
1052.7255299
1052.7511607
1052.78861909
1052.83701089
1052.89539828
1052.96280548
1053.03821914
1053.1205908
1053.20883157
1053.30181533
1053.39842611
1053.49762152
1053.5977088
1053.69278309
1053.7729272
1053.87149228
1053.89497189
1143.49886736
1143.12832561
1143.31584421
1143.48284287
1142.98567703
1141.99407704
1140.95554674
1139.89550244
1138.44371938
1136.12266652
1133.44211141
1130.67874886
1127.91747281
1125.15665657
1122.38304422
1119.58769833
1116.76809254
1113.92739312
1111.07319234
1108.21619937
1105.36909062
1102.54554397
1099.75948538
1097.02451124
1094.353476
1091.75820787
1089.24933964
1086.83621896
1084.52671986
1082.32658676
1080.24009936
1078.26925811
1076.41144692
1074.66362318
1073.01681518
1071.45061052
1069.95825463
1068.53331448
1067.18799726
1065.95627086
1064.8484654
1063.87444718
1063.01880322
1062.25846665
1061.61202324
1061.06792045
1060.58250678
1060.12679238
1059.6837107
1059.24467903
1058.80657948
1058.36950696
1057.93523796
1057.50627538
1057.08528533
1056.67479973
1056.27706969
1055.89401624
1055.52722274
1055.17795793
1054.84720245
1054.535685
1054.24391149
1053.97219888
1053.72070023
1053.48943363
1053.27830214
1053.08711717
1052.9156123
1052.76345996
1052.63027815
1052.51564012
1052.41907525
1052.34007404
1052.27808622
1052.23252419
1052.20276082
1052.1881329
1052.1879394
1052.20144489
1052.22787866
1052.26643908
1052.316296
1052.37660061
1052.44649655
1052.52514154
1052.61173394
1052.70555646
1052.80605641
1052.91298245
1053.02650685
1053.14661875
1053.26952188
1053.38539305
1053.48148914
1053.49961281
1144.51559466
1144.11636232
1144.45489356
1144.806163
1144.4489365
1143.57600691
1142.71917749
1141.85397154
1140.39103676
1137.63656188
1134.82740675
1132.03363497
1129.26035538
1126.47919125
1123.66825752
1120.81686806
1117.9238113
1114.99502572
1112.04144684
1109.07721594
1106.1182319
1103.18104539
1100.28203584
1097.43682882
1094.6599045
1091.96435412
1089.36176261
1086.8621445
1084.47362409
1082.20178291
1080.05132744
1078.02185637
1076.11077167
1074.31425361
1072.61733241
1071.00100323
1069.46132179
1067.99452113
1066.62004721
1065.37289643
1064.26146766
1063.28905234
1062.43533749
1061.68788598
1061.06326471
1060.53755717
1060.06630557
1059.62060124
1059.18386966
1058.74814525
1058.31092386
1057.8728474
1057.43616157
1057.00375469
1056.57860924
1056.16350834
1055.76090603
1055.37288076
1055.00114235
1054.6470551
1054.31167635
1053.99579035
1053.69994744
1053.42449386
1053.1696052
1052.93530997
1052.72151686
1052.52803222
1052.35458101
1052.20081797
1052.06634215
1051.95070215
1051.85340537
1051.77391912
1051.71167671
1051.6660769
1051.63648879
1051.62225101
1051.62267649
1051.63705202
1051.66464387
1051.70469984
1051.75645945
1051.81916465
1051.89208301
1051.97453627
1052.06594693
1052.16589993
1052.27423137
1052.39115729
1052.5173111
1052.65294574
1052.79457744
1052.9310965
1053.03020764
1053.04823737
1145.18254499
1144.70631715
1145.13234793
1145.67254418
1145.46459719
1144.7538641
1144.1474472
1143.42054771
1141.58817351
1138.74193678
1135.97997784
1133.27124453
1130.56379983
1127.815981
1125.00410388
1122.1199379
1119.16679388
1116.15596436
1113.10383144
1110.02961959
1106.95372744
1103.89652737
1100.87754322
1097.9149134
1095.02506882
1092.22257398
1089.52008645
1086.9283054
1084.45543505
1082.10705091
1079.88774906
1077.79513489
1075.82580071
1073.97396829
1072.21968116
1070.54704728
1068.95503041
1067.44433258
1066.04119235
1064.77839568
1063.66462069
1062.69492101
1061.84201758
1061.10847036
1060.50649768
1059.99750747
1059.53748603
1059.09836088
1058.66446607
1058.22868248
1057.78922951
1057.34734754
1056.90575962
1056.46773451
1056.03654943
1055.6152194
1055.2063741
1054.81222911
1054.43459464
1054.07491251
1053.73429315
1053.41356084
1053.11328917
1052.83384042
1052.57539385
1052.33797769
1052.12149041
1051.92572597
1051.75038873
1051.59511241
1051.45946922
1051.34298327
1051.24513494
1051.16537027
1051.10310237
1051.05771856
1051.0285806
1051.01503086
1051.01639261
1051.03197623
1051.06108109
1051.10300443
1051.15704928
1051.222543
1051.29885985
1051.38545911
1051.48193018
1051.58805302
1051.70387323
1051.82976915
1051.96637984
1052.11379597
1052.26830116
1052.41741763
1052.52046294
1052.54017982
1145.39428081
1144.75828023
1145.13125229
1145.86867404
1145.8044558
1145.29268851
1144.98872187
1144.238798
1141.9265865
1139.36823775
1136.88559933
1134.39618631
1131.84357403
1129.18871793
1126.41403851
1123.51942786
1120.51710498
1117.42715374
1114.27402958
1111.08401485
1107.88344356
1104.69752869
1101.54963666
1098.46087561
1095.4499147
1092.53295491
1089.72380266
1087.03375558
1084.47091
1082.04121097
1079.74724757
1077.58620001
1075.55361479
1073.63884711
1071.81958724
1070.08492105
1068.43664269
1066.8813038
1065.45091434
1064.17326183
1063.05816972
1062.09078836
1061.2388873
1060.52167718
1059.94192318
1059.44718878
1058.99495446
1058.55860389
1058.12375408
1057.68433457
1057.23939313
1056.79080373
1056.34177307
1055.89593094
1055.45682794
1055.02767929
1054.61126533
1054.20990772
1053.82549486
1053.45951851
1053.11312368
1052.78715058
1052.48218078
1052.19857157
1051.9364936
1051.69595686
1051.47684044
1051.27891135
1051.10184765
1050.9452512
1050.808665
1050.69158088
1050.59345219
1050.51369779
1050.45171154
1050.40686411
1050.37851074
1050.36599226
1050.36864228
1050.38578866
1050.41676189
1050.46089983
1050.51756184
1050.58614359
1050.66610489
1050.75700172
1050.85853091
1050.97057635
1051.09325114
1051.22692549
1051.3720987
1051.52849687
1051.69209509
1051.8494766
1051.95596242
1051.97761563
1145.04119074
1144.14435997
1144.30036147
1145.16814966
1145.21249193
1144.91743657
1144.86054622
1143.89205057
1141.72149976
1139.64517223
1137.6018448
1135.45607956
1133.1459703
1130.64125563
1127.93754502
1125.04921659
1122.00262671
1118.8306796
1115.56889672
1112.25275307
1108.91599392
1105.58965494
1102.30156463
1099.07617145
1095.93457392
1092.89469257
1089.97144187
1087.17645907
1084.51763538
1082.00152077
1079.62734046
1077.39180864
1075.28955768
1073.30336247
1071.41139296
1069.61019113
1067.90362514
1066.30387311
1064.84848022
1063.55922257
1062.44199187
1061.47289518
1060.6267502
1059.93052504
1059.36986289
1058.8856905
1058.43710314
1057.99928348
1057.55939397
1057.11257447
1056.65877154
1056.20051649
1055.74148569
1055.28564754
1054.83678979
1054.39829739
1053.97306436
1053.56349102
1053.17151143
1052.79864483
1052.44604303
1052.11454415
1051.80471399
1051.5168906
1051.25121582
1051.00767046
1050.78609739
1050.58622909
1050.40770391
1050.25008735
1050.11288291
1049.99554822
1049.89750159
1049.81813427
1049.756814
1049.71289474
1049.68571861
1049.67462421
1049.67894819
1049.69803345
1049.73123216
1049.77791635
1049.83748676
1049.90939203