/*--------------------------------*- C++ -*----------------------------------*\
| =========                 |                                                 |
| \\      /  F ield         | OpenFOAM: The Open Source CFD Toolbox           |
|  \\    /   O peration     | Version:  v1906                                 |
|   \\  /    A nd           | Web:      www.OpenFOAM.com                      |
|    \\/     M anipulation  |                                                 |
\*---------------------------------------------------------------------------*/
FoamFile
{
    version     2.0;
    format      ascii;
    class       surfaceScalarField;
    location    "515";
    object      phia;
}
// * * * * * * * * * * * * * * * * * * * * * * * * * * * * * * * * * * * * * //

dimensions      [0 3 -1 0 0 0 0];
oriented        oriented;


internalField   nonuniform List<scalar> 
18240
(
0.000845396266612
-0.000845291812782
0.00173267064124
-0.000887151037818
0.00261784139313
-0.000885066416099
0.0034958209465
-0.000877852673394
0.00436371406555
-0.000867793948237
0.00521901606091
-0.000855172777741
0.00605930185685
-0.000840191946811
0.00688241746243
-0.000822984933083
0.00768622611925
-0.000803720273492
0.00846888626373
-0.000782528915642
0.00922855981629
-0.000759590771618
0.00996373090722
-0.000735040131102
0.0106728694472
-0.000709061271083
0.0113547808916
-0.000681781499507
0.0120082297316
-0.000653376965937
0.0126323146401
-0.000623956624952
0.0132260585072
-0.000593677072773
0.0137888043937
-0.000562619816311
0.0143197798825
-0.000530913473193
0.0148185099748
-0.000498606667851
0.0152843636128
-0.000465795927927
0.0157169802353
-0.000432496159236
0.0161158064129
-0.000398772338058
0.0164805330464
-0.000364609310182
0.0168106290356
-0.000330045438484
0.0171057861944
-0.000295043029492
0.0173654560475
-0.000259622075371
0.0175892995898
-0.000223732533426
0.0177767319354
-0.000187386723578
0.0179273746698
-0.00015053467364
0.0180406116156
-0.000113192977553
0.0181160392043
-7.53222213464e-05
0.0181530383398
-3.69562799508e-05
0.0181512250508
1.9162826832e-06
0.0181100358369
4.12313412675e-05
0.0180291744185
8.09624390452e-05
0.0179082117856
0.000121004439601
0.0177470277709
0.000161283608409
0.0175454227192
0.000201646829352
0.0173035525879
0.000241969100004
0.0170215472771
0.000282047455607
0.0166999401097
0.000321706700125
0.016339287174
0.00036069574685
0.0159405964467
0.000398792403266
0.0155049422444
0.00043569792341
0.0150339051543
0.000471142702437
0.0145291754552
0.000504774082603
0.0139930191873
0.000536267407461
0.0134278600806
0.000565203380446
0.0128367835312
0.000591193928316
0.0122230759153
0.00061374996938
0.0115907623447
0.000632436422554
0.0109440650888
0.000646735179629
0.0102879481942
0.000656242616951
0.00962745046812
0.00066052818139
0.0089682049543
0.000659370211902
0.00831563368221
0.00065259180109
0.0076754483832
0.000640304786425
0.00705276085871
0.000622696738609
0.00645261046066
0.000600260853327
0.00587906661972
0.000573541643533
0.0053358076844
0.000543357989137
0.00482526363939
0.000510531093109
0.00434928988911
0.000476061444351
0.00390847226295
0.000440796281981
0.00350295556272
0.000405594576568
0.00313188303767
0.000371045780829
0.00279425029
0.000337701902296
0.0024883514398
0.00030586872061
0.00221255563685
0.000275856250245
0.00196474546961
0.000247777484285
0.00174302604826
0.000221771918004
0.00154518002243
0.000197812256921
0.00136930881451
0.000175917512104
0.00121329812206
0.000155977384234
0.00107539130706
0.000137948217408
0.000953676948912
0.0001216822145
0.000846612353605
0.000107101428678
0.000752544814047
9.40365849518e-05
0.00067019226919
8.23850667478e-05
0.000598210120804
7.19526255658e-05
0.000535668463095
6.25698707403e-05
0.000481781527434
5.38589575698e-05
0.000436920406829
4.48868198209e-05
0.000400330449821
3.65657812612e-05
0.000366627951067
3.37237157778e-05
0.000334963508658
3.16442663977e-05
0.000307140810094
2.78405971064e-05
0.000279094950696
2.80307467268e-05
0.000248165175321
3.0944721054e-05
0.000216138014372
3.20163625528e-05
0.000183053440804
3.30943062787e-05
0.000145316786013
3.77386678592e-05
0.000100299644253
4.50125960954e-05
4.86067186455e-05
5.16745772036e-05
4.86003256255e-05
0.000892607585735
-0.00173778648438
0.00184039941543
-0.00183482019757
0.00278295272083
-0.00182750270683
0.00371693378912
-0.0018117110461
0.00463982922349
-0.00179057444766
0.00554913585527
-0.00176435741061
0.00644236973613
-0.00173331352594
0.00731721326319
-0.00169770773689
0.00817144514335
-0.00165784301159
0.0090030586003
-0.0016140235558
0.00981015673258
-0.00156658331214
0.0105910759464
-0.00151584297491
0.0113442584461
-0.00146214203091
0.0120683818213
-0.0014057913901
0.0127622120853
-0.00134710949497
0.013424738212
-0.0012863724809
0.0140550091961
-0.00122385440906
0.0146522728562
-0.00115977664959
0.0152158010983
-0.00109435210688
0.015745032964
-0.00102773526957
0.0162393927312
-0.000960070014051
0.0166984376683
-0.000891441410805
0.0171216736481
-0.000821926331028
0.0175087080829
-0.000751547540967
0.0178590671603
-0.000680325934255
0.01817235411
-0.000608237062289
0.0184480713321
-0.000535263733968
0.0186857836946
-0.000461354981406
0.0188849478808
-0.000386477954195
0.0190450797938
-0.000310579330424
0.0191655946298
-0.000233637012422
0.01924597936
-0.000155621973359
0.019285640352
-7.65482037327e-05
0.0192840791743
3.56055672816e-06
0.0192407526515
8.4625629663e-05
0.0191552514849
0.000166545245473
0.0190271694537
0.000249153340081
0.0188562827029
0.000332251049707
0.0186424254402
0.000415570575002
0.0183856675134
0.000498807455977
0.018086192502
0.000581589183681
0.0177444720817
0.000663508236635
0.0173611427486
0.000744092854922
0.0169371786736
0.000822839436788
0.0164737655275
0.000899180686122
0.0159724785448
0.000972515647044
0.0154351544327
0.00104217024514
0.0148640849757
0.00110742663438
0.0142618866711
0.00116747601155
0.0136317162333
0.00122145784066
0.0129771263029
0.00126841531276
0.0123022911634
0.00130736715511
0.0116118140854
0.00133728627932
0.0109109233424
0.0013572281209
0.0102051783768
0.00136634253155
0.00950058924976
0.00136404960761
0.00880319760464
0.00135004496665
0.0081191300216
0.00132445472442
0.00745411533104
0.00128776261412
0.00681354608686
0.00124090198699
0.0062020138801
0.00118511324638
0.00562341427685
0.00112201723137
0.00508050225676
0.00105347077031
0.0045750906139
0.000981521144005
0.00410781832809
0.000908086703182
0.0036785702562
0.000834881996338
0.00328640451409
0.000763223138119
0.00293000459711
0.000694134344493
0.00260756573695
0.000628313833312
0.00231715487063
0.000566292760594
0.00205655522459
0.000508378247634
0.00182358606203
0.000454760788751
0.00161594581877
0.000405450209094
0.00143148757605
0.000360391753147
0.00126803945399
0.000319421687794
0.00112363103663
0.000282370181436
0.000996309391728
0.000248999060974
0.000884343728004
0.000219078195117
0.000786049800496
0.00019232462408
0.000699966933485
0.000168476597349
0.000624677633488
0.00014723499461
0.0005589289336
0.000128324355326
0.000501347424544
0.000111433076322
0.000449989643707
9.62489916803e-05
0.000403130071409
8.34195371445e-05
0.000361481714327
7.53742728512e-05
0.000327471043846
6.56496656047e-05
0.000298848411323
5.6465963121e-05
0.000272105918327
5.47708420201e-05
0.000244619381948
5.84328286002e-05
0.000213848302265
6.27872584292e-05
0.000180706087056
6.62399422248e-05
0.000144846612095
7.35952672193e-05
0.000102531239366
8.73232748199e-05
5.03694577574e-05
0.000103825219465
9.89591100751e-05
0.000900823034271
-0.00263849474475
0.00185429109947
-0.00278816737836
0.00280356731435
-0.00277665845666
0.00374433325994
-0.00275235588643
0.00467384975897
-0.0027199720689
0.00558951482431
-0.00267990268539
0.00648881965852
-0.00263250158011
0.00736940150468
-0.00257817175782
0.00822903604164
-0.0025173633737
0.00906568103977
-0.00245055327713
0.00987745224161
-0.00237824343924
0.0106626614906
-0.00230093996553
0.011419779914
-0.00221915283019
0.0121474717075
-0.00213337430596
0.0128445465347
-0.0020440804245
0.0135099894433
-0.00195171013824
0.0141429044606
-0.00185666938628
0.0147425416512
-0.00175931236309
0.0153082346488
-0.00165994898789
0.0158394265673
-0.00155882951871
0.0163356047355
-0.00145615591249
0.016796327664
-0.00135207041371
0.0172211604574
-0.00124667056225
0.0176097049137
-0.00114000163899
0.0179615385018
-0.00103207439404
0.0182762490695
-0.000922860576351
0.0185533794762
-0.000812312128418
0.0187924676369
-0.000700359045289
0.0189929981096
-0.000586929116805
0.0191544479702
-0.000471947660672
0.0192762463957
-0.000355358426468
0.0193578262903
-0.000237122490001
0.0193985928712
-0.000117239630798
0.0193979818494
4.24921677148e-06
0.0193554367041
0.000127244473039
0.0192704725655
0.000251585714504
0.0191426611288
0.000377037486216
0.0189716981149
0.00050328959076
0.0187573926979
0.00062994824992
0.0184997351351
0.000756540411945
0.018198886361
0.000882510525983
0.0178552424701
0.00100722827434
0.0174694209924
0.00112998810344
0.017042321784
0.00125001657119
0.0165751101351
0.00136646826357
0.0160692793495
0.00147842710909
0.0155266362986
0.00158489204722
0.014949376562
0.00168477034636
0.0143400801082
0.00177685408619
0.0137018076064
0.0018598171189
0.0130381038484
0.00193220231631
0.0123531033058
0.00199245553316
0.0116515074004
0.00203896453948
0.010938646929
0.00207017440146
0.0102203606459
0.00208470688045
0.00950293930195
0.00208155113536
0.00879285656198
0.00206019817109
0.00809660324005
0.00202077965269
0.0074203591681
0.00196406714998
0.00676983673931
0.00189148491565
0.00615000900215
0.00180498961522
0.00556500056544
0.00170707297791
0.00501774650737
0.00160076059046
0.00450994237371
0.00148936111099
0.0040420347957
0.00137602013651
0.003613530521
0.001263414912
0.00322320172582
0.00115357175358
0.00286940953511
0.00104794969643
0.00255017402316
0.000947563699458
0.00226333550605
0.000853147633115
0.002006554757
0.000765167350377
0.00177746934908
0.000683857123573
0.00157370693604
0.00060921725348
0.00139300752214
0.000541099450389
0.00123318567163
0.000479246783281
0.00109219974672
0.000423362851062
0.000968100776851
0.000373100012215
0.000859103492587
0.000328080318275
0.000763540424811
0.000287887911165
0.000679911922691
0.000252107766723
0.000606822697885
0.000220322593909
0.000542992713199
0.00019215471562
0.000487139089469
0.000167283280414
0.000437801895571
0.000145586478979
0.000394073128829
0.000127145023196
0.000355308269398
0.000114137731417
0.000318520215539
0.000102433759262
0.000283470504505
9.15139670308e-05
0.000254909594265
8.332946981e-05
0.000231461607594
8.18795580337e-05
0.000201015397783
9.32298369062e-05
0.000164321380574
0.000102933943543
0.000126048888966
0.000111870969112
8.40640652528e-05
0.000129298133604
4.28268585072e-05
0.000145045653161
0.000141780825357
0.0009092654867
-0.00354764445185
0.00187074229587
-0.00374952162022
0.00282811839238
-0.0037339129898
0.00377685014313
-0.00370096598229
0.00471407643795
-0.00365707802945
0.00563710612377
-0.00360281240638
0.00654337564952
-0.00353865271199
0.00743047347913
-0.00346515181301
0.00829614923413
-0.0033829232904
0.00913833431379
-0.00329262332558
0.00995514131661
-0.00319493766279
0.0107448767145
-0.00309056353681
0.0115060304798
-0.00298019727911
0.012237281222
-0.00286451677552
0.012937476988
-0.00274417060485
0.0136056336839
-0.00261976234886
0.0142409085771
-0.00249184260062
0.0148425935376
-0.00236089675279
0.0154100836016
-0.00222734132799
0.0159428674426
-0.00209151671722
0.0164404941652
-0.00195368882349
0.0169025640236
-0.00181404746513
0.0173286968329
-0.00167271330431
0.0177185257682
-0.00152974140033
0.0180716701569
-0.0013851322085
0.0183877342795
-0.00123883886294
0.0186662861739
-0.00109078058852
0.018906862321
-0.00094085232086
0.019108953289
-0.000788939393508
0.0192720148381
-0.00063492888723
0.0193954611504
-0.000478726355394
0.0194786826706
-0.000320265808865
0.0195210480424
-0.000159528506911
0.0195219300517
3.44371348127e-06
0.0194807161952
0.00016853337332
0.0193968421968
0.000335534970573
0.01926981031
0.000504143427035
0.0190992281536
0.00067394628221
0.0188848311513
0.000844418914843
0.0186265222105
0.00101492385548
0.0183243928655
0.0011847139026
0.0179787585902
0.00135293788368
0.0175901738533
0.00151864816708
0.0171594606845
0.00168080684462
0.0166877179716
0.00183828849661
0.0161763484825
0.00198987631284
0.0156270718495
0.00213424908501
0.0150419650224
0.00226995989704
0.0144234959691
0.00239540628628
0.0137745953605
0.00250880295677
0.0130987202071
0.002608162122
0.0123999524883
0.00269130902054
0.0116830601269
0.00275594051933
0.0109535541726
0.00279976352241
0.0102176396009
0.00282070062659
0.00948210050544
0.00281716729873
0.00875403696597
0.0027883330443
0.00804057184404
0.00273431327593
0.00734852686373
0.00265617313474
0.00668415667214
0.00255591277279
0.00605297263062
0.00243622168987
0.00545958985576
0.00230049880354
0.00490720023896
0.00215318448408
0.00439734817295
0.00199924374675
0.00393004008488
0.00184335394378
0.00350416633557
0.00168931317146
0.00311794951337
0.00153981035876
0.00276930831961
0.00139661088274
0.00245597145356
0.00126091673526
0.00217550722706
0.00113362467251
0.00192534510371
0.00101533873876
0.00170289198079
0.000906317662138
0.00150562545614
0.000806489419041
0.00133117302538
0.00071555789692
0.00117730386764
0.000633120726668
0.00104192418583
0.000558747740129
0.000923056535415
0.000491971113701
0.000818879043904
0.000432261249075
0.000727724486195
0.000379043999337
0.000648092594129
0.000331740790099
0.000578629371455
0.000289785338894
0.000518117169731
0.000252665735008
0.000465414136218
0.000219984508303
0.000419000694797
0.000191998031751
0.000378339170286
0.000167804711969
0.000339352014188
0.000153121192528
0.000302358840283
0.000139422089421
0.00026929946234
0.000124568965528
0.000235947011634
0.000116676552046
0.00020169905993
0.000116121833232
0.000175872476368
0.000119053881601
0.000140934910399
0.000137870246098
0.000100284405503
0.000152514145617
6.5909537822e-05
0.000163667946114
3.4032798746e-05
0.000176912709814
0.00017580323182
0.00092018573067
-0.00446771319409
0.00189281698952
-0.00472203060791
0.00286119732396
-0.00470217010136
0.00382065857978
-0.00466030485381
0.00476823581504
-0.004604533576
0.00570114270812
-0.00453559853337
0.00661674074258
-0.004454131118
0.00751255709743
-0.00436084969406
0.00838629905721
-0.00425654823001
0.00923586795122
-0.00414207662127
0.0100593651967
-0.00401832102087
0.0108550974811
-0.00388618356934
0.0116215734957
-0.00374656294003
0.0123575002545
-0.00360033497712
0.0130617710329
-0.00344833485862
0.0137334536046
-0.00329134028765
0.0143717706457
-0.00313005711188
0.0149760815872
-0.00296510710058
0.0155458578446
-0.00279701911469
0.0160806611599
-0.00262622347682
0.0165801171149
-0.00245305030168
0.0170438936979
-0.00227773141515
0.0174716769607
-0.00210040591939
0.0178631533134
-0.00192112881597
0.0182179902983
-0.00173988209044
0.0185358247563
-0.00155658775623
0.0188162501023
-0.00137112201815
0.0190588110088
-0.00118333063664
0.0192629974947
-0.000993044719213
0.0194282463811
-0.000800097718491
0.0195539428511
-0.000604343985707
0.0196394292905
-0.000405674287104
0.019684015672
-0.000204037920685
0.0196869977858
5.37910120617e-07
0.0196476771687
0.000207929528961
0.0195653888135
0.000417898453886
0.0194395300202
0.000630076838031
0.0192695951877
0.000843955615764
0.0190552094259
0.00105887899127
0.0187961645962
0.00127404325578
0.0184924504006
0.00148850289
0.0181442837999
0.00170117994654
0.0177521301974
0.00191087787972
0.0173167210787
0.00211629314853
0.0168390642098
0.0023160236133
0.0163204546507
0.00250856551738
0.0157624869008
0.00269229774789
0.0151670811048
0.00286544809611
0.0145365262242
0.00302604472546
0.0138735549532
0.0031718587986
0.0131814477668
0.00330035439864
0.0124641701252
0.00340867169499
0.0117265141414
0.00349368066835
0.0109742154537
0.00355214440869
0.0102139708013
0.00358102496281
0.00945330216715
0.00357791110848
0.00870022836886
0.00354147881502
0.00796281003267
0.00347179769961
0.00724877881919
0.0033702665577
0.00656511293978
0.00323963294179
0.00591807381661
0.00308330915794
0.00531319536283
0.00290541490516
0.00475414100725
0.00271227094678
0.00424219385152
0.00251121727958
0.00377654213545
0.00230902914521
0.00335503224526
0.00211084699805
0.00297499530771
0.00191986802069
0.00263377773887
0.00173784912687
0.00232877527414
0.00156593397517
0.00205725345906
0.0014051584428
0.00181630279302
0.00125629639516
0.00160300822408
0.00111961827468
0.00141462300477
0.000994879157748
0.00124865920515
0.000881526976894
0.00110284637937
0.000778938502648
0.000975051032105
0.000686547530337
0.00086324232336
0.000603783565691
0.000765555655908
0.000529950762182
0.000680318269533
0.000464282991921
0.000606046000472
0.000406013612795
0.000541447275992
0.000354383437413
0.000485453001402
0.000308658656107
0.000437285084177
0.00026814970779
0.000396640674404
0.000232640708624
0.000359736711191
0.000204705611471
0.000323901521756
0.000188952267227
0.000287708923213
0.000175608888204
0.00024663819298
0.00016563223015
0.000208478885827
0.000154828420668
0.000173073697744
0.000151520445531
0.000143880513177
0.000148240155947
0.000118337402394
0.000163410273183
8.33936258814e-05
0.000187459818978
5.12717653319e-05
0.000195778664095
2.58486131633e-05
0.000202319734768
0.000201647952363
0.00093389098219
-0.00540148606563
0.0019208035786
-0.0057088181486
0.00290321469969
-0.0056844570859
0.00387631605721
-0.00563328228761
0.0048370231741
-0.00556511782177
0.00578243998871
-0.00548089331836
0.00670983429811
-0.00538140461258
0.00761665760841
-0.00526755338389
0.00850056142707
-0.00514033394447
0.0093594106079
-0.00500080916774
0.0101912905683
-0.00485008613248
0.0109945110448
-0.00468929088019
0.0117676034096
-0.00451954413473
0.0125093147332
-0.00434193696217
0.0132185954795
-0.00415750840113
0.0138945844682
-0.00396722399769
0.0145365880343
-0.0037719576129
0.0151440575381
-0.00357247549733
0.0157165624537
-0.0033694251466
0.0162537636989
-0.00316332777476
0.0167553847572
-0.00295457658567
0.0172211854184
-0.00274343915611
0.0176509356876
-0.00253006532483
0.018044394274
-0.00231449825906
0.0184012888057
-0.00209668936726
0.0187213013587
-0.00187651459257
0.0190040560457
-0.00165379266256
0.0192491116221
-0.00142830349802
0.0194559560184
-0.00119980783852
0.0196240056801
-0.000968067204575
0.019752607496
-0.000732866823365
0.0198410456939
-0.000494034385253
0.0198885531467
-0.000251468231415
0.0198943289403
-5.16138703343e-06
0.0198575608663
0.000244773392612
0.01977745475
0.000498079971507
0.0196532682015
0.000754338360863
0.0194843493896
0.00101294932722
0.0192701771926
0.00127312599362
0.0190104019604
0.00153389358811
0.0187048820929
0.00179409812458
0.0183537152319
0.00205242284512
0.0179572594953
0.00230741027834
0.0175161453824
0.00255748492765
0.0170312770775
0.00280097053759
0.0165038287789
0.00303609367226
0.0159352417923
0.00326096582072
0.0153272350003
0.00347353731534
0.014681842647
0.00367152078709
0.0140014967426
0.00385228977944
0.0132891673681
0.00401276904495
0.0125485698711
0.00414935560796
0.0117844139082
0.00425792080187
0.0110026544392
0.00433398801854
0.0102106168554
0.00437314124685
0.00941688269435
0.00437172262034
0.0086308063595
0.00432762537848
0.00786177362583
0.00424089921455
0.00711878063888
0.00411331892974
0.00640957953135
0.00394889085495
0.00574132156944
0.00375161033154
0.00512138313675
0.00352538978701
0.00455434478592
0.00327933638614
0.00404099736111
0.00302458790434
0.00357902066284
0.00277102887348
0.00316444537069
0.00252544451677
0.00279321763386
0.00229111943022
0.00246203116818
0.00206905455743
0.00216809858656
0.00185988303893
0.0019084052839
0.00166486034593
0.0016795634322
0.0014851451539
0.00147816619721
0.00132101904979
0.00130116131713
0.0011718881855
0.00114596912224
0.00103672390346
0.0010103486332
0.000914563377707
0.000892158079827
0.000804742544494
0.000789268070842
0.000706676612109
0.000699744728332
0.000619476861384
0.000621906567485
0.000542122449426
0.000554277590199
0.000473642326323
0.000495588407825
0.000413071475725
0.000444805443976
0.000359439312634
0.000401129495416
0.00031182247573
0.000363885406075
0.000269881673175
0.000326767786357
0.000241819700706
0.000290233229952
0.000225482432152
0.000256684215619
0.00020915084773
0.00022552443757
0.000196784159781
0.000189520215402
0.00019082325314
0.000152447016213
0.000188584356587
0.000114743327837
0.000185939559307
8.96820555834e-05
0.000188467930304
6.86534519058e-05
0.000208478256159
4.19651721375e-05
0.000222461046995
2.08717481095e-05
0.000223405502265
0.000222510621715
0.000950591484478
-0.00635195777379
0.00195498743035
-0.00671308906243
0.00295456695252
-0.00668391039508
0.00394433524454
-0.00662292540571
0.00492106098717
-0.00654171903799
0.00588171449801
-0.00644142342459
0.00682344952974
-0.00632301735855
0.00774362505059
-0.00618760800949
0.00863982412083
-0.00603641356266
0.00950986726509
-0.00587073455305
0.010351820784
-0.00569192359067
0.0111639993712
-0.00550135534572
0.0119449637148
-0.00530039623981
0.0126935123486
-0.00509037547489
0.0134086686885
-0.00487255662674
0.0140896624428
-0.00464811186211
0.014735906796
-0.004418098143
0.0153469708529
-0.00418343799602
0.0159225494732
-0.00394490427618
0.0164624305185
-0.00370311156424
0.016966462292
-0.00345851310717
0.0174345214517
-0.00321140520362
0.0178664841855
-0.00296193682917
0.0182622004392
-0.00271012526394
0.018621473165
-0.00245587455079
0.018944041374
-0.0021989970322
0.0192295679786
-0.00193923499075
0.019477630625
-0.00167628339776
0.0196877163612
-0.0014098120827
0.0198592188278
-0.00113948945389
0.0199914397566
-0.000865008553009
0.0200835935983
-0.000586110044294
0.0201348188792
-0.000302616100875
0.0201441950929
-1.44609374678e-05
0.0201107674456
0.000278277192159
0.0200335787237
0.000575344394613
0.0199117087828
0.000876283786068
0.019744319531
0.00118041394416
0.0195307037752
0.00148681722307
0.0192703339373
0.00179433912641
0.0189629068183
0.00210160136317
0.0186083792818
0.00240702702349
0.0182069905407
0.00270887635071
0.0177592676369
0.00300528591103
0.0172660138084
0.00329430338614
0.0167282829592
0.00357390454421
0.0161473500713
0.00384198004844
0.0155246921797
0.00409627809327
0.01486200391
0.00433429348225
0.0141612748304
0.00455310442095
0.0134249643416
0.00474916743696
0.0126562929336
0.00491811350434
0.0118596658552
0.00505463697537
0.011041142447
0.00515259430106
0.0102088216248
0.00520554689918
0.00937278966538
0.00520782931114
0.00854441793708
0.00515607301894
0.00773488615615
0.00505049635081
0.00695510113697
0.00489316849673
0.00621311837232
0.00469092596756
0.00551670398577
0.00444806891477
0.00487731621363
0.00416480769717
0.00430141791399
0.00385525868595
0.00378875839116
0.0035372687388
0.00333416996337
0.0032256382653
0.00293043758855
0.00292920226331
0.00257132182626
0.00265025784893
0.00225302882481
0.00238736973104
0.00197319159281
0.00213973382175
0.00172867922807
0.00190938264329
0.00151530875295
0.00169851927933
0.00132885573177
0.00150747527327
0.00116583728475
0.00133490965401
0.00102369305845
0.00117887172368
0.00090041396679
0.00103784684642
0.000793926589842
0.000911231626291
0.000701881820904
0.000798724187572
0.000622207961692
0.000699152178382
0.000553244109106
0.000611086743085
0.000493525308231
0.000533359722557
0.000441780458921
0.000464813784064
0.000397013979318
0.00040420176899
0.000358446740917
0.00035038505543
0.000325585316289
0.00030273805782
0.00029102530836
0.000276375179669
0.000258947346519
0.000257554202652
0.000224858304122
0.000243232615077
0.000191808966325
0.000229824258435
0.000158035579496
0.000224586793352
0.000128484072935
0.000218126429528
9.62851718675e-05
0.000218128350859
6.68965859075e-05
0.00021784995703
5.21956654863e-05
0.000223179160289
3.32844097444e-05
0.000241360805666
1.64563833139e-05
0.000240219342011
0.000238964633178
0.000970478347289
-0.00732231488979
0.00199571697787
-0.00773819913948
0.00301575343634
-0.00770381939271
0.0040253612878
-0.0076324060249
0.00502112616813
-0.0075373578349
0.0059998568627
-0.00742002898311
0.00695856895953
-0.0072816056373
0.00789451051868
-0.00712342709081
0.00880518232448
-0.00694696453184
0.00968835269413
-0.00675378572932
0.010542065623
-0.00654551925717
0.0113646436683
-0.00632381800079
0.0121546842874
-0.00609032361876
0.0129110510415
-0.00584663101835
0.0136328580613
-0.00559425472859
0.0143194493659
-0.00533459637011
0.014970371562
-0.00506891590605
0.0155853422213
-0.00479830636885
0.0161642132343
-0.00452367536223
0.0167069324967
-0.00424573300651
0.0172135041125
-0.00396498918723
0.0176839510569
-0.00368175861337
0.0181182805324
-0.00339617490887
0.0185164552571
-0.00310821042952
0.0188783697166
-0.00281770138673
0.0192038328766
-0.00252437419147
0.0194925549385
-0.0022278727398
0.0197441385055
-0.001927784031
0.0199580717778
-0.00162366383668
0.02013372481
-0.00131506208847
0.0202703482707
-0.00100155275488
0.0203670762192
-0.000682759591085
0.0204229351522
-0.000358397480721
0.0204368607252
-2.83095296998e-05
0.0204077232662
0.000307491091514
0.0203343637618
0.000648780077462
0.0202156393432
0.000995084167642
0.0200504778437
0.00134565147828
0.0198379377172
0.00169943348072
0.0195772698914
0.00205508345035
0.0192679744139
0.00241097366975
0.0189098459273
0.0027652329068
0.0185029990108
0.00311580115108
0.0180478684982
0.00346049496683
0.017545180082
0.00379707115257
0.0169958944536
0.00412327049866
0.0164011347377
0.00443682202612
0.0157621150777
0.00473538083555
0.0150801076241
0.00501638727359
0.0143564823241
0.00527681783313
0.0135928915908
0.00551284697971
0.0127916630921
0.00571943560446
0.0119564392229
0.00588994791876
0.0110930786805
0.00601604823551
0.0102105105081
0.00608819596542
0.00932105336665
0.00609737048406
0.00843927618096
0.00603792322623
0.00757866489992
0.00591118188514
0.00675366133181
0.0057182350549
0.00597063358566
0.00547400926681
0.00523579823089
0.00518294442167
0.00457088880984
0.00482974261999
0.00398613782407
0.0044400304026
0.00347886392015
0.00404455829235
0.00303839695582
0.00366612696507
0.00265149986199
0.00331612165226
0.00230839225119
0.00299338946589
0.00200559618098
0.00269018397572
0.00174303220294
0.00240231231507
0.00151777242619
0.00213464617861
0.00132400912975
0.00189228607907
0.00115597041708
0.00167551285029
0.00100956647713
0.00148131411738
0.00088257116288
0.00130586659114
0.000773719577932
0.0011466964168
0.000681199979964
0.00100375060813
0.000602055873344
0.000877866368226
0.000533920295651
0.000767288283293
0.000475294179254
0.000669711067352
0.000424748461294
0.000583902218665
0.000380944462648
0.000508612472876
0.000342932649679
0.000442207570463
0.000309797150319
0.000383512771834
0.000280401496601
0.000332126280539
0.000250327941097
0.000306441066363
0.00022206753211
0.000285806332901
0.0001927611345
0.000272529724962
0.000160133830481
0.000262441079762
0.000129857155485
0.000254851699662
9.91255395142e-05
0.00024884654453
7.71471321853e-05
0.000240098713663
5.40147388443e-05
0.000240975385191
3.68444188835e-05
0.000240336994045
2.59001340237e-05
0.000252300299623
1.23954071928e-05
0.000253718662381
0.000251352206939
0.000993767026347
-0.00831595851591
0.00204341118022
-0.00878771454663
0.0030873893421
-0.00874766749218
0.00412018879941
-0.00866507659425
0.00513817440656
-0.00855521526508
0.00613795979955
-0.00841968745743
0.00711639601968
-0.00825991617784
0.00807059928616
-0.00807750623608
0.00899797379511
-0.0078742165148
0.00989622684895
-0.00765191814809
0.0107633777905
-0.00741255143225
0.0115977599607
-0.00715808356295
0.0123980170484
-0.00689046616216
0.0131630923486
-0.00661159412032
0.0138922121029
-0.0063232644715
0.0145848609634
-0.00602713767268
0.0152407512136
-0.00572470083784
0.015859784359
-0.00541723667807
0.0164420081383
-0.00510579852836
0.0169875690014
-0.00479119568815
0.0174966646963
-0.00447398883675
0.0179694980252
-0.00415449820314
0.0184062366257
-0.00383282175322
0.0188069789438
-0.0035088631035
0.0191717292252
-0.00318236379644
0.0195003790752
-0.00285293803422
0.0197926957128
-0.00252010489143
0.0200483128687
-0.00218331828151
0.0202667241972
-0.00184199350295
0.0204472767882
-0.00149553429584
0.0205891672051
-0.00114336374706
0.0206914396024
-0.000784953527199
0.0207529918729
-0.000419871940401
0.02077258969
-4.78301615881e-05
0.0207488930007
0.000331264641008
0.0206804953228
0.000717254345529
0.020565977476
0.00110967860932
0.0204039736785
0.00150773193611
0.0201932477749
0.00191023631333
0.0199327733814
0.00231563508547
0.0196218102313
0.00272201445135
0.0192599659961
0.00312715520241
0.0188472313508
0.00352861418766
0.0183839775727
0.00392382786576
0.0178709066882
0.00431022175875
0.0173089557628
0.00468530317702
0.0166991585258
0.00504670149132
0.0160424967694
0.00539212957661
0.0153397616222
0.00571920947086
0.0145915121384
0.00602515871676
0.0137981982538
0.00630625559391
0.0129606051516
0.00655712121018
0.0120807966708
0.00676985642123
0.011163626043
0.00693330784324
0.0102187210309
0.00703319533535
0.00926174920128
0.00705442680326
0.00831299450918
0.00698676427467
0.00738794491371
0.00683630758404
0.00651022314731
0.00659602417454
0.00567790019262
0.00630638846901
0.00488651042109
0.00597436541122
0.00418646692417
0.00552980975858
0.00359482804756
0.00503167588351
0.00310268090194
0.00453672153004
0.00268860677621
0.00408021280409
0.00232790783867
0.00367684339808
0.00200465438619
0.00331665487672
0.00171816433177
0.00297669481427
0.00147584230449
0.00264463257963
0.00127533438593
0.00233516161263
0.00110672918988
0.00206088321067
0.000961180350946
0.00182106047837
0.000833769208562
0.00160871536642
0.000723412640034
0.00141621783367
0.000630846124598
0.00123925621409
0.000554982075151
0.00107960803668
0.000491094640361
0.000941752639462
0.00043609632533
0.000822284242471
0.000389232002298
0.000716574878992
0.00034917001091
0.000623960232203
0.000314291088562
0.000543484859845
0.000283864660886
0.000472624333499
0.000256968245053
0.000410398403682
0.000229685615385
0.000359397899649
0.00020354281117