/*--------------------------------*- C++ -*----------------------------------*\
| =========                 |                                                 |
| \\      /  F ield         | OpenFOAM: The Open Source CFD Toolbox           |
|  \\    /   O peration     | Version:  v1906                                 |
|   \\  /    A nd           | Web:      www.OpenFOAM.com                      |
|    \\/     M anipulation  |                                                 |
\*---------------------------------------------------------------------------*/
FoamFile
{
    version     2.0;
    format      ascii;
    class       volVectorField;
    location    "769";
    object      U;
}
// * * * * * * * * * * * * * * * * * * * * * * * * * * * * * * * * * * * * * //

dimensions      [0 1 -1 0 0 0 0];


internalField   nonuniform List<vector> 
9216
(
(0.00271003493987 -0.00271238747646 0)
(0.00285735041852 -0.00875332974645 1.17165994651e-27)
(0.00284919897831 -0.014888344828 1.84099710496e-31)
(0.00281192189058 -0.0210237607239 0)
(0.00276017255984 -0.027056381546 0)
(0.00269540807114 -0.0329619448836 0)
(0.00261931806587 -0.0387146117653 0)
(0.00253324145584 -0.044291404789 0)
(0.00243848398446 -0.0496721336367 0)
(0.00233631208298 -0.0548393916892 0)
(0.00222799607945 -0.0597785144657 0)
(0.0021147344435 -0.0644775221162 0)
(0.00199769034723 -0.0689269926085 0)
(0.00187791436318 -0.0731199090708 0)
(0.00175639543164 -0.0770514614728 0)
(0.00163399034926 -0.080718841239 0)
(0.00151148827511 -0.0841210184765 0)
(0.00138954643252 -0.087258528038 0)
(0.00126876321663 -0.0901332602005 0)
(0.00114961791068 -0.0927482681395 0)
(0.00103254716716 -0.0951075933831 0)
(0.000917886808532 -0.0972161084741 0)
(0.000805947356335 -0.099079384034 0)
(0.000696957018095 -0.100703568168 0)
(0.000591133265218 -0.102095291779 0)
(0.000488627099289 -0.1032615788 0)
(0.000389588901104 -0.104209781627 0)
(0.000294114910401 -0.104947513765 0)
(0.000202306748956 -0.105482606417 0)
(0.000114222557286 -0.105823057265 0)
(2.99323430848e-05 -0.105976987924 0)
(-5.05486666387e-05 -0.105952668898 0)
(-0.000127209625559 -0.105758340524 0)
(-0.000200053316179 -0.105402263009 0)
(-0.000269072981814 -0.104892727148 0)
(-0.000334295804509 -0.1042379833 0)
(-0.000395748142722 -0.103446228912 0)
(-0.000453481654576 -0.102525570333 0)
(-0.000507547755481 -0.101484007708 0)
(-0.000558018040038 -0.100329401744 0)
(-0.000604965327667 -0.0990694619967 0)
(-0.000648477672244 -0.0977117178638 0)
(-0.000688645478946 -0.096263510361 0)
(-0.000725569447182 -0.0947319680188 0)
(-0.000759353388105 -0.0931240023364 0)
(-0.000790106605897 -0.0914462890129 0)
(-0.000817941945943 -0.0897052671222 0)
(-0.000842973278701 -0.0879071258293 0)
(-0.000865318268523 -0.0860578069949 0)
(-0.00088509163853 -0.0841629971268 0)
(-0.000902412045769 -0.0822281328892 0)
(-0.000917391901871 -0.0802583977599 0)
(-0.000930147729276 -0.078258729652 0)
(-0.00094078726784 -0.0762338214336 0)
(-0.000949422614307 -0.0741881297224 0)
(-0.00095615538839 -0.0721258782638 0)
(-0.000961091975249 -0.0700510668534 0)
(-0.000964327426436 -0.0679674764425 0)
(-0.000965962083969 -0.0658786771913 0)
(-0.000966084882634 -0.0637880342387 0)
(-0.000964790680638 -0.0616987140335 0)
(-0.00096216349637 -0.0596136898448 0)
(-0.000958293873362 -0.0575357458125 0)
(-0.000953262548016 -0.0554674815882 0)
(-0.000947157265955 -0.053411313892 0)
(-0.000940057244609 -0.0513694799906 0)
(-0.000932048918043 -0.0493440369436 0)
(-0.000923211523021 -0.047336863999 0)
(-0.000913631380969 -0.0453496600276 0)
(-0.000903388825783 -0.0433839451666 0)
(-0.000892570731541 -0.0414410571876 0)
(-0.000881258971201 -0.0395221529167 0)
(-0.000869541038697 -0.0376282043611 0)
(-0.000857500133683 -0.0357600004543 0)
(-0.000845223824216 -0.0339181437573 0)
(-0.000832795817587 -0.0321030530491 0)
(-0.000820302718219 -0.0303149612719 0)
(-0.000807827456264 -0.0285539193396 0)
(-0.000795454259329 -0.0268197958491 0)
(-0.000783263663908 -0.0251122823621 0)
(-0.000771335875489 -0.0234308952217 0)
(-0.000759747195258 -0.0217749824502 0)
(-0.000748571937824 -0.0201437279652 0)
(-0.000737879988558 -0.0185361603545 0)
(-0.00072773729975 -0.016951160083 0)
(-0.000718203833095 -0.0153874712945 0)
(-0.000709331686967 -0.0138437147134 0)
(-0.000701160224016 -0.0123184087203 0)
(-0.0006937044338 -0.0108100028612 0)
(-0.000686926432776 -0.00931694580259 0)
(-0.000680657864112 -0.00783782856129 0)
(-0.000674398275452 -0.00637177763321 0)
(-0.000666750767225 -0.0049195794013 0)
(-0.00065152686431 -0.00349311511243 0)
(-0.0006239519933 -0.00200707351724 0)
(-0.000838365386699 -0.000838207514082 0)
(0.00877342974626 -0.00288741480884 0)
(0.00970112726605 -0.00977126943598 0)
(0.00967874209675 -0.0166423114776 -1.23037890082e-27)
(0.00954930837707 -0.0235187523548 0)
(0.00937019213728 -0.0302706898704 0)
(0.00914874132179 -0.0368763699273 0)
(0.00888936197049 -0.0433083653302 0)
(0.00859625767376 -0.0495414305987 0)
(0.00827374269342 -0.0555531544172 0)
(0.00792612740769 -0.0613241886223 0)
(0.00755770915603 -0.0668382778029 0)
(0.00717259838855 -0.0720822004726 0)
(0.00677472750607 -0.0770456319879 0)
(0.00636769965033 -0.0817209558784 0)
(0.00595484408284 -0.0861030374064 0)
(0.00553909813412 -0.0901889770521 0)
(0.00512310364039 -0.0939778575409 0)
(0.0047091149399 -0.0974704934212 0)
(0.00429912163527 -0.100669195583 0)
(0.00389477155422 -0.103577550625 0)
(0.00349750465464 -0.106200226317 0)
(0.00310848145874 -0.108542795159 0)
(0.00272871608288 -0.110611587153 0)
(0.00235900441995 -0.112413557734 0)
(0.00200004865108 -0.113956183019 0)
(0.00165238318856 -0.115247364207 0)
(0.00131648684802 -0.116295355199 0)
(0.000992707575925 -0.117108692698 0)
(0.000681361514821 -0.117696144879 0)
(0.000382659718094 -0.118066655546 0)
(9.67968882732e-05 -0.118229311909 0)
(-0.000176137056397 -0.118193243381 0)
(-0.000436078502852 -0.11796772355 0)
(-0.000683025569467 -0.117562054543 0)
(-0.00091698870444 -0.116985505907 0)
(-0.00113805319809 -0.116247305738 0)
(-0.00134632304452 -0.115356613283 0)
(-0.00154196483616 -0.114322486181 0)
(-0.0017251631162 -0.113153858267 0)
(-0.00189615488321 -0.111859508898 0)
(-0.00205519412734 -0.110448043708 0)
(-0.00220257664715 -0.108927868348 0)
(-0.0023386132348 -0.107307173213 0)
(-0.00246364535802 -0.105593912423 0)
(-0.00257802656579 -0.103795793032 0)
(-0.00268212992712 -0.101920259694 0)
(-0.0027763371735 -0.0999744884647 0)
(-0.00286103894458 -0.0979653772161 0)
(-0.00293663105354 -0.0958995438173 0)
(-0.00300350869182 -0.0937833219651 0)
(-0.00306206910691 -0.0916227631803 0)
(-0.00311270095498 -0.0894236373753 0)
(-0.00315579257161 -0.0871914378314 0)
(-0.00319171765736 -0.0849313855464 0)
(-0.00322084824794 -0.0826484361126 0)
(-0.00324353785708 -0.080347286667 0)
(-0.00326013816611 -0.0780323834975 0)
(-0.00327098063753 -0.0757079303435 0)
(-0.0032763958861 -0.0733778955357 0)
(-0.00327669462371 -0.0710460204408 0)
(-0.00327218862192 -0.0687158251322 0)
(-0.00326317167558 -0.0663906159986 0)
(-0.00324994107367 -0.0640734892187 0)
(-0.00323277910356 -0.0617673368832 0)
(-0.00321197399928 -0.0594748479794 0)
(-0.00318780237247 -0.0571985128034 0)
(-0.00316054874425 -0.0549406215658 0)
(-0.0031304891937 -0.0527032672648 0)
(-0.00309790876203 -0.0504883424298 0)
(-0.00306308655268 -0.0482975409621 0)
(-0.00302631053386 -0.0461323537711 0)
(-0.00298786428652 -0.0439940702693 0)
(-0.00294803895926 -0.0418837737899 0)
(-0.00290712182842 -0.0398023434757 0)
(-0.00286540538186 -0.0377504503116 0)
(-0.00282317780276 -0.0357285600611 0)
(-0.00278072932161 -0.0337369306241 0)
(-0.00273834466596 -0.0317756165178 0)
(-0.00269630694512 -0.0298444680625 0)
(-0.00265489200496 -0.02794313772 0)
(-0.00261437015512 -0.0260710814268 0)
(-0.00257500223036 -0.0242275669508 0)
(-0.00253703942283 -0.0224116775487 0)
(-0.00250072056239 -0.0206223224384 0)
(-0.0024662699279 -0.0188582429425 0)
(-0.00243389432612 -0.0171180252437 0)
(-0.00240377688445 -0.0154001091679 0)
(-0.0023760682267 -0.0137028027293 0)
(-0.00235086429751 -0.0120242899786 0)
(-0.0023281622486 -0.0103626319002 0)
(-0.00230775168666 -0.00871571559652 0)
(-0.00228896810404 -0.00708105626849 0)
(-0.00227000742652 -0.00545494653554 0)
(-0.00224558033064 -0.00382948229408 0)
(-0.00218588204209 -0.0021811973345 0)
(-0.00200553200209 -0.000621911094503 0)
(0.0150194119095 -0.00293329088254 0)
(0.0166304349709 -0.00993206645377 0)
(0.016569767086 -0.0168933657076 -1.22833993688e-27)
(0.0163388044486 -0.0238704586332 0)
(0.0160271203714 -0.0307193840176 0)
(0.0156444863081 -0.0374168780657 0)
(0.0151974057473 -0.043934475603 0)
(0.0146928125829 -0.0502463792651 0)
(0.0141380303971 -0.0563298541084 0)
(0.0135405132201 -0.0621654151483 0)
(0.0129076536791 -0.0677368364308 0)
(0.0122465777822 -0.0730310663603 0)
(0.0115640254452 -0.0780380646267 0)
(0.0108662203643 -0.0827505821977 0)
(0.0101588290938 -0.0871639072544 0)
(0.00944690297883 -0.091275591721 0)
(0.00873490130225 -0.0950851768816 0)
(0.00802668597836 -0.0985939253968 0)
(0.00732558415265 -0.10180457305 0)
(0.00663441211681 -0.104721100278 0)
(0.00595555332389 -0.107348532371 0)
(0.00529099184245 -0.109692762759 0)
(0.00464238790871 -0.111760405464 0)
(0.00401110835126 -0.113558667458 0)
(0.00339828931461 -0.115095245846 0)
(0.00280485805102 -0.116378238801 0)
(0.00223157891092 -0.117416075297 0)
(0.00167906617148 -0.11821745208 0)
(0.00114781374079 -0.11879128371 0)
(0.000638201323351 -0.119146654422 0)
(0.00015050866435 -0.11929278143 0)
(-0.00031507140037 -0.119238973065 0)
(-0.000758428820094 -0.118994595413 0)
(-0.00117954012551 -0.118569038756 0)
(-0.00157846392101 -0.117971684186 0)
(-0.00195532796947 -0.117211870521 0)
(-0.00231033633784 -0.11629886438 0)
(-0.00264375514279 -0.11524182907 0)
(-0.00295592210255 -0.114049798419 0)
(-0.00324722643279 -0.112731648723 0)
(-0.00351812179124 -0.111296075951 0)
(-0.00376910095143 -0.10975157201 0)
(-0.00400071204085 -0.108106406296 0)
(-0.00421352867216 -0.1063686071 0)
(-0.0044081694285 -0.104545948105 0)
(-0.00458526431015 -0.102645935371 0)
(-0.00474547742964 -0.100675798954 0)
(-0.004889470722 -0.0986424854969 0)
(-0.00501792976661 -0.0965526547726 0)
(-0.00513152571627 -0.0944126775052 0)
(-0.00523094408683 -0.0922286362779 0)
(-0.00531684583905 -0.0900063278575 0)
(-0.00538989889656 -0.0877512676001 0)
(-0.00545073923433 -0.0854686952727 0)
(-0.00550000477821 -0.0831635818251 0)
(-0.00553829724153 -0.0808406374805 0)
(-0.00556621793423 -0.0785043196152 0)
(-0.00558433090352 -0.0761588418023 0)
(-0.00559320002251 -0.0738081815132 0)
(-0.00559335378747 -0.0714560888576 0)
(-0.00558532291066 -0.0691060929974 0)
(-0.00556960690098 -0.066761509566 0)
(-0.00554671127199 -0.0644254449877 0)
(-0.0055171158695 -0.0621008019326 0)
(-0.00548131078201 -0.059790281184 0)
(-0.00543976627449 -0.0574963849501 0)
(-0.00539296655773 -0.0552214163741 0)
(-0.00534138119256 -0.0529674809633 0)
(-0.00528549604698 -0.050736484262 0)
(-0.00522578609901 -0.0485301320148 0)
(-0.00516274313916 -0.046349926787 0)
(-0.00509685001814 -0.044197167673 0)
(-0.00502860490137 -0.0420729467707 0)
(-0.00495849710799 -0.0399781492807 0)
(-0.00488702793754 -0.0379134506852 0)
(-0.00481468831881 -0.0358793179739 0)
(-0.00474197638388 -0.0338760082239 0)
(-0.00466937714978 -0.031903571498 0)
(-0.00459737709407 -0.0299618512987 0)
(-0.00452644604417 -0.0280504894645 0)
(-0.00445704900991 -0.0261689287502 0)
(-0.00438963033129 -0.0243164198348 0)
(-0.00432462291793 -0.0224920260633 0)
(-0.0042624344502 -0.020694632458 0)
(-0.00420345382266 -0.018922952345 0)
(-0.00414803852921 -0.0171755377532 0)
(-0.00409651704168 -0.015450786582 0)
(-0.00404917473874 -0.0137469512001 0)
(-0.00400624845125 -0.0120621385954 0)
(-0.00396790631652 -0.0103942989347 0)
(-0.00393423601412 -0.00874117771265 0)
(-0.00390525550773 -0.00710019175768 0)
(-0.00388100396 -0.00546808697449 0)
(-0.00386134758642 -0.00383926560126 0)
(-0.0038300289021 -0.00222823437633 0)
(-0.00348382850226 -0.000645763678455 0)
(0.0214132103182 -0.00297862844929 0)
(0.0237282712032 -0.0100824797287 0)
(0.0236386141392 -0.0171393158988 1.22776952665e-27)
(0.0233040702438 -0.024212659954 0)
(0.0228534612004 -0.0311524884099 0)
(0.0223012400823 -0.0379340432616 0)
(0.0216568485586 -0.044527682217 0)
(0.0209303756534 -0.0509069029739 0)
(0.0201324773702 -0.0570486181273 0)
(0.0192740074874 -0.0629332892513 0)
(0.0183656905326 -0.0685448886037 0)
(0.017417845308 -0.0738707662886 0)
(0.0164401765243 -0.0789014373755 0)
(0.0154416225573 -0.0836303131242 0)
(0.0144302673429 -0.0880534013022 0)
(0.0134132989758 -0.0921689937074 0)
(0.0123970156427 -0.0959773590978 0)
(0.011386861307 -0.0994804514113 0)
(0.0103874876737 -0.102681643853 0)
(0.00940282953672 -0.105585491143 0)
(0.00843618764613 -0.10819752449 0)
(0.00749031367435 -0.110524076203 0)
(0.00656748902905 -0.112572134836 0)
(0.00566960071965 -0.11434922484 0)
(0.00479820256363 -0.115863310039 0)
(0.00395457378098 -0.117122713913 0)
(0.00313975843638 -0.118136055952 0)
(0.00235460639596 -0.11891219739 0)
(0.00159979304931 -0.119460196429 0)
(0.000875846590398 -0.119789267411 0)
(0.00018315250676 -0.119908743451 0)
(-0.000478023148572 -0.119828054897 0)
(-0.00110753667741 -0.119556662168 0)
(-0.00170535745229 -0.119104053249 0)
(-0.00227157232743 -0.118479704008 0)
(-0.00280636680827 -0.1176930446 0)
(-0.00331003579712 -0.116753428903 0)
(-0.00378296357039 -0.115670103799 0)
(-0.00422563462169 -0.114452181055 0)
(-0.0046386103245 -0.113108609785 0)
(-0.00502253978188 -0.111648151948 0)
(-0.00537813352915 -0.110079359145 0)
(-0.00570617456996 -0.108410552788 0)
(-0.00600748979015 -0.106649806139 0)
(-0.00628296156054 -0.104804929824 0)
(-0.00653349769963 -0.102883459576 0)
(-0.00676004407999 -0.100892647307 0)
(-0.00696355401536 -0.0988394545472 0)
(-0.00714500227747 -0.096730548882 0)
(-0.00730535474641 -0.0945723026844 0)
(-0.00744558417142 -0.0923707943143 0)
(-0.00756664085437 -0.0901318113861 0)
(-0.00766947039453 -0.0878608558121 0)
(-0.00775498605868 -0.0855631505347 0)
(-0.00782408860994 -0.0832436472134 0)
(-0.0078776408518 -0.0809070351124 0)
(-0.00791648945081 -0.0785577500649 0)
(-0.00794144189541 -0.0761999841025 0)
(-0.0079532899714 -0.0738376942891 0)
(-0.00795278909631 -0.071474611731 0)
(-0.00794068284724 -0.069114249049 0)
(-0.00791768434602 -0.0667599076714 0)
(-0.00788450102166 -0.0644146830465 0)
(-0.00784181752127 -0.0620814695401 0)
(-0.0077903197878 -0.0597629629902 0)
(-0.00773067888854 -0.0574616630547 0)
(-0.00766357352827 -0.0551798732232 0)
(-0.0075896742586 -0.0529197009581 0)
(-0.00750966373045 -0.0506830557496 0)
(-0.0074242209287 -0.0484716477878 0)
(-0.00733403874002 -0.0462869849379 0)
(-0.00723980810382 -0.0441303708829 0)
(-0.00714223276881 -0.0420029020136 0)
(-0.00704201347979 -0.0399054659988 0)
(-0.00693986004589 -0.0378387395027 0)
(-0.00683647584866 -0.0358031879924 0)
(-0.00673256750814 -0.0337990650025 0)
(-0.00662883006758 -0.031826413761 0)
(-0.00652595460591 -0.0298850684577 0)
(-0.00642461443492 -0.0279746580019 0)
(-0.00632547097875 -0.0260946094956 0)
(-0.00622916122019 -0.0242441541794 0)
(-0.006136302055 -0.022422333032 0)
(-0.00604747904175 -0.0206280046498 0)
(-0.00596324923036 -0.0188598524757 0)
(-0.00588413100975 -0.0171163937187 0)
(-0.00581060521891 -0.0153959866081 0)
(-0.00574310604268 -0.0136968373916 0)
(-0.00568202166197 -0.0120170021452 0)
(-0.0056276915239 -0.0103543820503 0)
(-0.00558042359785 -0.00870670724819 0)
(-0.00554054264463 -0.00707150071619 0)
(-0.00550845955145 -0.00544603169592 0)
(-0.00548367527554 -0.00382592773104 0)
(-0.00544004023171 -0.00223330514879 0)
(-0.00489231906164 -0.000655276037297 0)
(0.0279138276627 -0.00303816507778 0)
(0.0309348094573 -0.0102802464574 0)
(0.0308135558896 -0.0174696132675 0)
(0.0303700955485 -0.0246723287449 0)
(0.0297732829816 -0.0317335128611 0)
(0.0290427004226 -0.0386266983372 0)
(0.0281912212231 -0.0453208101814 0)
(0.0272325206559 -0.0517884318423 0)
(0.0261809718707 -0.0580060329788 0)
(0.0250511515249 -0.0639540518622 0)
(0.0238573894651 -0.0696167917405 0)
(0.0226134010648 -0.0749822163181 0)
(0.0213320074828 -0.0800416623245 0)
(0.0200249463521 -0.08478949915 0)
(0.0187027622726 -0.0892227638417 0)
(0.0173747708036 -0.0933407934922 0)
(0.0160490769909 -0.0971448736596 0)
(0.0147326407409 -0.100637914258 0)
(0.0134313679016 -0.103824161538 0)
(0.0121502233794 -0.106708948637 0)
(0.0108933463062 -0.109298486073 0)
(0.00966416996235 -0.111599689031 0)
(0.00846552831012 -0.113620038843 0)
(0.00729975842648 -0.115367472923 0)
(0.00616878179008 -0.116850299158 0)
(0.00507417954953 -0.118077128599 0)
(0.00401724462739 -0.119056822779 0)
(0.00299903056555 -0.119798450406 0)
(0.0020203786221 -0.120311251028 0)
(0.00108194669258 -0.120604602038 0)
(0.000184219173432 -0.120687984497 0)
(-0.000672476709255 -0.120570974925 0)
(-0.00148796398926 -0.120263159727 0)
(-0.00226221367119 -0.11977415967 0)
(-0.0029953420767 -0.119113574648 0)
(-0.00368759958362 -0.118290954716 0)
(-0.00433937366072 -0.117315768474 0)
(-0.00495117468781 -0.116197371981 0)
(-0.00552363761122 -0.114944979286 0)
(-0.0060575049641 -0.11356763435 0)
(-0.00655362677875 -0.112074185312 0)
(-0.00701294110135 -0.110473260899 0)
(-0.00743647261604 -0.108773249712 0)
(-0.00782531144467 -0.10698228217 0)
(-0.00818061123232 -0.105108215574 0)
(-0.00850356718892 -0.103158622064 0)
(-0.00879541444361 -0.101140779692 0)
(-0.00905740628875 -0.0990616663834 0)
(-0.00929081356337 -0.0969279567857 0)
(-0.00949690398478 -0.0947460217879 0)
(-0.00967694322757 -0.0925219305039 0)
(-0.00983217613244 -0.0902614545426 0)
(-0.00996383003417 -0.0879700741402 0)
(-0.010073098493 -0.0856529860286 0)
(-0.0101611472514 -0.0833151124235 0)
(-0.0102291009218 -0.080961111071 0)
(-0.0102780516959 -0.0785953855843 0)
(-0.0103090491046 -0.0762220961045 0)
(-0.0103231112547 -0.0738451694182 0)
(-0.0103212174009 -0.0714683087147 0)
(-0.0103043211091 -0.0690950020903 0)
(-0.0102733450009 -0.0667285301683 0)
(-0.0102291949199 -0.0643719719803 0)
(-0.0101727559455 -0.0620282097048 0)
(-0.0101049064698 -0.0596999314854 0)
(-0.0100265144872 -0.0573896331477 0)
(-0.00993845052213 -0.0550996181195 0)
(-0.00984158332442 -0.0528319965731 0)
(-0.00973679082175 -0.0505886831472 0)
(-0.00962495463653 -0.0483713944033 0)
(-0.00950696859142 -0.0461816453823 0)
(-0.00938373183651 -0.0440207464822 0)
(-0.0092561548245 -0.0418897999856 0)
(-0.00912515117973 -0.0397896974535 0)
(-0.00899164137683 -0.0377211172407 0)
(-0.00885654373183 -0.0356845233054 0)
(-0.00872077621485 -0.0336801644784 0)
(-0.00858524705415 -0.0317080752976 0)
(-0.00845085517357 -0.0297680774844 0)
(-0.00831848089476 -0.0278597831003 0)
(-0.00818898544766 -0.025982598384 0)
(-0.0080632021637 -0.0241357292318 0)
(-0.00794193540193 -0.0223181872479 0)
(-0.00782595250871 -0.0205287972313 0)
(-0.00771598241831 -0.0187662049037 0)
(-0.00761270866379 -0.0170288855956 0)
(-0.00751676819214 -0.015315152466 0)
(-0.00742874662076 -0.0136231646504 0)
(-0.00734918014183 -0.0119509338088 0)
(-0.00727855949286 -0.0102963295842 0)
(-0.00721734843475 -0.00865708746787 0)
(-0.00716601737622 -0.00703081866381 0)
(-0.00712501379028 -0.00541505162087 0)
(-0.00709304239222 -0.00380576198339 0)
(-0.00703456281664 -0.00222621652894 0)
(-0.00631206707156 -0.000655236983351 0)
(0.034559163724 -0.00311360138624 0)
(0.0382970269654 -0.010533410528 0)
(0.0381395686035 -0.0178948150474 0)
(0.0375791730431 -0.025264248818 0)
(0.0368257876202 -0.0324811365799 0)
(0.0359046200307 -0.0395169154757 0)
(0.0348325381761 -0.0463387721397 0)
(0.0336273602924 -0.0529181884914 0)
(0.032307692295 -0.059231146028 0)
(0.0308922807238 -0.0652581475874 0)
(0.0293994284325 -0.0709840263081 0)
(0.0278465252835 -0.0763976407408 0)
(0.0262497015097 -0.0814914835198 0)
(0.0246236035962 -0.0862612423533 0)
(0.0229812781245 -0.0907053470215 0)
(0.0213341500068 -0.0948245288699 0)
(0.0196920716905 -0.0986214123402 0)
(0.0180634275099 -0.102100150642 0)
(0.0164552700583 -0.10526611208 0)
(0.0148734773686 -0.108125618223 0)
(0.0133229123465 -0.110685732049 0)
(0.0118075801072 -0.112954091208 0)
(0.0103307697587 -0.114938780634 0)
(0.0088951826713 -0.116648237453 0)
(0.00750303769134 -0.118091181609 0)
(0.00615616031716 -0.119276565345 0)
(0.00485604865958 -0.120213535958 0)
(0.00360392662779 -0.120911406557 0)
(0.00240077796949 -0.121379631175 0)
(0.00124737346399 -0.121627780965 0)
(0.00014428539709 -0.12166551603 0)
(-0.000908106035915 -0.121502591464 0)
(-0.00190959496795 -0.12114874769 0)
(-0.00286015844416 -0.120613771663 0)
(-0.00375994761882 -0.119907418646 0)
(-0.00460928243333 -0.119039390111 0)
(-0.00540864932371 -0.11801930012 0)
(-0.0061586911345 -0.116856643211 0)
(-0.00686020205656 -0.115560763483 0)
(-0.00751411416222 -0.114140825308 0)
(-0.0081214893951 -0.11260578633 0)
(-0.00868350322102 -0.110964372967 0)
(-0.00920143446494 -0.10922505887 0)
(-0.00967664712908 -0.107396046417 0)
(-0.0101105791823 -0.105485251477 0)
(-0.0105047237401 -0.103500291411 0)
(-0.0108606179355 -0.101448476359 0)
(-0.0111798246052 -0.0993368036931 0)
(-0.0114639222768 -0.0971719555577 0)
(-0.0117144883919 -0.0949602992827 0)
(-0.0119330913242 -0.0927078904747 0)
(-0.0121212760506 -0.090420478518 0)
(-0.0122805589857 -0.0881035141567 0)
(-0.0124124168527 -0.0857621588399 0)
(-0.012518284923 -0.0834012953811 0)
(-0.0125995495842 -0.0810255395822 0)
(-0.0126575502494 -0.0786392522866 0)
(-0.0126935757247 -0.07624655152 0)
(-0.0127088695973 -0.0738513241523 0)
(-0.012704630006 -0.0714572368188 0)
(-0.0126820178074 -0.0690677455806 0)
(-0.0126421588514 -0.0666861042052 0)
(-0.0125861537804 -0.0643153706635 0)
(-0.0125150815558 -0.0619584119234 0)
(-0.0124300095054 -0.0596179067947 0)
(-0.0123319967321 -0.0572963471133 0)
(-0.0122221030637 -0.054996037173 0)
(-0.0121013911537 -0.0527190918778 0)
(-0.0119709332922 -0.0504674336308 0)
(-0.0118318114107 -0.048242788548 0)
(-0.0116851211939 -0.0460466820547 0)
(-0.0115319697091 -0.0438804344869 0)
(-0.0113734767687 -0.0417451567335 0)
(-0.0112107703746 -0.0396417465008 0)
(-0.011044985694 -0.0375708851599 0)
(-0.0108772588355 -0.0355330356811 0)
(-0.0107087240398 -0.0335284415181 0)
(-0.0105405064457 -0.0315571268523 0)
(-0.0103737181612 -0.0296188979654 0)
(-0.0102094506648 -0.0277133460647 0)
(-0.0100487703574 -0.0258398512527 0)
(-0.00989271114424 -0.0239975878836 0)
(-0.00974226995497 -0.0221855309338 0)
(-0.00959839995058 -0.0204024635528 0)
(-0.00946200645963 -0.0186469853461 0)
(-0.00933394134003 -0.0169175215072 0)
(-0.00921500012329 -0.0152123323199 0)
(-0.00910591887487 -0.0135295232454 0)
(-0.00900737494825 -0.0118670554686 0)
(-0.00891999048622 -0.0102227580962 0)
(-0.00884434279323 -0.00859434771479 0)
(-0.00878097457009 -0.00697944969944 0)
(-0.00873028566832 -0.00537564229396 0)
(-0.00869027363208 -0.00377889280584 0)
(-0.00861673637321 -0.00221224706147 0)
(-0.00772689709358 -0.000651833163426 0)
(0.0413862747831 -0.00320704448413 0)
(0.0458569075576 -0.0108476820607 0)
(0.0456568068642 -0.0184232340645 1.21819937786e-27)
(0.0449686207371 -0.0259995384395 0)
(0.0440448661593 -0.0334088728559 0)
(0.0429170473937 -0.0406200455851 0)
(0.0416067430657 -0.0475981345343 0)
(0.0401366355158 -0.0543133471577 0)
(0.0385302337694 -0.0607411886211 0)
(0.0368110346022 -0.0668623982155 0)
(0.0350017818342 -0.0726626357522 0)
(0.0331238861482 -0.0781320375467 0)
(0.031197014154 -0.0832646836953 0)
(0.0292388400858 -0.0880580272302 0)
(0.0272649395115 -0.0925123267586 0)
(0.0252888008514 -0.0966301135005 0)
(0.023321924838 -0.100415713585 0)
(0.0213739862874 -0.103874836782 0)
(0.0194530315945 -0.107014235644 0)
(0.017565693446 -0.109841433006 0)
(0.0157174042566 -0.112364512312 0)
(0.013912598767 -0.114591962558 0)
(0.0121548951129 -0.116532568836 0)
(0.0104472522457 -0.118195338838 0)
(0.00879209876839 -0.119589456339 0)
(0.00719143634755 -0.120724253142 0)
(0.00564691642219 -0.121609192387 0)
(0.0041598966145 -0.122253857161 0)
(0.00273147722431 -0.122667940139 0)
(0.00136252531563 -0.122861229882 0)
(5.36923443274e-05 -0.122843593242 0)
(-0.00119459656918 -0.122624991663 0)
(-0.00238211258808 -0.122215348562 0)
(-0.00350883991302 -0.121624648421 0)
(-0.00457497015413 -0.120862834206 0)
(-0.00558089766259 -0.11993979127 0)
(-0.00652721544089 -0.118865311124 0)
(-0.00741470644977 -0.117649057591 0)
(-0.00824433493021 -0.116300533959 0)
(-0.00901723312708 -0.114829051951 0)
(-0.00973468847884 -0.113243703109 0)
(-0.0103981267072 -0.111553333049 0)
(-0.0110090961283 -0.109766518921 0)
(-0.0115692485553 -0.107891550296 0)
(-0.0120803222335 -0.105936413596 0)
(-0.012544122069 -0.103908780134 0)
(-0.0129625026301 -0.101815997692 0)
(-0.0133373490855 -0.0996650855992 0)
(-0.0136705615505 -0.0974627331144 0)
(-0.013964037948 -0.0952153009798 0)
(-0.014219660827 -0.092928825853 0)
(-0.0144392832282 -0.0906090273892 0)
(-0.0146247189686 -0.088261317579 0)
(-0.014777732436 -0.0858908120156 0)
(-0.0149000331263 -0.0835023425862 0)
(-0.0149932700025 -0.0811004711831 0)
(-0.0150590306895 -0.0786895038445 0)
(-0.0150988405443 -0.0762735048892 0)
(-0.0151141663315 -0.0738563104427 0)
(-0.0151064195085 -0.0714415409667 0)
(-0.0150769635288 -0.0690326122742 0)
(-0.0150271201831 -0.0666327447771 0)
(-0.014958179084 -0.0642449706234 0)
(-0.0148714054216 -0.0618721386795 0)
(-0.0147680498575 -0.0595169172351 0)
(-0.0146493559063 -0.0571817946178 0)
(-0.0145165685133 -0.0548690778101 0)
(-0.0143709395142 -0.0525808894481 0)
(-0.0142137335835 -0.0503191634524 0)
(-0.0140462307679 -0.0480856397803 0)
(-0.0138697291325 -0.0458818586114 0)
(-0.0136855440434 -0.0437091544724 0)
(-0.0134950075111 -0.041568650583 0)
(-0.0132994645161 -0.0394612538597 0)
(-0.0131002695737 -0.0373876507654 0)
(-0.0128987808095 -0.0353483043321 0)
(-0.0126963545599 -0.0333434524221 0)
(-0.0124943380642 -0.03137310744 0)
(-0.0122940629678 -0.0294370574474 0)
(-0.0120968374627 -0.0275348687981 0)
(-0.0119039394591 -0.0256658901574 0)
(-0.0117166088665 -0.0238292579491 0)
(-0.0115360410525 -0.0220239030323 0)
(-0.0113633798287 -0.0202485586035 0)
(-0.0111997117439 -0.0185017690802 0)
(-0.0110460603655 -0.0167818999939 0)
(-0.010903382144 -0.0150871487098 0)
(-0.0107725629937 -0.0134155561851 0)
(-0.0106544171259 -0.0117650201829 0)
(-0.0105496876119 -0.0101333107738 0)
(-0.0104590490364 -0.00851809233551 0)
(-0.0103831020183 -0.00691694394307 0)
(-0.0103222170612 -0.00532738894647 0)
(-0.0102738329851 -0.00374527804093 0)
(-0.0101855044862 -0.00219319674416 0)
(-0.00913175055632 -0.000646459171089 0)
(0.048436276681 -0.00332060208067 0)
(0.0536596445651 -0.0112296932448 0)
(0.0534085461558 -0.0190653802513 -1.21755077694e-27)
(0.0525784921238 -0.0268922346657 0)
(0.0514665598841 -0.0345336335795 0)
(0.0501114935366 -0.0419551038764 0)
(0.0485405402676 -0.0491192005725 0)
(0.0467821920596 -0.0559947114487 0)
(0.0448657267802 -0.0625567602906 0)
(0.0428201276581 -0.0687866127274 0)
(0.0406731579472 -0.074671187874 0)
(0.0384506612733 -0.0802024214888 0)
(0.0361760932522 -0.0853765426457 0)
(0.033870267364 -0.090193330079 0)
(0.0315512831684 -0.0946553993639 0)
(0.0292345988053 -0.0987675566639 0)
(0.0269332074285 -0.102536240009 0)
(0.0246578810268 -0.105969056936 0)
(0.022417449233 -0.109074417872 0)
(0.0202190881826 -0.111861258363 0)
(0.0180685996036 -0.114338839332 0)
(0.0159706673705 -0.116516612712 0)
(0.0139290823127 -0.118404139229 0)
(0.0119469315255 -0.120011045547 0)
(0.0100267501988 -0.121347008902 0)
(0.00817063814228 -0.122421758705 0)
(0.00638034355509 -0.123245086304 0)
(0.00465731967841 -0.123826855951 0)
(0.00300275894448 -0.12417701225 0)
(0.0014176109072 -0.124305575429 0)
(-9.74048327409e-05 -0.124222655582 0)
(-0.00154181511512 -0.123938407133 0)
(-0.00291537394994 -0.123463002091 0)
(-0.00421807453062 -0.122806640392 0)
(-0.00545015250827 -0.12197948764 0)
(-0.00661208165665 -0.120991646704 0)
(-0.00770456940239 -0.119853120258 0)
(-0.0087285483338 -0.118573774076 0)
(-0.00968516509412 -0.117163301542 0)
(-0.0105757657174 -0.115631190228 0)
(-0.0114018790794 -0.113986691253 0)
(-0.0121651976524 -0.112238791914 0)
(-0.0128675573591 -0.110396191955 0)
(-0.0135109157074 -0.108467283682 0)
(-0.0140973300092 -0.10646013606 0)
(-0.0146289347904 -0.104382482772 0)
(-0.0151079201468 -0.102241714223 0)
(-0.0155365100691 -0.100044873331 0)
(-0.015916942442 -0.0977986549972 0)
(-0.0162514496869 -0.0955094089848 0)
(-0.016542241726 -0.0931831460192 0)
(-0.0167914902123 -0.0908255467535 0)
(-0.0170013156681 -0.0884419732796 0)
(-0.0171737764426 -0.0860374827257 0)
(-0.0173108610437 -0.0836168424818 0)
(-0.0174144826603 -0.0811845464784 0)
(-0.0174864772643 -0.0787448319543 0)
(-0.0175286039451 -0.0763016960748 0)
(-0.0175425486311 -0.073858911811 0)
(-0.0175299296538 -0.0714200424875 0)
(-0.017492306054 -0.0689884544993 0)
(-0.0174311869208 -0.0665673277732 0)
(-0.0173480424557 -0.0641596636802 0)
(-0.0172443149874 -0.0617682902379 0)
(-0.0171214305281 -0.0593958645808 0)
(-0.0169808091669 -0.0570448728291 0)
(-0.0168238749158 -0.0547176275985 0)
(-0.0166520635078 -0.0524162635223 0)
(-0.0164668288808 -0.0501427312159 0)
(-0.0162696471347 -0.0478987901855 0)
(-0.0160620188522 -0.0456860011772 0)
(-0.0158454688682 -0.0435057184724 0)
(-0.0156215445064 -0.041359082575 0)
(-0.0153918116124 -0.0392470136963 0)
(-0.015157849453 -0.0371702063533 0)
(-0.0149212439731 -0.0351291253372 0)
(-0.0146835804398 -0.0331240032159 0)
(-0.014446435051 -0.0311548394798 0)
(-0.0142113664327 -0.0292214013637 0)
(-0.0139799066394 -0.0273232263395 0)
(-0.0137535524491 -0.0254596262273 0)
(-0.0135337565918 -0.0236296928386 0)
(-0.0133219195742 -0.0218323050519 0)
(-0.0131193817811 -0.0200661371976 0)
(-0.0129274164124 -0.0183296686372 0)
(-0.0127472230133 -0.0166211944655 0)
(-0.0125799220942 -0.0149388373133 0)
(-0.0124265506825 -0.0132805604043 0)
(-0.012288059165 -0.0116441821129 0)
(-0.0121653090613 -0.010027392484 0)
(-0.0120590706441 -0.00842777549446 0)
(-0.0119700090956 -0.00684282417339 0)