/*--------------------------------*- C++ -*----------------------------------*\
| =========                 |                                                 |
| \\      /  F ield         | OpenFOAM: The Open Source CFD Toolbox           |
|  \\    /   O peration     | Version:  v1906                                 |
|   \\  /    A nd           | Web:      www.OpenFOAM.com                      |
|    \\/     M anipulation  |                                                 |
\*---------------------------------------------------------------------------*/
FoamFile
{
    version     2.0;
    format      ascii;
    class       volScalarField;
    location    "91";
    object      alpha;
}
// * * * * * * * * * * * * * * * * * * * * * * * * * * * * * * * * * * * * * //

dimensions      [0 0 -1 0 0 0 0];


internalField   nonuniform List<scalar> 
9216
(
99.9762735136
99.9832995661
99.9829482837
99.9829482837
99.9811786403
99.9824687103
99.9824687103
99.9824687103
99.9824687103
99.9824687103
99.9810352991
99.9786078047
99.9759105886
99.9759105886
99.9759105886
99.9759105886
99.9759105886
99.9759105886
99.9759105886
99.9759105886
99.9759105886
99.9759105886
99.9759105886
99.9759105886
99.9759105886
99.9759105886
99.9722107038
99.9722107038
99.9749079198
99.9773354143
99.9773354143
99.9657038832
99.964362471
99.9710209935
99.9740055179
99.9740055179
99.9740055179
99.9724128388
99.9724128388
99.9724128388
99.9724128388
99.9683018556
99.9683018556
99.9683018556
99.9683018556
99.9683018556
99.9683018556
99.9683018556
99.9683018556
99.9683018556
99.9683018556
99.9683018556
99.9683018556
99.9683018556
99.9683018556
99.9683018556
99.9683018556
99.9715779477
99.9724128388
99.9724128388
99.9724128388
99.9724128388
99.9724128388
99.9719446401
99.9667220187
99.95612036
99.9494197669
99.9480782524
99.9443151074
99.941883413
99.9395911947
99.9378139999
99.9362113819
99.9356922872
99.9351667642
99.9347992039
99.9337246529
99.9313759862
99.9278800321
99.9227334983
99.9143040532
99.8983600247
99.8762389073
99.8411808675
99.7903420159
99.7142037194
99.6773828503
99.5973462373
98.8571238435
92.244991978
77.21212299
56.9178232227
39.6523079299
24.3702171899
14.3531992006
2.0347868012
99.9811786403
99.9829482837
99.9842383538
99.9842383538
99.9842383538
99.9842383538
99.9824687103
99.9811786403
99.9811786403
99.9811786403
99.9811786403
99.9811786403
99.9811786403
99.9811786403
99.9760539297
99.9760539297
99.9760539297
99.9811786403
99.9811786403
99.9811786403
99.9797452291
99.9773177346
99.9757250555
99.9757250555
99.9757250555
99.9757250555
99.9757250555
99.9720251706
99.9720251706
99.9720251706
99.9679141875
99.9679141875
99.9645842911
99.9645842911
99.9645842911
99.9645842911
99.9645842911
99.9645842911
99.9645842911
99.9615873844
99.9588901683
99.9588901683
99.9588901683
99.9588901683
99.9588901683
99.9543224093
99.9543224093
99.9543224093
99.9543224093
99.9543224093
99.9543224093
99.9543224093
99.9543224093
99.9543224093
99.9543224093
99.9543224093
99.9543224093
99.952436878
99.9473604232
99.9473604232
99.9473604232
99.9473604232
99.9473604232
99.9473604232
99.9548695019
99.9419101965
99.9340964907
99.9270612096
99.9207259094
99.9221785216
99.9188171962
99.9153226925
99.9128576553
99.9121538232
99.9117515836
99.9118331096
99.9120958586
99.909173936
99.9174621634
99.9107944047
99.8998710869
99.9090711751
99.8907074287
99.8798791291
99.8402847096
99.7859747755
99.7328560418
99.6481341656
99.4700898998
96.8914927731
86.8112035791
68.4933889694
51.5786184047
36.383250918
23.872264645
14.4621791919
99.9811786403
99.9842383538
99.9842383538
99.9829482837
99.9829482837
99.9829482837
99.9829482837
99.9811786403
99.9811786403
99.9811786403
99.9797452291
99.9797452291
99.9797452291
99.9797452291
99.9797452291
99.9781525499
99.9781525499
99.9757250555
99.9757250555
99.9757250555
99.9757250555
99.9757250555
99.9757250555
99.9757250555
99.9757250555
99.9757250555
99.9693279546
99.9652169714
99.9652169714
99.9618870751
99.9618870751
99.9588901683
99.9588901683
99.9588901683
99.9543224093
99.9543224093
99.9543224093
99.9543224093
99.9543224093
99.9543224093
99.9543224093
99.9543224093
99.9543224093
99.9543224093
99.9492471214
99.9492471214
99.9492471214
99.9422851353
99.9360193478
99.9360193478
99.9303801391
99.922644599
99.922644599
99.922644599
99.922644599
99.922644599
99.922644599
99.922644599
99.922644599
99.922644599
99.922644599
99.922644599
99.922644599
99.922644599
99.9165785237
99.8997307513
99.8813244604
99.8670369164
99.8543290241
99.8450954368
99.8548839633
99.8483606015
99.8433306082
99.8669280018
99.8644766913
99.8565926384
99.8495596842
99.8405744349
99.8299672643
99.8801892282
99.8652148583
99.8658145162
99.8343582706
99.7879892041
99.7304374403
99.6819463205
99.5492235535
99.3974044816
99.4241890354
98.7386150748
87.3092781933
67.9419828369
55.8808367759
45.1295732244
37.3900265986
25.8898289292
99.9824687103
99.9829482837
99.9829482837
99.9829482837
99.9829482837
99.9829482837
99.9811786403
99.9811786403
99.9797452291
99.9797452291
99.9797452291
99.9797452291
99.9797452291
99.9781525499
99.9757250555
99.9757250555
99.9757250555
99.9757250555
99.9757250555
99.9757250555
99.9757250555
99.9757250555
99.9730278394
99.9730278394
99.9693279546
99.9652169714
99.9618870751
99.9588901683
99.9588901683
99.9588901683
99.9543224093
99.9543224093
99.9543224093
99.9543224093
99.9543224093
99.9543224093
99.9543224093
99.9492471214
99.9492471214
99.9492471214
99.9492471214
99.9492471214
99.9366459266
99.9303801391
99.9303801391
99.922644599
99.922644599
99.922644599
99.922644599
99.922644599
99.922644599
99.922644599
99.922644599
99.9140495544
99.9140495544
99.9140495544
99.9140495544
99.9140495544
99.9140495544
99.9140495544
99.9140495544
99.9140495544
99.9140495544
99.9140495544
99.9097596494
99.8883404143
99.8653073187
99.8488706688
99.8346294192
99.8253807165
99.819342314
99.8149512996
99.827432413
99.824085271
99.8203686806
99.8163419924
99.8110875497
99.8015785088
99.7869211888
99.7595813038
99.7218409303
99.6762607128
99.6614185455
99.5870206218
99.6092822407
99.4824959509
99.2826900383
99.421094319
99.2114028301
98.0622339751
89.1657760534
74.9743766272
61.1388951387
57.0478624257
50.8359786403
38.0066034638
99.9824687103
99.9829482837
99.9829482837
99.9829482837
99.9829482837
99.9829482837
99.9829482837
99.9797452291
99.9797452291
99.9797452291
99.9797452291
99.9797452291
99.9781525499
99.9757250555
99.9757250555
99.9757250555
99.9757250555
99.9757250555
99.9757250555
99.9757250555
99.9730278394
99.9730278394
99.9730278394
99.9693279546
99.9652169714
99.9588901683
99.9588901683
99.9543224093
99.9543224093
99.9543224093
99.9543224093
99.9543224093
99.9543224093
99.9492471214
99.9492471214
99.9492471214
99.9492471214
99.9492471214
99.9436079127
99.9436079127
99.9303801391
99.9303801391
99.922644599
99.922644599
99.922644599
99.922644599
99.922644599
99.9140495544
99.9140495544
99.9140495544
99.9140495544
99.9140495544
99.9140495544
99.9140495544
99.9044995049
99.9044995049
99.9044995049
99.9044995049
99.9044995049
99.9044995049
99.9044995049
99.9044995049
99.9044995049
99.9044995049
99.8805455659
99.8311709342
99.8056079299
99.7834789239
99.7681834182
99.7660281247
99.7660281247
99.7660281247
99.7660281247
99.7699826504
99.7760106301
99.7925776594
99.7966584202
99.7926380734
99.7871258947
99.7718687161
99.7600011521
99.7548362561
99.6730403982
99.5905150158
99.4853719669
99.3432103981
99.1559745276
99.0544006557
98.9289815147
95.6525332491
92.15910934
84.4764929759
74.6125986697
67.2061971884
66.7698509257
52.4908197723
99.9842383538
99.9829482837
99.9829482837
99.9829482837
99.9829482837
99.9829482837
99.9815148725
99.9815148725
99.9797452291
99.9797452291
99.9797452291
99.9797452291
99.9757250555
99.9757250555
99.9757250555
99.9757250555
99.9757250555
99.9757250555
99.9730278394
99.9730278394
99.9730278394
99.9730278394
99.9730278394
99.9652169714
99.9588901683
99.9588901683
99.9543224093
99.9543224093
99.9543224093
99.9543224093
99.9543224093
99.9492471214
99.9492471214
99.9492471214
99.9492471214
99.9492471214
99.9436079127
99.9436079127
99.9303801391
99.9303801391
99.922644599
99.922644599
99.922644599
99.922644599
99.9140495544
99.9140495544
99.9140495544
99.9140495544
99.9140495544
99.9044995049
99.9044995049
99.9044995049
99.9044995049
99.9044995049
99.8938883388
99.8938883388
99.8938883388
99.8938883388
99.8820981542
99.8820981542
99.8689979491
99.8689979491
99.8689979491
99.7719700169
99.7159707855
99.6783997642
99.6673515993
99.6204810923
99.6005143112
99.6005143112
99.5826277089
99.5541303343
99.5748488746
99.6166874039
99.6166874039
99.6166874039
99.6312431873
99.6860889716
99.6978791562
99.6882593467
99.7152042979
99.678739773
99.6313777912
99.6053692444
99.5329421602
99.3871102074
99.292309164
99.055551759
98.6296629312
95.0029104343
91.9792718997
90.5376554482
86.729438336
79.489147442
80.1933830395
66.8586199476
99.9842383538
99.9829482837
99.9829482837
99.9829482837
99.9829482837
99.9815148725
99.9815148725
99.9815148725
99.9797452291
99.9797452291
99.9797452291
99.9757250555
99.9757250555
99.9757250555
99.9757250555
99.9757250555
99.9757250555
99.9730278394
99.9730278394
99.9730278394
99.9730278394
99.9730278394
99.9693279546
99.9588901683
99.9543224093
99.9543224093
99.9543224093
99.9543224093
99.9543224093
99.9543224093
99.9492471214
99.9492471214
99.9492471214
99.9492471214
99.9492471214
99.9436079127
99.9373421252
99.9303801391
99.922644599
99.922644599
99.922644599
99.922644599
99.9140495544
99.9140495544
99.9140495544
99.9140495544
99.9044995049
99.9044995049
99.9044995049
99.9044995049
99.9044995049
99.8938883388
99.8938883388
99.8938883388
99.8820981542
99.8820981542
99.8689979491
99.8689979491
99.8544421657
99.8544421657
99.8544421657
99.7219830051
99.6622266715
99.5825442082
99.5361602313
99.5361602313
99.4846224793
99.4273583103
99.4273583103
99.4273583103
99.4014629384
99.3637314559
99.3637314559
99.3637314559
99.4273583103
99.4273583103
99.4273583103
99.4273583103
99.4846224793
99.4831717333
99.5159043945
99.5181900545
99.4693970381
99.4698763316
99.4496853282
99.4340907044
99.2880392726
99.0771916946
98.7026372018
97.4712386159
94.131667602
92.4382610003
92.9783860369
88.0756827811
86.9594121808
79.1380888353
99.9842383538
99.9829482837
99.9829482837
99.9829482837
99.9829482837
99.9815148725
99.9815148725
99.9815148725
99.9797452291
99.9797452291
99.9773177346
99.9757250555
99.9757250555
99.9757250555
99.9757250555
99.9757250555
99.9730278394
99.9730278394
99.9730278394
99.9730278394
99.9730278394
99.9730278394
99.9588901683
99.9588901683
99.9543224093
99.9543224093
99.9543224093
99.9543224093
99.9492471214
99.9492471214
99.9492471214
99.9492471214
99.9492471214
99.9436079127
99.9436079127
99.9373421252
99.9303801391
99.922644599
99.922644599
99.922644599
99.9140495544
99.9140495544
99.9140495544
99.9140495544
99.9044995049
99.9044995049
99.9044995049
99.9044995049
99.9044995049
99.8938883388
99.8938883388
99.8820981542
99.8820981542
99.8689979491
99.8689979491
99.8544421657
99.8544421657
99.8544421657
99.838269073
99.7557969242
99.6442565685
99.5825442082
99.5361602313
99.4846224793
99.4273583103
99.3637314559
99.3637314559
99.293034951
99.293034951
99.293034951
99.2144832789
99.2144832789
99.2144832789
99.2144832789
99.2144832789
99.2144832789
99.2144832789
99.293034951
99.293034951
99.293034951
99.3637314559
99.3637314559
99.3865058499
99.3706093827
99.3253996178
99.2483096864
99.0241056958
99.0209812459
98.941369135
98.6477902382
97.2316044227
94.6101389907
94.1898527454
94.8747611619
91.2961036286
85.7906960354
99.9842383538
99.9829482837
99.9829482837
99.9829482837
99.9815148725
99.9815148725
99.9815148725
99.9815148725
99.9797452291
99.9797452291
99.9773177346
99.9757250555
99.9757250555
99.9730278394
99.9730278394
99.9730278394
99.9730278394
99.9730278394
99.9730278394
99.9730278394
99.9730278394
99.9622200647
99.9588901683
99.9543224093
99.9543224093
99.9543224093
99.9543224093
99.9492471214
99.9492471214
99.9492471214
99.9492471214
99.9492471214
99.9436079127
99.9436079127
99.9373421252
99.9303801391
99.922644599
99.922644599
99.922644599
99.9140495544
99.9140495544
99.9140495544
99.9140495544
99.9044995049
99.9044995049
99.9044995049
99.9044995049
99.8938883388
99.8938883388
99.8938883388
99.8820981542
99.8820981542
99.8689979491
99.8689979491
99.8544421657
99.8544421657
99.838269073
99.838269073
99.6442565685
99.5825442082
99.5361602313
99.4846224793
99.4273583103
99.3637314559
99.293034951
99.293034951
99.2144832789
99.1272036432
99.1272036432
99.1272036432
99.0302262702
99.0302262702
99.0302262702
99.0302262702
99.0302262702
99.0302262702
99.0302262702
99.0302262702
99.0302262702
99.1272036432
99.1272036432
99.2144832789
99.2144832789
99.2839365163
99.2567890861
99.1996097798
99.1123036178
98.9506166877
98.7498077299
98.6591840396
98.4786203309
97.8838831052
95.7960607717
97.8438704053
95.5430690889
90.6070064758
99.9842383538
99.9829482837
99.9829482837
99.9829482837
99.9815148725
99.9815148725
99.9815148725
99.9815148725
99.9797452291
99.9797452291
99.9773177346
99.9757250555
99.9730278394
99.9730278394
99.9730278394
99.9730278394
99.9730278394
99.9730278394
99.9730278394
99.9730278394
99.9693279546
99.9588901683
99.9543224093
99.9543224093
99.9543224093
99.9543224093
99.9492471214
99.9492471214
99.9492471214
99.9492471214
99.9492471214
99.9436079127
99.9436079127
99.9373421252
99.9303801391
99.922644599
99.922644599
99.9140495544
99.9140495544
99.9140495544
99.9140495544
99.9044995049
99.9044995049
99.9044995049
99.9044995049
99.8938883388
99.8938883388
99.8938883388
99.8820981542
99.8820981542
99.8689979491
99.8689979491
99.8544421657
99.8544421657
99.838269073
99.838269073
99.82029897
99.6242897874
99.5361602313
99.4846224793
99.4273583103
99.3637314559
99.293034951
99.2144832789
99.1272036432
99.1272036432
99.0302262702
99.0302262702
98.9224736336
98.9224736336
98.8458784366
98.8027484817
98.8027484817
98.8027484817
98.8027484817
98.8027484817
98.8027484817
98.8027484817
98.8027484817
98.8027484817
98.9224736336
98.9224736336
99.0302262702
99.0302262702
99.1263677912
99.1389206029
99.0745624724
98.9116510274
98.7826401367
98.7077592109
98.5413288216
98.5368883899
98.3174169898
98.3345889327
98.2659132027
94.0708253772
99.9842383538
99.9829482837
99.9829482837
99.9829482837
99.9815148725
99.9815148725
99.9815148725
99.9815148725
99.9797452291
99.9773177346
99.9773177346
99.9757250555
99.9730278394
99.9730278394
99.9730278394
99.9730278394
99.9730278394
99.9730278394
99.9730278394
99.9730278394
99.9622200647
99.9588901683
99.9543224093
99.9543224093
99.9543224093
99.9492471214
99.9492471214
99.9492471214
99.9492471214
99.9492471214
99.9436079127
99.9436079127
99.9373421252
99.9303801391
99.922644599
99.922644599
99.9140495544
99.9140495544
99.9140495544
99.9140495544
99.9044995049
99.9044995049
99.9044995049
99.9044995049
99.8938883388
99.8938883388
99.8938883388
99.8820981542
99.8820981542
99.8689979491
99.8689979491
99.8544421657
99.8544421657
99.838269073
99.838269073
99.7682593485
99.5825442082
99.4846224793
99.4273583103
99.3637314559
99.293034951
99.2144832789
99.1272036432
99.1272036432
99.0302262702
98.9224736336
98.9224736336
98.8027484817
98.8027484817
98.6697205353
98.6697205353
98.6697205353
98.6697205353
98.5482711384
98.5219117059
98.5219117059
98.5219117059
98.5219117059
98.6697205353
98.6697205353
98.6697205353
98.6697205353
98.8027484817
98.8027484817
98.9224736336
99.0302262702
98.991386093
98.9228615955
98.8161792141
98.8259770026
98.610239474
98.5058055118
98.5520961002
98.3702118348
98.5915956613
96.3924141011
99.9864230988
99.9829482837
99.9829482837
99.9829482837
99.9815148725
99.9815148725
99.9815148725
99.9815148725
99.9797452291
99.9773177346
99.9757250555
99.9730278394
99.9730278394
99.9730278394
99.9730278394
99.9730278394
99.9730278394
99.9730278394
99.9730278394
99.9700309327
99.9588901683
99.9543224093
99.9543224093
99.9543224093
99.9492471214
99.9492471214
99.9492471214
99.9492471214
99.9436079127
99.9436079127
99.9436079127
99.9373421252
99.9303801391
99.922644599
99.922644599
99.9140495544
99.9140495544
99.9140495544
99.9140495544
99.9044995049
99.9044995049
99.9044995049
99.8938883388
99.8938883388
99.8938883388
99.8820981542
99.8820981542
99.8689979491
99.8689979491
99.8544421657
99.8544421657
99.838269073
99.838269073
99.82029897
99.7729429144
99.5825442082
99.4846224793
99.4273583103
99.3637314559
99.2144832789
99.1272036432
99.1272036432
99.0302262702
98.9224736336
98.8027484817
98.8027484817
98.6697205353
98.6697205353
98.5219117059
98.5219117059
98.5219117059
98.5219117059
98.3576796732
98.3576796732
98.3576796732
98.3576796732
98.3576796732
98.3576796732
98.3576796732
98.3576796732
98.5219117059
98.5219117059
98.5219117059
98.6697205353
98.6697205353
98.8027484817
98.8018242035
98.7952206594
98.893652499
98.8095275058
98.7293263199
98.6016461848
98.5346541835
98.6598767381
98.4449679088
97.5610049487
99.9864230988
99.9851330287
99.9851330287
99.9829482837
99.9815148725
99.9815148725
99.9815148725
99.9815148725
99.9797452291
99.9773177346
99.9757250555
99.9730278394
99.9730278394
99.9730278394
99.9730278394
99.9730278394
99.9730278394
99.9730278394
99.9700309327
99.9588901683
99.9588901683
99.9543224093
99.9543224093
99.9492471214
99.9492471214
99.9492471214
99.9492471214
99.9436079127
99.9436079127
99.9436079127
99.9373421252
99.9303801391
99.922644599
99.922644599
99.9140495544
99.9140495544
99.9140495544
99.9044995049
99.9044995049
99.9044995049
99.9044995049
99.8938883388
99.8938883388
99.8938883388
99.8820981542
99.8820981542
99.8689979491
99.8689979491
99.8544421657
99.8544421657
99.838269073
99.838269073
99.82029897
99.7729429144
99.5361602313
99.4846224793
99.3637314559
99.293034951
99.2144832789
99.1272036432
99.0302262702
98.9224736336
98.8027484817
98.6697205353
98.6697205353
98.5219117059
98.5219117059
98.3576796732
98.3576796732
98.3576796732
98.3576796732
98.1751996369
98.1751996369
98.1751996369
98.1751996369
98.1751996369
98.1751996369
98.1751996369
98.1751996369
98.1751996369
98.1751996369
98.3576796732
98.3576796732
98.3576796732
98.5219117059
98.5219117059
98.6697205353
98.8027484817
98.8445715527
98.776342633
98.6636102606
98.6640367511
98.4761530276
98.5138438511
98.5568336767
97.7981337924
99.9864230988
99.9870992992
99.9851330287
99.9829482837
99.9815148725
99.9815148725
99.9815148725
99.9815148725
99.9797452291
99.9773177346
99.9757250555
99.9730278394
99.9730278394
99.9730278394
99.9730278394
99.9730278394
99.9730278394
99.9700309327
99.9700309327
99.9588901683
99.9543224093
99.9543224093
99.9543224093
99.9492471214
99.9492471214
99.9492471214
99.9436079127
99.9436079127
99.9436079127
99.9373421252
99.9303801391
99.922644599
99.922644599
99.9140495544
99.9140495544
99.9140495544
99.9044995049
99.9044995049
99.9044995049
99.8938883388
99.8938883388
99.8938883388
99.8820981542
99.8820981542
99.8820981542
99.8689979491
99.8689979491
99.8544421657
99.8544421657
99.838269073
99.838269073
99.82029897
99.8003321889
99.5361602313
99.4273583103
99.3637314559
99.2144832789
99.1272036432
99.0302262702
98.9224736336
98.8027484817
98.6697205353
98.5219117059
98.5219117059
98.3576796732
98.3576796732
98.1751996369
98.1751996369
98.1751996369
98.1751996369
97.972444041
97.972444041
97.972444041
97.972444041
97.972444041
97.972444041
97.972444041
97.972444041
97.972444041
97.972444041
97.972444041
97.972444041
98.1751996369
98.1751996369
98.1751996369
98.3576796732
98.3576796732
98.5219117059
98.6697205353
98.7213278868
98.6049471162
98.5634705494
98.5510118867
98.3913514953
98.6289214862
97.7284525913
99.9864230988
99.9870992992
99.9870992992
99.9851330287
99.9815148725
99.9815148725
99.9815148725
99.9815148725
99.9797452291
99.9773177346
99.9757250555
99.9730278394
99.9730278394
99.9730278394
99.9730278394
99.9730278394
99.9700309327
99.9700309327
99.9630011515
99.9588901683
99.9543224093
99.9543224093
99.9492471214
99.9492471214
99.9492471214
99.9436079127
99.9436079127
99.9373421252
99.9373421252
99.9303801391
99.9303801391
99.922644599
99.922644599
99.9140495544
99.9140495544
99.9044995049
99.9044995049
99.9044995049
99.8938883388
99.8938883388
99.8938883388
99.8820981542
99.8820981542
99.8689979491
99.8689979491
99.8544421657
99.8544421657
99.8544421657
99.838269073
99.838269073
99.82029897
99.8003321889
99.5361602313
99.4273583103
99.293034951
99.2144832789
99.0302262702
98.9224736336
98.8027484817
98.5219117059
98.5219117059
98.3576796732
98.1751996369
98.1751996369
97.972444041
97.972444041
97.972444041
97.972444041
97.972444041
97.7471600455
97.7471600455
97.7471600455
97.7471600455
97.7471600455
97.7471600455
97.7471600455
97.7471600455
97.7471600455
97.7471600455
97.7471600455
97.7471600455
97.7471600455
97.972444041
97.972444041
97.972444041
98.1751996369
98.1751996369
98.3576796732
98.5219117059
98.5992470472
98.6349763819
98.5028532919
98.5127398258
98.4759797741
98.4493064705
97.6816371511
99.9883893693
99.9870992992
99.9870992992
99.9870992992
99.9836996175
99.9815148725
99.9815148725
99.9815148725
99.9773177346
99.9757250555
99.9757250555
99.9730278394
99.9730278394
99.9730278394
99.9730278394
99.9700309327
99.9700309327
99.9667010363
99.9588901683
99.9543224093
99.9543224093
99.9543224093
99.9492471214
99.9492471214
99.9436079127
99.9436079127
99.9373421252
99.9373421252
99.9303801391
99.9303801391
99.922644599
99.922644599
99.9140495544
99.9140495544
99.9044995049
99.9044995049
99.9044995049
99.8938883388
99.8938883388
99.8820981542
99.8820981542
99.8820981542
99.8689979491
99.8689979491
99.8544421657
99.8544421657
99.838269073
99.838269073
99.82029897
99.82029897
99.8003321889
99.5361602313
99.4273583103
99.293034951
99.1272036432
98.9224736336
98.6697205353
98.5219117059
98.1751996369
97.972444041
97.972444041
97.7471600455
97.7471600455
97.7471600455
97.7471600455
97.496844495
97.496844495
97.496844495
97.496844495
97.496844495
97.496844495
97.496844495
97.496844495
97.496844495
97.496844495
97.496844495
97.496844495
97.496844495
97.496844495
97.496844495
97.496844495
97.7471600455
97.7471600455
97.7471600455
97.7471600455
97.972444041
97.972444041
98.1751996369
98.1751996369
98.3576796732
98.4866212706
98.5647680285
98.4721759974
98.4658341963
98.3484995041
97.7581380433
99.9883893693
99.9870992992
99.9870992992
99.9870992992
99.985665888
99.9836996175
99.9815148725
99.9815148725
99.9773177346
99.9757250555
99.9730278394
99.9730278394
99.9730278394
99.9730278394
99.9700309327
99.9700309327
99.9700309327
99.9630011515
99.9588901683
99.9543224093
99.9543224093
99.9492471214
99.9492471214
99.9436079127
99.9436079127
99.9373421252
99.9373421252
99.9303801391
99.9303801391
99.922644599
99.922644599
99.9140495544
99.9140495544
99.9044995049
99.9044995049
99.8938883388
99.8938883388
99.8938883388
99.8820981542
99.8820981542
99.8689979491
99.8689979491
99.8689979491
99.8544421657
99.8544421657
99.838269073
99.838269073
99.82029897
99.82029897
99.8003321889
99.5361602313
99.4273583103
99.2144832789
99.0302262702
98.6697205353
97.972444041
97.2187161056
96.5663161797
96.5663161797
96.5663161797
96.5663161797
96.9096845617
96.9096845617
96.9096845617
96.9096845617
96.9096845617
97.2187161056
97.2187161056
97.2187161056
97.2187161056
97.2187161056
97.2187161056
97.2187161056
97.2187161056
97.2187161056
97.2187161056
97.2187161056
97.2187161056
97.2187161056
97.496844495
97.496844495
97.496844495
97.496844495
97.496844495
97.496844495
97.7471600455
97.7471600455
97.972444041
97.972444041
98.1751996369
98.3576796732
98.4243691272
98.3961744789
98.3364155173
98.2985863258
97.7999303748
99.9883893693
99.9870992992
99.9870992992
99.9870992992
99.985665888
99.9836996175
99.9815148725
99.9815148725
99.9773177346
99.9757250555
99.9730278394
99.9730278394
99.9730278394
99.9730278394
99.9700309327
99.9700309327
99.9667010363
99.9588901683
99.9588901683
99.9543224093
99.9492471214
99.9492471214
99.9492471214
99.9436079127
99.9436079127
99.9373421252
99.9303801391
99.9303801391
99.922644599
99.922644599
99.9140495544
99.9140495544
99.9044995049
99.9044995049
99.8938883388
99.8938883388
99.8938883388
99.8820981542
99.8820981542
99.8689979491
99.8689979491
99.8544421657
99.8544421657
99.8544421657
99.838269073
99.838269073
99.82029897
99.82029897
99.8003321889
99.5825442082
99.3637314559
99.2144832789
98.6697205353
94.7665236697
90.1522909782
87.8423345409
87.6426069506
87.8423345409
87.8423345409
89.0581010868
91.1370618803
92.8210201231
94.1850262997
95.2898713028
95.7608841725
96.1847957552
96.1847957552
96.5663161797
96.5663161797
96.5663161797
96.9096845617
96.9096845617
96.9096845617
96.9096845617
96.9096845617
96.9096845617
96.9096845617
97.2187161056
97.2187161056
97.2187161056
97.2187161056
97.2187161056
97.2187161056
97.2187161056
97.496844495
97.496844495
97.496844495
97.7471600455
97.7471600455
97.972444041
98.1751996369
98.3537286664
98.4443146662
98.4181929564
98.2824722103
97.8541683968
99.9883893693
99.9870992992
99.9870992992
99.9870992992
99.985665888
99.985665888
99.9836996175
99.9815148725
99.9773177346
99.9757250555
99.9730278394
99.9730278394
99.9730278394
99.9700309327
99.9700309327
99.9667010363
99.9630011515
99.9588901683
99.9543224093
99.9543224093
99.9492471214
99.9492471214
99.9436079127
99.9436079127
99.9373421252
99.9303801391
99.9303801391
99.922644599
99.922644599
99.9140495544
99.9140495544
99.9044995049
99.9044995049
99.8938883388
99.8938883388
99.8820981542
99.8820981542
99.8820981542
99.8689979491
99.8689979491
99.8544421657
99.8544421657
99.838269073
99.838269073
99.838269073
99.82029897
99.8003321889
99.7781468766
99.6242897874
99.3637314559
99.0302262702
87.8423345409
81.4697981115
79.4108867905
77.123207545
77.123207545
77.123207545
79.4108867905
79.4108867905
81.4697981115
83.3228183003
84.9905364703
87.8423345409
89.0581010868
92.0233556923
93.5389181108
94.1850262997
95.2898713028
95.2898713028
95.7608841725
96.1847957552
96.1847957552
96.1847957552
96.5663161797
96.5663161797
96.5663161797
96.5663161797
96.9096845617
96.9096845617
96.9096845617
96.9096845617
96.9096845617
96.9096845617
97.2187161056
97.2187161056
97.2187161056
97.2187161056
97.496844495
97.6198295217
97.7471600455
97.972444041
98.1751996369
98.4434030173
98.4871859746
98.3204641139
97.7730892435
99.9883893693
99.9870992992
99.9870992992
99.9870992992
99.985665888
99.985665888
99.9836996175
99.9815148725
99.9757250555
99.9757250555
99.9730278394
99.9730278394
99.9730278394
99.9700309327
99.9667010363
99.9630011515
99.9588901683
99.9588901683
99.9543224093
99.9492471214
99.9492471214
99.9436079127
99.9436079127
99.9373421252
99.9303801391
99.9303801391
99.922644599
99.922644599
99.9140495544
99.9140495544
99.9044995049
99.9044995049
99.8938883388
99.8938883388
99.8820981542
99.8820981542
99.8689979491
99.8689979491
99.8544421657
99.8544421657
99.8544421657
99.838269073
99.838269073
99.82029897
99.82029897
99.8003321889
99.7781468766
99.726107255
99.3637314559
90.1522909782
77.123207545
71.7570463519
71.7570463519
71.7570463519
71.7570463519
71.7570463519
71.7570463519
71.7570463519
74.5813417167
74.5813417167
77.123207545
77.123207545
79.4108867905
81.4697981115
84.9857609898
86.4914828233
89.0581010868
91.1370618803
92.8210201231
94.1850262997
94.7665236697
95.2898713028
95.7608841725
95.7608841725
95.7608841725
96.1847957552
96.1847957552
96.1847957552
96.5663161797
96.5663161797
96.5663161797
96.5663161797
96.5663161797
96.9096845617
96.9096845617
96.9096845617
97.2187161056
97.2187161056
97.496844495
97.496844495
97.7471600455
97.972444041
98.3576796732
98.4272653629
98.3683880395
97.6832680045
99.9883893693
99.9870992992
99.9870992992
99.9870992992
99.985665888
99.985665888
99.9836996175
99.9797452291
99.9757250555
99.9757250555
99.9730278394
99.9730278394
99.9700309327
99.9700309327
99.9667010363
99.9630011515
99.9588901683
99.9543224093
99.9543224093
99.9492471214
99.9436079127
99.9436079127
99.9373421252
99.9303801391
99.9303801391
99.922644599
99.922644599
99.9140495544
99.9044995049
99.9044995049
99.9044995049
99.8938883388
99.8938883388
99.8820981542
99.8820981542
99.8689979491
99.8689979491
99.8544421657
99.8544421657
99.838269073
99.838269073
99.82029897
99.82029897
99.82029897
99.8003321889
99.7781468766
99.726107255
99.3637314559
81.4697981115
68.618940391
65.13215599
65.13215599
68.618940391
68.618940391
68.618940391
68.618940391
68.618940391
68.618940391
71.7570463519
71.7570463519
71.7570463519
71.7570463519
74.5813417167
74.5813417167
77.123207545
79.4108867905
81.4697981115
83.3228183003
86.4914828233
89.0581010868
92.0233556923
92.8210201231
94.1850262997
94.7665236697
95.2898713028
95.2898713028
95.7608841725
95.7608841725
95.7608841725
96.1847957552
96.1847957552
96.1847957552
96.5663161797
96.5663161797
96.5663161797
96.5663161797
96.9096845617
96.9096845617
97.2187161056
97.496844495
97.496844495
97.972444041
98.1751996369
98.3952803887
98.423366688
97.5949436294
99.9883893693
99.9870992992
99.9870992992
99.9870992992
99.985665888
99.985665888
99.9836996175
99.9781525499
99.9757250555
99.9757250555
99.9730278394
99.9730278394
99.9700309327
99.9667010363
99.9630011515
99.9588901683
99.9543224093
99.9543224093
99.9492471214
99.9492471214
99.9436079127
99.9373421252
99.9303801391
99.9303801391
99.922644599
99.9140495544
99.9140495544
99.9044995049
99.9044995049
99.8938883388
99.8938883388
99.8820981542
99.8820981542
99.8689979491
99.8689979491
99.8544421657
99.8544421657
99.838269073
99.838269073
99.838269073
99.82029897
99.82029897
99.8003321889
99.8003321889
99.7781468766
99.726107255
99.3637314559
74.5813417167
36.1876411
45.733969
61.2579511
65.13215599
65.13215599
68.618940391
68.618940391
68.618940391
68.618940391
68.618940391
68.618940391
68.618940391
68.618940391
68.618940391
68.618940391
71.7570463519
71.7570463519
71.7570463519
74.5813417167
77.123207545
79.4108867905
81.4697981115
84.9905364703
87.8423345409
90.1522909782
92.0233556923
93.5389181108
94.1850262997
94.7665236697
95.250978297
95.2898713028
95.2898713028
95.7608841725
95.7608841725
96.1847957552
96.1847957552
96.1847957552
96.5663161797