/*--------------------------------*- C++ -*----------------------------------*\
| =========                 |                                                 |
| \\      /  F ield         | OpenFOAM: The Open Source CFD Toolbox           |
|  \\    /   O peration     | Version:  v1906                                 |
|   \\  /    A nd           | Web:      www.OpenFOAM.com                      |
|    \\/     M anipulation  |                                                 |
\*---------------------------------------------------------------------------*/
FoamFile
{
    version     2.0;
    format      ascii;
    class       volScalarField;
    location    "621";
    object      p;
}
// * * * * * * * * * * * * * * * * * * * * * * * * * * * * * * * * * * * * * //

dimensions      [0 2 -2 0 0 0 0];


internalField   nonuniform List<scalar> 
9216
(
273.537464995
273.617236907
273.782300404
274.034061281
274.371098527
274.791826319
275.294275585
275.876137669
276.534799064
277.267386081
278.070797272
278.941748382
279.876801795
280.872409312
281.924936046
283.030698904
284.185983563
285.387077847
286.630281672
287.911935557
289.22842426
290.576201265
291.951787223
293.351791445
294.772906307
296.211926684
297.665741316
299.131350893
300.605857141
302.086480017
303.570545121
305.055499731
306.538898825
308.018421586
309.491855756
310.957112826
312.41221171
313.855293563
315.28460451
316.698509857
318.095476103
319.474084566
320.83301287
322.171048025
323.487067574
324.780052169
326.049066602
327.293271927
328.511906557
329.704297995
330.869844195
332.008024941
333.118383626
334.200538316
335.254164095
336.279003804
337.274851059
338.241560658
339.179032331
340.087220773
340.966120167
341.815773773
342.636259234
343.427697647
344.190239635
344.924073817
345.629413635
346.30650514
346.95561455
347.577035298
348.17107631
348.738068276
349.278352641
349.792287095
350.280235294
350.742571573
351.179671426
351.591915476
351.979680753
352.343343967
352.683273623
352.999832662
353.293371457
353.564229894
353.812731303
354.039184066
354.24387658
354.427078573
354.5890374
354.729979747
354.850110826
354.94962007
355.028692949
355.087559449
355.127048451
355.14338169
273.457734935
273.537869086
273.703276659
273.956039434
274.294512686
274.717035094
275.221593695
275.805841668
276.467130497
277.202550055
278.00896514
278.883056726
279.821356616
280.820285719
281.876183576
282.985341371
284.144024911
285.34850166
286.595057104
287.880016184
289.19975385
290.550711863
291.92940468
293.332432772
294.756485
296.198349461
297.654913317
299.123171939
300.600226882
302.083293806
303.569698971
305.056886535
306.542413925
308.023957644
309.499307928
310.966374327
312.423179193
313.867862438
315.298674292
316.713979404
318.112248931
319.492064034
320.852107435
322.191166387
323.508123843
324.801961005
326.071748253
327.316647385
328.535902465
329.72884184
330.894869063
332.033464776
333.144177829
334.226627104
335.280492928
336.305518879
337.301503567
338.268302435
339.205819946
340.114011369
340.992875365
341.842455732
342.662834373
343.454132929
344.216506106
344.950143127
345.655261374
346.33210761
346.980951881
347.602088468
348.195830036
348.762508268
349.302468258
349.816068835
350.303677197
350.765668936
351.202422953
351.614321217
352.001743987
352.365069358
352.704668844
353.02090676
353.314136213
353.584698386
353.832918993
354.059107528
354.263554243
354.446529431
354.608280966
354.749033576
354.868986485
354.968310748
355.047140976
355.10554594
355.143410782
355.159718227
273.291907523
273.373189953
273.540130414
273.795198109
274.136716651
274.562979578
275.071913011
275.661101924
276.32782672
277.069104115
277.881727297
278.762307069
279.707309842
280.713094834
281.775946508
282.892105545
284.05779439
285.269241471
286.522699997
287.814466046
289.14089161
290.498397742
291.883483149
293.292733687
294.722827733
296.17054313
297.632760321
299.106467542
300.588762371
302.076855672
303.568071948
305.059852361
306.549754131
308.035452514
309.514739367
310.985524468
312.445833192
313.893807043
315.327700585
316.745881276
318.146825735
319.529118965
320.891450064
322.232610938
323.551491592
324.847078453
326.118449387
327.364771756
328.585297298
329.779360046
330.946371202
332.085817028
333.197253827
334.280305892
335.334660679
336.360066881
337.356329848
338.323309808
339.260917564
340.16911286
341.047900337
341.897328022
342.717483513
343.508492528
344.27051527
345.003744986
345.708404452
346.384744483
347.033040493
347.653590904
348.246713755
348.812744988
349.352035086
349.864947237
350.351854006
350.813135406
351.249175622
351.660361022
352.047076989
352.409705908
352.748624154
353.064200119
353.356791403
353.626742934
353.874384416
354.100028588
354.303968962
354.486478221
354.647806178
354.78817808
354.90779216
355.006816396
355.085382578
355.143571506
355.181330491
355.199158962
273.036954542
273.119524
273.288862011
273.547534286
273.893803291
274.325886774
274.841617096
275.438474196
276.113627317
276.863979453
277.686211442
278.576825393
279.532185496
280.548556192
281.622136279
282.749089648
283.925571599
285.147751934
286.411833998
287.714071142
289.050779833
290.418350998
291.813258754
293.232068137
294.671440823
296.128140441
297.599036303
299.081107121
300.571443387
302.067249961
303.56584744
305.064673773
306.561284813
308.053355207
309.53867799
311.015164631
312.480843888
313.933861064
315.372476115
316.795062181
318.200103014
319.586190883
320.952023436
322.296401086
323.618223438
324.916486295
326.190277795
327.438775172
328.66124074
329.857018558
331.025530383
332.166272357
333.278811051
334.362780265
335.417877254
336.443859701
337.440542181
338.40779335
339.345532652
340.253727721
341.132391327
341.981578954
342.801385933
343.591945147
344.353424292
345.086023642
345.789973373
346.465531322
347.112980322
347.732625911
348.324793633
348.889826671
349.428083106
349.939933473
350.42575798
350.885944012
351.320883345
351.730969635
352.116595672
352.4781509
352.81601877
353.130574346
353.42218181
353.691192209
353.937941157
354.162746761
354.365907545
354.547700546
354.70837937
354.848172286
354.967280053
355.065873428
355.144090165
355.202030102
355.239680428
355.257812507
272.69179491
272.776013282
272.948640892
273.212267171
273.565061208
274.005129935
274.530173682
275.137525768
275.824200509
276.586943159
277.422279003
278.326560634
279.296011991
280.326768498
281.414912632
282.55650498
283.747610646
284.984321545
286.262774731
287.579167505
288.929769516
290.310932638
291.719098761
293.150806197
294.602694733
296.071509884
297.55410627
299.047450549
300.548623711
302.054823095
303.563363872
305.07168016
306.577325827
308.077975101
309.571422332
311.055581667
312.528486165
313.988286678
315.433250185
316.861757928
318.272303051
319.663488077
321.034021964
322.382717062
323.708485706
325.010336804
326.287372128
327.538782667
328.763844778
329.961916447
331.132433431
332.274905571
333.388913032
334.474102769
335.53018497
336.556929739
337.554163791
338.521767394
339.459671332
340.367854095
341.246339088
342.095192036
342.914518382
343.704460838
344.465196903
345.196936485
345.899919462
346.574413304
347.220710608
347.83912667
348.429996954
348.993674578
349.530527707
350.040936954
350.525292702
350.983992454
351.417438119
351.826033349
352.210180844
352.570279727
352.906722931
353.219894673
353.510167976
353.777902298
354.023441237
354.247110356
354.449215101
354.63003882
354.789840857
354.9288547
355.047286145
355.145311656
355.223076998
355.28069584
355.318173127
355.336335246
272.254645898
272.34095597
272.517819456
272.787832846
273.149036154
273.599385414
274.136404352
274.757231902
275.45867817
276.237281747
277.089365251
278.011087789
278.998492946
280.047551509
281.154198527
282.314364747
283.524002694
284.779107924
286.075736008
287.410015957
288.778160672
290.176475075
291.601362392
293.0493291
294.516988834
296.001065595
297.498396395
299.005933535
300.520746516
302.04002369
303.561073588
305.08132581
306.598331821
308.109765544
309.613422993
311.107221884
312.58920073
314.057517585
315.510448345
316.946384709
318.363831743
319.761405166
321.137828303
322.491928824
323.82263523
325.128973215
326.410061845
327.665109699
328.893410913
330.094341252
331.267354164
332.411976927
333.527806843
334.614507568
335.671805545
336.699486591
337.697392628
338.665418569
339.603509346
340.511657097
341.389898462
342.23831201
343.057015745
343.846164695
344.605948538
345.336589262
346.038338821
346.711476784
347.35630794
347.973159875
348.562380481
349.12433542
349.659405529
350.167984176
350.650474568
351.107287031
351.538836268
351.945538613
352.327809296
352.68605973
353.020694851
353.332110504
353.62069092
353.886806261
354.130810283
354.353038098
354.55380405
354.733399714
354.892092009
355.030121445
355.147700521
355.245012469
355.322210561
355.37941724
355.416644914
355.434724494
271.723230234
271.812131172
271.99425915
272.272210901
272.643857522
273.10695779
273.65880664
274.296293022
275.015966268
275.814102987
276.68677084
277.629887536
278.639273575
279.71069798
280.839916815
282.022704766
283.254880374
284.532325686
285.851001227
287.206957138
288.596341336
290.015405419
291.460508946
292.928122605
294.414830653
295.91733292
297.43244655
298.957107579
300.488372401
302.023419081
303.559548476
305.09418502
306.624877506
308.149299637
309.665249572
311.170649492
312.663544652
314.142102009
315.604608433
317.049468505
318.475201949
319.880440716
321.263925768
322.624503594
323.961122513
325.272828802
326.558762694
327.818154294
329.050319453
330.254655639
331.430637851
332.577814599
333.695803991
334.784289946
335.843018566
336.87179466
337.870478459
338.838982495
339.777268669
340.685345467
341.56326534
342.411122199
343.229049023
344.017215533
344.775825927
345.505116621
346.205353999
346.87683212
347.519870393
348.13481118
348.722017331
349.281869652
349.814764288
350.321110051
350.801325683
351.255837074
351.685074457
352.089469585
352.469452916
352.825450818
353.157882826
353.467158949
353.75367706
354.017820376
354.259955042
354.48042784
354.679564016
354.857665252
355.015007787
355.151840705
355.268384434
355.364829669
355.441336652
355.498033985
355.534938291
355.552873854
271.094725263
271.186774768
271.375302947
271.662899392
272.047218884
272.525767531
273.095549091
273.753136711
274.494752912
275.316348842
276.213678396
277.182365202
278.217960905
279.315994115
280.472010151
281.681602209
282.940434966
284.244261805
285.588936867
286.970423116
288.384797449
289.828253769
291.297104728
292.787782744
294.296840675
295.820952444
297.356913752
298.90164295
300.452182029
302.005697682
303.559482119
305.110954075
306.657659486
308.197271911
309.727592192
311.246547945
312.752192547
314.242703672
315.716381357
317.171645653
318.60703385
320.021197358
321.412898246
322.781005528
324.124491201
325.442426128
326.733975781
327.998395916
329.235028215
330.443295938
331.622699641
332.772812978
333.893278639
334.983804442
336.044159605
337.074171225
338.073720952
339.042741883
339.981215658
340.889169749
341.766674915
342.613842814
343.43082372
344.21780433
344.975005611
345.702680671
346.401112608
347.070612308
347.711516191
348.324183856
348.908995651
349.466350126
349.996661412
350.500356494
350.977872421
351.429653453
351.856148166
352.257806543
352.635077053
352.988403765
353.318223497
353.624963026
353.909036388
354.170842261
354.410761478
354.629154655
354.826359968
355.00269108
355.15843524
355.29385157
355.409169587
355.504588052
355.580274204
355.636362192
355.672872315
355.690620429
270.365700617
270.461526681
270.657727794
270.956874368
271.356346517
271.853329504
272.444459866
273.125915689
273.893514455
274.742808086
275.669169934
276.667871294
277.734145885
278.863241968
280.050462677
281.29119582
282.580934709
283.915291737
285.290006377
286.700949111
288.144122604
289.615661199
291.111829568
292.629021139
294.16375674
295.712683678
297.27257538
298.840331554
300.412978791
301.987671441
303.561692282
305.13245374
306.697498665
308.254500636
309.801263753
311.335722087
312.855938625
314.360103687
315.846532854
317.313664407
318.760056339
320.184382962
321.585431185
322.962096483
324.313378659
325.638377402
326.936287749
328.206395457
329.448072374
330.660771834
331.844024136
332.997432135
334.120667007
335.213464186
336.275619538
337.306985758
338.307469028
339.277025914
340.215660512
341.12342182
342.00040131
342.846730666
343.662579664
344.448154124
345.203693928
345.929471029
346.625787436
347.292973128
347.93138388
348.541398971
349.123418774
349.677862218
350.205164128
350.705772451
351.180145392
351.628748465
352.0520515
352.450525611
352.824640167
353.174859781
353.501641334
353.805431076
354.086661806
354.34575016
354.583094019
354.79907006
354.994031455
355.168305744
355.322192883
355.455963495
355.569857334
355.664082128
355.73881255
355.794188378
355.830234446
355.847757946
269.53204256
269.632361508
269.837682792
270.150538622
270.567960641
271.086727683
271.703014696
272.41250786
273.210525764
274.092134563
275.052250746
276.085728758
277.187432069
278.352287912
279.575327057
280.851710693
282.176746803
283.545898463
284.954786262
286.399186803
287.875028859
289.378388448
290.905483755
292.452670557
294.016438564
295.593408866
297.18033249
298.774089975
300.3716917
301.970278778
303.567123704
305.159631943
306.745342995
308.321930582
309.887202636
311.439100772
312.975699173
314.495202901
315.995945635
317.476386887
318.935108737
320.370812132
321.782312826
323.168537014
324.528516716
325.861385
327.16637107
328.442795316
329.690064343
330.907666077
332.095164952
333.252197267
334.378466724
335.473740207
336.537843819
337.570659206
338.572120176
339.542209622
340.48095673
341.388434458
342.264757254
343.110078969
343.924590919
344.708520054
345.462127155
346.185705048
346.87957674
347.544093482
348.179632693
348.786595742
349.365405563
349.916504119
350.440349696
350.937414065
351.40817952
351.853135823
352.272777073
352.667598546
353.038093514
353.384750094
353.708048132
354.008456161
354.286428456
354.542402192
354.776794751
354.990001164
355.18239173
355.354309806
355.506069792
355.637955324
355.750217683
355.843074477
355.916708603
355.971266242
356.006777538
356.024040711
268.588858816
268.694499433
268.910611046
269.239658144
269.678229035
270.222586759
270.868325857
271.610520736
272.44387737
273.362873886
274.361882449
275.435269422
276.577472905
277.783058821
279.04675813
280.363488469
281.728363713
283.136694767
284.583984502
286.065919224
287.578358558
289.117325153
290.67899522
292.259690527
293.855872249
295.464136741
297.08121315
298.703962579
300.329378438
301.954587577
303.576851209
305.193566989
306.802270688
308.400636188
309.986475819
311.557739867
313.112515426
314.649024558
316.165621834
317.660791266
319.133142712
320.581407814
322.004435538
323.401187392
324.770732401
326.112241896
327.424984209
328.708319304
329.961693449
331.184633947
332.376744016
333.537697839
334.667235869
335.765160392
336.831331424
337.865662934
338.868119444
339.838712964
340.777500297
341.684580653
342.560093551
343.404216952
344.217165567
344.999189269
345.750571553
346.471627972
347.162704486
347.824175691
348.456442873
349.059931866
349.63509071
350.18238709
350.702305589
351.195344757
351.662014027
352.102830523
352.518315772
352.908992376
353.275380661
353.617995354
353.9373423
354.233915259
354.508192808
354.760635364
354.991682355
355.201749552
355.391226582
355.560474631
355.709824349
355.839573959
355.94998759
356.041293939
356.113685025
356.167314095
356.202217789
356.219184709
267.530357174
267.642292932
267.871150867
268.219283501
268.68271165
269.257040819
269.937133535
270.717302516
271.591502214
272.553501404
273.597027801
274.715881783
275.904019349
277.155607123
278.465053819
279.827023223
281.236433663
282.688448427
284.178460802
285.702076629
287.255096481
288.833498998
290.433426356
292.051172487
293.683174302
295.326005905
296.976375502
298.631124538
300.287228454
301.941798464
303.592083119
305.235471118
306.869493855
308.491825236
310.100282493
311.692825766
313.267556889
314.822717407
316.356685842
317.867974301
319.35522448
320.817203168
322.252797313
323.661008761
325.040948733
326.391832134
327.712971761
329.00377249
330.263725493
331.492402575
332.689450663
333.854586527
334.987591781
336.088308223
337.156633543
338.192517451
339.195958226
340.166999712
341.105728716
342.012272809
342.886798459
343.729509446
344.54064547
345.32048089
346.069323485
346.787513194
347.47542071
348.133445926
348.76201613
349.361583973
349.932625145
350.475635803
350.991129749
351.479635377
351.941692452
352.377848732
352.788656493
353.174668999
353.536436952
353.874504957
354.189408055
354.481668327
354.751791624
355.000264428
355.227550879
355.434089974
355.620292964
355.786540953
355.933182713
356.06053272
356.168869411
356.258433706
356.329427804
356.382013057
356.416233346
356.432866786
266.349689588
266.469081438
266.713011095
267.083652928
267.57629546
268.185700352
268.905802507
269.72996373
270.651216346
271.662475688
272.756711108
273.927073315
275.166980162
276.470166358
277.830704279
279.243003403
280.701795301
282.202109982
283.739248161
285.308752723
286.906381679
288.528084087
290.169979856
291.828343892
293.499594731
295.180287446
296.867110332
298.556884578
300.246566074
301.93324827
303.614165004
305.286694504
306.948362674
308.596843072
310.229958256
311.845679436
313.442125193
315.017559277
316.570387561
318.099154227
319.602537308
321.079343654
322.528503456
323.949064401
325.340185593
326.701131284
328.031264548
329.330040928
330.597002171
331.831770069
333.03404053
334.203577893
335.340209595
336.443821218
337.514352002
338.551790837
339.556172783
340.527576107
341.466119839
342.371961789
343.24529698
344.086356411
344.895406059
345.67274601
346.418709625
347.133662623
347.818002014
348.472154777
349.096576257
349.691748225
350.258176596
350.796388815
351.306930935
351.790364416
352.247262715
352.678207683
353.08378587
353.464584742
353.821188892
354.154176275
354.464114505
354.751557252
355.017040772
355.261080586
355.484168339
355.686768857
355.869317412
356.032217211
356.175837111
356.300509566
356.4065288
356.494149338
356.563584613
356.615004828
356.648462248
356.664723425
265.03875029
265.167004917
265.428813222
265.826073262
266.353118864
267.003619895
267.770328544
268.645415147
269.620779669
270.688313347
271.840099202
273.068551191
274.366497674
275.727218947
277.144450085
278.612360009
280.125516193
281.678842419
283.267574892
284.887220305
286.533518025
288.202407673
289.890002755
291.59257061
293.306518639
295.028386412
296.754842851
298.482687358
300.208853566
301.930413573
303.644583728
305.348729793
307.040370169
308.717177478
310.376979932
312.017761104
313.637658521
315.234961189
316.808106123
318.355674048
319.87638434
321.369089388
322.832768438
324.266521107
325.669560616
327.041206895
328.38087962
329.688091275
330.962440299
332.203604411
333.411334154
334.58544677
335.725820443
336.832389032
337.905137318
338.944096857
339.949342446
340.920989241
341.859190481
342.764135801
343.636050034
344.475192426
345.281856116
346.05636778
346.799087283
347.510407224
348.190752248
348.84057804
349.460369939
350.050641113
350.611930309
351.144799175
351.649829195
352.127618303
352.578777219
353.003925588
353.403687988
353.778689868
354.129553471
354.456893788
354.761314604
355.043404643
355.303733878
355.542850004
355.761275116
355.9595026
356.137994261
356.297177687
356.437443862
356.559145033
356.66259282
356.748056598
356.815762203
356.865889785
356.898500681
356.91434868
263.587911835
263.726761635
264.009890599
264.438773767
265.006485759
265.70527042
266.526361506
267.460430314
268.49798526
269.629692893
270.846609352
272.14032614
273.503042085
274.927577824
276.407350002
277.936320668
279.508934324
281.120051657
282.764885874
284.438945058
286.137982269
287.85795406
289.594987653
291.345356732
293.10546568
294.871841665
296.641133449
298.410115242
300.175693706
301.934914687
303.684972631
305.423217444
307.147157789
308.854464337
310.542971182
312.210675651
313.855736702
315.476472035
317.07135412
318.63900524
320.178191763
321.687817729
323.166917937
324.61465066
326.030290132
327.413218902
328.76292018
330.078970218
331.361030825
332.60884207
333.822215258
335.00102625
336.145209253
337.254751126
338.329686341
339.370092641
340.376087459
341.34782511
342.285494759
343.189319076
344.059553529
344.896486144
345.700437617
346.471761586
347.210844907
347.918107758
348.594003441
349.239017747
349.853667824
350.438500491
350.994089992
351.521035221
352.019956476
352.491491802
352.936293027
353.355021563
353.748344069
354.116928039
354.46143739
354.782528108
355.080843978
355.357012475
355.611640802
355.84531215
356.058582165
356.251975668
356.425983627
356.581060399
356.71762123
356.836040036
356.936647429
357.019729136
357.085524514
357.134224416
357.165900407
357.18129217
261.985675785
262.137291445
262.446031337
262.912727233
263.528770639
264.284523567
265.169255813
266.171744961
267.280789225
268.485598042
269.77605214
271.142844967
272.577527544
274.072483265
275.620858246
277.216468682
278.85370112
280.527416131
282.232861254
283.965595792
285.721427996
287.496364267
289.28656986
291.088340773
292.898086586
294.712323671
296.527677235
298.340889831
300.14883337
301.948520273
303.737116601
305.511951764
307.270521855
309.010494216
310.729708987
312.426178847
314.098087039
315.743783937
317.36178237
318.950751919
320.509512315
322.037026151
323.532391031
324.994831392
326.423690096
327.818419968
329.178575345
330.503803727
331.793837568
333.0484863
334.267628634
335.451205264
336.599212069
337.711693946
338.788739384
339.830475893
340.837066343
341.80870627
342.745622111
343.648070328
344.516337278
345.350739707
346.151625625
346.9193754
347.654402799
348.357155813
349.028117041
349.667803526
350.276765913
350.855586908
351.40487901
351.925281595
352.417457399
352.882088527
353.319872089
353.731515586
354.117732146
354.479235705
354.816736204
355.130934866
355.422519597
355.692160555
355.940505925
356.168177909
356.375768989
356.563838444
356.73290917
356.883464777
357.015946993
357.130753357
357.228235201
357.308695926
357.372389637
357.419519027
357.450166557
357.465056373
260.218204082
260.385355541
260.725147036
261.23743183
261.911318941
262.734659736
263.694164862
264.776211116
265.967497682
267.255514096
268.628819295
270.077157982
271.591452978
273.163715421
274.786910117
276.4548049
278.16182349
279.902912918
281.673430233
283.469048946
285.285683511
287.119429647
288.966518912
290.823286995
292.686155881
294.551629661
296.416302177
298.276873002
300.130167068
301.973152492
303.802958571
305.616888202
307.412421256
309.187220115
310.939131224
312.666184542
314.366591008
316.038738305
317.681185319
319.292655483
320.872029177
322.418335341
323.930742562
325.408549805
326.85117702
328.258155738
329.629119772
330.96379605
332.261995648
333.523605025
334.74857758
335.936925603
337.088712792
338.20404748
339.283076735
340.325981477
341.332972725
342.304289002
343.240194933
344.140980922
345.006963787
345.838488144
346.635928295
347.399690325
348.130214145
348.827975189
349.493485557
350.127294381
350.729987355
351.302185312
351.844541919
352.357740513
352.84249024
353.299521594
353.729581557
354.133428458
354.511826695
354.865541432
355.195333341
355.501953471
355.786138266
356.048604795
356.290046212
356.511127479
356.712481381
356.894704847
357.058355588
357.203949073
357.331955815
357.442798989
357.53685234
357.614438521
357.675827544
357.721234701
357.750754544
357.76509409
258.268680119
258.45497284
258.832842886
259.400647691
260.144351939
261.048420098
262.096204774
263.271031933
264.55703384
265.939695246
267.406128402
268.945127779
270.547069703
272.20372147
273.908013041
275.653808728
277.43570108
279.248836908
281.088776827
282.95138468
284.832741279
286.72907734
288.636722546
290.55207031
292.47155969
294.39167568
296.308965808
298.220067987
300.121741032
302.010893566
303.884607817
305.740152301
307.574986643
309.38676662
311.173345479
312.932772967
314.663291879
316.363332724
318.031507067
319.666599779
321.267560218
322.833492568
324.363645613
325.857402232
327.314268838
328.733864968
330.115913058
331.460228443
332.766709549
334.0353283
335.266120784
336.459178344
337.614639233
338.732681088
339.813514412
340.857377292
341.864531471
342.835259899
343.769865735
344.66867274
345.532026861
346.360298774
347.153887025
347.913221445
348.638766435
349.331023787
349.990534736
350.617881011
351.213684751
351.778607224
352.31334638
352.818633365
353.295228137
353.743914419
354.165494167
354.560781786
354.93059823
355.275765122
355.597098995
355.895405684
356.171474936
356.426075261
356.659949052
356.873808012
357.068328909
357.244149671
357.401865866
357.542027517
357.665136307
357.771643122
357.861945935
357.936388013
357.995256538
358.038780555
358.067067381
358.080805216
256.116421612
256.326651683
256.751856756
257.388084259
258.21689518
259.218135708
260.370726429
261.654114862
263.049316645
264.53952554
266.110338151
267.749685103
269.447575641
271.195753484
272.987337361
274.816492169
276.678153151
278.567808337
280.481333875
282.414871477
284.364736215
286.327345018
288.299160823
290.276652809
292.256277387
294.234485021
296.207750759
298.172620739
300.125759453
302.063995362
303.984350501
305.884050701
307.760531519
309.611440721
311.434639349
313.228200279
314.990403417
316.719728701
318.41484813
320.074616788
321.69806263
323.284375248
324.832894098
326.343096484
327.814585698
329.247079494
330.640398945
331.994457592
333.3092508
334.584845244
335.821368594
337.018999526
338.177958337
339.29849843
340.380899008
341.425459215
342.432493987
343.402331706
344.335313726
345.231795629
346.09215004
346.916770616
347.706076834
348.460519058
349.180583431
349.866796098
350.519726413
351.139988797
351.72824311
352.285193465
352.811585556
353.308202659
353.775860558
354.215401672
354.627688687
355.013597949
355.374012815
355.709817125
356.021888853
356.311094006
356.578280774
356.824273976
357.049869814
357.255830972
357.44288209
357.611705641
357.762938205
357.897167176
358.014927862
358.116700968
358.202910446
358.2739218
358.330040538
358.371510199
358.398452085
358.41153372
253.735622467
253.97632772
254.461324828
255.183042015
256.116766764
257.235988115
258.513755048
259.924597294
261.44579352
263.058001697
264.745348458
266.495134943
268.297331674
270.14400844
272.028796927
273.946437577
275.892427352
277.862762812
279.853760997
281.86193601
283.883909977
285.916342033
287.95586742
289.999049382
292.042355443
294.082172804
296.114860217
298.136824247
300.144595115
302.134892641
304.104663295
306.051084684
307.971565504
309.863744602
311.725492381
313.554909483
315.350319698
317.110260369
318.83347293
320.518892875
322.165637888
323.772994697
325.340405356
326.867453434
328.35385061
329.799424027
331.204104259
332.567913718
333.8909552
335.173400429
336.415478575
337.61746498
338.779670416
339.902431319
340.986101381
342.031044944
343.03763246
344.006238263
344.937240676
345.83102439
346.687984792
347.508533865
348.293107043
349.042170453
349.756227827
350.435826542
351.081562236
351.69408167
352.274083591
352.822317598
353.339581064
353.826714409
354.28459504
354.714130383
355.116250414
355.491900022
355.842031484
356.16759718
356.469542626
356.748799832
357.006280982
357.242872439
357.459429107
357.656769169
357.835669269
357.996860129
358.141022657
358.26878451
358.380717125
358.47733318
358.559084449
358.626360025
358.679484989
358.718718508
358.744196529
358.756563911
251.093524483
251.373869938
251.935822182
252.766030104
253.830693079
255.09448971
256.522686809
258.083621688
259.750183663
261.500371181
263.317098095
265.187510042
267.10208801
269.053754322
271.037103511
273.047805485
275.08218015
277.136916972
279.208902304
281.295115489
283.39255864
285.498193673
287.608874157
289.72127871
291.831871202
293.936926454
296.032615274
298.115129682
300.180805766
302.22622006
304.248230576
306.243966461
308.210810047
310.146390651
312.048589908
313.915542794
315.745626123
317.537444192
319.289818114
321.001775583
322.672537043
324.301499949
325.888222692
327.432408426
328.933889904
330.392615723
331.808637624
333.182098361
334.513219635
335.802289642
337.04965026
338.255684133
339.420802201
340.54543223
341.630008963
342.674966416
343.680732794
344.647728284
345.576365888
346.467055154
347.320208488
348.13624946
348.9156224
349.658802395
350.366304863
351.038693866
351.676588528
352.280667076
352.851668279
353.390390219
353.89768661
354.374460976
354.821659223
355.240261176
355.631271666
355.99571162
356.334609495
356.648993168
356.939882337
357.20828133
357.455172309
357.681508814
357.888209692
358.076153453
358.246173105
358.399051531
358.535517388
358.656241579
358.76183422
358.852842096
358.929746539
358.992961817
359.042833676
359.079637584
359.103525343
359.115116949
248.147683005
248.480946205
249.144124381
250.114423308
251.344674461
252.787325048
254.397375732
256.135468168
257.969505013
259.874962211
261.83416591
263.834957261
265.869195592
267.93141501
270.017770539
272.125293506
274.25141612
276.393702635
278.549720752
280.716991288
282.892962126
285.074964851
287.260132994
289.445293849
291.626882843
293.800981891
295.963456687
298.110164315
300.237160792
302.340839654
304.417966639
306.465638244
308.481216686
310.462319164
312.406838967
314.312955426
316.179111563
318.003989771
319.78650175
321.525781022
323.221166227
324.87218154
326.478517644
328.040012387
329.556633393
331.02846354
332.455687963
333.838581927
335.177498477
336.472855047
337.725119008
338.934792667
340.102398455
341.228465205
342.313516302
343.35806048
344.362585861
345.327557697
346.253420011
347.140601041
347.989522058
348.800608841
349.574304795
350.311084597
351.011467177
351.676026979
352.305402618
352.900302374
353.461506203
353.989864294
354.486292396
354.951764437
355.387303149
355.793969568
356.172852206
356.525056563
356.851695361
357.153879596
357.432710327
357.68927101
357.924620226
358.139784752
358.33575301
358.513468982