/*--------------------------------*- C++ -*----------------------------------*\
| =========                 |                                                 |
| \\      /  F ield         | OpenFOAM: The Open Source CFD Toolbox           |
|  \\    /   O peration     | Version:  v1906                                 |
|   \\  /    A nd           | Web:      www.OpenFOAM.com                      |
|    \\/     M anipulation  |                                                 |
\*---------------------------------------------------------------------------*/
FoamFile
{
    version     2.0;
    format      ascii;
    class       surfaceScalarField;
    location    "621";
    object      phi;
}
// * * * * * * * * * * * * * * * * * * * * * * * * * * * * * * * * * * * * * //

dimensions      [0 3 -1 0 0 0 0];
oriented        oriented;


internalField   nonuniform List<scalar> 
18240
(
-0.000352238377894
0.000352266918237
-0.000737916715431
0.000385713279828
-0.00112325021509
0.000385362491205
-0.0015036154602
0.000380401551954
-0.00187694636074
0.000373358496913
-0.00224149310402
0.000364584311219
-0.00259574812009
0.000354281160226
-0.00293834216325
0.00034263284688
-0.00326812364
0.000329806118751
-0.00358406519715
0.000315981550798
-0.00388536292302
0.000301320773573
-0.00417131907869
0.000285997281802
-0.00444145423436
0.000270156554288
-0.00469536572517
0.000253953673227
-0.00493285488054
0.000237508807475
-0.00515376407926
0.00022095234372
-0.00535812196974
0.000204375746617
-0.00554596184748
0.000187883867732
-0.00571748670755
0.000171540824676
-0.00587287084524
0.000155428839255
-0.00601244551987
0.000139588714808
-0.00613648488612
0.000124084625983
-0.00624541187257
0.000108939023075
-0.00633956903434
9.42028176455e-05
-0.00641944368419
7.98846795289e-05
-0.00648542404958
6.6026241921e-05
-0.00653804211825
5.26260402181e-05
-0.00657771555602
3.97193590473e-05
-0.00660500676165
2.72971520961e-05
-0.00662035134197
1.53903633993e-05
-0.00662433216267
3.98472346064e-06
-0.00661739317382
-6.8935222789e-06
-0.00660012448687
-1.72667580671e-05
-0.0065729688076
-2.71107144308e-05
-0.00653651926726
-3.64495718208e-05
-0.00649121303481
-4.52619437584e-05
-0.00643763810977
-5.35768121044e-05
-0.00637621902068
-6.13756496942e-05
-0.00630753158667
-6.86911304684e-05
-0.00623198200846
-7.55071467245e-05
-0.0061501278995
-8.1859479134e-05
-0.00606235250848
-8.77341221958e-05
-0.00596919018052
-9.31692983198e-05
-0.00587099752208
-9.81526902131e-05
-0.0057682816387
-0.000102724294608
-0.00566137002651
-0.000106873076753
-0.00555073970922
-0.000110640074025
-0.00543668763701
-0.000114015083305
-0.00531965904539
-0.000117039517843
-0.00519992007383
-0.000119703635699
-0.00507788348108
-0.000122048576696
-0.0049537851652
-0.000124064720159
-0.00482800559711
-0.00012579242391
-0.00470075183005
-0.000127221990293
-0.00457237286937
-0.000128392565733
-0.00444304871138
-0.000129294259366
-0.0043130981205
-0.000129964756603
-0.00418267612918
-0.000130394021494
-0.0040520726009
-0.000130618127593
-0.00392141956663
-0.000130627025421
-0.00379097922948
-0.000130455187062
-0.00366086239926
-0.000130092807066
-0.00353130455399
-0.000129572822499
-0.00340239657224
-0.000128885953368
-0.00327434775707
-0.000128063752133
-0.00314722994453
-0.000127097782941
-0.00302122639321
-0.000126018337624
-0.00289639027271
-0.000124818081583
-0.0027728786009
-0.000123526163849
-0.00265072598006
-0.00012213656082
-0.00253006277845
-0.000120677306546
-0.00241090488839
-0.000119143785198
-0.00229335559418
-0.00011756289117
-0.00217741197746
-0.000115931435034
-0.00206314993038
-0.00011427505075
-0.00195054773143
-0.0001125918899
-0.00183965386402
-0.000110906162244
-0.00173042814214
-0.000109217218254
-0.00162289201013
-0.000107547619754
-0.00151698751055
-0.000105897712589
-0.00141270989576
-0.000104288172084
-0.0013099846239
-0.000102720106945
-0.00120878212937
-0.000101212027517
-0.00110901300519
-9.97655126651e-05
-0.0010106249225
-9.83965478225e-05
-0.000913516187283
-9.71066917444e-05
-0.000817615047924
-9.59086009695e-05
-0.000722812366761
-9.48022926566e-05
-0.000629025146634
-9.37937949766e-05
-0.000536152581074
-9.28737398443e-05
-0.000444136329217
-9.20217952218e-05
-0.000352971479967
-9.11672633394e-05
-0.000262853589221
-9.0121842248e-05
-0.000174637845695
-8.82195260106e-05
-9.17265178558e-05
-8.29165109086e-05
-9.17290164662e-05
-0.000389343766586
0.000741642217317
-0.000824019320159
0.00082042378474
-0.00125622468786
0.000817601216268
-0.00168212422316
0.000806336416056
-0.0020997964292
0.000791063647157
-0.00250745465807
0.000772278116464
-0.00290344765045
0.000750306647825
-0.00328627515373
0.000725496145255
-0.0036546407024
0.000698203650593
-0.00400742170916
0.000668798515296
-0.00434370895505
0.000637639432373
-0.00466275613863
0.000605080518861
-0.00496401735237
0.000571448524876
-0.00524708243694
0.00053705482585
-0.00551171730441
0.000502173702552
-0.00575778929504
0.000467060324523
-0.00598531397129
0.000431929618554
-0.00619437360114
0.000396979302071
-0.00638517276124
0.000362368263471
-0.00655795185657
0.000328243438235
-0.00671305254819
0.000294716657903
-0.00685082713235
0.000261894288331
-0.00697171375387
0.000229851784909
-0.00707614175574
0.000198665347779
-0.00716461597212
0.00016838382172
-0.00723761780154
0.000139061922511
-0.00729569754913
0.00011072942888
-0.00733937093586
8.34257996561e-05
-0.00736921837078
5.71668581961e-05
-0.007385776583
3.19807137502e-05
-0.00738964308298
7.87207528691e-06
-0.00738136541276
-1.51400779897e-05
-0.00736155287481
-3.70599274749e-05
-0.00733075706021
-5.78765441704e-05
-0.00728958619851
-7.76025743296e-05
-0.00723858508057
-9.62342969246e-05
-0.00717835382317
-0.000113791756428
-0.00710942410333
-0.000130277907843
-0.00703238090367
-0.000145719561941
-0.00694773633137
-0.000160125627915
-0.00685605386215
-0.000173528734583
-0.00675782050027
-0.000185942822797
-0.0066535728802
-0.000197405232869
-0.00654376850684
-0.000207933875757
-0.00642891306359
-0.00021756956491
-0.00630943143487
-0.000226333026373
-0.00618579552272
-0.000234267277424
-0.00605839574312
-0.000241394712465
-0.00592766866202
-0.000247759316019
-0.00579396960847
-0.000253384079205
-0.00565769940632
-0.000258312854311
-0.00551917872781
-0.000262568326167
-0.00537877322458
-0.000266193302955
-0.00523677019245
-0.000269209476857
-0.00509350138792
-0.000271657963499
-0.0049492225539
-0.000273559050878
-0.00480423325799
-0.000274951789267
-0.00465875978059
-0.000275854928926
-0.00451307131792
-0.000276305376886
-0.00436736671991
-0.000276320484598
-0.0042218864787
-0.000275935180615
-0.00407680376697
-0.000275165765438
-0.00393233166538
-0.000274045544758
-0.00378861894579
-0.000272590252308
-0.00364585208974
-0.000270832010754
-0.00350415622946
-0.000268786501705
-0.00336369155456
-0.000266485104345
-0.00322455981224
-0.000263943904853
-0.00308689479778
-0.000261193878298
-0.0029507747737
-0.000258251832763
-0.00281630677617
-0.000255148528822
-0.00268354528301
-0.000251901634333
-0.00255257014856
-0.000248541697911
-0.00242341179264
-0.000245087192273
-0.00229612259551
-0.000241568283698
-0.00217070883471
-0.000238004023326
-0.00204719543175
-0.000234423873989
-0.00192556480185
-0.000230847104336
-0.00180581485017
-0.000227302049509
-0.001687904856
-0.00022380774256
-0.00157180666427
-0.000220390897021
-0.00145745768051
-0.000217069797872
-0.00134480520536
-0.00021386899095
-0.00123376659504
-0.000210805426337
-0.00112426672934
-0.000207900818102
-0.00101620536856
-0.000205169969089
-0.000909487720438
-0.000202630645576
-0.000803998856995
-0.000200293771211
-0.000699626877383
-0.00019817026628
-0.000596242025877
-0.0001962619629
-0.000493704183852
-0.000194563736037
-0.000391820480588
-0.000193054389378
-0.000290253657901
-0.000191693060952
-0.00018807976524
-0.000190397742307
-8.2661905241e-05
-0.00018833879158
-0.000174393429472
-0.000396301323986
0.00113797551142
-0.000836621146288
0.00126077808403
-0.00127508179549
0.00125609608608
-0.00170716715565
0.00123845644554
-0.00213074912378
0.00121467968074
-0.00254395696557
0.00118552061376
-0.00294508925099
0.00115147280687
-0.00333262464341
0.00111306614775
-0.00370524612082
0.00107085877249
-0.00406183497974
0.00102542188306
-0.00440148074623
0.000977318543188
-0.0047234599138
0.000927094025415
-0.005027238175
0.000875259763309
-0.00531243996417
0.000822290701532
-0.0055788483909
0.000768614644126
-0.005826370358
0.00071461603326
-0.00605503825692
0.000660629483088
-0.00626497397984
0.000606948315805
-0.00645639483318
0.000553820418094
-0.00662957824235
0.00050145957722
-0.00678487291672
0.00045004187181
-0.00692266479137
0.000399718214109
-0.00704339336564
0.000350610015813
-0.00714751863684
0.000302821877825
-0.00723554196686
0.0002564358319
-0.00730797338573
0.000211523692963
-0.00736535606623
0.000168139699764
-0.00740823334448
0.000126332418378
-0.0074371759694
8.61359052711e-05
-0.00745274833454
4.75813060433e-05
-0.00745553789929
1.06867964403e-05
-0.00744612036506
-2.45305863174e-05
-0.0074250907674
-5.8065694677e-05
-0.00739302754155
-8.99140314615e-05
-0.00735052480138
-0.000120082886633
-0.00729815546956
-0.000148579243002
-0.00723650475939
-0.000175421474965
-0.00716613260225
-0.000200627091859
-0.00708760809708
-0.000224224562311
-0.00700147143577
-0.000246240769485
-0.00690826922242
-0.00026671293811
-0.00680851615185
-0.000285675862186
-0.00670273102379
-0.000303173871571
-0.00659139843037
-0.00031924794266
-0.00647500532756
-0.000333947682788
-0.0063540029414
-0.000347318401813
-0.00622884367122
-0.000359413068681
-0.00609994341875
-0.000370279462647
-0.00596771863894
-0.000379972084808
-0.00583254924742
-0.000388539465407
-0.00569481555389
-0.000396035984257
-0.0055548619006
-0.000402509442145
-0.0054130332614
-0.000408012768595
-0.00526963971765
-0.000412591919275
-0.00512499243913
-0.000416297418435
-0.00497936910729
-0.000419172669461
-0.00483304905311
-0.000421265296587
-0.00468627970279
-0.000422615904531
-0.00453931060322
-0.0004232691505
-0.00439236098348
-0.000423263005481
-0.00424565247607
-0.000422639499148
-0.00409937787187
-0.000421434484908
-0.00395373232759
-0.000419687971768
-0.00380888342574
-0.000417434412767
-0.0036650007491
-0.00041471255494
-0.00352222735253
-0.000411556233868
-0.00338070758117
-0.000408003660809
-0.00324056009361
-0.000404088733851
-0.00310190388224
-0.00039984970999
-0.00296483297367
-0.000395321023678
-0.00282944059838
-0.000390541294839
-0.00269579570788
-0.000385545678442
-0.00256396529675
-0.000380373190812
-0.0024339928442
-0.00037505960077
-0.00230591876669
-0.000369644061931
-0.00217976088593
-0.000364162580849
-0.00205553302255
-0.000358653963947
-0.00193322755236
-0.000353153881134
-0.001812832122
-0.000347700134552
-0.00169431434492
-0.000342327347312
-0.001577636641
-0.000337071567393
-0.00146274308879
-0.000331965588947
-0.0013495723657
-0.000327042893456
-0.00123804675932
-0.000322333605296
-0.00112808317913
-0.000317867754479
-0.00101958425148
-0.000313671824478
-0.000912447222635
-0.000309771276668
-0.000806556775269
-0.000306187612296
-0.000701790890148
-0.000302940063292
-0.000598013240675
-0.000300043361835
-0.000495071440475
-0.000297509684786
-0.000392779115807
-0.000295350351795
-0.000290889982163
-0.000293585652772
-0.000189075670696
-0.000292217005105
-8.74620759267e-05
-0.000289957581984
-0.000261857619677
-0.000402505247609
0.00154051285108
-0.000848942864894
0.0017072501261
-0.00129350515181
0.00170069278735
-0.00173144974915
0.00167643555426
-0.00216051171887
0.00164377597922
-0.00257873097604
0.00160377430346
-0.00298434727682
0.00155712332007
-0.00337580856477
0.00150456176826
-0.00375178352816
0.00144686778624
-0.0041111606156
0.00138483315024
-0.00445304609803
0.00131923785646
-0.00477674943829
0.00125083132393
-0.00508177189923
0.00118031575387
-0.0053677844282
0.0011083368844
-0.00563461282197
0.00103547618332
-0.00588221350949
0.000962249976264
-0.00611065976937
0.00088910839796
-0.0063201189439
0.000816440241428
-0.00651084225373
0.000744575790307
-0.00668314509994
0.000673794558693
-0.00683740131056
0.000604329432345
-0.00697402676228
0.000536375069026
-0.00709347777399
0.000470091557916
-0.00719623745873
0.000405612119988
-0.00728281739688
0.00034304536277
-0.00735374579822
0.000282481694302
-0.00740957146256
0.000223993920949
-0.00745085287028
0.000167642365919
-0.00747816357018
0.000113474021804
-0.00749208155507
6.15266725361e-05
-0.00749319555618
1.18269913887e-05
-0.00748209404314
-3.56059620907e-05
-0.00745937208843
-8.07627667941e-05
-0.00742562039829
-0.0001236409091
-0.00738143246147
-0.000164247312297
-0.00732739330253
-0.00020259497631
-0.0072640868963
-0.000238705802453
-0.00719208487967
-0.00027260712194
-0.00711195435052
-0.000304334479167
-0.00702424661987
-0.00033392798985
-0.0069295054058
-0.000361435041895
-0.0068282557439
-0.000386906517268
-0.00672101258886
-0.000410399427659
-0.00660826999109
-0.000431973049433
-0.00649051008496
-0.000451691511957
-0.00636819259965
-0.000469619914931
-0.0062417641914
-0.000485826907939
-0.00611164833988
-0.000500380849742
-0.00597825495015
-0.00051335240083
-0.00584197064953
-0.000524810789874
-0.00570316856861
-0.0005348264516
-0.00556219904086
-0.00054346744971
-0.0054193994495
-0.000550802172772
-0.0052750853014
-0.000556895963601
-0.00512956001634
-0.000561813889164
-0.00498310634206
-0.000565617605633
-0.00483599595258
-0.000568368192855
-0.00468848115457
-0.00057012327377
-0.00454080416697
-0.000570939897991
-0.00439318908236
-0.000570871905715
-0.00424585071512
-0.000569972814392
-0.0040989867883
-0.000568293404006
-0.00395278626528
-0.000565884554548
-0.00380742176662
-0.000562795007843
-0.0036630573358
-0.000559074086258
-0.0035198411115
-0.000554769587123
-0.00337791251284
-0.000549930323839
-0.00323739522684
-0.000544604108877
-0.00309840383089
-0.000538840064248
-0.00296103716566
-0.000532686668532
-0.00282538442982
-0.000526193809778
-0.00269151902158
-0.000519410886181
-0.00255950415126
-0.000512388590622
-0.0024293872225
-0.000505177076086
-0.00230120500189
-0.000497827483503
-0.00217497860212
-0.000490390191977
-0.00205071824163
-0.000482916109652
-0.00192841886795
-0.000475455036857
-0.00180806452263
-0.000468056746521
-0.00168962462847
-0.000460769484754
-0.0015730579667
-0.000453640863787
-0.00145830962849
-0.000446716519402
-0.0013453145905
-0.00044004083301
-0.00123399530628
-0.000433655754178
-0.00112426483432
-0.000427601359792
-0.00101602497151
-0.000421914845927
-0.000909168756467
-0.000416630938666
-0.000803578803356
-0.000411781104415
-0.000699128663244
-0.000407394043602
-0.000595680455308
-0.00040349554914
-0.000493083518021
-0.000400110272532
-0.000391171963627
-0.000397265506341
-0.000289768748294
-0.000394993384541
-0.000188742695979
-0.000393247412626
-8.85939131575e-05
-0.000390110995913
-0.000350454227275
-0.000410504292002
0.0019510492278
-0.000865431635246
0.00216221179768
-0.00131825860711
0.00215355422684
-0.00176405100522
0.00212226241792
-0.0022004087521
0.00208016812009
-0.00262526670551
0.00202866664501
-0.00303679124007
0.00196868214987
-0.00343338876713
0.00190119358256
-0.00381371338053
0.00182722656317
-0.00417666435008
0.00174781825551
-0.00452137744701
0.00166398492149
-0.00484720833701
0.00157669612789
-0.00515371372909
0.00148685484501
-0.00544062802206
0.00139528478552
-0.0057078413969
0.00130272289432
-0.00595537598033
0.00120981776434
-0.00618336594791
0.00111713123999
-0.00639203697966
0.00102514396654
-0.00658169088249
0.000934261990632
-0.00675268975708
0.000844825500499
-0.00690544564238
0.000757116926476
-0.00704040920254
0.000671369953084
-0.00715806367979
0.000587776834312
-0.00725891708407
0.000506495988744
-0.00734349925089
0.000427657410065
-0.00741235628221
0.000351368219102
-0.00746604947288
0.000277715960938
-0.00750515090134
0.000206772212953
-0.00753024327213
0.000138594116074
-0.0075419159007
7.32265473396e-05
-0.0075407649106
1.07025013316e-05
-0.00752738892009
-4.8955966661e-05
-0.00750238958359
-0.000105736905501
-0.00746636727155
-0.000159638574606
-0.00741992136049
-0.000210669402468
-0.00736364598379
-0.000258847107761
-0.00729813033007
-0.000304199062005
-0.00722395446631
-0.000346761191556
-0.00714168983169
-0.000386578194372
-0.00705189524113
-0.000423702274028
-0.00695511766777
-0.000458193195202
-0.00685188852405
-0.000490116867043
-0.00674272478429
-0.000519545269551
-0.00662812561399
-0.000546554949785
-0.0065085738684
-0.000571226881806
-0.00638453310174
-0.000593644935974
-0.006256449427
-0.000613895727788
-0.00612474891156
-0.000632067131842
-0.00598983977444
-0.000648248181059
-0.00585211014313
-0.000662527678094
-0.00571193052238
-0.000674994190124
-0.00556965186987
-0.000685734816081
-0.00542560826791
-0.000694835324173
-0.00528011524939
-0.000702379111108
-0.00513347256774
-0.000708447509195
-0.00498596269468
-0.000713118971214
-0.00483785359126
-0.000716469563654
-0.00468939728531
-0.000718572377528
-0.00454083252939
-0.000719498191895
-0.00439238337844
-0.000719315094017
-0.00424426165152
-0.000718089277774
-0.00409666544419
-0.000715884818817
-0.00394978132392
-0.0007127645415
-0.00380378275019
-0.000708789885781
-0.0036588319859
-0.000704021770237
-0.00351507842931
-0.000698520471468
-0.00337266024838
-0.000692346406906
-0.00323170266896
-0.000685559966047
-0.00309231938366
-0.000678222158768
-0.00295461085834
-0.000670394350487
-0.00281866557294
-0.000662138742633
-0.00268455842333
-0.000653517999246
-0.00255235186641
-0.000644595558113
-0.00242209448393
-0.00063543515443
-0.00229382208468
-0.000626100979952
-0.00216755648724
-0.00061665713408
-0.00204330662498
-0.00060716766477
-0.00192106758016
-0.000597695979609
-0.00180082170964
-0.000588304803361
-0.00168253794809
-0.000579055586831
-0.00156617296176
-0.00057000841423
-0.00145167071473
-0.000561221436789
-0.0013389636329
-0.000552750755431
-0.00122797240539
-0.00054464990471
-0.00111860711501
-0.000536969734375
-0.00101076719017
-0.00052975797141
-0.000904342374011
-0.000523059154198
-0.000799212694198
-0.000516914386943
-0.000695249006919
-0.00051136148755
-0.000592312927439
-0.000506435435063
-0.000490257752951
-0.000502169567814
-0.000388930105574
-0.000498596802014
-0.000288180179518
-0.000495746527532
-0.000187912759127
-0.000493519928294
-8.86029185663e-05
-0.000489426273156
-0.000439059239484
-0.000420675271309
0.00237175660311
-0.000886629678564
0.00262820056573
-0.00135013626223
0.00261709527011
-0.0018060201152
0.00257818072243
-0.00225171786531
0.0025259002789
-0.00268503662977
0.00246201978638
-0.00310405390554
0.00238773375803
-0.00350712695545
0.00230430092016
-0.00389289715751
0.00221303098509
-0.00426028336234
0.00211523860977
-0.00460846657724
0.00201220218465
-0.00493686764186
0.00190513113388
-0.00524512118312
0.00179514218215
-0.00553304724305
0.00168324449274
-0.00580062341397
0.00157033251744
-0.00604795790255
0.00145718550656
-0.00627526559169
0.00134447192919
-0.00648284651425
0.0012327576383
-0.00667106820109
0.0011225161132
-0.00684035056429
0.00101413999148
-0.00699115447446
0.00090795258641
-0.00712397224353
0.00080421910878
-0.00723932112968
0.000703156667746
-0.00733773783894
0.000604943225777
-0.00741977526237
0.000509724859628
-0.00748599932944
0.000417621841692
-0.00753698743271
0.000328733062589
-0.00757332628285
0.00024313954135
-0.00759561090103
0.0001609066011
-0.0076044426182
8.208556624e-05
-0.00760042814679
6.71467318611e-06
-0.00758417696737
-6.51811101812e-05
-0.00755630049518
-0.000133588047051
-0.00751740944452
-0.000198504935562
-0.00746811240088
-0.000259942495107
-0.00740901320599
-0.000317923021109
-0.00734070951212
-0.000372480243002
-0.00726379021389
-0.000423658666404
-0.00717883416142
-0.000471513212195
-0.00708640779422
-0.000516108312559
-0.00698706413691
-0.000557517329092
-0.00688134074633
-0.000595821448232
-0.00676975907466
-0.000631108943795
-0.00665282279814
-0.000663473947421
-0.00653101758353
-0.000693015632768
-0.00640480982331
-0.000719836947703
-0.00627464680913
-0.000744043802799
-0.00614095586791
-0.000765743842484
-0.00600414491207
-0.000785045706686
-0.0058646019415
-0.000802057913334
-0.00572269592009
-0.000816888259332
-0.0055787765876
-0.00082964287489
-0.00543317558522
-0.000840425816194
-0.00528620649618
-0.000849338345734
-0.00513816612603
-0.000856478761242
-0.00498933467448
-0.000861941935921
-0.00483997705713
-0.000865819401457
-0.00469034309983
-0.000868199156883
-0.00454066878961
-0.000869165996608
-0.00439117639014
-0.000868801558694
-0.00424207552294
-0.000867184846808
-0.00409356312426
-0.000864392455953
-0.00394582429179
-0.000860499209385
-0.00379903204474
-0.00085557847104
-0.00365334791373
-0.000849702797349
-0.0035089215091
-0.000842944240078
-0.00336589087832
-0.000835374918892
-0.00322438193115
-0.000827067228979
-0.00308450862435
-0.000818094259512
-0.00294637231825
-0.000808529851704
-0.00281006186859
-0.000798448825495
-0.00267565300061
-0.000787926868668
-0.00254320838905
-0.000777040568729
-0.00241277712632
-0.000765867148755
-0.00228439485811
-0.000754484332536
-0.00215808340446
-0.000742969964542
-0.00203385099689
-0.000731401751714
-0.00191169208605
-0.000719856814959
-0.00179158770235
-0.000708411356352
-0.00167350546223
-0.000697140187432
-0.00155740005539
-0.000686116364863
-0.00144321344018
-0.00067541073404
-0.00133087544195
-0.000665091569589
-0.00122030410769
-0.000655224166059
-0.00111140637841
-0.000645870517959
-0.00100407854703
-0.000637088998943
-0.000898206944527
-0.000628934137063
-0.000793668421224
-0.000621456460506
-0.000690331124198
-0.000614702569768
-0.000588055280476
-0.000608715257635
-0.000486694345621
-0.000603533999616
-0.000386098864245
-0.000599195807024
-0.000286124146487
-0.000595725864216
-0.000186666570523
-0.000592981755298
-8.81530987504e-05
-0.000587944306895
-0.000527215090261
-0.000433281919876
0.00280507058016
-0.000912968465905
0.00310792139874
-0.00138974832527
0.00309390957854
-0.00185813117816
0.00304659801128
-0.00231534634493
0.00298314985048
-0.00275904359445
0.00290575141737
-0.00318719468667
0.00281591919325
-0.00359810274267
0.00271524328778
-0.00399040257479
0.00260536506875
-0.00436304744519
0.00248791767441
-0.00471528533219
0.00236447417063
-0.00504662784177
0.00223650764878
-0.00535681541023
0.00210536361821
-0.00564578133019
0.00197224414032
-0.00591361724225
0.00183820196861
-0.006160541318
0.00170414292837
-0.00638687052223
0.00157083423617
-0.0065929970007
0.00143891696709
-0.00677936905418
0.00130892071413
-0.00694647602485
0.00118127919587
-0.00709483708126
0.00105634551458
-0.00722499292506
0.000934406447477
-0.00733750025946
0.000815695075152
-0.00743292800666
0.000700401608497
-0.00751185514852
0.000588682159257
-0.00757486927929
0.000480665633665
-0.00762256587249
0.000376458785467
-0.0076555475283
0.00027614977729
-0.00767442336945
0.000179810442585
-0.00767980801393
8.74976092965e-05
-0.00767232073424
-7.45834081743e-07
-0.00765258352465
-8.4892195284e-05
-0.00762121963463
-0.000164926479407
-0.00757885184616
-0.000240847954201
-0.00752610027847
-0.000312669992353
-0.00746358020471
-0.000380419742583
-0.007391900003
-0.000444137816137
-0.00731165898006
-0.000503877804377
-0.0072234454487
-0.000559705602111
-0.00712783478182
-0.000611698598891
-0.00702538778727
-0.00065994469828
-0.0069166491232
-0.000704541260115
-0.00680214606653
-0.000745593910621
-0.00668238735968
-0.000783215341767
-0.00655786241883
-0.000817524022821
-0.00642904063253
-0.000848642960082
-0.006296371009
-0.000876698409367
-0.0061602819122
-0.000901818691242
-0.00602118112194
-0.000924132994069
-0.00587945596559
-0.000943770323804
-0.00573547373552
-0.000960858473427
-0.00558958215149
-0.000975523181325
-0.00544211006038
-0.000987887338217
-0.00529336813805
-0.000998070415518
-0.00514364976619
-0.00100618796483
-0.00499323185992
-0.00101235136284
-0.0048423758012
-0.00101666763572
-0.00469132826323
-0.00101923952927
-0.00454032206987
-0.00102016564794
-0.00438957689381
-0.00101954081701
-0.00423929993207
-0.00101745647936
-0.00408968638137
-0.00101400126602
-0.00394091985401
-0.00100926154913
-0.0037931725824
-0.00100332210514
-0.00364660555727
-0.000996266700832
-0.00350136846775
-0.000988178720091
-0.00335759959551
-0.000979141661401
-0.00321542554896
-0.00096923961902
-0.0030749609936
-0.000958557601861
-0.00293630827082
-0.000947181796965
-0.00279955706297
-0.000935199663975
-0.00266478399848
-0.000922699960037
-0.00253205235151
-0.000909772613524
-0.00240141172185
-0.000896508531571
-0.00227289784623
-0.000882999291996
-0.00214653241757
-0.000869336785896
-0.00202232305879
-0.000855612787262
-0.0019002633152
-0.000841918491609
-0.00178033281048
-0.000828344024597
-0.001662497422
-0.000814977936233
-0.00154670961761
-0.000801906702113
-0.0014329088025
-0.000789214221531
-0.00132102181736
-0.000776981353622
-0.00121096343016
-0.00076528546047
-0.00110263696653
-0.000754200015403
-0.00099593490542
-0.000743794229193
-0.000890739604578
-0.000734132778912
-0.000786924042043
-0.000725275588957
-0.000684352610512
-0.000717277683591
-0.000582882276483
-0.000710189299098
-0.000482364441722
-0.000704055949012
-0.000382646698381
-0.000698917133381
-0.000283578917302
-0.000694796602039
-0.000185045183548
-0.000691520600263
-8.74353275243e-05
-0.000685559642902
-0.000614652412824
-0.000448602599503
0.00325370523893
-0.000944984140778
0.00360433722744
-0.00143786701741
0.00358682687316
-0.00192135765765
0.00353012306231
-0.00239242395207
0.00345425054077
-0.00284852340009
0.00336188523652
-0.00328750471422
0.00325493486443
-0.00370761564741
0.00313538854344
-0.00410749690745
0.00300528061808
-0.00448615921337
0.00286661420787
-0.00484294779256
0.00272129691144
-0.00517749925446
0.0025710931713
-0.00548969522326
0.00241759353754
-0.00577961646745
0.00226219918683
-0.00604750017735
0.00210611931855
-0.00629370220082
0.00195037838908
-0.00651866509768
0.00179583034846
-0.00672289227871
0.00164317710254
-0.00690692794762
0.00149298905304
-0.00707134228094
0.00134572587721
-0.0072167211043
0.00120175633653
-0.00734365922606
0.00106137618577
-0.00745275664834
0.000924823701112
-0.00754461682278
0.000792292545392
-0.00761984632511
0.000663941949045
-0.00767905524757
0.000539904347273
-0.00772285792844
0.000420290725288
-0.00775187351394
0.000305194073871
-0.00776672625766
0.000194691311448
-0.00776804525533
8.88441354913e-05
-0.00775646347333
-1.23007238143e-05
-0.00773261706679
-0.000108712351197
-0.0076971434628
-0.000200374515347
-0.00765067930663
-0.000287287219759
-0.00759385845292
-0.000369466672864
-0.00752730960378
-0.000446945124864
-0.00745165407168
-0.000519770627928
-0.00736750343682
-0.00058800644702
-0.00727545746817
-0.000651730346508
-0.00717610203346
-0.000711033553632
-0.0070700073691
-0.000766019666242
-0.00695772639298
-0.000816803293102
-0.00683979343196
-0.000863508719898
-0.00671672301107
-0.000906268367665
-0.0065890090786
-0.00094522135395
-0.00645712428842
-0.00098051190241
-0.00632151971803
-0.00101228792059
-0.00618262462408
-0.00104069947141
-0.00604084661688
-0.00106589746633
-0.00589657184381
-0.0010880322933
-0.00575016556301
-0.00110725271338
-0.0056019726863
-0.00112370473047
-0.00545231866721
-0.00113753077223
-0.00530151030596
-0.00114886888189
-0.0051498368373
-0.00115785225547
-0.00499757086997
-0.00116460881595
-0.00484496953134
-0.00116926114797
-0.00469227539189
-0.00117192647572
-0.00453971751427
-0.00117271698704
-0.00438751221701
-0.00117174017642
-0.0042358638912
-0.00116909948614
-0.00408496548915
-0.00116489491444
-0.00393499901958
-0.00115922384548
-0.00378613570556
-0.00115218177534
-0.00363853613441
-0.00114386316948
-0.00349235009874
-0.00113436214598
-0.00334771644681
-0.00112377320487
-0.00320476268387
-0.00111219173022
-0.00306360462102
-0.00109971447475
-0.00292434585313
-0.00108643979571
-0.00278707732954
-0.00107246784004
-0.0026518768337
-0.00105790049297
-0.0025188085936
-0.00104284127092
-0.00238792286943
-0.00102739501878
-0.00225925569344
-0.00101166756591
-0.00213282863764
-0.000995765241854
-0.00200864873584
-0.000979794373116
-0.00188670846549
-0.000963860697814
-0.00176698587017
-0.00094806878159
-0.00164944475938
-0.000932521403539
-0.00153403502531
-0.000917318957087
-0.00142069304325
-0.000902558863997
-0.00130934216234
-0.000888335011052
-0.00119989327622
-0.000874737234273
-0.00109224545975
-0.000861850830747
-0.000986286678882
-0.000849756149935
-0.000881894558393
-0.00083852821214
-0.000778937199135
-0.000828236421516
-0.000677274212527
-0.000818944381686
-0.000576757848999
-0.000810709581626
-0.000477233990904
-0.000803583129023
-0.000378545056612
-0.000797609474613
-0.000280533655682
-0.000792812692765
-0.00018306877589
-0.000788989548168
-8.65164786941e-05
-0.000782116316256
-0.00070117165256
-0.000466976030079
0.00372071324996
-0.000983359076601
0.0041207544892
-0.00149548134422
0.00409898351134
-0.0019969424597
0.00403161855773
-0.00248438450813
0.00394172695355
-0.00295503311233
0.00383256820299
-0.00340659779031
0.00370653388994
-0.00383727567329
0.00356610076556
-0.00424573530092
0.00341377455101
-0.00463107922352
0.0032519924019
-0.00499279211253
0.00308304400283
-0.00533068106871
0.00290901625696
-0.00564481421586
0.00273176069975
-0.00593546206139
0.00255288092452
-0.0062030449452
0.00237373592639
-0.00644808822312
0.00219545521031
-0.00667118600163
0.00201896144343
-0.00687297309685
0.00184499727024
-0.00705410462943
0.00167415336923
-0.00721524208678
0.0015068958088
-0.00735704481791
0.00134359119096
-0.00748016568949
0.00118452880542
-0.00758524990563
0.00102993925301
-0.00767293591331
0.000880009449674
-0.00774385758548
0.00073489404729
-0.00779864688985
0.000594723577274
-0.00783793649156
0.000459609727161
-0.00786236185108
0.00032964827724
-0.00787256256744
0.000204920296176
-0.00786918286671
8.5492092327e-05
-0.00785287088128
-2.85856763213e-05
-0.007824278511
-0.000137278349712
-0.00778405904256
-0.000240568278567
-0.00773286522482
-0.000338456034248
-0.0076713469001
-0.000430960693649
-0.00760014851864
-0.000518119936783
-0.00751990655111
-0.000599989750807
-0.00743124703194