/*--------------------------------*- C++ -*----------------------------------*\
| =========                 |                                                 |
| \\      /  F ield         | OpenFOAM: The Open Source CFD Toolbox           |
|  \\    /   O peration     | Version:  v1906                                 |
|   \\  /    A nd           | Web:      www.OpenFOAM.com                      |
|    \\/     M anipulation  |                                                 |
\*---------------------------------------------------------------------------*/
FoamFile
{
    version     2.0;
    format      ascii;
    class       surfaceScalarField;
    location    "628";
    object      phia;
}
// * * * * * * * * * * * * * * * * * * * * * * * * * * * * * * * * * * * * * //

dimensions      [0 3 -1 0 0 0 0];
oriented        oriented;


internalField   nonuniform List<scalar> 
18240
(
0.000845666240099
-0.000845725015246
0.001733194304
-0.000887597783053
0.00261863705162
-0.000885501092142
0.00349684631035
-0.000878280485471
0.00436499210469
-0.000868200400001
0.00522048817893
-0.00085556788074
0.00606099677838
-0.000840558858368
0.00688426354765
-0.000823338407103
0.00768825992601
-0.000804041748868
0.00847102703489
-0.000782837835866
0.00923085442502
-0.000759867326352
0.00996609365839
-0.000735308346228
0.0106753600267
-0.000709300442964
0.0113573130886
-0.000682019895942
0.0120108785846
-0.000653593271194
0.0126349976836
-0.000624183031146
0.0132288684341
-0.000593891896926
0.0137916667215
-0.000562858723314
0.0143228072363
-0.00053115465786
0.0148216398197
-0.000498888952784
0.0152877306273
-0.00046609765917
0.0157205378504
-0.000432858954894
0.016119713687
-0.000399175022359
0.0164847633233
-0.000365096146297
0.0168153682426
-0.00033059612502
0.0171110319102
-0.000295704328644
0.0173714241551
-0.000260375040464
0.0175960165395
-0.000224626524433
0.0177844472351
-0.00018840470901
0.0179361490498
-0.000151728705987
0.0180507328562
-0.000114548562984
0.0181276083969
-7.68944267707e-05
0.0181663869598
-3.87336912422e-05
0.018166501294
-1.24444693465e-07
0.0181276209319
3.89352824477e-05
0.0180492702954
7.83500473639e-05
0.0179312548619
0.000118080680762
0.0177732786933
0.000157985869178
0.0175753756253
0.000197978999612
0.0173375263202
0.0002378701884
0.0170600881045
0.000277525203852
0.0167434124925
0.000316708958777
0.0163882669316
0.000355244270592
0.0159954570658
0.00039285755255
0.015566234391
0.000429333861921
0.0151019332184
0.000464365830538
0.014604357265
0.000497700340027
0.01407544795
0.000528994381319
0.0135176374999
0.000557948582111
0.0129335683102
0.000584178744376
0.0123263874092
0.000607332660451
0.0116995323816
0.000626991771984
0.011056926452
0.000642768383625
0.0104028353521
0.000654252771242
0.00974191789108
0.000661083755227
0.00907915039834
0.000662945972794
0.00841971289765
0.000659600080356
0.00776897663635
0.00065091997773
0.0071322464995
0.000636882793259
0.0065147827976
0.000617642491563
0.00592142270717
0.000593498691674
0.0053565992326
0.000564994729518
0.00482386645064
0.00053285802707
0.00432594871962
0.000498087605575
0.00386432807985
0.000461737078696
0.00343964101504
0.000424862333228
0.00305148870658
0.000388261449973
0.0026990933993
0.000352572617993
0.00238102398465
0.000318164648929
0.0020957861431
0.000285401957871
0.00184133480836
0.000254521836395
0.00161564747298
0.000225822568041
0.00141625945535
0.000199428662878
0.00124089950054
0.000175460125755
0.00108707190458
0.000153842078616
0.00095262301918
0.000134517614943
0.000835317687929
0.000117301885901
0.000733293018129
0.000102069898872
0.000644668291679
8.86112304447e-05
0.000567922009244
7.67758834314e-05
0.000501558625433
6.63455587518e-05
0.000444435153265
5.71430693751e-05
0.000395535591891
4.88807059511e-05
0.000354465396134
4.10845833027e-05
0.000322033694885
3.24144445067e-05
0.000293607985933
2.84351200612e-05
0.00026669024425
2.69026197628e-05
0.000243034114799
2.36623904362e-05
0.000219584706591
2.34369083433e-05
0.000194262164352
2.53263194044e-05
0.000168416848215
2.58346549657e-05
0.000142081689684
2.63355778352e-05
0.000112491072592
2.95868409773e-05
7.75522801068e-05
3.4931009464e-05
3.76011410841e-05
3.99339784633e-05
3.75940363875e-05
0.000892886929166
-0.00173867570346
0.00184095246748
-0.0018357323162
0.00278378144804
-0.00182839587769
0.00371801384791
-0.00181258156792
0.00464115989089
-0.00179141022975
0.00555068283436
-0.00176515822653
0.00644413121028
-0.00173406830148
0.00731914782624
-0.00169842044052
0.00817355275668
-0.00165850434798
0.00900529436851
-0.00161464218534
0.00981252560099
-0.00156715221984
0.0105935334788
-0.00151637563468
0.0113468179174
-0.00146263395404
0.0120710032963
-0.00140626075835
0.0127649204552
-0.00134755441181
0.0134275019766
-0.00128681555629
0.0140578679962
-0.00122429631757
0.0146552074005
-0.00116024413056
0.0152188687417
-0.00109484838715
0.0157482302232
-0.00102829093989
0.0162427975522
-0.000960690912744
0.0167020659326
-0.000892161845778
0.017125626822
-0.000822754944967
0.0175130250452
-0.000752522373472
0.0178638760688
-0.000681458805692
0.0181777207916
-0.000609569997655
0.0184541542752
-0.000536812312837
0.0186926801354
-0.000463165680682
0.018892850979
-0.000388570911978
0.0190541234534
-0.000313006189671
0.0191760119227
-0.000236423406234
0.0192579469231
-0.00015882549642
0.0192994373768
-8.02009520427e-05
0.0192999320694
-6.05618812914e-07
0.0192589936618
7.99069704419e-05
0.0191761640142
0.000161203412522
0.0190511454484
0.000243143120867
0.0188836685043
0.000325497341562
0.0186736767064
0.00040802577082
0.0184211946584
0.000490398293173
0.0181265113485
0.000572275269305
0.0177900466919
0.000653232235791
0.0174125288155
0.000732841684274
0.0169948597889
0.000810599260937
0.0165382845759
0.000886002732238
0.0160442615467
0.00095847754717
0.0155146232154
0.00102744810128
0.014951461774
0.00109226301765
0.0143572806687
0.00115225689754
0.0137349052143
0.00120668298007
0.0130876144641
0.0012547700729
0.0124190777378
0.00129568022898
0.0117334396737
0.00132857091403
0.01103526682
0.00135259640927
0.0103295485581
0.00136697759597
0.0096216334337
0.00137104252937
0.00891712900456
0.00136428157226
0.00822183285022
0.0013463980369
0.00754154862941
0.00131733629126
0.0068820012381
0.00127736160586
0.00624856399513
0.00122709108635
0.00564612049972
0.00116759650448
0.00507869559636
0.00110042623229
0.00454922801429
0.00102770703005
0.00405929392403
0.000951810196488
0.00360932537143
0.00087498479713
0.00319874646104
0.000798977815488
0.00282647187394
0.000724999979149
0.00249096587762
0.00065379726072
0.00219051104378
0.00058599243043
0.00192298418041
0.000522149747904
0.00168607375346
0.000462837046092
0.00147715711768
0.000408413363066
0.00129364118954
0.00035904592472
0.00113289123355
0.000314630620141
0.000992501355159
0.000274949584458
0.000870154242104
0.000239666657993
0.000763794626715
0.00020845238356
0.000671483774687
0.000180926855739
0.000591541684129
0.000156729211523
0.000522409894603
0.00013547509583
0.000462738653071
0.000116818539948
0.000411210063774
0.000100403815631
0.000366376845512
8.59187904271e-05
0.000325489522097
7.3295647893e-05
0.000289511871065
6.44107956298e-05
0.000260404625951
5.60032591962e-05
0.000236037437766
4.80271403267e-05
0.000213580439032
4.58885368321e-05
0.000190886952747
4.80161789788e-05
0.00016600525321
5.07115664463e-05
0.000139665648821
5.26723727092e-05
0.000111529295443
5.77169048017e-05
7.87243214929e-05
6.77282461884e-05
3.86402867787e-05
8.00059744317e-05
7.62254563719e-05
0.000901109089423
-0.00263984967943
0.00185486300726
-0.00278955471188
0.00280441862778
-0.0027780191834
0.00374544762663
-0.00275367843255
0.00467521526097
-0.00272124393755
0.0055911072405
-0.00268111634118
0.00649062297641
-0.00263364776331
0.00737138663437
-0.00257924779332
0.00823118599899
-0.00251836441929
0.0090679655037
-0.0024514822613
0.00987985683011
-0.00237910057574
0.0106651584981
-0.00230173411863
0.0114223612406
-0.00221988946735
0.0121501161617
-0.00213406815826
0.0128472559141
-0.00204474212045
0.0135127527752
-0.00195236002832
0.0141457368296
-0.00185732302726
0.0147454458304
-0.00175999537583
0.0153112422125
-0.00166068163804
0.0158425573295
-0.00155964246275
0.0163389098059
-0.00145707402846
0.0167998471626
-0.00135312929496
0.0172249681144
-0.00124789982462
0.0176138644635
-0.00114144201422
0.0179661495604
-0.00103376064268
0.0182814026472
-0.000924839046461
0.0185592048068
-0.000814623475077
0.0187990871718
-0.000703056112524
0.0190005751061
-0.000590059556155
0.0191631413521
-0.000475571998656
0.0192862588344
-0.000359532689972
0.0193693592075
-0.000241916312817
0.0194118948387
-0.000122718899763
0.0194133039784
-1.99547571176e-06
0.0193730810371
0.000120157659548
0.0192907478535
0.000243566165454
0.01916593083
0.000367998465863
0.0189983362849
0.000493132303864
0.0187878307655
0.000618580756504
0.0185344169594
0.000743864015994
0.0182383123449
0.000868441211501
0.0178999218068
0.000991687126546
0.0175199103
0.0011129274511
0.0170991707138
0.0012314169131
0.0166388897485
0.0013463722525
0.0161405148079
0.0014569459215
0.0156058173582
0.00156225018086
0.0150368682943
0.00166132318394
0.0144361055392
0.0017531430513
0.0138063267792
0.00183659348599
0.0131507610972
0.00191048044487
0.012473074432
0.00197352032851
0.0117774238534
0.00202438575953
0.0110684460738
0.00206174525349
0.0103512489753
0.00208435152561
0.00963134828351
0.00209112390052
0.00891457447985
0.00208123571425
0.00820697813496
0.00205417386212
0.00751469493351
0.00200979146096
0.00684381557332
0.00194840536464
0.00620017292731
0.00187088674004
0.00558913085187
0.0017787853904
0.00501524195527
0.00167445270357
0.00448167458205
0.00156141341119
0.0039898934886
0.00144372653901
0.00353987279681
0.0013251468388
0.00313053286957
0.00120845600936
0.00276035139061
0.00109532131775
0.00242764565853
0.000986631978403
0.00213061971814
0.000883139189766
0.001867124774
0.000785746058586
0.0016346529835
0.000695397068684
0.00143038724886
0.000612746211016
0.00125147841805
0.000538010544236
0.00109516419805
0.00047098343573
0.000958921277227
0.000411223913822
0.000840421027915
0.000358185960332
0.000737561348118
0.000311327371137
0.000648413364596
0.000270081805588
0.000571276556534
0.000233871968584
0.000504622256173
0.000202129934283
0.000447100227689
0.000174341026929
0.000397457400217
0.000150043655608
0.000354462321178
0.000128912216538
0.000316661932451
0.000111091396032
0.000283235384112
9.78331160287e-05
0.000252060057994
8.71723699665e-05
0.000222862031739
7.72201780467e-05
0.000199066645564
6.96783297241e-05
0.000179520601075
6.75569789012e-05
0.000155033645015
7.51917540077e-05
0.000126102168732
8.15992638585e-05
9.62625593385e-05
8.75539794486e-05
6.39364981968e-05
0.000100044729682
3.25181384599e-05
0.000111410410345
0.000108738337808
0.000909564206149
-0.00354947937855
0.00187134067232
-0.00375140007687
0.00282900747532
-0.00373575449434
0.00377801459334
-0.00370275365009
0.00471549961524
-0.00365879595484
0.00563876527208
-0.00360444822236
0.00654524848557
-0.00354019569875
0.00743253276182
-0.00346659571964
0.00829837057986
-0.00338426398098
0.00914068974219
-0.00329386181658
0.00995760821337
-0.00319607716123
0.0107474303472
-0.00309161275493
0.0115086539417
-0.0029811669363
0.0122399569591
-0.0028654232077
0.0129401975624
-0.00274503181704
0.01360839242
-0.00262060191925
0.0142437110029
-0.00249268540963
0.0148454472644
-0.00236177318044
0.0154130103318
-0.00222828274641
0.015945892243
-0.00209255996042
0.0164436579502
-0.00195487154973
0.0169059123686
-0.00181541287741
0.0173322928623
-0.00167430544611
0.0177224386813
-0.00153161009376
0.0180759884718
-0.00138732836998
0.0183925542219
-0.00124141963418
0.0186717252476
-0.00109380471887
0.0189130477352
-0.000944385455857
0.0191160358481
-0.00079304958378
0.0192801575628
-0.000639691991687
0.0194048534966
-0.000484221642793
0.0194895295003
-0.000326581413466
0.019533584173
-0.000166757093674
0.0195364096872
-4.80031829119e-06
0.0194974277727
0.000159166103799
0.0194160982989
0.000324926627
0.019291962657
0.00049217122252
0.0191246577935
0.000660479013085
0.0189139631523
0.000829323648278
0.0186598154844
0.000998065023573
0.0183623534787
0.0011659633269
0.0180219276262
0.00133217868743
0.0176391369225
0.00149579108603
0.01721483048
0.00165580255034
0.0167501351508
0.00181115454142
0.0162464523902
0.00196072274037
0.0157054840734
0.00210332127249
0.0151292366794
0.00223768185218
0.0145200595441
0.00236244174177
0.0138806712883
0.00247611366768
0.0132142191765
0.00257707547408
0.0125243270605
0.00266356599279
0.0118151545562
0.00273372060404
0.0110914225928
0.00278564821855
0.0103584049041
0.0028175444529
0.00962186640201
0.0028278446995
0.00888794902508
0.0028153326751
0.00816307689753
0.00277922693094
0.00745385300706
0.00271918452879
0.00676693303068
0.00263548373819
0.0061088317833
0.00252913323828
0.00548572969095
0.00240201934966
0.00490320997574
0.00225710000296
0.00436492630537
0.00209981945688
0.00387206943875
0.00193670955737
0.00342372076653
0.00177362505667
0.0030177692191
0.00161453795668
0.00265196159343
0.00146125982784
0.00232443792303
0.00131427575808
0.00203348940806
0.00117419745445
0.00177697375607
0.00104235276315
0.00155211523776
0.000920331210938
0.00135568687835
0.000809232435465
0.00118443798293
0.000709304865152
0.0010353665275
0.000620087762992
0.000905835668354
0.000540779208004
0.000793504293039
0.000470533821623
0.000696249130585
0.000408593034286
0.000612134323911
0.000354202746858
0.00053946949487
0.00030654005858
0.000476776334786
0.000264823841516
0.000422764981225
0.000228351451624
0.000376308080153
0.000196498438922
0.000336298862977
0.000168918367227
0.000301970107784
0.00014541633019
0.000268385740264
0.000131411606069
0.00023730105581
0.000118250265808
0.000209811172203
0.00010470301323
0.000182574857205
9.69072127498e-05
0.000155006750449
9.51172456042e-05
0.000134224942812
9.59677232674e-05
0.000106851809834
0.000108967336644
7.55839702763e-05
0.000118814168556
4.94126691091e-05
0.00012621003034
2.54461047505e-05
0.000135368075256
0.000134176928365
0.000920502185183
-0.00447004772698
0.00189345225104
-0.00472441951656
0.00286213968166
-0.00470451118895
0.00382189207003
-0.00466257467892
0.00476974033463
-0.00460671194502
0.00570289381571
-0.00453766842618
0.00661871176701
-0.00445607907259
0.00751471863406
-0.0043626666674
0.00838862165761
-0.00425822942489
0.00923832138359
-0.00414362228941
0.0100619214331
-0.00401973595761
0.010857729708
-0.00388747780222
0.0116242592822
-0.00374775097821
0.0123602202925
-0.00360143643476
0.0130645124032
-0.00344937355765
0.013736208236
-0.00329234488523
0.0143745386563
-0.00313106012165
0.0149788694988
-0.00296614558662
0.0155486819839
-0.00279813370799
0.0160835456714
-0.00262745918086
0.0165830974489
-0.00245445553702
0.0170470144947
-0.00227935896753
0.0174749956389
-0.00210231206281
0.0178667378901
-0.00192337442391
0.0182219231282
-0.00174253185633
0.0185402003811
-0.00155971148744
0.0188211791792
-0.00137479400111
0.0190644182828
-0.00118763112555
0.0192694260004
-0.000998059455087
0.0194356556731
-0.000805919607484
0.0195625135643
-0.000611072754064
0.0196493617496
-0.000413418319484
0.0196955349322
-0.00021291397882
0.019700352794
-9.5970978482e-06
0.0196631463852
0.000196398894799
0.0195832800441
0.000404824399236
0.019460186714
0.000615301545048
0.0192933969987
0.000827311048877
0.0190825790921
0.00104018972509
0.0188275690044
0.00125312894654
0.0185284074996
0.00146518487341
0.0181853632279
0.0016752890996
0.0177989584895
0.00188226859487
0.0173699791726
0.00208486120281
0.0168994866843
0.00228173346482
0.0163888178018
0.00247148535252
0.0158395924274
0.0026526484178
0.0152537208164
0.00282366406331
0.0146334306483
0.00298285251696
0.0139813079751
0.00312836706314
0.0133003685356
0.00325815756864
0.012594139486
0.00336994515407
0.0118667624762
0.00346126092497
0.0111230474033
0.00352952829856
0.010368503838
0.0035722675281
0.00960923256573
0.00358729299249
0.00885180249608
0.00357294904939
0.00810309435092
0.00352811340002
0.00737033459274
0.00345211366649
0.00666092993246
0.00334503845641
0.00598229040948
0.00320790417609
0.00534179562409
0.00304263389078
0.00474712065916
0.00285188209477
0.00420291596577
0.00264413425654
0.00370977626786
0.00242995970002
0.00326505692423
0.00221846201518
0.00286466492424
0.00201505068781
0.00250511645569
0.0018209248448
0.00218457896363
0.00163492219435
0.00190189117212
0.00145697755094
0.00165511583275
0.00128920565808
0.00144104462968
0.00113446168761
0.00125567558822
0.000994648510044
0.00109508218058
0.000869932862524
0.000955911640993
0.000759284477068
0.00083545421652
0.000661255551525
0.000731425236721
0.000574574847922
0.000641710234585
0.000498315730188
0.000564328817252
0.000431587486161
0.000497623889041
0.000373246789646
0.000440191902353
0.000322255572123
0.000390838241838
0.000277703884157
0.000348620148342
0.000238713598242
0.000312718478555
0.00020481704606
0.000282052136945
0.000176077809355
0.000252362942983
0.000161094469414
0.000222643284258
0.000147961986207
0.00018956793228
0.000137769349729
0.000159031349221
0.000127434638006
0.000130839383675
0.000123300811866
0.000107813418987
0.000118985462985
8.79630149823e-05
0.000128812376368
6.14747238784e-05
0.000145300366453
3.75652678064e-05
0.00015011116049
1.88909000377e-05
0.000154031119344
0.000153064411342
0.000934231502168
-0.00540434606944
0.00192148658544
-0.0057117448058
0.00290422756864
-0.00568732217058
0.0038776401338
-0.00563605661826
0.0048386351942
-0.00556777546392
0.0057843119749
-0.00548341260682
0.00671193518424
-0.00538376840183
0.00761895376505
-0.00526974994747
0.0085030183801
-0.00514235709694
0.00936199359768
-0.00500265880257
0.0101939663513
-0.00485176802937
0.0109972483346
-0.00469081702794
0.011770374679
-0.00452093228155
0.0125120964684
-0.00434321082629
0.0132213699269
-0.00415869706318
0.0138973396974
-0.00396836208876
0.0145393196072
-0.00377308466046
0.0151467684043
-0.00357363616414
0.0157192645563
-0.00337066860857
0.0162564777596
-0.00316470805668
0.0167581418451
-0.0029561520379
0.0172240266808
-0.00274527291661
0.0176539139226
-0.00253222493251
0.0180475736757
-0.00231705626212
0.0184047465883
-0.00209972311926
0.0187251275853
-0.00188010703449
0.0190083553742
-0.00165803233734
0.0192540033177
-0.00143328553517
0.0194615759186
-0.0012056342283
0.0196305065175
-0.000974848005278
0.0197601612315
-0.00074072067365
0.0198498443085
-0.000503089931703
0.0198988115289
-0.000261864842313
0.0199062863812
-1.70506375585e-05
0.0198714847561
0.000231227006764
0.0197936430591
0.000482697814709
0.019672054318
0.000736927453747
0.0195061059327
0.000993302116439
0.0192953223461
0.00125102173455
0.0190394049353
0.00150910063364
0.0187382711071
0.00176637904725
0.0183920845507
0.00202154224671
0.0180012783368
0.00227314774663
0.0175665651433
0.00251965396331
0.017088938104
0.00275944674573
0.0165696624987
0.00299085448445
0.0160102660743
0.00321214607972
0.015412536131
0.0034215044201
0.0147785347916
0.00361697336874
0.0141106489605
0.00379638439313
0.0134116752333
0.00395726967063
0.012684964081
0.00409680964879
0.0119345637126
0.00421181434507
0.0111653887318
0.00429887587793
0.0103832334192
0.00435458944069
0.00959470002426
0.00437601734174
0.00880686199981
0.0043609659098
0.00802710657149
0.00430805576629
0.00726340516035
0.00421597686553
0.00652412008186
0.00408446492193
0.00581758855287
0.00391455695382
0.00515252599994
0.003707793963
0.00454126127872
0.00346324342266
0.00399042478005
0.00319506208844
0.00349935935113
0.00292112502501
0.00306202265955
0.00265590552272
0.00267048322038
0.00240669591625
0.00231912722016
0.00217238264771
0.00200694735834
0.00194718876802
0.00173454721129
0.00172945013739
0.0015006444301
0.00152316258183
0.00130123847177
0.00133391113159
0.00113077860675
0.00116513957805
0.000984188122777
0.00101654970116
0.000857664971355
0.000885827325302
0.000748604280996
0.000770331099625
0.000654996167143
0.000668192766767
0.000574776426948
0.000578539697642
0.000505796042838
0.000500569657064
0.000446460277473
0.000432582772988
0.000395476230307
0.000373238650341
0.000351708752479
0.000321469330011
0.000314335971464
0.000276083278694
0.000282658574243
0.000236490233863
0.000251969480448
0.000206761578393
0.000222213739172
0.000190843192999
0.000194994077683
0.000175172596451
0.000169797952746
0.000162955498394
0.000141123464048
0.000156098306966
0.00011234945489
0.000152064593187
8.35136159024e-05
0.00014781499259
6.45742033538e-05
0.00014774665009
4.90699358981e-05
0.000160796925093
2.97336033854e-05
0.000169442714637
1.47469233638e-05
0.000169012100098
0.000167805684464
0.000950962151306
-0.00635537589907
0.00195573200418
-0.00671658562164
0.00295566968797
-0.00668733071328
0.00394577495007
-0.00662623205858
0.00492281017118
-0.00654487995393
0.00588374069642
-0.00644441129924
0.0068257162869
-0.00632581086551
0.00774609322903
-0.00619019229132
0.008642453189
-0.00603878080123
0.00951261660439
-0.00587288413551
0.0103546509531
-0.00569386230028
0.0111668733428
-0.00550309719022
0.0119478479919
-0.00530196240551
0.0126963780652
-0.00509179393543
0.0134114925312
-0.00487386199544
0.0140924275885
-0.00464934491727
0.0147386036549
-0.00441930568477
0.0153495978615
-0.00418467240116
0.0159251137048
-0.00394622344006
0.0164649483673
-0.0037045785633
0.0169689600151
-0.00346019626566
0.0174370357927
-0.00321337791256
0.0178690629053
-0.00296427776777
0.0182649029228
-0.00271291841313
0.0186243710075
-0.00245920959455
0.0189472190321
-0.00220296961057
0.0192331234889
-0.00194394733095
0.0194816763888
-0.0016818448617
0.019692380114
-0.00141634007683
0.0198646447057
-0.00114711031868
0.0199977896939
-0.000873858775939
0.0200910488666
-0.000596337518809
0.0201435821594
-0.000314381640983
0.0201544928198
-2.79398051298e-05
0.0201228529238
0.00026289359921
0.0200477357301
0.000557846995874
0.0199282563029
0.000856444360431
0.0197636173143
0.00115798417968
0.0195531595059
0.0014615284181
0.0192964116916
0.00176590325312
0.0189931376763
0.00206971398383
0.0186433737178
0.00237137335489
0.0182474532646
0.00266914170308
0.0178060143163
0.00296117284182
0.0173199893388
0.0032455583051
0.0167905796352
0.00352035779406
0.016219222395
0.00378360503726
0.0156075621227
0.00403327482603
0.0149574479794
0.00426720882328
0.0142709722727
0.00448298813307
0.0135505931534
0.00467779262513
0.0127993130143
0.00484822968226
0.0120209905856
0.00499030164214
0.0112205635936
0.00509945320871
0.0104042808289
0.00517105982419
0.00957941879173
0.00520105181457
0.00875376905013
0.00518681325985
0.00793497692752
0.00512702753445
0.00713197136563
0.00501914502792
0.00635439962898
0.00486217150262
0.00561095660273
0.00465810522628
0.00491034153178
0.00440850018418
0.00427622139092
0.00409744597166
0.00371914141859
0.00375222824032
0.00323561085576
0.00340475183124
0.00281290471954
0.00307870828125
0.00243545435091
0.00278424135151
0.00209362965024
0.00251428805252
0.00178975848569
0.00225112273052
0.0015290989908
0.00199015567007
0.00131188428856
0.00174041079049
0.00113239595955
0.00151342467422
0.000981800459072
0.00131575873252
0.00085302931425
0.00114534225984
0.000741859148061
0.000997017608619
0.000646301040623
0.000865904642944
0.000565170992372
0.000749333314862
0.000496512084209
0.000647203446595
0.000437560199713
0.000559523108066
0.000386907457093
0.000483234598106
0.000343487243922
0.000416657474869
0.000306137916567
0.000358815920726
0.000274205418717
0.000308011750317
0.000247300480445
0.000263389994162
0.000219131659413
0.00023492392854
0.000193298691159
0.000216667535229
0.000166115956478
0.000202345379158
0.000139967417172
0.000189092633442
0.000113719616658
0.000182334773439
9.12193007729e-05
0.000174554810858
6.71522363667e-05
0.000171872832344
4.56872305605e-05
0.000169205618204
3.54774521091e-05
0.000171005117896
2.23826786065e-05
0.000182530766816
1.10219593566e-05
0.000180364591687
0.000178825943264
0.000970887357686
-0.00732633173963
0.00199653779624
-0.00774230795657
0.00301696871861
-0.0077078333764
0.00402694543879
-0.0076362798401
0.0050230469539
-0.00754105159655
0.00600207588477
-0.00742350922754
0.00696104332717
-0.00728484598026
0.00789719409519
-0.00712640922231
0.00880802740208
-0.00694967856871
0.00969131128777
-0.0067562306136
0.0105450910834
-0.00654770263841
0.0113676918066
-0.00632575626127
0.0121577148226
-0.00609204140882
0.0129140284731
-0.00584816108973
0.0136357529032
-0.00559563729753
0.01432223877
-0.00533587891574
0.0149730403469
-0.00507015252185
0.0155878832972
-0.00479955764072
0.0161666284742
-0.00452500781853
0.0167092330371
-0.00424721913917
0.0172157111224
-0.00396670706718
0.01768609598
-0.00368379208153
0.0181204058037
-0.00339861339186
0.0185186145443
-0.00311114931964
0.0188806286304
-0.00282124210159
0.0192062692689
-0.00252862478589
0.0194952596789
-0.00223294827442
0.0197472159308
-0.00193380748941
0.0199616406554
-0.00163076688988
0.020137919094
-0.00132338639531
0.0202753184637
-0.00101125119052
0.0203729906591
-0.000693998003105
0.0204299820634
-0.000371356423682
0.0204452504326
-4.31864868247e-05
0.0204176914302
0.000290479520434
0.0203461751181
0.000629395604605
0.0202295929334
0.000973064399091
0.0200669132888
0.00132070737989
0.0198572437535
0.00167124740511
0.0195998947815
0.00202330771444
0.0192944397383
0.00237523070282
0.0189407635122
0.00272511757196
0.0185390925547
0.00307088693154
0.0180900000075
0.00341034615771
0.0175943817078
0.00374126383096
0.0170534060874
0.00406142828071
0.0164684432351
0.00436867011196
0.0158409966027
0.00466083467761
0.0151726500706
0.00493567454302
0.0144650971295
0.00519067634099
0.0137202401903
0.00542278062595
0.0129405122889
0.00562811181354
0.0121292709721
0.00580168104218
0.0112914385531
0.00593745919051
0.0104338173645
0.00602883981674
0.00956497606331
0.00607009467488
0.00869366760525
0.006058307981
0.00782695896293
0.00599392466804
0.00697504636263
0.00587121917082
0.00615026940117
0.0056870720125
0.00535955630519
0.00544891684185
0.00460353416018
0.00516460096472
0.00393654314533
0.00476451040407
0.0033759771833
0.00431288241191
0.00291158889277
0.00386922816138
0.00251767948201
0.00347271246197
0.00216303270639
0.00313897598191
0.0018294570121
0.00284792310529
0.00153002510061
0.00255058978756
0.00128117884896
0.00223902773861
0.001085860024
0.00193574166982
0.000934406397083
0.00166490167286
0.00081054928006
0.00143963956871
0.000703916662283
0.00125200328744
0.000610324026004
0.00109063581346
0.000529684290271
0.000946566946414
0.000462955232524
0.000816076080523
0.000408336752752
0.000701828308591
0.000360955398427
0.000606905391796
0.000320116007409
0.000524073430338
0.000285337638617
0.000451433175733
0.000255062151423
0.000389088262642
0.000228806579899
0.000334262220035
0.000206196132068
0.000285993869251
0.000182018103971
0.000259093635331
0.000159552030102
0.000239123233073
0.000136550550545
0.000225335191661
0.000111425457102
0.000214204925891
8.87230032646e-05
0.000205024710353
6.60062654932e-05
0.00019726045572
5.02632304674e-05
0.000187608309045
3.4083055417e-05
0.000185380071285
2.26142999796e-05
0.000182466515098
1.59148087667e-05
0.000189227932594
7.53711018761e-06
0.000188739526922
0.000186358834177
0.000994222720868
-0.00832062388319
0.00204432695388
-0.00879248503148
0.00308874348855
-0.00875232258232
0.00412195145394
-0.00866955978896
0.00514030698795
-0.00855947814712
0.00614041688105
-0.00842368898296
0.00711912668897
-0.00826362428586
0.00807354902598
-0.00808089850694
0.00900108611112
-0.00787728085504
0.00989944508109
-0.00765465286058
0.0107666465782
-0.00741496531419
0.0116010268625
-0.00716019546337
0.0124012336864
-0.00689230474135
0.0131662157586
-0.00661319711507
0.0138952055273
-0.00632467833918
0.0145876949305
-0.00602841678288
0.0152434040332
-0.00572590717167
0.0158622429844
-0.00541843910879
0.0164442684595
-0.005107072679
0.0169896365598
-0.00479262339329
0.0174985548701
-0.00447565819411
0.017971236655
-0.00415650325301
0.0184078601573
-0.00383526273016
0.0188085349986
-0.00351184635694
0.019173276748
-0.00318600226413
0.0195019888851
-0.00285735146217
0.0197944507213
-0.00252542060745
0.0200503086924
-0.00218967182104
0.0202690695726
-0.00184952980286
0.0204500944061
-0.00150440883225
0.020592594551
-0.00115374429674
0.0206956302706
-0.000797021935891
0.0207581171287
-0.000433826521822
0.0207788407258
-6.38882348919e-05
0.020756483788
0.000312863625215
0.0206896665262
0.000696245478799
0.0205770015792
0.00108576763252
0.0204171618558
0.00148059120657
0.0202089590112
0.00187950038713
0.0199514265272
0.00228089650941
0.019643900045
0.00268281983186
0.0192860840838
0.00308300253642
0.0188780939561
0.0034789525175
0.0184204610795
0.00386806089007
0.0179140945015
0.00424771950957
0.0173601947386
0.00461542405116
0.0167601332028
0.00496883773864
0.0161153057696
0.00530577510635
0.0154270167645
0.00562409046754
0.0146964086634
0.00592141181957
0.0139245819902
0.00619475167712
0.0131129094704
0.00643991495933
0.0122638146092
0.0066509346492
0.0113817854409
0.00681963201992
0.0104745848266
0.00693623007803
0.00955325071852
0.00699161374854
0.00862865974349
0.00698309977668
0.0077039829651
0.00691879095298
0.00679132958188
0.00678401807977
0.00591209330497
0.00656641672614
0.00506615804692
0.00629495383021
0.00421260492459
0.00601821311362
0.00349535294381
0.00548181136181
0.00293956877684
0.00486873865282
0.00251817316549
0.00429069458857
0.00218151152354
0.00380948314517
0.00186549219428
0.0034550581959
0.00153007498161
0.00318336904838
0.00122171803734
0.00285898654082
0.000981879569208
0.00247884353641
0.000816781250315
0.00210087329608
0.000707882195171
0.00177380671965
0.000621071922827
0.00152648466283
0.000541112427021
0.00133199357416
0.000465739096868
0.00116604045643
0.000399635825546
0.00101269229602
0.000349025833135
0.000866694884082
0.000312348907885
0.000738514744235
0.000277753947969
0.000641503592732
0.000247389709602
0.000554437278297
0.000222525367812
0.000476296129769
0.000199912709283
0.00041169793074
0.000179621659356
0.000354548340093
0.000160279941191