/*--------------------------------*- C++ -*----------------------------------*\
| =========                 |                                                 |
| \\      /  F ield         | OpenFOAM: The Open Source CFD Toolbox           |
|  \\    /   O peration     | Version:  v1906                                 |
|   \\  /    A nd           | Web:      www.OpenFOAM.com                      |
|    \\/     M anipulation  |                                                 |
\*---------------------------------------------------------------------------*/
FoamFile
{
    version     2.0;
    format      ascii;
    class       volScalarField;
    location    "711";
    object      p;
}
// * * * * * * * * * * * * * * * * * * * * * * * * * * * * * * * * * * * * * //

dimensions      [0 2 -2 0 0 0 0];


internalField   nonuniform List<scalar> 
9216
(
268.258360123
268.343926578
268.517600123
268.779744747
269.128932991
269.563435897
270.081120953
270.679513326
271.355824235
272.107011242
272.929804252
273.820767337
274.776318446
275.792788602
276.866432255
277.993481093
279.170143846
280.392653722
281.65725814
282.960260024
284.297998959
285.666887217
287.063384315
288.484028751
289.925408016
291.384186885
292.857074849
294.340851555
295.832333494
297.32839702
298.825946034
300.321932824
301.813328883
303.297143855
304.770401222
306.230155708
307.673476234
309.097462029
310.499234952
311.875954432
313.224821006
314.543089755
315.828086286
317.077217595
318.288000945
319.45807025
320.585217566
321.667392522
322.702755708
323.689668702
324.626758173
325.512894477
326.347264065
327.129334694
327.858931329
328.536186364
329.161612692
329.736038682
330.260672463
330.737021347
331.166943831
331.552556221
331.896271913
332.200695317
332.468643463
332.703036881
332.906909664
333.08328629
333.235168035
333.365411956
333.476725255
333.571577763
333.652222885
333.72064877
333.778623241
333.827675841
333.869155897
333.904228042
333.933921698
333.959118762
333.980589134
333.998980024
334.014850056
334.028663261
334.040872461
334.051406261
334.060074226
334.066980987
334.072269415
334.076167385
334.078919866
334.080803016
334.082060106
334.08282088
334.083202453
334.083334756
268.172866398
268.258858395
268.433165779
268.696524528
269.047362822
269.483894131
270.003943678
270.604992303
271.284211743
272.038515036
272.86459453
273.758972615
274.718035152
275.738077502
276.815329775
277.945995513
279.126267441
280.352358154
281.620506737
282.927002102
284.268181849
285.640449534
287.040267511
288.464169518
289.908749252
291.370669503
292.846648038
294.333464269
295.827943852
297.326963697
298.827436645
300.326315618
301.820579583
303.307237609
304.783317873
306.24587247
307.691970931
309.118706779
310.523197222
311.90259222
313.254081676
314.574907322
315.862378118
317.113884494
318.326921768
319.499105408
320.628201486
321.712140986
322.749055929
323.737290767
324.675442773
325.562368788
326.397227762
327.179480506
327.90893028
328.585712234
329.210327021
329.783617896
330.306793177
330.781387773
331.209272471
331.592602626
331.933817264
332.235572766
332.500719644
332.732238725
332.933214996
333.106747578
333.255892357
333.383567074
333.492509642
333.585219294
333.663950481
333.730691766
333.787189246
333.834954906
333.875309213
333.909401283
333.938242315
333.962706793
333.98354954
334.001408312
334.016823363
334.030238787
334.042030687
334.052313111
334.060837125
334.0675356
334.072718079
334.076557624
334.079223795
334.081044317
334.082277265
334.082996533
334.083339656
334.083477594
267.998423598
268.085508151
268.261563186
268.527521852
268.881768904
269.32245711
269.847338085
270.45381029
271.138961656
271.899618777
272.732392173
273.633724213
274.599929632
275.627237044
276.711820937
277.849834304
279.037430912
280.270788776
281.546123301
282.859702669
284.2078534
285.586969285
286.993511176
288.424011125
289.875068084
291.343348677
292.825580223
294.318549282
295.819093186
297.324097304
298.830486161
300.335220336
301.835288277
303.327703805
304.809499947
306.277728188
307.729455765
309.161767961
310.571770358
311.956595343
313.313410571
314.639430368
315.931930973
317.18826668
318.405891381
319.582378243
320.715446075
321.802980634
322.84306399
323.833995719
324.774323905
325.662864923
326.498734682
327.281364368
328.010528011
328.686349374
329.309320361
329.880296944
330.400505489
330.871519436
331.295252016
331.673919344
332.010030877
332.306334097
332.565759748
332.791393187
332.986441546
333.154148176
333.297700501
333.420130554
333.524251857
333.612611239
333.687473977
333.75081704
333.804347549
333.849528487
333.887624743
333.919745099
333.946872849
333.96986421
333.989450685
334.006247807
334.020771632
334.033445347
334.04463318
334.054421898
334.062378136
334.068644636
334.073619456
334.077295316
334.079794907
334.081538516
334.082686671
334.083346566
334.083695028
334.083867601
267.732873172
267.821362815
268.000119701
268.270097085
268.629603141
269.076693875
269.609006231
270.223812173
270.91806816
271.68846802
272.531493975
273.443466516
274.420589249
275.458990447
276.554757929
277.703970063
278.902719859
280.14713567
281.433395598
282.757739526
284.116475792
285.505986609
286.922729063
288.363235814
289.824112182
291.302033645
292.79374037
294.296032667
295.805764011
297.319835371
298.835187631
300.348795682
301.857661271
303.358807851
304.849275031
306.326115461
307.786392388
309.227180092
310.645566167
312.038657002
313.403586198
314.737526123
316.037703159
317.301415327
318.526053767
319.709125101
320.848277216
321.941324063
322.986273492
323.981352687
324.925036977
325.81607553
326.653520686
327.436751949
328.165501536
328.839869233
329.460337018
330.027773644
330.543440258
331.008962662
331.426326129
331.797826936
332.126093282
332.414015283
332.664635344
332.8811851
333.067072521
333.2257779
333.360712184
333.475088058
333.57183968
333.653580255
333.722590287
333.780819349
333.829908615
333.871229943
333.905952087
333.935115269
333.959670818
333.980454234
333.998164671
334.013381381
334.026587003
334.038173758
334.048494691
334.057465145
334.064668655
334.070428015
334.074940624
334.078307214
334.080699265
334.082325243
334.083377331
334.084012055
334.084369201
334.084544964
267.374901942
267.465256219
267.647713245
267.923198228
268.289906087
268.745754219
269.288217987
269.914392736
270.621051366
271.404703883
272.261654917
273.188058013
274.179964581
275.233367276
276.344236656
277.508551867
278.722324833
279.981619279
281.282564352
282.621364374
283.994304498
285.397753771
286.828165255
288.282074566
289.75609634
291.24691984
292.751303077
294.266066565
295.788086025
297.314285088
298.841627303
300.367108578
301.887749427
303.400588072
304.90267403
306.391063243
307.862814639
309.314989034
310.744650543
312.148871133
313.524738672
314.869368571
316.179919468
317.453612161
318.687752284
319.879754877
321.027171487
322.127717339
323.179299726
324.18004576
325.128331277
326.022810361
326.862446683
327.646544292
328.374776758
329.047207082
329.664301084
330.226940162
330.73643995
331.194493079
331.603190615
331.964910827
332.282460834
332.558958519
332.797544846
333.001620401
333.174891342
333.321208123
333.444327744
333.54772457
333.634496419
333.707337885
333.768541105
333.820007645
333.863271554
333.899552433
333.929854635
333.955113563
333.976263774
333.994137266
334.009388529
334.022540571
334.034032338
334.044212236
334.053404946
334.06129611
334.067588539
334.072682483
334.07676107
334.079807154
334.081959302
334.083449531
334.084445738
334.085060228
334.085419768
334.085599007
266.922570066
267.015312699
267.202541232
267.485130539
267.86112051
268.328241199
268.883751709
269.524512829
270.247054965
271.04764703
271.922362091
272.867137869
273.877830339
274.950259784
276.080248845
277.263653064
278.496384229
279.774427595
281.093853573
282.450825063
283.841600957
285.262536847
286.710083238
288.1807821
289.671261817
291.178231187
292.69847236
294.228833237
295.766219134
297.307584181
298.849922218
300.390257807
301.925637139
303.453119467
304.969769049
306.472648437
307.958813256
309.42530937
310.869172753
312.287432911
313.677120212
315.0352776
316.358976902
317.645339416
318.891560535
320.09493713
321.252897023
322.363028647
323.423110873
324.431141762
325.385368461
326.284318744
327.126837217
327.912124117
328.639773366
329.309796657
329.922632254
330.479164062
330.980803239
331.429308678
331.82694701
332.176100997
332.479861825
332.741767545
332.964910811
333.152830522
333.309674281
333.439880111
333.547730385
333.637057607
333.711156681
333.772804294
333.824294413
333.867452621
333.903652873
333.933864979
333.958804016
333.979240044
333.996162541
334.010464286
334.022726117
334.033374221
334.042800098
334.05129546
334.05905768
334.06566447
334.071085976
334.075553212
334.07908602
334.081671558
334.083618831
334.084998124
334.08592193
334.086564833
334.086942102
334.087133567
266.373392708
266.469108386
266.662283723
266.953722349
267.341260643
267.822383411
268.394068687
269.052874539
269.795020675
270.616469614
271.51300265
272.480288188
273.513940776
274.609570171
275.762820488
276.969400113
278.225103363
279.525825113
280.867569605
282.246454622
283.658712036
285.10068561
286.568826742
288.059688676
289.569919578
291.09625474
292.635508104
294.184563194
295.740363574
297.299902834
298.860214169
300.418359771
301.971420107
303.516483321
305.05063512
306.570949687
308.074482148
309.558263352
311.019297666
312.454564682
313.861025517
315.23563438
316.575355757
317.877187017
319.138186104
320.355502546
321.526410781
322.648342982
323.718920257
324.735982353
325.697615278
326.602185685
327.448380066
328.23525929
328.962310895
329.629483277
330.237164104
330.786199149
331.278200599
331.714936749
332.099057523
332.43260089
332.719164842
332.963276268
333.167401562
333.335061535
333.471113527
333.58097989
333.669749297
333.741713186
333.800358049
333.848515144
333.888460926
333.921924669
333.950060096
333.973438466
333.992227395
334.006901434
334.018729906
334.028856267
334.037684908
334.045445473
334.052514157
334.059098965
334.065244027
334.070551524
334.075046776
334.078776628
334.08172674
334.083999033
334.085765816
334.087055338
334.087927087
334.088578803
334.088970976
334.089168329
265.724275455
265.82362079
266.024054056
266.326281919
266.72787783
267.226010764
267.817299096
268.497916542
269.263691725
270.110205251
271.032878583
272.027051889
273.088049187
274.211230432
275.392031095
276.625990532
277.908770709
279.236167111
280.604113429
282.008681638
283.446078636
284.912640546
286.404825348
287.919204467
289.452453583
291.001342978
292.562727398
294.133535576
295.710759282
297.29144196
298.872666745
300.451544196
302.025199558
303.59075989
305.145341306
306.686037035
308.209906771
309.713968398
311.195192823
312.650503294
314.076780023
315.470871334
316.829611783
318.149847509
319.428468053
320.662442844
321.848860341
322.984964827
324.068191202
325.096190234
326.066855796
326.978350104
327.829153446
328.618134172
329.344642455
330.008565047
330.610206241
331.150203767
331.630720738
332.053206691
332.421493545
332.735929965
333.001184928
333.224622687
333.406112682
333.548764684
333.658755645
333.743290875
333.808706725
333.859807364
333.900152877
333.932540994
333.959215628
333.981825265
334.00127867
334.017538835
334.0296541
334.037442599
334.04310585
334.04857291
334.053694724
334.058231707
334.062731943
334.06724779
334.071670468
334.075692427
334.079241577
334.082283732
334.084772756
334.086809584
334.08837774
334.089608944
334.090499606
334.091107526
334.09152829
334.091730785
264.971441112
265.075163135
265.284341255
265.599550156
266.018025882
266.536533312
267.151234118
267.857818249
268.651627139
269.527771115
270.481234247
271.506963364
272.599939759
273.755233745
274.968043491
276.233720233
277.5477824
278.905921076
280.303999122
281.738045843
283.204248761
284.698943589
286.218603276
287.759826537
289.31932626
290.893917797
292.480507233
294.076079424
295.677685774
297.282431439
298.887461867
300.489948652
302.087074672
303.676018477
305.253938477
306.817957351
308.365147543
309.892518837
311.397009236
312.875480762
314.324721483
315.741455658
317.122362688
318.464105984
319.763370459
321.016907424
322.221581642
323.374417681
324.47263408
325.513670676
326.4951951
327.415122991
328.271654299
329.063386691
329.789482255
330.449841312
331.044657362
331.573722186
332.040961386
332.446035939
332.797090466
333.088009562
333.326095756
333.527697984
333.683313623
333.795046829
333.872056798
333.925036838
333.9622429
333.988830336
334.008027132
334.022395886
334.034162355
334.045025054
334.055768837
334.065574671
334.07104845
334.070198737
334.067972743
334.068654321
334.07018801
334.071117159
334.072953215
334.075362678
334.078069168
334.080884758
334.083568652
334.08602943
334.088174087
334.089976895
334.091456975
334.092631547
334.093548704
334.094149859
334.094619895
334.094831737
264.11033643
264.219298391
264.438934473
264.769639973
265.208217662
265.750916075
266.393318285
267.130507744
267.95722243
268.867998148
269.857292803
270.919588142
272.049467884
273.241673482
274.49114009
275.793016267
277.142670984
278.535691465
279.967874768
281.43521557
282.933891855
284.46024984
286.01078881
287.5821464
289.171084366
290.774474938
292.389287476
294.012575285
295.641462166
297.273128461
298.904796081
300.533712602
302.157133989
303.772306042
305.37644485
306.9667169
308.540219558
310.093963341
311.624857305
313.129699823
314.605176597
316.047868572
317.454271479
318.820828553
320.143976389
321.420200819
322.646100011
323.81844043
324.934204299
325.990601258
326.98506137
327.915201147
328.778843586
329.574160135
330.300020469
330.956645693
331.544302929
332.059494386
332.512347744
332.894642844
333.23109944
333.491647982
333.690765552
333.874576573
334.00199071
334.074448593
334.108751667
334.122785821
334.127374432
334.126436121
334.121745995
334.115520358
334.110489428
334.108779357
334.11162745
334.11768638
334.117914139
334.104571957
334.090700715
334.087739972
334.086873527
334.083332795
334.082605879
334.083077386
334.084124822
334.085941847
334.087888693
334.089908761
334.09179768
334.093458483
334.094925628
334.096139469
334.097066814
334.097734923
334.098251361
334.098494454
263.135512363
263.250727419
263.482826809
263.831960476
264.294372995
264.865651331
265.540644816
266.313677057
267.178740702
268.129673392
269.160305316
270.26457475
271.436611607
272.670791823
273.961767188
275.304475891
276.694139079
278.126248054
279.59654599
281.101006972
282.635814428
284.197340115
285.782124402
287.386858025
289.008365348
290.643588819
292.289574379
293.943457242
295.602447684
297.263816118
298.924876993
300.582971113
302.235446059
303.879634243
305.512829235
307.132260536
308.735067976
310.318276935
311.878776444
313.413302695
314.918430773
316.390578566
317.826025308
319.220949012
320.571481991
321.873785141
323.124131553
324.318990806
325.455087074
326.529416055
327.539181604
328.481682754
329.354211407
330.154203306
330.879857282
331.532745636
332.114638752
332.609654321
333.050461136
333.394947139
333.733653838
333.952316736
334.094179147
334.311966106
334.41631962
334.429626088
334.395690941
334.34584318
334.298148996
334.260048449
334.229833015
334.204141065
334.182777361
334.168476019
334.166150761
334.177915626
334.177710984
334.14053734
334.105296298
334.104480951
334.104988059
334.093598044
334.090914062
334.090058345
334.08934179
334.090575219
334.091936435
334.093815091
334.095670435
334.097300424
334.098758753
334.100045902
334.101094507
334.101880345
334.102449432
334.102744644
262.040469469
262.163146115
262.410092866
262.781122981
263.271756845
263.876729563
264.589956726
265.404808694
266.31435849
267.311598717
268.38961628
269.541721906
270.76153644
272.043039498
273.380587952
274.768912211
276.203097652
277.678557436
279.191001402
280.736404424
282.310976221
283.911133806
285.533476849
287.174766023
288.831903857
290.501917767
292.181944518
293.869215635
295.561042818
297.254802745
298.947920136
300.637848792
302.322049636
303.997965382
305.662992023
307.314447514
308.949538499
310.565326682
312.158697033
313.726331042
315.264688977
316.770006153
318.238308424
319.665452554
321.047194566
322.379287094
323.657600249
324.87824713
326.037687542
327.1327523
328.160527042
329.118048714
330.001908637
330.808140186
331.532772254
332.181701284
332.765876091
333.221915521
333.670847469
333.93946522
334.41061613
334.534467296
334.30299603
334.279022257
334.350465076
334.383814841
334.375165822
334.347699889
334.315514359
334.28562642
334.261446695
334.24408427
334.234639389
334.235903883
334.252327249
334.280219106
334.277528921
334.179125271
334.08260305
334.114403804
334.129607271
334.098573283
334.096986108
334.096566311
334.092867897
334.094686258
334.095468318
334.097721204
334.099806041
334.101446287
334.102948863
334.104337186
334.10557695
334.106563852
334.107212504
334.107569155
260.817456938
260.949059673
261.213733106
261.61082464
262.134907297
262.779611419
263.537658366
264.401219299
265.362232681
266.412671918
267.544750739
268.751064982
270.02467638
271.359148249
272.748544897
274.187406336
275.670708498
277.193816848
278.752439187
280.342581118
281.960506188
283.602701258
285.265847089
286.946793467
288.642538248
290.3502094
292.067049341
293.790400556
295.51769162
297.246422364
298.974147041
300.698454461
302.416944195
304.12719762
305.826744375
307.513023777
309.18334257
310.834829902
312.464392745
314.068674698
315.644024001
317.186477058
318.691765457
320.15535636
321.572532979
322.93852266
324.248670307
325.498640234
326.68460922
327.803365064
328.852146457
329.828050435
330.726927595
331.542133142
332.261639937
332.902471604
333.524594858
333.89115844
334.499661182
334.309234477
334.334156694
334.433558715
334.410998788
334.369019224
334.376713662
334.380041472
334.363837787
334.336950236
334.3072686
334.280401896
334.259336337
334.244216828
334.235130207
334.232034163
334.234106017
334.235685657
334.220269161
334.193417556
334.19487737
334.233601644
334.218448352
334.078356819
334.093403479
334.103870928
334.092371457
334.09890516
334.097920486
334.101683028
334.104308803
334.105831254
334.10737986
334.108984927
334.110483306
334.111757031
334.112539449
334.112989671
259.457209313
259.599542417
259.885474984
260.313705158
260.877553305
261.569204963
262.379844478
263.300129118
264.320597332
265.431998241
266.625529558
267.892986623
269.22683416
270.620217628
272.06693213
273.56136561
275.098429822
276.673489111
278.282293362
279.920918697
281.585717093
283.273274849
284.980378771
286.703988943
288.441216604
290.189306186
291.945620265
293.707626555
295.472885484
297.239037078
299.003785148
300.76487767
302.52008155
304.267150535
306.003786128
307.727591207
309.436016882
311.12630391
312.795421252
314.440005495
316.056308052
317.640157436
319.186950137
320.691681443
322.149034795
323.553541782
324.89982684
326.182929239
327.398669471
328.543976984
329.616825777
330.615374004
331.535660785
332.367873805
333.072477623
333.695160306
334.577207555
334.360052548
334.373351339
334.435276001
334.407513151
334.425032544
334.407229348
334.378315338
334.369972672
334.361036039
334.341882741
334.316196436
334.289360334
334.266090645
334.248283102
334.235650996
334.227893075
334.224041856
334.222164227
334.218710225
334.208115075
334.194186923
334.190879981
334.197075245
334.184219847
334.185315487
334.201517221
334.142310854
334.073166488
334.104899623
334.096918842
334.10615319
334.10971482
334.110395599
334.111890016
334.113870042
334.11583663
334.117471292
334.118504944
334.119081827
257.948597934
258.103921556
258.415517923
258.881170457
259.492523724
260.239855377
261.112357827
262.098769898
263.187902841
264.369043107
265.632221245
266.968357195
268.369304008
269.827817227
271.337477055
272.892586484
274.488063139
276.119336589
277.782257917
279.473024129
281.188117419
282.924257518
284.67836485
286.447532059
288.229002032
290.02015084
291.818474561
293.621578753
295.427169232
297.233042121
299.037070882
300.837188113
302.631360139
304.417552143
306.193683829
307.957574435
309.706877593
311.439006337
313.15105078
314.839692346
316.501120087
318.130963446
319.724247803
321.275407929
322.778362624
324.226707215
325.614028979
326.93439481
328.18300512
329.357057924
330.4561615
331.481523498
332.433349234
333.307274602
333.973555722
334.317314981
334.435022798
334.502366491
334.443784152
334.442121992
334.419305424
334.409338615
334.385819219
334.358811163
334.340669587
334.323485978
334.302024031
334.277504085
334.254257135
334.23549032
334.221323473
334.211733535
334.206297772
334.203849681
334.202572843
334.200227772
334.194580225
334.187202562
334.183992012
334.184215472
334.177848207
334.17548971
334.173193425
334.171663883
334.18194227
334.157635368
334.080850988
334.112610456
334.117421478
334.114685311
334.116107456
334.118878848
334.121622122
334.123816072
334.125250063
334.125950328
256.278163933
256.449359566
256.792203851
257.303177027
257.971651506
258.785359305
259.730892335
260.794549752
261.963014744
263.223840392
264.565740726
265.978711551
267.454019801
268.984104628
270.562429848
272.183319473
273.841798368
275.533451297
277.254306094
279.000741751
280.769418737
282.557227565
284.361251081
286.178736829
288.007076578
289.843791514
291.686521964
293.533020991
295.381150109
297.22887492
299.074257104
300.915439861
302.75062361
304.578029594
306.395850514
308.202187118
309.994969943
311.771865712
313.530170947
315.266691284
316.977622899
318.658428932
320.303757981
321.90739036
323.462296846
324.960805163
326.394981871
327.757279406
329.041543285
330.245035892
331.37012465
332.426385332
333.443354338
334.518415068
334.426655219
334.40378724
334.454242399
334.481984387
334.446627435
334.421777872
334.393734923
334.368438573
334.338347766
334.30790335
334.282681061
334.260164272
334.237645897
334.215368184
334.19658604
334.182902452
334.173323304
334.16785884
334.166059994
334.166802422
334.16859335
334.169959719
334.169929546
334.169345752
334.170459015
334.172513319
334.171208135
334.169274042
334.168131772
334.167097946
334.168050239
334.169851188
334.170647024
334.147713712
334.132513327
334.116422407
334.119088854
334.123874098
334.128001166
334.131029129
334.132882974
334.133696974
254.429483555
254.620292848
255.001589227
255.56796986
256.305682156
257.199024026
258.231167889
259.385301958
260.645496244
261.997274972
263.427907723
264.926468808
266.4837306
268.091957456
269.744657153
271.436331515
273.162252546
274.918276835
276.700701418
278.506157675
280.331536685
282.173938115
284.030635486
285.899051987
287.776743374
289.661386329
291.550772246
293.442806331
295.335510882
297.227029375
299.115627013
300.999682372
302.877666431
304.748106012
306.609530394
308.460400185
310.299015485
312.123404347
313.931184478
315.719410874
317.484392517
319.221524299
320.925099838
322.588206475
324.202664285
325.759153569
327.247536371
328.657565725
329.979871964
331.209797444
332.350426055
333.420850183
334.504024971
334.566861313
334.570584338
334.496212024
334.478789421
334.458810305
334.416190226
334.373947838
334.332411486
334.293553204
334.255650906
334.220614425
334.191007696
334.166087532
334.144370058
334.126178839
334.113342069
334.105492264
334.101612791
334.101675107
334.105171544
334.111067638
334.118141897
334.125316633
334.131979778
334.138389646
334.14518314
334.151725628
334.156238848
334.159675241
334.162633884
334.163827214
334.164780736
334.166164462
334.167623842
334.182320472
334.170114135
334.101477704
334.11817973
334.12898436
334.135419107
334.13946168
334.141585491
334.142416246
252.38229168
252.597670623
253.026885219
253.661769004
254.484204322
255.473804896
256.609216861
257.869656999
259.236007534
260.69146374
262.221779275
263.81520131
265.462203104
267.155114993
268.887733077
270.654958458
272.452495203
274.276616533
276.123995995
277.99159354
279.876583292
281.776309973
283.688262612
285.610057534
287.539426142
289.474206962
291.412343544
293.351890642
295.291027966
297.228077371
299.161516598
301.08998121
303.012249457
304.927207248
306.833792321
308.730916133
310.617362411
312.491653178
314.351888629
316.195536695
318.01921035
319.818382227
321.587130944
323.317859696
325.00113328
326.625612309
328.178218536
329.644656318
331.008782055
332.261468148
333.411055974
334.521320088
334.611652582
334.632851633
334.581621948
334.507193022
334.454539061
334.402549868
334.342618031
334.283719535
334.228568255
334.178660059
334.133965252
334.095383964
334.06400363
334.039480119
334.02081913
334.008713779
334.003080926
334.001901716
334.004903247
334.011956156
334.022417666
334.035308129
334.049569191
334.064282558
334.078849452
334.093097789
334.106982268
334.1199659
334.131200375
334.14092487
334.149191189
334.155491114
334.160228593
334.163169106
334.164373644
334.168614066
334.163337161
334.151712359
334.121382199
334.137102219
334.145094733
334.149820773
334.151586414
334.152132491
250.111249094
250.357904563
250.84772234
251.568404357
252.495637122
253.602575953
254.861843829
256.247594602
257.736867003
259.310265232
260.95207208
262.649956274
264.394446203
266.17831951
267.996016037
269.8431363
271.716050847
273.611620216
275.527010922
277.459586152
279.406848861
281.366416626
283.33601192
285.313456537
287.296665322
289.283640332
291.272471349
293.261349605
295.248596285
297.232699505
299.212348556
301.186451575
303.154129339
305.114683147
307.067537004
309.012157418
310.947941624
312.874075476
314.789334286
316.691846987
318.578774348
320.445960335
322.287494073
324.095291457
325.858690699
327.564176002
329.195228234
330.732542004
332.146747994
333.428872337
334.638145218
334.711840517
334.687823226
334.637427455
334.559587862
334.469405665
334.385000396
334.303780756
334.223680253
334.14890661
334.081820572
334.023497582
333.974139061
333.934041115
333.903461482
333.882032805
333.869007586
333.86420178
333.866025388
333.872575894
333.883698766
333.899068661
333.917928758
333.939323655
333.962269882
333.985888586
334.009504112
334.032668558
334.055008914
334.07598994
334.095022465
334.111979339
334.126715488
334.138960222
334.148674249
334.155649128
334.159573365
334.161411171
334.158485125
334.151814815
334.154243492
334.151467365
334.158243788
334.163069793
334.162921925
334.162627473
247.584172331
247.871400706
248.439182308
249.268912709
250.327338174
251.578623541
252.987352024
254.521257232
256.152834472
257.859954107
259.625688944
261.437627873
263.286944694
265.167439639
267.074692834
269.005394835
270.956865384
272.926740398
274.912792856
276.912850078
278.924772086
280.946461227
282.975879908
285.011061568
287.050109317
289.091187176
291.132517177
293.172399739
295.209262379
297.241727983
299.268680929
301.289308472
303.303106294
305.30984798
307.309526672
309.302273206
311.288249332
313.267492116
315.239708795
317.203980752
319.158398725
321.099568954
323.022035387
324.917598181
326.77468131
328.57777955
330.307076013
331.941014233
333.430743879
334.821287108
334.887422613
334.798404167
334.705899263
334.610050931
334.498551647
334.379261583
334.264535987
334.157587206
334.059095565
333.971230536
333.89537469
333.83196901
333.780871563
333.741833988
333.714548644
333.698494438
333.692876719
333.696179621
333.705842197
333.72083577
333.740898118
333.765458739
333.79366594
333.824562206
333.85718264
333.890634327
333.924153397
333.957111457
333.988944746
334.01906462
334.046912826
334.07215647
334.094510562
334.11369143
334.129538663
334.141928681
334.150709937
334.156283608
334.158163411
334.157163501
334.158429662
334.162090089
334.174723949
334.180877625
334.175066014
334.17307612
244.759430469
245.100471302
245.770529349
246.741141857
247.965949329
249.396508842
250.986678032
252.696140206
254.49219481
256.350100779
258.252357722
260.187365589
262.147875942
264.129545554
266.129761946
268.146790511
270.179219647
272.225646847
274.284541102
276.35422118
278.432899001
280.518746742
282.609956879
284.704774978
286.801498879
288.8984546
290.993975269
293.086423323
295.174268078
297.25620525
299.331274895
301.398937917
303.459093949
305.512047283
307.55844109
309.599183859
311.635353057
313.668056738
315.69821427
317.726248256
319.751645406
321.772365534
323.784046781
325.7790075
327.745292313
329.665675794
331.518814089
333.310735243
335.00681587
335.108840572
334.959617884
334.813668114
334.678667849
334.535922044
334.384647162
334.233884282
334.092816113
333.965461724
333.853146568
333.756777673
333.676582248
333.612144486
333.56271277
333.527503509
333.505821619
333.497100156
333.499664592
333.510836471
333.528537502
333.55227544
333.581544841
333.615567499
333.653430037
333.694169158
333.736820287
333.780465532
333.824267849
333.867475985
333.909395995
333.949361183
333.986761575
334.021121889
334.052039094
334.079167167
334.102270935
334.121223406
334.136003333
334.146940752
334.154199168
334.158546448
334.162330065
334.166871494
334.17033549
334.214076391
334.187399452
334.181708845
241.582009048
241.99632238
242.803574118
243.959476095
245.39819003
247.053534271
248.865145859
250.782818254
252.768239922
254.79469558
256.845375875
258.910983252
260.987261394
263.072888088
265.167914943
267.272747584
269.387569172
271.512088041
273.645500655
275.786581895
277.933834304
280.085643697
282.240400925
284.39656259
286.55264062
288.707137555
290.85847322
293.004997165
295.14510809
297.277463992
299.401187173
301.515992997
303.622216111
305.720753139
307.812974364
309.900663604
311.985962699
314.071266693
316.159028994
318.251447498
320.350007102
322.454800272
324.563510235
326.669894289
328.76226391
330.821168161
332.834958524
334.997376823
335.274164959
335.114113112
334.939438402
334.771612066
334.591716184
334.402770845
334.214348148
334.035908782
333.874645527
333.733910526
333.614386374
333.515609877
333.436472953
333.375529433
333.331300925
333.30250312
333.288201188
333.287831655
333.298454549
333.316833492
333.342366484
333.374554047
333.412601292
333.455616265
333.50267436
333.552827696
333.605125833
333.65864245
333.712494737
333.765849103
333.817914367
333.867937308
333.915223318
333.959174608