/*--------------------------------*- C++ -*----------------------------------*\
| =========                 |                                                 |
| \\      /  F ield         | OpenFOAM: The Open Source CFD Toolbox           |
|  \\    /   O peration     | Version:  v1906                                 |
|   \\  /    A nd           | Web:      www.OpenFOAM.com                      |
|    \\/     M anipulation  |                                                 |
\*---------------------------------------------------------------------------*/
FoamFile
{
    version     2.0;
    format      ascii;
    class       volVectorField;
    location    "685";
    object      U;
}
// * * * * * * * * * * * * * * * * * * * * * * * * * * * * * * * * * * * * * //

dimensions      [0 1 -1 0 0 0 0];


internalField   nonuniform List<vector> 
9216
(
(0.00156357022686 -0.00156455947648 0)
(0.0016035051522 -0.0048756438673 6.5414686047e-28)
(0.00159213118179 -0.00819473913768 1.08532328128e-31)
(0.00156896241426 -0.0114936894135 0)
(0.00153777934035 -0.0147338954848 0)
(0.00149944805413 -0.0179013078978 0)
(0.00145474922884 -0.0209818933171 0)
(0.00140455895052 -0.0239632663131 0)
(0.00134957795642 -0.0268347487575 0)
(0.00129069947418 -0.0295872488546 0)
(0.00122857502381 -0.0322133732714 0)
(0.00116405841423 -0.0347072195306 0)
(0.00109768278276 -0.0370644221059 0)
(0.00103020429645 -0.0392818746337 0)
(0.000961992860406 -0.0413577371875 0)
(0.000893681109384 -0.0432911222704 0)
(0.000825462368188 -0.0450820978086 0)
(0.000757847742453 -0.0467313682519 0)
(0.000690864607562 -0.048240296161 0)
(0.000624922727249 -0.0496105969555 0)
(0.000559906168769 -0.0508443915006 0)
(0.000496150207584 -0.0519439250138 0)
(0.000433422743494 -0.0529116509278 0)
(0.000372012241091 -0.0537499757746 0)
(0.000311595893577 -0.0544613708381 0)
(0.000252439097102 -0.0550481448555 0)
(0.000194151945774 -0.0555125745583 0)
(0.000136997444115 -0.0558567051821 0)
(8.05398195833e-05 -0.0560824937522 0)
(2.50575880856e-05 -0.0561916413122 0)
(-2.99101065478e-05 -0.0561857461133 0)
(-8.4056571072e-05 -0.0560661626279 0)
(-0.000137843508226 -0.055834149968 0)
(-0.000190913581311 -0.0554908008768 0)
(-0.000243703112673 -0.0550371720605 0)
(-0.000295791685231 -0.0544742634874 0)
(-0.000347563267052 -0.0538031358813 0)
(-0.000398520765938 -0.0530249578572 0)
(-0.00044896875346 -0.0521410901682 0)
(-0.000498327153966 -0.0511532053112 0)
(-0.000546801679576 -0.050063320897 0)
(-0.00059373671687 -0.048873990452 0)
(-0.000639232423272 -0.0475882603039 0)
(-0.000682583323005 -0.0462099178616 0)
(-0.000723797188687 -0.0447433502637 0)
(-0.00076216522744 -0.0431938271221 0)
(-0.000797636002527 -0.0415672466792 0)
(-0.000829556309159 -0.0398704219176 0)
(-0.000857858244685 -0.0381107293198 0)
(-0.000881990825239 -0.0362963786628 0)
(-0.0009018906648 -0.0344360261542 0)
(-0.000917101538651 -0.0325390403757 0)
(-0.00092752849821 -0.030615190473 0)
(-0.000932732593049 -0.0286749441652 0)
(-0.000932520461355 -0.0267293041167 0)
(-0.000926420320182 -0.0247900879994 0)
(-0.000914198227872 -0.0228697899038 0)
(-0.000895501594212 -0.020981618323 0)
(-0.000870320648692 -0.0191391348992 0)
(-0.000838688223193 -0.0173559461474 0)
(-0.000801067842141 -0.0156451231941 0)
(-0.000758066892809 -0.0140186542225 0)
(-0.000710754027008 -0.0124867423336 0)
(-0.00066028198539 -0.0110572256163 0)
(-0.000607962228629 -0.00973529222353 0)
(-0.000554816039507 -0.00852365074481 0)
(-0.000501869802537 -0.00742290689039 0)
(-0.00044995100728 -0.0064317354623 0)
(-0.000400003007962 -0.00554700201724 0)
(-0.000352718837319 -0.0047638209759 0)
(-0.000308787747725 -0.0040758741635 0)
(-0.000268495365431 -0.00347579186082 0)
(-0.000232065713979 -0.0029556931807 0)
(-0.000199332383775 -0.00250765153189 0)
(-0.000170186388028 -0.00212405476083 0)
(-0.000144313566599 -0.00179776736217 0)
(-0.000121622590043 -0.0015220562207 0)
(-0.000101873205191 -0.00129053580219 0)
(-8.49451953872e-05 -0.00109715507141 0)
(-7.04951163054e-05 -0.000936380882393 0)
(-5.82914126806e-05 -0.000803261382123 0)
(-4.79491250757e-05 -0.000693519481063 0)
(-3.9184917731e-05 -0.000603503372444 0)
(-3.13493832356e-05 -0.000530988704803 0)
(-2.34709607091e-05 -0.000466079910047 0)
(-2.01878601882e-05 -0.000428746384115 0)
(-1.8753186768e-05 -0.000387701132201 0)
(-1.6101896732e-05 -0.000353413486892 0)
(-1.59973336822e-05 -0.000324833210328 0)
(-1.7233267297e-05 -0.000292430797644 0)
(-1.74524017199e-05 -0.000259982392328 0)
(-1.80811417928e-05 -0.000225037467729 0)
(-2.09737987815e-05 -0.000186352136399 0)
(-2.44575475761e-05 -0.000143277095176 0)
(-2.82814036108e-05 -8.98973688791e-05 0)
(-3.04422183274e-05 -2.92725672155e-05 0)
(0.00488901734415 -0.00162092660465 0)
(0.0051509450487 -0.00518917457189 0)
(0.00511157399451 -0.00872603845263 -6.72637850548e-28)
(0.00503549727349 -0.0122438183008 0)
(0.00493426003874 -0.0156955910501 0)
(0.00481049688421 -0.0190681821927 0)
(0.00466648608334 -0.0223469555558 0)
(0.0045048181324 -0.0255188470855 0)
(0.00432789639712 -0.028572518804 0)
(0.00413841406275 -0.0314983835344 0)
(0.00393867840971 -0.0342886459016 0)
(0.00373121753483 -0.0369371742489 0)
(0.00351799435104 -0.0394394458306 0)
(0.00330117440856 -0.0417923416218 0)
(0.00308223190413 -0.0439940444614 0)
(0.00286288501742 -0.0460438021097 0)
(0.00264408132616 -0.0479418180693 0)
(0.00242709952669 -0.0496890165076 0)
(0.00221239875428 -0.0512869519647 0)
(0.0020008831111 -0.0527375961098 0)
(0.00179260034749 -0.0540432786765 0)
(0.00158816734003 -0.0552065039094 0)
(0.00138730890486 -0.0562299245206 0)
(0.00119044280113 -0.0571161884151 0)
(0.000997053903735 -0.057867941774 0)
(0.000807438255168 -0.0584877035286 0)
(0.000620914368096 -0.0589778914759 0)
(0.000437723066461 -0.0593407224278 0)
(0.00025708216249 -0.0595782559756 0)
(7.92363498348e-05 -0.0596923212417 0)
(-9.66336226156e-05 -0.0596845695814 0)
(-0.000270224969052 -0.0595564399514 0)
(-0.000442324805151 -0.0593092267723 0)
(-0.000612507473254 -0.058944061949 0)
(-0.000781452557198 -0.0584619994983 0)
(-0.000948552810302 -0.0578640438554 0)
(-0.00111430209735 -0.0571512386021 0)
(-0.00127785517613 -0.0563247384211 0)
(-0.00143944774836 -0.0553858981056 0)
(-0.00159795989866 -0.0543363860796 0)
(-0.00175332174382 -0.0531782612123 0)
(-0.0019041419789 -0.0519141192346 0)
(-0.00205004287007 -0.0505471367113 0)
(-0.00218942338563 -0.0490812318335 0)
(-0.0023216605088 -0.0475210517709 0)
(-0.00244507364594 -0.0458721215618 0)
(-0.00255892375723 -0.0441407524596 0)
(-0.00266162889425 -0.0423341508244 0)
(-0.00275249225833 -0.0404602436369 0)
(-0.00283018056647 -0.0385277392291 0)
(-0.00289411963509 -0.0365459119272 0)
(-0.00294320717144 -0.034524658438 0)
(-0.002976858747 -0.0324743496335 0)
(-0.00299394317396 -0.03040597573 0)
(-0.00299359216801 -0.0283311634822 0)
(-0.00297445763359 -0.0262623978846 0)
(-0.00293553139856 -0.0242130524259 0)
(-0.00287577549224 -0.0221973717886 0)
(-0.00279494263113 -0.0202301489588 0)
(-0.00269322379193 -0.0183263194639 0)
(-0.00257194455824 -0.0165003602754 0)
(-0.00243317369287 -0.0147656314943 0)
(-0.00228031323637 -0.0131335341116 0)
(-0.00211736628 -0.0116126373092 0)
(-0.00194857122145 -0.0102083017561 0)
(-0.001777324391 -0.00892309214616 0)
(-0.00160673121399 -0.00775743799006 0)
(-0.0014395533744 -0.00670983955322 0)
(-0.00127872224717 -0.00577682791862 0)
(-0.00112667085854 -0.00495295186746 0)
(-0.000985508248399 -0.00423107966612 0)
(-0.000856318426297 -0.00360290285988 0)
(-0.000739620480535 -0.00305958568972 0)
(-0.000634968335375 -0.00259237129961 0)
(-0.000541757561756 -0.00219303300936 0)
(-0.000459081848441 -0.00185402443556 0)
(-0.000386509746393 -0.0015682832409 0)
(-0.000323476052552 -0.00132900717745 0)
(-0.000269476356087 -0.00112966942617 0)
(-0.000223524777266 -0.000964284708965 0)
(-0.000184734604592 -0.000827557204988 0)
(-0.000152032154636 -0.000714890573089 0)
(-0.000124541304906 -0.000622237064488 0)
(-0.000101139230409 -0.000546187361324 0)
(-8.03015145206e-05 -0.000479704501273 0)
(-6.64123247735e-05 -0.000420447524912 0)
(-5.68141890046e-05 -0.000378918042042 0)
(-4.85108082943e-05 -0.000345645478697 0)
(-4.69487786839e-05 -0.000312564459111 0)
(-4.98696237961e-05 -0.000286387056028 0)
(-5.19248232768e-05 -0.000258806134696 0)
(-5.56113373662e-05 -0.000222286193207 0)
(-6.2379834797e-05 -0.000182659466051 0)
(-7.8409268745e-05 -0.000146264799414 0)
(-9.72964025065e-05 -9.47320890155e-05 0)
(-8.86580942956e-05 -2.63867070474e-05 0)
(0.00827377396958 -0.00164219820225 0)
(0.00872145986251 -0.00525437811889 0)
(0.00864731847019 -0.00882800131029 -6.71688701426e-28)
(0.00851530658294 -0.0123850349768 0)
(0.00834183089906 -0.0158738828328 0)
(0.00813049032816 -0.0192807204473 0)
(0.00788504589645 -0.0225904537023 0)
(0.00760970257414 -0.0257897975776 0)
(0.00730874152586 -0.0288673079669 0)
(0.00698658132361 -0.0318134263686 0)
(0.00664739266361 -0.0346204662374 0)
(0.0062952565906 -0.0372825058142 0)
(0.00593377812718 -0.0397952726765 0)
(0.00556635234348 -0.0421559598235 0)
(0.0051957759118 -0.0443630623947 0)
(0.00482461762866 -0.0464161680798 0)
(0.00445481299793 -0.0483157903147 0)
(0.00408812611075 -0.0500631691679 0)
(0.00372570752934 -0.0516601278014 0)
(0.00336863319087 -0.0531089025352 0)
(0.00301740844806 -0.0544120340739 0)
(0.00267257357764 -0.0555722324953 0)
(0.00233414295684 -0.0565923031602 0)
(0.00200227157756 -0.0574750440437 0)
(0.0016766246648 -0.0582232017254 0)
(0.00135710345232 -0.0588393963425 0)
(0.00104314595523 -0.0593261011045 0)
(0.000734511693246 -0.0596855902914 0)
(0.000430518123455 -0.0599199383124 0)
(0.0001308835032 -0.0600309895189 0)
(-0.000165092703216 -0.0600203751637 0)
(-0.000457631969312 -0.0598895036896 0)
(-0.000747344887003 -0.0596395961027 0)
(-0.00103428500861 -0.0592717062964 0)
(-0.00131885405284 -0.0587867746779 0)
(-0.00160082075211 -0.0581856777459 0)
(-0.00188025387942 -0.057469303852 0)
(-0.00215652564614 -0.0566386357191 0)
(-0.00242926068682 -0.0556948438507 0)
(-0.00269735130316 -0.0546393982762 0)
(-0.00295991009903 -0.0534741706988 0)
(-0.00321532952066 -0.0522015641885 0)
(-0.00346222253704 -0.0508246050424 0)
(-0.00369856151878 -0.0493470690119 0)
(-0.00392258650045 -0.0477735369532 0)
(-0.00413205269674 -0.0461094877062 0)
(-0.00432507605918 -0.0443612853589 0)
(-0.00449949843351 -0.0425362056179 0)
(-0.00465362140216 -0.0406423321014 0)
(-0.00478565516351 -0.038688503308 0)
(-0.00489426379457 -0.0366841428825 0)
(-0.00497801977106 -0.0346391855723 0)
(-0.00503570001074 -0.032563975192 0)
(-0.00506572856559 -0.0304693392829 0)
(-0.00506636178174 -0.0283667435236 0)
(-0.00503539627326 -0.026268595563 0)
(-0.00497068170062 -0.0241884761055 0)
(-0.0048703791444 -0.0221411768533 0)
(-0.00473370363938 -0.0201423369844 0)
(-0.00456092400247 -0.0182079883368 0)
(-0.00435403834498 -0.0163539016224 0)
(-0.00411658044832 -0.0145948954485 0)
(-0.00385451173467 -0.0129437492858 0)
(-0.00357544515409 -0.0114096267972 0)
(-0.00328702265121 -0.00999742771055 0)
(-0.00299502009683 -0.00870888816836 0)
(-0.00270424583793 -0.0075440102944 0)
(-0.00241942078019 -0.00650120874983 0)
(-0.00214554336686 -0.0055768232169 0)
(-0.00188715396027 -0.00476484000241 0)
(-0.00164786084435 -0.00405719608308 0)
(-0.00142969782344 -0.00344447059045 0)
(-0.00123324797603 -0.00291675993992 0)
(-0.00105763358767 -0.0024645202891 0)
(-0.000901299270927 -0.00207920705386 0)
(-0.000762631632095 -0.0017534163878 0)
(-0.000640815846718 -0.00148033936136 0)
(-0.000535306978983 -0.00125311996344 0)
(-0.00044519768532 -0.0010649086123 0)
(-0.000368855375319 -0.000909444427138 0)
(-0.000304536472323 -0.000781379580294 0)
(-0.00025057204226 -0.000676181091236 0)
(-0.000205528685192 -0.000589918572036 0)
(-0.000168128834877 -0.000519484799767 0)
(-0.000137931878856 -0.000457878331304 0)
(-0.000115346630637 -0.000404671323914 0)
(-9.93617552609e-05 -0.000372806686653 0)
(-8.41010894992e-05 -0.00032813159084 0)
(-7.52752412098e-05 -0.000290394677837 0)
(-7.74258670642e-05 -0.000268066064532 0)
(-8.87370384022e-05 -0.000250044738544 0)
(-9.25795865205e-05 -0.000202244234028 0)
(-0.000107303786254 -0.000168363917115 0)
(-0.000127522750495 -0.000124123176393 0)
(-0.000145283287638 -7.53404821859e-05 0)
(-0.000142297043991 -2.35040316969e-05 0)
(0.01172388301 -0.00166852139713 0)
(0.0123631428191 -0.00533680542492 0)
(0.0122561694726 -0.00896297599048 6.71599591397e-28)
(0.012066165048 -0.0125713397512 0)
(0.0118168155366 -0.0161080701266 0)
(0.0115134373867 -0.0195585555495 0)
(0.0111615696218 -0.0229071047779 0)
(0.0107672862702 -0.0261400976558 0)
(0.0103368820358 -0.0292459620454 0)
(0.00987670261001 -0.0322152043181 0)
(0.00939285773446 -0.0350403527547 0)
(0.00889114116839 -0.0377158306062 0)
(0.00837680939393 -0.0402377930138 0)
(0.00785460318585 -0.0426039238846 0)
(0.00732858944756 -0.0448132290255 0)
(0.00680227217327 -0.0468658161535 0)
(0.00627847536105 -0.0487626937466 0)
(0.00575951865981 -0.0505055726853 0)
(0.00524711378848 -0.0520966983261 0)
(0.00474258009237 -0.0535386911913 0)
(0.00424673153515 -0.0548344207104 0)
(0.00376011491921 -0.0559868867009 0)
(0.00328287364265 -0.0569991317704 0)
(0.00281499966568 -0.0578741578363 0)
(0.00235616857331 -0.0586148694415 0)
(0.00190600341356 -0.0592240173676 0)
(0.00146388198805 -0.0597041653361 0)
(0.00102921422557 -0.0600576548331 0)
(0.000601226106435 -0.0602865903081 0)
(0.000179253918755 -0.0603928222947 0)
(-0.000237488814611 -0.0603779517445 0)
(-0.000649598384537 -0.0602433289309 0)
(-0.00105772487242 -0.0599900771427 0)
(-0.00146224096729 -0.0596191213935 0)
(-0.00186349409151 -0.0591312328994 0)
(-0.00226146196984 -0.0585270850351 0)
(-0.00265601224155 -0.057807326924 0)
(-0.00304655668472 -0.0569726712838 0)
(-0.00343232109102 -0.0560239956559 0)
(-0.00381201614345 -0.0549624595206 0)
(-0.00418412353186 -0.0537896258096 0)
(-0.00454660533724 -0.05250759532 0)
(-0.00489721261601 -0.0511191304041 0)
(-0.00523325630077 -0.0496277832878 0)
(-0.00555194093226 -0.0480379923579 0)
(-0.00585021302771 -0.0463551682598 0)
(-0.00612510989957 -0.0445857200482 0)
(-0.00637367826017 -0.0427370522228 0)
(-0.00659329480579 -0.0408174739816 0)
(-0.00678158874511 -0.0388360711836 0)
(-0.0069366238436 -0.0368024965813 0)
(-0.00705667454913 -0.0347267768308 0)
(-0.00714011923603 -0.0326191525079 0)
(-0.00718498643201 -0.030490112396 0)
(-0.00718869864197 -0.0283506762461 0)
(-0.00714788261535 -0.0262129441588 0)
(-0.00705884394072 -0.024090677482 0)
(-0.00691839829654 -0.0219995109356 0)
(-0.00672500980219 -0.0199563709014 0)
(-0.00647857795528 -0.0179790016178 0)
(-0.00618171067764 -0.0160851699079 0)
(-0.00583892753591 -0.0142922218522 0)
(-0.00545940573886 -0.0126156570485 0)
(-0.00505594317243 -0.0110657398916 0)
(-0.00464101608238 -0.00964600350314 0)
(-0.00422229032313 -0.00835618360386 0)
(-0.00380549972319 -0.00719565556556 0)
(-0.00339713941742 -0.00616310705649 0)
(-0.00300478265058 -0.005254882691 0)
(-0.00263566463405 -0.00446413191838 0)
(-0.00229533341658 -0.00378120465269 0)
(-0.00198684375129 -0.00319475347136 0)
(-0.00171066133728 -0.00269301642471 0)
(-0.00146491132194 -0.00226508345036 0)
(-0.00124637217822 -0.00190197808163 0)
(-0.00105213781107 -0.00159688125055 0)
(-0.000881264675769 -0.00134378651736 0)
(-0.000733857463181 -0.00113578710222 0)
(-0.000608827650209 -0.000965257127346 0)
(-0.000503534061669 -0.000825364665688 0)
(-0.000415075344225 -0.000710768261573 0)
(-0.000341093381158 -0.000617173603294 0)
(-0.000279517102575 -0.000540913603269 0)
(-0.000228640586766 -0.000479441368569 0)
(-0.000187775957671 -0.000423378104461 0)
(-0.000159924946989 -0.000383430348936 0)
(-0.000137886804982 -0.000347220275005 0)
(-0.000119409187436 -0.000305476248007 0)
(-0.00011125181749 -0.000277858982618 0)
(-0.000106782560148 -0.000240998352402 0)
(-0.000115104050468 -0.00020974644639 0)
(-0.000137205227938 -0.000187732808832 0)
(-0.000146922510665 -0.000138546187374 0)
(-0.000168508059652 -9.79300009635e-05 0)
(-0.000189913176089 -5.9987170116e-05 0)
(-0.000190253843831 -1.98120414147e-05 0)
(0.0152360121997 -0.00170376104657 0)
(0.0160666614509 -0.00544816584502 0)
(0.0159246168579 -0.00914728301238 0)
(0.0156730569467 -0.0128256998255 0)
(0.0153432091584 -0.0164274683742 0)
(0.0149423778319 -0.0199369849047 0)
(0.0144781447198 -0.0233377974676 0)
(0.013958740262 -0.02661584664 0)
(0.013392686703 -0.0297594154816 0)
(0.012788489663 -0.0327591299496 0)
(0.0121543332365 -0.035607854997 0)
(0.0114978816358 -0.0383005218305 0)
(0.010826088786 -0.0408339107558 0)
(0.0101451258065 -0.0432064042226 0)
(0.00946029859127 -0.0454177340403 0)
(0.00877607861797 -0.0474687308048 0)
(0.00809609474879 -0.0493610922941 0)
(0.00742322884759 -0.0510971709469 0)
(0.00675964242914 -0.0526797902975 0)
(0.00610690140125 -0.0541120845668 0)
(0.00546600699628 -0.0553973671121 0)
(0.00483752589158 -0.0565390187477 0)
(0.00422160804282 -0.0575403998038 0)
(0.00361811120737 -0.0584047762435 0)
(0.00302659994492 -0.0591352636863 0)
(0.00244646300955 -0.0597347802161 0)
(0.00187689535788 -0.0602060122792 0)
(0.00131701235224 -0.0605513861188 0)
(0.000765820803551 -0.060773049878 0)
(0.000222336132978 -0.060872860216 0)
(-0.000314450508658 -0.0608523820813 0)
(-0.000845446557176 -0.0607128870705 0)
(-0.00137148783463 -0.0604553724055 0)
(-0.00189320225031 -0.0600805893629 0)
(-0.00241103612381 -0.059589083455 0)
(-0.00292510894447 -0.0589812514486 0)
(-0.00343523918624 -0.0582574158271 0)
(-0.0039408007338 -0.0574179175227 0)
(-0.00444075825933 -0.0564632260487 0)
(-0.00493354246433 -0.0553940674151 0)
(-0.00541711085888 -0.0542115648739 0)
(-0.00588886408911 -0.0529173909915 0)
(-0.00634575065206 -0.0515139211327 0)
(-0.00678424812706 -0.0500043847308 0)
(-0.0072005281126 -0.0483929985217 0)
(-0.00759052070774 -0.0466850743955 0)
(-0.00795014415481 -0.044887077013 0)
(-0.00827544766972 -0.0430066218244 0)
(-0.00856286785714 -0.0410523753945 0)
(-0.00880936641859 -0.039033863716 0)
(-0.00901255642185 -0.0369611561723 0)
(-0.0091705798393 -0.0348445025877 0)
(-0.00928178878531 -0.0326940013887 0)
(-0.00934407735602 -0.0305195247571 0)
(-0.00935413976834 -0.0283311371777 0)
(-0.00930701450006 -0.0261401299621 0)
(-0.00919665302805 -0.0239602734189 0)
(-0.0090176089425 -0.0218085184644 0)
(-0.00876745613963 -0.0197035889697 0)
(-0.00844485662929 -0.0176656612931 0)
(-0.00805320566586 -0.0157151271084 0)
(-0.00759616155785 -0.013873374942 0)
(-0.00708712798177 -0.0121614633765 0)
(-0.00654761522743 -0.0105918556448 0)
(-0.00599828085418 -0.00916431961873 0)
(-0.00544672163206 -0.00787384896019 0)
(-0.00489737091211 -0.00671927507257 0)
(-0.0043581700926 -0.00570085196886 0)
(-0.00384041090225 -0.00481565924399 0)
(-0.00335524850124 -0.00405565772412 0)
(-0.00291092914154 -0.00340860358242 0)
(-0.00251165415168 -0.00285999319676 0)
(-0.0021574756587 -0.00239499295577 0)
(-0.00184457546883 -0.00200037136399 0)
(-0.00156656961823 -0.00166655220369 0)
(-0.00131795212624 -0.00138840924294 0)
(-0.00109828139579 -0.00116214395456 0)
(-0.000910122489448 -0.00098075494373 0)
(-0.000752627205563 -0.00083464641072 0)
(-0.000621184016094 -0.00071574434064 0)
(-0.000510989105128 -0.000618983682409 0)
(-0.000419070747742 -0.000540661199618 0)
(-0.000342671991064 -0.000477489071424 0)
(-0.000279606430276 -0.00042743732613 0)
(-0.000227511185884 -0.000378270625516 0)
(-0.000200598829526 -0.000354374937621 0)
(-0.00017863619361 -0.000322243084656 0)
(-0.000158220639174 -0.000285641281999 0)
(-0.000140888538227 -0.00024233915963 0)
(-0.000140357434412 -0.000214782288047 0)
(-0.000144309296753 -0.000177685183351 0)
(-0.000168749806839 -0.000154681288239 0)
(-0.000196805819495 -0.000123500949255 0)
(-0.000206505117945 -8.00487528626e-05 0)
(-0.000220121102463 -4.71361688847e-05 0)
(-0.000220510846138 -1.57250463491e-05 0)
(0.0188314841969 -0.00174888105628 0)
(0.0198560138128 -0.00559143593339 0)
(0.019675498458 -0.00938497354793 0)
(0.0193572653424 -0.0131536202866 0)
(0.0189404501598 -0.016838799411 0)
(0.018434673191 -0.0204236505091 0)
(0.0178499136869 -0.0238907772114 0)
(0.017196923093 -0.0272255954286 0)
(0.0164867689721 -0.030416257121 0)
(0.015730406592 -0.0334536067862 0)
(0.0149383067246 -0.036331014097 0)
(0.0141201788018 -0.0390441324742 0)
(0.0132847652086 -0.0415906101387 0)
(0.012439732624 -0.0439697790321 0)
(0.0115916173085 -0.046182344592 0)
(0.0107458465953 -0.0482300915744 0)
(0.00990678358863 -0.0501156180629 0)
(0.0090778223382 -0.0518421022952 0)
(0.00826147698553 -0.0534131055785 0)
(0.00745950197409 -0.0548324087289 0)
(0.00667298576708 -0.0561038804028 0)
(0.00590246615822 -0.0572313717065 0)
(0.00514800802354 -0.0582186341652 0)
(0.00440930151781 -0.0590692551038 0)
(0.00368571850267 -0.0597866080667 0)
(0.002976393656 -0.060373813449 0)
(0.00228026357295 -0.0608337083622 0)
(0.00159613734967 -0.0611688224459 0)
(0.000922726850986 -0.0613813600778 0)
(0.000258716069679 -0.0614731870726 0)
(-0.000397208032346 -0.0614458278711 0)
(-0.00104627838903 -0.0613004591409 0)
(-0.00168960752944 -0.0610379250185 0)
(-0.00232809866733 -0.0606587609516 0)
(-0.00296239477396 -0.0601632297397 0)
(-0.00359277812254 -0.0595513769132 0)
(-0.00421911364426 -0.0588231059995 0)
(-0.00484074826455 -0.0579782759171 0)
(-0.00545646298739 -0.0570168210383 0)
(-0.00606439235926 -0.055938893687 0)
(-0.00666200826432 -0.0547450267601 0)
(-0.00724608687533 -0.0534363120517 0)
(-0.00781275221296 -0.0520145888747 0)
(-0.00835752069197 -0.050482632572 0)
(-0.0088754330799 -0.0488443340837 0)
(-0.00936120546006 -0.047104850719 0)
(-0.00980947190338 -0.0452707106864 0)
(-0.0102150577018 -0.0433498368694 0)
(-0.0105733143111 -0.0413514509848 0)
(-0.0108804427635 -0.039285815367 0)
(-0.0111337213306 -0.0371637630541 0)
(-0.011331495571 -0.0349960597335 0)
(-0.011472698961 -0.0327926980855 0)
(-0.0115557628992 -0.0305625089533 0)
(-0.0115770051826 -0.028313656427 0)
(-0.0115292933596 -0.026055497797 0)
(-0.0114026813653 -0.0238013094685 0)
(-0.0111876195056 -0.0215703484622 0)
(-0.0108815725055 -0.0193836498981 0)
(-0.010479828439 -0.0172647791396 0)
(-0.00998852181272 -0.0152364996945 0)
(-0.00940402128739 -0.0133261657854 0)
(-0.00874544008737 -0.0115671295987 0)
(-0.0080511540374 -0.00997690968405 0)
(-0.00735865505253 -0.0085451251782 0)
(-0.00666863726723 -0.00725528729833 0)
(-0.00597859738657 -0.00610711610709 0)
(-0.00529774982632 -0.00510615772471 0)
(-0.0046439147227 -0.00425197050753 0)
(-0.00403472620457 -0.00353465837174 0)
(-0.00348225791691 -0.00293761739843 0)
(-0.00299207418833 -0.00244130604542 0)
(-0.00256340250217 -0.00202594284264 0)
(-0.00218911594223 -0.00167418163383 0)
(-0.00185660058975 -0.00137535820615 0)
(-0.00155451250692 -0.00112859594346 0)
(-0.00128440550091 -0.000935959412858 0)
(-0.00105632378943 -0.000790135086353 0)
(-0.000870400880273 -0.000676320488961 0)
(-0.000717319542242 -0.000583728117065 0)
(-0.000588574623652 -0.000508656297688 0)
(-0.000481452301076 -0.000448856744396 0)
(-0.000392517865999 -0.000401424111021 0)
(-0.000319008629832 -0.000363539699985 0)
(-0.000261291208956 -0.00032756778799 0)
(-0.000230627860519 -0.00030735215151 0)
(-0.000203538478658 -0.000275373295533 0)
(-0.00018935976324 -0.000252039124409 0)
(-0.000181690675519 -0.000225310809841 0)
(-0.000182474487353 -0.000197352430699 0)
(-0.000176076505721 -0.000152978189952 0)
(-0.000191535815874 -0.000121905465273 0)
(-0.000227235787248 -0.000101792929548 0)
(-0.00024258093775 -7.03967614732e-05 0)
(-0.000248839986702 -4.02156144506e-05 0)
(-0.000249915129637 -1.3415177171e-05 0)
(0.0225320530393 -0.00180504795112 0)
(0.023754089381 -0.0057699207335 0)
(0.0235304937186 -0.00968110605436 6.66845076793e-28)
(0.0231387293146 -0.01356180296 0)
(0.0226263670005 -0.0173500918903 0)
(0.022005786307 -0.0210275218841 0)
(0.0212898411849 -0.0245755470598 0)
(0.0204922790527 -0.0279789907357 0)
(0.0196271401395 -0.0312259312865 0)
(0.0187081957576 -0.0343075914431 0)
(0.0177484829699 -0.0372180819958 0)
(0.0167599589969 -0.0399540625419 0)
(0.0157532693689 -0.0425143561374 0)
(0.0147376290057 -0.0448995513573 0)
(0.0137207906003 -0.047111619352 0)
(0.0127090900413 -0.0491535638741 0)
(0.0117075374155 -0.0510291159809 0)
(0.0107199458032 -0.0527424770746 0)
(0.00974906948224 -0.0542981102925 0)
(0.00879675199323 -0.0557005755352 0)
(0.0078640613834 -0.0569544028075 0)
(0.00695142165731 -0.0580639965127 0)
(0.00605872221203 -0.0590335646181 0)
(0.00518542077636 -0.059867066103 0)
(0.00433062368321 -0.0605681720619 0)
(0.00349316314468 -0.0611402358468 0)
(0.0026716556182 -0.0615862694835 0)
(0.00186456359272 -0.0619089239462 0)
(0.00107024414072 -0.0621104724637 0)
(0.000287008123963 -0.0621927960868 0)
(-0.000486828379981 -0.0621573775331 0)
(-0.00125287428079 -0.0620052871378 0)
(-0.00201259731739 -0.0617371929359 0)
(-0.00276723777004 -0.0613533765097 0)
(-0.00351772400708 -0.060853762429 0)
(-0.00426456850638 -0.0602379694209 0)
(-0.00500777105512 -0.0595053846251 0)
(-0.00574670977497 -0.0586552650497 0)
(-0.00648005033862 -0.0576868678371 0)
(-0.00720565676461 -0.0565996098846 0)
(-0.00792053680148 -0.0553932560834 0)
(-0.00862080720828 -0.0540681311487 0)
(-0.00930171243053 -0.0526253507058 0)
(-0.00995768361439 -0.0510670609523 0)
(-0.0105824714741 -0.0493966783169 0)
(-0.0111693413163 -0.0476191080155 0)
(-0.0117113719136 -0.0457409239454 0)
(-0.0122018343622 -0.0437704589664 0)
(-0.0126347048678 -0.0417177554079 0)
(-0.0130052033317 -0.0395942660939 0)
(-0.013310345689 -0.0374122049339 0)
(-0.0135491493688 -0.0351834769326 0)
(-0.0137221960883 -0.032918266304 0)
(-0.0138298925718 -0.0306238294793 0)
(-0.0138692671572 -0.0283046670289 0)
(-0.0138302981987 -0.0259658062663 0)
(-0.0136960752625 -0.0236186001572 0)
(-0.0134485408683 -0.0212874098903 0)
(-0.0130898146366 -0.0189957981652 0)
(-0.012604999625 -0.016772610039 0)
(-0.012013591627 -0.0146393188648 0)
(-0.0112827468192 -0.0126302905637 0)
(-0.0104394843317 -0.0108085927413 0)
(-0.0095583197043 -0.00920506761863 0)
(-0.00871766818364 -0.00778179865762 0)
(-0.00788869262978 -0.00649378585959 0)
(-0.00704876148446 -0.00534838141221 0)
(-0.00620978800153 -0.0043661628526 0)
(-0.0054033757158 -0.00355262918568 0)
(-0.00465848445067 -0.002893994599 0)
(-0.00399243609377 -0.00236594562252 0)
(-0.00341209545125 -0.00194113248807 0)
(-0.00291572898159 -0.00159203021341 0)
(-0.00249135020957 -0.00129356584546 0)
(-0.00211412258822 -0.00103194625258 0)
(-0.00175815914552 -0.000816213009854 0)
(-0.00143018046292 -0.000663954987263 0)
(-0.00116178855338 -0.000566750281616 0)
(-0.000955153698953 -0.000495642111039 0)
(-0.000788274347473 -0.000433918042547 0)
(-0.000644589615742 -0.000383116294582 0)
(-0.000525583437555 -0.000344599353704 0)
(-0.000427085261579 -0.000314877445302 0)
(-0.000344946553107 -0.000290721447169 0)
(-0.000287487091229 -0.000271369563054 0)
(-0.000254363421096 -0.000256486869296 0)
(-0.000229496906725 -0.000237269480343 0)
(-0.00021173875769 -0.000214410639018 0)
(-0.000209175329427 -0.000195048027316 0)
(-0.000207748561172 -0.000165242612115 0)
(-0.00021922098327 -0.000140967821798 0)
(-0.000220797179196 -0.000103840485642 0)
(-0.000241735569512 -8.03943079537e-05 0)
(-0.000269126072841 -6.104604685e-05 0)
(-0.000273626298624 -3.50471062428e-05 0)
(-0.000275188705611 -1.17117297147e-05 0)
(0.0263620610869 -0.00187361831477 0)
(0.027786095613 -0.00598777545116 0)
(0.0275134170319 -0.0100422975898 -6.66742423415e-28)
(0.0270391924462 -0.0140590084725 0)
(0.0264201639821 -0.0179717792077 0)
(0.0256720844922 -0.0217601760132 0)
(0.0248113270037 -0.0254042827684 0)
(0.0238552600031 -0.0288882944754 0)
(0.0228214537591 -0.0322003381722 0)
(0.0217269569702 -0.0353322615006 0)
(0.0205877191809 -0.0382792482278 0)
(0.0194181777267 -0.0410393433085 0)
(0.0182310044394 -0.0436129372615 0)
(0.0170369964731 -0.0460022548627 0)
(0.0158450828709 -0.0482108805765 0)
(0.0146624191576 -0.0502433417624 0)
(0.0134945383132 -0.0521047593087 0)
(0.0123455348797 -0.0538005672603 0)
(0.0112182587864 -0.0553362964623 0)
(0.010114506577 -0.0567174139613 0)
(0.00903519704656 -0.0579492079485 0)
(0.00798052896748 -0.0590367081809 0)
(0.00695011545149 -0.0599846324587 0)
(0.00594309886349 -0.0607973511717 0)
(0.00495824466947 -0.0614788633803 0)
(0.00399402115857 -0.0620327793551 0)
(0.00304866485154 -0.06246230593 0)
(0.00212023983307 -0.0627702321284 0)
(0.00120669124984 -0.0629589139343 0)
(0.000305901663515 -0.0630302574849 0)
(-0.000584250401033 -0.0629857081388 0)
(-0.00146581877791 -0.0628262254411 0)
(-0.00234071037754 -0.0625522855537 0)
(-0.00321058956905 -0.0621638843416 0)
(-0.00407677068517 -0.0616605567968 0)
(-0.00494009529272 -0.0610414198687 0)
(-0.00580080299116 -0.0603052427308 0)
(-0.00665839549047 -0.0594505501907 0)
(-0.00751150768627 -0.058475762524 0)
(-0.00835778918175 -0.0573793741387 0)
(-0.00919381336918 -0.0561601706843 0)
(-0.0100150204283 -0.0548174806665 0)
(-0.0108157109148 -0.0533514578041 0)
(-0.0115890996604 -0.0517633837302 0)
(-0.0123274422544 -0.0500559835723 0)
(-0.0130222641987 -0.0482337427268 0)
(-0.0136646879758 -0.0463031952284 0)
(-0.0142459652075 -0.0442731614281 0)
(-0.0147581308842 -0.0421548118891 0)
(-0.0151949901425 -0.0399614487036 0)
(-0.0155530987207 -0.0377077024545 0)
(-0.0158327253501 -0.0354079045847 0)
(-0.0160377770016 -0.0330734369943 0)
(-0.016173604458 -0.0307095770439 0)
(-0.0162409531184 -0.0283140604289 0)
(-0.016226456643 -0.0258823054708 0)
(-0.0161000093306 -0.0234195527687 0)
(-0.0158222181222 -0.0209640872674 0)
(-0.0154199903263 -0.0185401085954 0)
(-0.0148422337878 -0.0161885535927 0)
(-0.01416908535 -0.0139142411452 0)
(-0.0132652701338 -0.011752045712 0)
(-0.0121701203716 -0.009842683665 0)
(-0.0110415746673 -0.00825505467166 0)
(-0.0100690296158 -0.0068753897186 0)
(-0.00911778245107 -0.00558621717191 0)
(-0.00811693687343 -0.00442801161982 0)
(-0.00709110465433 -0.00346055043914 0)
(-0.0061045302482 -0.00270043312954 0)
(-0.00520631371032 -0.00212348199789 0)