/*--------------------------------*- C++ -*----------------------------------*\
| =========                 |                                                 |
| \\      /  F ield         | OpenFOAM: The Open Source CFD Toolbox           |
|  \\    /   O peration     | Version:  v1906                                 |
|   \\  /    A nd           | Web:      www.OpenFOAM.com                      |
|    \\/     M anipulation  |                                                 |
\*---------------------------------------------------------------------------*/
FoamFile
{
    version     2.0;
    format      ascii;
    class       volVectorField;
    location    "482";
    object      Ua;
}
// * * * * * * * * * * * * * * * * * * * * * * * * * * * * * * * * * * * * * //

dimensions      [0 1 -1 0 0 0 0];


internalField   nonuniform List<vector> 
9216
(
(-0.0103443944541 0.0103507479941 0)
(-0.010916614367 0.033405440996 3.91787608444e-27)
(-0.0109129745977 0.0568162096449 -7.06379018494e-31)
(-0.0108111043447 0.0802349668789 0)
(-0.0106658524035 0.103265840246 0)
(-0.0104814408381 0.125814960497 0)
(-0.0102623129186 0.147781454536 0)
(-0.0100118279675 0.169073614959 0)
(-0.00973274615441 0.189609089251 0)
(-0.00942818496574 0.209314803352 0)
(-0.00910089748444 0.228127322056 0)
(-0.00875407358106 0.245992775228 0)
(-0.00839042684817 0.262866965249 0)
(-0.00801307451978 0.278715009291 0)
(-0.00762453495027 0.293511122301 0)
(-0.00722770083993 0.307238025626 0)
(-0.00682477544871 0.319886495045 0)
(-0.00641832837235 0.331454638158 0)
(-0.00601018760127 0.341947312646 0)
(-0.00560256105613 0.351375370662 0)
(-0.00519689586452 0.359755041882 0)
(-0.00479504812545 0.367107223086 0)
(-0.00439811825768 0.373456891741 0)
(-0.00400765044737 0.378832486355 0)
(-0.00362445012437 0.383265386406 0)
(-0.00324979755053 0.386789399936 0)
(-0.00288425469102 0.389440316126 0)
(-0.00252888022171 0.391255493637 0)
(-0.00218403444682 0.392273479784 0)
(-0.0018505914977 0.392533693294 0)
(-0.00152876052214 0.392076050768 0)
(-0.0012191807927 0.390940966206 0)
(-0.000921819933298 0.389168512631 0)
(-0.000637229076783 0.386798538613 0)
(-0.000365319619676 0.38387055062 0)
(-0.000106483884342 0.380423449717 0)
(0.000139515566189 0.376495330472 0)
(0.000372429704117 0.372123387348 0)
(0.000592607627373 0.367343720997 0)
(0.000799923685857 0.362191296407 0)
(0.00099482062605 0.356699775629 0)
(0.00117728186074 0.350901518019 0)
(0.00134782624128 0.344827434269 0)
(0.00150653083667 0.338507023823 0)
(0.00165397221251 0.331968248993 0)
(0.00179030424142 0.325237606598 0)
(0.00191614113215 0.318340020433 0)
(0.00203169492595 0.311298943466 0)
(0.00213759680943 0.304136268484 0)
(0.00223409776628 0.296872457557 0)
(0.00232182533933 0.289526469136 0)
(0.00240105060573 0.282115909841 0)
(0.00247237884306 0.274656976508 0)
(0.00253608461847 0.267164624825 0)
(0.00259273554503 0.259652522844 0)
(0.00264259656641 0.252133229438 0)
(0.00268618708103 0.244618155748 0)
(0.00272375403622 0.237117746265 0)
(0.00275576337412 0.229641443611 0)
(0.00278244064581 0.222197864812 0)
(0.00280419859036 0.214794765625 0)
(0.00282124268375 0.207439205669 0)
(0.00283393728993 0.200137508925 0)
(0.00284247275947 0.192895412661 0)
(0.00284717328834 0.185718022434 0)
(0.00284822127994 0.178609941708 0)
(0.00284591065464 0.171575220976 0)
(0.00284042366606 0.164617466831 0)
(0.00283203397233 0.157739786488 0)
(0.00282093063258 0.150944876823 0)
(0.00280737578539 0.144234966666 0)
(0.00279157030534 0.137611887697 0)
(0.00277377131921 0.131077017644 0)
(0.00275419387778 0.124631335768 0)
(0.0027330938805 0.118275370371 0)
(0.00271070007889 0.112009242072 0)
(0.00268726808833 0.105832618781 0)
(0.00266303715329 0.0997447499626 0)
(0.00263826094927 0.0937444318157 0)
(0.00261318366777 0.0878300356442 0)
(0.00258805304688 0.0819994853019 0)
(0.00256311058 0.0762502826479 0)
(0.00253859170319 0.0705794991546 0)
(0.00251472487796 0.0649838022062 0)
(0.00249172242971 0.0594594642979 0)
(0.00246978159583 0.0540023985212 0)
(0.00244906382332 0.0486081996368 0)
(0.00242967843969 0.0432722237946 0)
(0.0024116133871 0.0379897401816 0)
(0.00239458970106 0.0327562554116 0)
(0.00237764846045 0.0275682442952 0)
(0.00235808421266 0.0224252042282 0)
(0.0023285176164 0.0173355834154 0)
(0.00225542624188 0.0123703786661 0)
(0.00211891920982 0.00703549575022 0)
(0.00336156457288 0.00336191916755 0)
(-0.0334863752911 0.0110085766021 0)
(-0.0370167981616 0.0372998789149 0)
(-0.0369305695503 0.0635191683938 -4.11283547136e-27)
(-0.0364305991588 0.0897715443316 0)
(-0.0357357837184 0.115554655673 0)
(-0.0348729025297 0.140784107931 0)
(-0.0338565470253 0.165352690811 0)
(-0.03270116135 0.189159494441 0)
(-0.0314212360766 0.212112804624 0)
(-0.0300323560542 0.234131101603 0)
(-0.0285498480857 0.255143613877 0)
(-0.0269897255205 0.275090440318 0)
(-0.0253671136452 0.293922573896 0)
(-0.0236973646449 0.311601588871 0)
(-0.0219944119758 0.328099282242 0)
(-0.0202720882518 0.343397068881 0)
(-0.0185424566569 0.357485373541 0)
(-0.0168173151037 0.370362863199 0)
(-0.0151065238766 0.382035715458 0)
(-0.0134196609871 0.39251680491 0)
(-0.0117643491752 0.401824954821 0)
(-0.010148019539 0.409984167418 0)
(-0.00857623232361 0.417022932922 0)
(-0.0070545033122 0.42297355685 0)
(-0.00558661013164 0.427871562408 0)
(-0.00417644273524 0.431755131005 0)
(-0.00282629326679 0.43466460109 0)
(-0.00153870352731 0.436642012212 0)
(-0.000314745668057 0.437730684921 0)
(0.000844146047577 0.437974843023 0)
(0.00193788018081 0.43741928851 0)
(0.00296596555733 0.436108880382 0)
(0.00392922098776 0.434088720879 0)
(0.00482789877253 0.431403684318 0)
(0.00566338904454 0.428098011011 0)
(0.00643653733245 0.424215231314 0)
(0.00714926506129 0.419797951716 0)
(0.00780289792333 0.414887727511 0)
(0.00839974346553 0.409524894138 0)
(0.0089414844632 0.403748478328 0)
(0.00943069826831 0.397596061504 0)
(0.00986932070657 0.391103729912 0)
(0.0102600971138 0.384305967601 0)
(0.010605123956 0.377235642056 0)
(0.0109072233225 0.369923924469 0)
(0.0111685687094 0.362400308005 0)
(0.0113919756962 0.354692553481 0)
(0.0115796182527 0.346826737564 0)
(0.0117342302138 0.338827222387 0)
(0.0118579173912 0.330716730716 0)
(0.0119532658469 0.322516337199 0)
(0.012022254449 0.314245566428 0)
(0.0120672678131 0.305922402668 0)
(0.012090112308 0.297563405534 0)
(0.0120929327651 0.289183733544 0)
(0.0120773335187 0.28079727081 0)
(0.0120451993473 0.272416658917 0)
(0.0119979210063 0.264053427395 0)
(0.0119371217101 0.255718027816 0)
(0.0118639848105 0.247419960759 0)
(0.0117798880779 0.239167806546 0)
(0.0116858291791 0.230969342326 0)
(0.0115829707584 0.222831564868 0)
(0.0114721578872 0.214760792943 0)
(0.0113543778413 0.206762679338 0)
(0.0112303624019 0.198842295747 0)
(0.0111009671163 0.191004133058 0)
(0.0109668505522 0.183252168013 0)
(0.0108287787833 0.175589852684 0)
(0.010687373211 0.168020164056 0)
(0.0105433469608 0.160545585083 0)
(0.0103973127105 0.153168139728 0)
(0.0102499584856 0.145889368951 0)
(0.0101019069764 0.138710354583 0)
(0.0099538388882 0.131631694018 0)
(0.00980639536978 0.124653516614 0)
(0.0096602574117 0.117775460711 0)
(0.00951608329585 0.110996686118 0)
(0.00937455263008 0.104315856661 0)
(0.00923633098988 0.0977311519533 0)
(0.00910208679515 0.0912402580071 0)
(0.0089724755807 0.0848403810301 0)
(0.0088481369446 0.0785282481407 0)
(0.00872969041856 0.0723001257702 0)
(0.00861771685103 0.0661518323507 0)
(0.0085127540088 0.0600787640908 0)
(0.00841525600948 0.0540759211864 0)
(0.008325555112 0.0481379399102 0)
(0.00824373929863 0.0422591140963 0)
(0.008169422166 0.0364333538411 0)
(0.00810116766386 0.030653890968 0)
(0.00803518612898 0.0249122024826 0)
(0.00796177359181 0.0191935304008 0)
(0.00785390980836 0.0134640632171 0)
(0.00757340683861 0.00755751012185 0)
(0.00703064103198 0.00211354457378 0)
(-0.0573278094905 0.0111551424741 0)
(-0.0634668885058 0.0379142372871 0)
(-0.0632506282103 0.0644641424826 -4.11656784661e-27)
(-0.0623836848832 0.0910983266043 0)
(-0.061207647687 0.117252101062 0)
(-0.0597565003334 0.142835741375 0)
(-0.0580507425622 0.16773819651 0)
(-0.0561127437823 0.191856285793 0)
(-0.0539665099983 0.215096595207 0)
(-0.0516375353046 0.237376433212 0)
(-0.0491517262297 0.258624304909 0)
(-0.0465353781683 0.278780062515 0)
(-0.0438141241158 0.2977948475 0)
(-0.0410130878661 0.315630770068 0)
(-0.0381559124089 0.332260455521 0)
(-0.0352651119093 0.3476664124 0)
(-0.0323612062939 0.361840333263 0)
(-0.0294632634162 0.374782295296 0)
(-0.026588138384 0.386499951866 0)
(-0.0237511741211 0.397007691763 0)
(-0.0209655230067 0.406325835498 0)
(-0.018242957997 0.414479849441 0)
(-0.0155932406806 0.4214996231 0)
(-0.0130249887484 0.427418792102 0)
(-0.0105450532329 0.432274129647 0)
(-0.0081593962424 0.436104990428 0)
(-0.00587245316739 0.438952811727 0)
(-0.00368799362517 0.440860661775 0)
(-0.00160846321038 0.441872829041 0)
(0.000364181703245 0.44203445059 0)
(0.00222915240037 0.441391182899 0)
(0.00398600643291 0.43998887054 0)
(0.00563526119759 0.437873272004 0)
(0.00717768475192 0.435089838938 0)
(0.00861494143493 0.431683453238 0)
(0.0099488007626 0.427698233427 0)
(0.0111817908944 0.423177342863 0)
(0.0123164591495 0.418162840767 0)
(0.0133560026927 0.412695533646 0)
(0.0143035584515 0.406814866482 0)
(0.0151628119658 0.40055880982 0)
(0.0159373206083 0.393963787334 0)
(0.0166310962316 0.387064594631 0)
(0.0172479638527 0.379894359647 0)
(0.0177921138727 0.372484490928 0)
(0.0182674982728 0.364864668602 0)
(0.0186783490973 0.357062820049 0)
(0.0190286147122 0.349105139341 0)
(0.0193224426195 0.341016088918 0)
(0.0195636585872 0.332818445274 0)
(0.0197562130707 0.324533323979 0)
(0.019903706184 0.316180248088 0)
(0.0200097980616 0.307777193045 0)
(0.020077782146 0.299340673002 0)
(0.020110960306 0.2908858002 0)
(0.020112266038 0.282426382799 0)
(0.0200846052662 0.273974992535 0)
(0.0200305296177 0.265543066918 0)
(0.0199525435008 0.257140978123 0)
(0.0198528260876 0.24877813228 0)
(0.019733504894 0.240463033246 0)
(0.0195964235665 0.232203372683 0)
(0.0194433818583 0.224006083406 0)
(0.0192759451578 0.21587741554 0)
(0.0190956507451 0.207822976194 0)
(0.0189038542352 0.199847789162 0)
(0.0187019022919 0.191956319681 0)
(0.0184910108994 0.184152517287 0)
(0.0182724053319 0.17643982657 0)
(0.018047225292 0.168821214713 0)
(0.0178166337466 0.161299170723 0)
(0.0175817443745 0.153875720598 0)
(0.0173437017378 0.146552418577 0)
(0.0171036270174 0.139330353661 0)
(0.0168626727644 0.132210136836 0)
(0.0166219834121 0.125191902892 0)
(0.0163827283944 0.11827529745 0)
(0.0161460743699 0.111459477721 0)
(0.0159132007721 0.104743102704 0)
(0.0156852809403 0.0981243359795 0)
(0.0154634840506 0.0916008416631 0)
(0.0152489623797 0.0851697915581 0)
(0.0150428428934 0.0788278685569 0)
(0.014846217164 0.0725712794152 0)
(0.014660123832 0.0663957655783 0)
(0.0144855348366 0.0602966199618 0)
(0.0143233240712 0.0542686991447 0)
(0.0141742347446 0.0483064287029 0)
(0.0140388158607 0.0424037772911 0)
(0.0139173454845 0.0365541548275 0)
(0.0138097446874 0.0307501300075 0)
(0.0137156578564 0.0249827459572 0)
(0.0136350249164 0.0192397083386 0)
(0.0135688548325 0.013499527812 0)
(0.0134662744175 0.0077976871756 0)
(0.012340471928 0.0022410527053 0)
(-0.0817256299998 0.0112841279785 0)
(-0.0905479939825 0.0384915901319 0)
(-0.0902305883835 0.0653861545309 4.1146559504e-27)
(-0.0889784892887 0.0923858448049 0)
(-0.0872828047629 0.118889102232 0)
(-0.0851934218437 0.144801216717 0)
(-0.0827398882439 0.170006825358 0)
(-0.0799543058386 0.194399778629 0)
(-0.0768714946766 0.21788460911 0)
(-0.0735282276904 0.240377390773 0)
(-0.0699621425941 0.261806112204 0)
(-0.0662111004577 0.282110772528 0)
(-0.062312249196 0.301243228091 0)
(-0.0583016033204 0.31916679935 0)
(-0.0542133040387 0.335855711087 0)
(-0.0500794433904 0.351294378778 0)
(-0.0459295355361 0.365476606224 0)
(-0.0417905766302 0.37840470931 0)
(-0.0376867104957 0.39008862095 0)
(-0.0336394860597 0.40054499081 0)
(-0.0296676728859 0.409796321202 0)
(-0.025787654161 0.417870146786 0)
(-0.0220133279712 0.424798282438 0)
(-0.0183565622678 0.43061613768 0)
(-0.014827116337 0.435362104688 0)
(-0.0114330958988 0.43907701073 0)
(-0.00818085127888 0.441803630405 0)
(-0.00507540071734 0.44358624758 0)
(-0.00212029363879 0.444470258649 0)
(0.000682000293702 0.444501811993 0)
(0.00333025518649 0.443727479197 0)
(0.00582412999083 0.442193980037 0)
(0.00816427502267 0.439947799459 0)
(0.0103520668376 0.437035063956 0)
(0.0123897544243 0.43350126554 0)
(0.0142801141612 0.42939106203 0)
(0.0160266280237 0.424748098213 0)
(0.0176331634507 0.41961485233 0)
(0.0191041506415 0.414032497313 0)
(0.020444279042 0.408040787772 0)
(0.0216586728223 0.401677957562 0)
(0.0227526040463 0.394980641544 0)
(0.0237316633454 0.387983805151 0)
(0.0246014891033 0.380720697585 0)
(0.0253679305326 0.373222810955 0)
(0.0260367924646 0.365519862963 0)
(0.0266139890591 0.357639784174 0)
(0.0271053050835 0.349608728904 0)
(0.0275165400306 0.341451089376 0)
(0.0278532877046 0.333189533045 0)
(0.0281210717805 0.324845041459 0)
(0.0283251464446 0.316436971017 0)
(0.0284706253398 0.30798311283 0)
(0.0285623059377 0.299499772112 0)
(0.0286047938588 0.291001843451 0)
(0.0286023530884 0.282502902319 0)
(0.0285590270695 0.274015288782 0)
(0.0284785153978 0.265550203511 0)
(0.0283642918958 0.25711779226 0)
(0.0282195068435 0.248727238699 0)
(0.0280471009866 0.240386842469 0)
(0.0278497306804 0.232104102116 0)
(0.0276298756986 0.223885780961 0)
(0.0273897835447 0.215737975259 0)
(0.0271315683678 0.207666164271 0)
(0.0268571700565 0.199675261132 0)
(0.0265684415659 0.191769645911 0)
(0.0262671184785 0.183953199068 0)
(0.0259548926009 0.176229318554 0)
(0.0256333882055 0.168600937808 0)
(0.0253042206756 0.161070529726 0)
(0.0249689765209 0.153640112596 0)
(0.0246292569231 0.146311244847 0)
(0.0242866595725 0.139085023096 0)
(0.0239428079765 0.131962071984 0)
(0.0235993340116 0.124942538578 0)
(0.0232578946289 0.118026081402 0)
(0.0229201546517 0.111211865044 0)
(0.02258779298 0.10449855187 0)
(0.0222624854948 0.0978842999308 0)
(0.0219459029586 0.0913667599436 0)
(0.0216396939238 0.0849430785799 0)
(0.0213454762 0.0786099020813 0)
(0.0210648192225 0.0723633854494 0)
(0.0207992300472 0.066199201737 0)
(0.0205501337158 0.0601125540535 0)
(0.0203188538273 0.0540981833245 0)
(0.0201065905796 0.0481503685363 0)
(0.0199144036357 0.0422629050996 0)
(0.0197432160728 0.0364290431621 0)
(0.0195938911121 0.0306413649357 0)
(0.0194675087882 0.0248915749994 0)
(0.0193658721901 0.0191702569677 0)
(0.0192888044173 0.0134624961898 0)
(0.0191477297387 0.00784370448117 0)
(0.0172492617168 0.00230014453685 0)
(-0.106522043552 0.0114499654521 0)
(-0.118035187845 0.0392486323649 0)
(-0.117610328557 0.0666200184145 0)
(-0.115957861785 0.0941098153793 0)
(-0.113720942246 0.121079043954 0)
(-0.110966586156 0.147427523698 0)
(-0.10773465461 0.173034662175 0)
(-0.104068142901 0.197790377884 0)
(-0.10001363274 0.221596455822 0)
(-0.095620123094 0.244367346862 0)
(-0.0909377400783 0.266030435928 0)
(-0.086016680861 0.286526037029 0)
(-0.080906160237 0.305807114315 0)
(-0.0756536452783 0.323838765633 0)
(-0.0703040989673 0.340597524429 0)
(-0.0648995335853 0.356070516914 0)
(-0.0594785596064 0.370254526595 0)
(-0.0540762442409 0.383155000327 0)
(-0.048723936256 0.394785041567 0)
(-0.0434493803519 0.40516441941 0)
(-0.0382767531974 0.414318628587 0)
(-0.0332269504757 0.422278017534 0)
(-0.0283177404019 0.429077003071 0)
(-0.0235641218605 0.434753372957 0)
(-0.0189784988427 0.439347676781 0)
(-0.0145710242405 0.44290269303 0)
(-0.0103497324522 0.445462961694 0)
(-0.00632082996621 0.447074367433 0)
(-0.00248877361871 0.447783762885 0)
(0.00114348631769 0.447638623053 0)
(0.00457446418099 0.446686725635 0)
(0.00780395066933 0.444975903315 0)
(0.0108328773756 0.442553604585 0)
(0.0136632372945 0.439466867223 0)
(0.016298014316 0.435761981848 0)
(0.0187409928003 0.431484314081 0)
(0.0209967457282 0.426678132688 0)
(0.023070455635 0.421386459081 0)
(0.0249679122192 0.415650935529 0)
(0.0266953475751 0.409511714235 0)
(0.0282594411273 0.403007361341 0)
(0.0296671670953 0.396174779372 0)
(0.0309258034213 0.389049142313 0)
(0.0320427888589 0.381663848094 0)
(0.0330257329105 0.374050482755 0)
(0.0338822809047 0.366238801729 0)
(0.0346201235336 0.358256722301 0)
(0.0352468700579 0.35013033315 0)
(0.035770057952 0.341883914628 0)
(0.0361970361226 0.333539975604 0)
(0.0365349768823 0.325119299834 0)
(0.0367907723909 0.316641007484 0)
(0.0369710521634 0.30812262407 0)
(0.0370820962781 0.299580161879 0)
(0.0371298615568 0.291028205498 0)
(0.0371199143536 0.282480006167 0)
(0.0370574674081 0.273947576195 0)
(0.0369473333248 0.265441787912 0)
(0.0367939722502 0.256972468363 0)
(0.0366014650407 0.248548494317 0)
(0.0363735699006 0.240177879197 0)
(0.0361137122066 0.231867856772 0)
(0.0358250465792 0.223624953885 0)
(0.0355104588972 0.215455057553 0)
(0.035172629328 0.207363469608 0)
(0.0348140414276 0.199354954664 0)
(0.0344370415458 0.19143377551 0)
(0.0340438501266 0.183603722094 0)
(0.0336366135716 0.175868129108 0)
(0.033217413749 0.168229888457 0)
(0.0327883095922 0.160691452383 0)
(0.0323513421205 0.153254833434 0)
(0.0319085644703 0.145921597633 0)
(0.031462041102 0.138692856674 0)
(0.0310138662949 0.131569255953 0)
(0.0305661573904 0.124550963697 0)
(0.0301210628159 0.117637658323 0)
(0.0296807500626 0.110828518618 0)
(0.0292474049474 0.104122214119 0)
(0.0288232154809 0.0975168995393 0)
(0.0284103643394 0.0910102107875 0)
(0.0280110099192 0.0845992656396 0)
(0.0276272739574 0.0782806666483 0)
(0.0272612210099 0.0720505084145 0)
(0.0269148431331 0.065904386451 0)
(0.0265900395302 0.059837408522 0)
(0.0262886019722 0.0538442045559 0)
(0.0260122014583 0.0479189342802 0)
(0.0257623904377 0.0420552873349 0)
(0.0255406314696 0.0362464763226 0)
(0.0253483892482 0.0304852434463 0)
(0.0251873231125 0.0247638907278 0)
(0.0250593194174 0.0190744934117 0)
(0.0249606995381 0.0134040908901 0)
(0.0247677337723 0.00783373302996 0)
(0.0222368634182 0.00231089109207 0)
(-0.131856497912 0.0116569684661 0)
(-0.146102686069 0.040212953254 0)
(-0.145557954112 0.0682004248914 0)
(-0.143481719072 0.096319423522 0)
(-0.140672585273 0.123884938343 0)
(-0.137215852675 0.150790253599 0)
(-0.133163016747 0.176908437602 0)
(-0.128569345685 0.20212453896 0)
(-0.12349448149 0.226336956187 0)
(-0.118000897168 0.249458201349 0)
(-0.112152301912 0.271415053204 0)
(-0.106012232641 0.292148411183 0)
(-0.099642783405 0.311612851771 0)
(-0.0931035791853 0.329775939096 0)
(-0.0864509056118 0.346617346726 0)
(-0.0797370938856 0.362127839015 0)
(-0.0730100520907 0.376308163386 0)
(-0.0663130399039 0.38916789797 0)
(-0.0596845610139 0.400724300249 0)
(-0.053158465015 0.411001195192 0)
(-0.0467641158089 0.420027937993 0)
(-0.040526711266 0.427838475976 0)
(-0.0344675991731 0.434470525027 0)
(-0.0286046749356 0.439964862926 0)
(-0.0229527091722 0.44436473153 0)
(-0.0175237058213 0.447715330987 0)
(-0.0123271563536 0.450063385137 0)
(-0.00737031188837 0.451456757796 0)
(-0.00265835596419 0.451944103435 0)
(0.00180538919071 0.451574541193 0)
(0.00601933362998 0.450397349266 0)
(0.00998348927173 0.448461748504 0)
(0.0136992069496 0.445816384793 0)
(0.0171691805477 0.442509435109 0)
(0.0203972627386 0.438588181854 0)
(0.0233883182667 0.434098872161 0)
(0.0261481304921 0.429086549276 0)
(0.0286832582085 0.423594908389 0)
(0.0310009575922 0.417666172246 0)
(0.0331090552194 0.411340985405 0)
(0.0350158826863 0.404658324113 0)
(0.0367301619298 0.39765542199 0)
(0.0382609477868 0.3903677093 0)
(0.0396175213241 0.382828767078 0)
(0.0408093364391 0.375070294337 0)
(0.0418459185247 0.367122090275 0)
(0.0427368134496 0.359012049758 0)
(0.0434914914635 0.35076617423 0)
(0.044119299532 0.342408595968 0)
(0.04462937281 0.333961617655 0)
(0.0450305935646 0.325445764541 0)
(0.0453315144545 0.316879850664 0)
(0.0455403286191 0.308281055542 0)
(0.0456648095297 0.299665012165 0)
(0.0457122966659 0.291045901915 0)
(0.0456896557949 0.282436556677 0)
(0.0456032830536 0.273848563291 0)
(0.0454590872393 0.265292370331 0)
(0.0452625125203 0.256777392318 0)
(0.0450185415334 0.24831211145 0)
(0.0447317341788 0.239904172364 0)
(0.044406247653 0.231560470451 0)
(0.0440458865093 0.223287229952 0)
(0.0436541339313 0.215090073028 0)
(0.0432342069675 0.206974076961 0)
(0.0427890925879 0.19894382135 0)
(0.0423216018533 0.191003423411 0)
(0.0418344046905 0.183156563851 0)
(0.0413300776513 0.175406502218 0)
(0.0408111325964 0.167756084593 0)
(0.0402800542862 0.160207743111 0)
(0.0397393199407 0.152763490296 0)
(0.0391914247672 0.145424908034 0)
(0.0386388911897 0.138193134052 0)
(0.0380842821494 0.131068845822 0)
(0.0375302003365 0.124052244478 0)
(0.0369792904137 0.1171430386 0)
(0.0364342296538 0.110340430044 0)
(0.0358977210532 0.103643101568 0)
(0.035372477362 0.0970492079366 0)
(0.0348612074368 0.0905563701063 0)
(0.034366595895 0.0841616736492 0)
(0.0338912852007 0.0778616708067 0)
(0.0334378533491 0.0716523867332 0)
(0.0330087945549 0.0655293289636 0)
(0.0326064983524 0.0594875001528 0)
(0.0322332339654 0.0535214128574 0)
(0.0318911388017 0.0476251065804 0)
(0.0315822203244 0.0417921682117 0)
(0.0313083767299 0.0360157613334 0)
(0.031071449752 0.0302886883145 0)
(0.0308732933886 0.0246034884427 0)
(0.0307154332821 0.0189526700973 0)
(0.0305911580734 0.0133233632409 0)
(0.0303453475228 0.00779486258493 0)
(0.0272191986721 0.00230679960525 0)
(-0.157862457524 0.0119103018064 0)
(-0.174902660062 0.0414023708319 0)
(-0.174220666181 0.0701518537558 4.13811631428e-27)
(-0.171689268769 0.099047759866 0)
(-0.168267239957 0.127347786703 0)
(-0.164059647306 0.154937127924 0)
(-0.159131209595 0.181681149165 0)
(-0.153551161676 0.207459045361 0)
(-0.147393867909 0.232165236379 0)
(-0.140736852068 0.25571008504 0)
(-0.13365882156 0.278019898491 0)
(-0.126237904475 0.299036592528 0)
(-0.118550114967 0.318717031139 0)
(-0.110668090278 0.337032110671 0)
(-0.102660073332 0.353965651133 0)
(-0.0945891683697 0.369513151977 0)
(-0.0865128294364 0.383680466674 0)
(-0.0784826029992 0.3964824473 0)
(-0.0705440718536 0.407941610052 0)
(-0.0627370100705 0.41808686775 0)
(-0.0550956770641 0.426952371492 0)
(-0.0476492445487 0.43457649072 0)
(-0.0404222688923 0.441000949481 0)
(-0.0334351986687 0.446270117095 0)
(-0.0267048357923 0.450430438472 0)
(-0.0202447607927 0.453529974508 0)
(-0.0140656690725 0.455618020643 0)
(-0.00817566083631 0.456744771494 0)
(-0.00258045751959 0.456961009917 0)
(0.002716398038 0.456317802848 0)
(0.00771336327319 0.454866214391 0)
(0.012410812807 0.452657125781 0)
(0.0168106665023 0.449740613603 0)
(0.0209164354776 0.446166210232 0)
(0.0247329823306 0.441982380288 0)
(0.0282663651403 0.437236419732 0)
(0.0315237015055 0.431974290772 0)
(0.0345130235713 0.42624048698 0)
(0.0372431623432 0.420077917771 0)
(0.0397236228843 0.413527810143 0)
(0.0419644855716 0.406629625015 0)
(0.0439762954288 0.399420987606 0)
(0.045769973402 0.39193763054 0)
(0.0473567133775 0.38421335036 0)
(0.0487478981269 0.376279977046 0)
(0.0499550002763 0.368167357668 0)
(0.0509895008505 0.359903354101 0)
(0.0518627939241 0.351513855909 0)
(0.0525861091573 0.343022808213 0)
(0.053170423187 0.3344522551 0)
(0.0536263906022 0.325822397827 0)
(0.0539642676739 0.317151667481 0)
(0.0541938580144 0.308456810512 0)
(0.0543244550978 0.299752985715 0)
(0.0543648086649 0.291053870202 0)
(0.0543230912401 0.282371772134 0)
(0.0542068891426 0.273717747155 0)
(0.0540231952163 0.265101715952 0)
(0.0537784248268 0.256532579756 0)
(0.0534784332973 0.248018331415 0)
(0.0531285535699 0.239566159263 0)
(0.052733633399 0.231182542057 0)
(0.0522980883997 0.222873332946 0)
(0.0518259517033 0.214643831731 0)
(0.0513209344844 0.206498844295 0)
(0.0507864798938 0.198442729485 0)
(0.050225823036 0.190479433236 0)
(0.0496420415732 0.18261251113 0)
(0.0490381083384 0.174845139899 0)
(0.048416932723 0.167180119719 0)
(0.0477814012154 0.159619868221 0)
(0.0471344060202 0.152166408388 0)
(0.0464788712426 0.144821351408 0)
(0.0458177675525 0.13758587664 0)
(0.0451541239336 0.130460709655 0)
(0.0444910291454 0.123446100294 0)
(0.0438316305828 0.116541801432 0)
(0.0431791245793 0.10974705006 0)
(0.0425367448929 0.103060551054 0)
(0.0419077445755 0.0964804648508 0)
(0.0412953770486 0.0900043990915 0)
(0.0407028725489 0.0836294050277 0)
(0.0401334149476 0.0773519784669 0)
(0.0395901159943 0.0711680656442 0)
(0.0390759914064 0.0650730735056 0)
(0.0385939369113 0.0590618847271 0)
(0.0381467086141 0.0531288770249 0)
(0.0377369073639 0.0472679482941 0)
(0.0373669720286 0.0414725489895 0)
(0.0370391825169 0.0357357275636 0)
(0.0367556728032 0.0300502107384 0)
(0.0365184156627 0.0244084902164 0)
(0.0363286737946 0.0188029680049 0)
(0.036177484657 0.0132203403282 0)
(0.035880391666 0.00773677742192 0)
(0.0321743526999 0.00229524410153 0)
(-0.184685552644 0.0122141782005 0)
(-0.20459619189 0.0428366691376 0)
(-0.203754909311 0.0725044482582 -4.13591283157e-27)
(-0.2007284206 0.102335613747 0)
(-0.196641949626 0.131517724788 0)
(-0.191622415685 0.159925997747 0)
(-0.185749835377 0.187416534321 0)
(-0.179109561725 0.213861647564 0)
(-0.171792783578 0.239151253544 0)
(-0.163894041357 0.263193494654 0)
(-0.155508799511 0.285914526956 0)
(-0.146731304168 0.307257925413 0)
(-0.137652757011 0.327183741367 0)
(-0.128359822436 0.345667297119 0)
(-0.118933453611 0.362697789819 0)
(-0.109448038913 0.378276767129 0)
(-0.099970847023 0.392416532295 0)
(-0.090561769046 0.405138535832 0)
(-0.081273326683 0.416471811107 0)
(-0.0721509288298 0.426451511545 0)
(-0.0632333207338 0.435117600617 0)
(-0.0545531801042 0.442513734849 0)
(-0.0461377798682 0.448686359196 0)
(-0.0380096603308 0.453684011296 0)
(-0.0301872387234 0.457556805747 0)
(-0.0226853285915 0.460356053134 0)
(-0.0155155430529 0.462133960776 0)
(-0.0086866041873 0.462943368857 0)
(-0.00220457300229 0.462837490788 0)
(0.0039269591284 0.461869624026 0)
(0.00970669554152 0.460092957834 0)
(0.0151354686125 0.457560141129 0)
(0.0202159865521 0.454323063723 0)
(0.0249527215807 0.450432771797 0)
(0.0293517030927 0.445939102332 0)
(0.0334203249277 0.44089055723 0)
(0.0371671775926 0.43533415305 0)
(0.0406018887002 0.429315297585 0)
(0.0437349830911 0.422877685702 0)
(0.0465777494192 0.416063210552 0)
(0.0491421219471 0.408911887611 0)
(0.0514405635588 0.40146179038 0)
(0.0534859587888 0.393748997357 0)
(0.055291504019 0.385807550831 0)
(0.0568706044696 0.37766942805 0)
(0.0582367666537 0.369364526027 0)
(0.0594034966915 0.360920660713 0)
(0.0603841947228 0.352363581897 0)
(0.0611920564126 0.343717004212 0)
(0.0618399733402 0.335002655141 0)
(0.06234044359 0.326240339525 0)
(0.0627054855773 0.317448020457 0)
(0.062946566112 0.308641914773 0)
(0.0630745363289 0.299836601774 0)
(0.0630995854018 0.291045142141 0)
(0.0630312055969 0.282279204636 0)
(0.0628781768685 0.273549196767 0)
(0.0626485640551 0.264864396531 0)
(0.0623497329465 0.25623308133 0)
(0.0619883777297 0.247662651345 0)
(0.0615705642837 0.239159744054 0)
(0.0611017815293 0.230730337913 0)
(0.0605870039175 0.222379842912 0)
(0.060030757383 0.214113177115 0)
(0.05943719098 0.205934828126 0)
(0.0588101471005 0.197848899737 0)
(0.0581532321552 0.18985914389 0)
(0.0574698815761 0.181968979187 0)
(0.056763421092 0.174181497022 0)
(0.0560371193314 0.166499457202 0)
(0.0552942340123 0.158925274696 0)
(0.054538048011 0.151460999628 0)
(0.0537718979102 0.14410829229 0)
(0.0529991924217 0.136868395198 0)
(0.0522234234954 0.129742103797 0)
(0.0514481683758 0.122729737494 0)
(0.0506770854283 0.115831112287 0)
(0.0499139026168 0.109045516233 0)
(0.0491624012918 0.10237168864 0)
(0.0484263946038 0.0958078037674 0)
(0.0477097029401 0.0893514595915 0)
(0.0470161260358 0.0829996719771 0)
(0.046349413873 0.0767488745306 0)
(0.0457132363414 0.0705949241162 0)
(0.045111153564 0.0645331121222 0)
(0.0445465872475 0.0585581814805 0)
(0.0440227948846 0.0526643497716 0)
(0.0435428474847 0.0468453391824 0)
(0.0431096122063 0.0410944156987 0)
(0.0427257390517 0.0354044398803 0)
(0.0423936467561 0.0297679409184 0)
(0.0421154659106 0.0241771847192 0)
(0.0418923709891 0.0186242559376 0)
(0.0417136376177 0.0130953356239 0)
(0.041366457875 0.00766323279676 0)
(0.037089416407 0.00227891011087 0)
(-0.212485291999 0.0125732086272 0)
(-0.23535777034 0.0445398108318 0)
(-0.234329608724 0.0752958448884 0)
(-0.230758203126 0.106234033849 0)
(-0.225943131999 0.136457282765 0)
(-0.220035980003 0.16582866674 0)
(-0.213134778782 0.194193299038 0)
(-0.205343744965 0.2214155803 0)
(-0.196773527583 0.247380513936 0)
(-0.187538103957 0.271994153272 0)
(-0.177751831698 0.29518307532 0)
(-0.167526897614 0.316893435089 0)
(-0.156971187523 0.337089657159 0)
(-0.146186569029 0.355752869236 0)
(-0.13526756599 0.37287915507 0)
(-0.124300409416 0.388477691429 0)
(-0.113362449366 0.402568826643 0)
(-0.102521919995 0.415182161346 0)
(-0.0918380385014 0.426354698534 0)
(-0.0813614110319 0.436129134026 0)
(-0.0711346897608 0.444552357643 0)
(-0.0611934088623 0.451674218877 0)
(-0.0515669002696 0.457546586527 0)
(-0.0422791930373 0.462222692213 0)
(-0.0333498048952 0.465756713283 0)
(-0.024794375147 0.468203519446 0)
(-0.0166251210521 0.469618501355 0)
(-0.00885114796784 0.470057408528 0)
(-0.00147865827302 0.469576155226 0)
(0.00548888502971 0.46823055002 0)
(0.0120506245956 0.466076169415 0)
(0.0182080317362 0.463167732424 0)
(0.0239647703838 0.459559127954 0)
(0.0293264788645 0.455303144019 0)
(0.0343005354439 0.450451163632 0)
(0.0388958385453 0.44505304293 0)
(0.0431226094139 0.439156977014 0)
(0.0469922130388 0.43280939288 0)
(0.0505170003017 0.426054860078 0)
(0.0537101639223 0.418936014149 0)
(0.0565856077608 0.411493489406 0)
(0.0591578216058 0.40376586055 0)
(0.0614417618856 0.395789592978 0)
(0.0634527322745 0.387599003257 0)
(0.0652062662666 0.379226230907 0)
(0.066718007418 0.370701223385 0)
(0.0680035906528 0.362051735762 0)
(0.0690785218327 0.353303346804 0)
(0.0699580602625 0.344479492821 0)
(0.070657102785 0.335601520165 0)
(0.0711900752403 0.32668875687 0)