/*--------------------------------*- C++ -*----------------------------------*\
| =========                 |                                                 |
| \\      /  F ield         | OpenFOAM: The Open Source CFD Toolbox           |
|  \\    /   O peration     | Version:  v1906                                 |
|   \\  /    A nd           | Web:      www.OpenFOAM.com                      |
|    \\/     M anipulation  |                                                 |
\*---------------------------------------------------------------------------*/
FoamFile
{
    version     2.0;
    format      ascii;
    class       volVectorField;
    location    "180";
    object      U;
}
// * * * * * * * * * * * * * * * * * * * * * * * * * * * * * * * * * * * * * //

dimensions      [0 1 -1 0 0 0 0];


internalField   nonuniform List<vector> 
9216
(
(0.00271907659299 -0.00272243487674 0)
(0.00286692597215 -0.00878567809442 1.18275411493e-27)
(0.00285893251299 -0.0149436798346 1.84824553587e-31)
(0.0028218132924 -0.0211026093289 0)
(0.00277027088466 -0.0271591211341 0)
(0.00270575843324 -0.033089082554 0)
(0.00262997561256 -0.0388667600928 0)
(0.00254425239226 -0.0444692968981 0)
(0.00244990680016 -0.0498766080048 0)
(0.00234818995224 -0.0550714105167 0)
(0.0022403901919 -0.0600391409652 0)
(0.00212768261114 -0.0647679440263 0)
(0.00201125627055 -0.0692484913252 0)
(0.00189212811599 -0.0734738888827 0)
(0.00177132314912 -0.0774394095475 0)
(0.00164965156597 -0.0811423636323 0)
(0.00152795127162 -0.0845817896347 0)
(0.00140681718881 -0.087758333895 0)
(0.00128691198905 -0.0906739364327 0)
(0.00116863384449 -0.0933317514418 0)
(0.00105250241157 -0.0957358478901 0)
(0.00093875049587 -0.0978911851489 0)
(0.000827793460055 -0.0998033346384 0)
(0.000719730989703 -0.101478513812 0)
(0.000614910837153 -0.102923324141 0)
(0.000513326854357 -0.104144837309 0)
(0.00041528833229 -0.105150341977 0)
(0.000320701860196 -0.105947474396 0)
(0.000229860359336 -0.10654396403 0)
(0.000142595700142 -0.106947801197 0)
(5.92025996529e-05 -0.107166970222 0)
(-2.05573108449e-05 -0.10720966567 0)
(-9.64063478135e-05 -0.107084013707 0)
(-0.000168664735104 -0.106798162493 0)
(-0.00023701357567 -0.106360175639 0)
(-0.000301831197739 -0.105778191281 0)
(-0.000362788249009 -0.105060125259 0)
(-0.00042033581331 -0.104213932585 0)
(-0.000474121508714 -0.103247283539 0)
(-0.000524666191296 -0.10216784655 0)
(-0.000571587679923 -0.100982955615 0)
(-0.000615473634664 -0.0996999063148 0)
(-0.000655907235709 -0.0983256209823 0)
(-0.000693539657778 -0.096866956538 0)
(-0.000727913670255 -0.0953303714641 0)
(-0.000759738466462 -0.0937222357015 0)
(-0.000788512812015 -0.0920485096457 0)
(-0.000814998620983 -0.0903150522509 0)
(-0.000838646888264 -0.0885273156505 0)
(-0.000860264429224 -0.0866906411391 0)
(-0.000879254076335 -0.0848099797587 0)
(-0.000896460662348 -0.0828901702126 0)
(-0.000911238884664 -0.0809356895861 0)
(-0.000924462906698 -0.0789509008049 0)
(-0.000935443280091 -0.0769398439772 0)
(-0.000945076177194 -0.0749064472898 0)
(-0.000952632913319 -0.072854361585 0)
(-0.000959022958368 -0.0707871227915 0)
(-0.000963487212344 -0.0687080392024 0)
(-0.000966941735427 -0.0666203006313 0)
(-0.000968606542522 -0.0645269180236 0)
(-0.000969396277435 -0.0624307714599 0)
(-0.000968522585133 -0.0603346083614 0)
(-0.000966892697508 -0.0582410289517 0)
(-0.00096372208072 -0.056152540766 0)
(-0.000959903426828 -0.0540714774957 0)
(-0.000954669499837 -0.0520001129201 0)
(-0.000948892807728 -0.0499405170974 0)
(-0.000941835449042 -0.0478947245149 0)
(-0.000934342856097 -0.0458645279112 0)
(-0.00092571821127 -0.0438517012211 0)
(-0.000916773846708 -0.0418577397018 0)
(-0.000906862750298 -0.0398841294847 0)
(-0.000896757328691 -0.0379320392027 0)
(-0.00088586810283 -0.0360026336019 0)
(-0.000874921113851 -0.0340967269876 0)
(-0.000863388693545 -0.0322151326173 0)
(-0.00085194350102 -0.030358284831 0)
(-0.000840122329018 -0.0285266205394 0)
(-0.000828537613477 -0.0267201801144 0)
(-0.000816789721515 -0.0249390140024 0)
(-0.000805422320924 -0.0231827698616 0)
(-0.000794095105362 -0.0214511232896 0)
(-0.000783270073249 -0.0197433626862 0)
(-0.000772650458734 -0.0180588468807 0)
(-0.000762584461503 -0.016396612271 0)
(-0.000752759349713 -0.0147558900567 0)
(-0.00074328402781 -0.0131358313187 0)
(-0.000733552804947 -0.0115362497277 0)
(-0.000722805310468 -0.0099579209604 0)
(-0.000708643376452 -0.0084046025813 0)
(-0.000685117011881 -0.00688966396258 0)
(-0.000631345463296 -0.00543576376247 0)
(-0.000556447772366 -0.00385141566393 0)
(-0.000796456128 -0.00290136692955 0)
(-0.00125860999281 -0.00125808836994 0)
(0.00880278991675 -0.00289805917576 0)
(0.00973387175012 -0.0098070259027 0)
(0.00971204689616 -0.0167035678651 -1.24202367048e-27)
(0.0095831450062 -0.02360611214 0)
(0.00940472142976 -0.0303845450274 0)
(0.00918413081627 -0.0370172751137 0)
(0.00892579364574 -0.043477002922 0)
(0.00863390025901 -0.0497386148605 0)
(0.00831278292749 -0.0557798240095 0)
(0.00796672873176 -0.0615814141609 0)
(0.00760006067998 -0.0671272512797 0)
(0.00721685302638 -0.0724042443471 0)
(0.00682107426108 -0.0774021843905 0)
(0.00641627487306 -0.082113581228 0)
(0.0060058338337 -0.0865334068693 0)
(0.00559261516609 -0.0906588801513 0)
(0.00517932769253 -0.0944891774643 0)
(0.0047681276857 -0.0980252206008 0)
(0.0043610931201 -0.101269397091 0)
(0.00395974423723 -0.104225385605 0)
(0.00356563532331 -0.106897908557 0)
(0.00317976524161 -0.109292611519 0)
(0.00280329312212 -0.111415853106 0)
(0.002436813985 -0.113274638386 0)
(0.00208121092222 -0.114876442042 0)
(0.00173677330327 -0.116229187381 0)
(0.00140420176461 -0.117341092486 0)
(0.0010835496948 -0.118220685011 0)
(0.000775401264974 -0.118876658861 0)
(0.000479617983108 -0.119317914409 0)
(0.000196712136727 -0.119553419616 0)
(-7.36247627082e-05 -0.119592251958 0)
(-0.00033095239393 -0.119443459088 0)
(-0.000575750140059 -0.119116248625 0)
(-0.000807586863998 -0.118619677166 0)
(-0.00102708731235 -0.117962800675 0)
(-0.00123384903 -0.117154517685 0)
(-0.00142864931803 -0.116203664075 0)
(-0.00161109485874 -0.115118860955 0)
(-0.00178210663892 -0.113908617074 0)
(-0.00194128462784 -0.112581174457 0)
(-0.00208968200533 -0.111144620112 0)
(-0.00222687620879 -0.109606734194 0)
(-0.00235403876555 -0.10797510855 0)
(-0.00247070755051 -0.106256999361 0)
(-0.00257815547249 -0.104459452234 0)
(-0.00267586560094 -0.102589161568 0)
(-0.00276519414727 -0.10065259958 0)
(-0.00284555495298 -0.098655886205 0)
(-0.00291836807722 -0.0966049161247 0)
(-0.00298296884689 -0.0945052433066 0)
(-0.00304082242854 -0.0923622027086 0)
(-0.00309117950925 -0.0901808106861 0)
(-0.00313553257063 -0.0879658766866 0)
(-0.0031730481702 -0.0857219222503 0)
(-0.00320523108009 -0.083453278188 0)
(-0.00323116949109 -0.0811640230618 0)
(-0.00325236715077 -0.0788580608517 0)
(-0.00326784675206 -0.0765390811019 0)
(-0.00327910212677 -0.0742106125066 0)
(-0.00328510781185 -0.0718760054987 0)
(-0.00328734029649 -0.0695384581078 0)
(-0.00328474891002 -0.0672010206757 0)
(-0.00327878894809 -0.0648665932233 0)
(-0.00326840898992 -0.0625379511318 0)
(-0.00325503938551 -0.0602177137645 0)
(-0.00323765428386 -0.0579083900413 0)
(-0.00321765658315 -0.0556123182611 0)
(-0.00319407014336 -0.0533317341423 0)
(-0.00316826603552 -0.0510686799105 0)
(-0.0031393395896 -0.0488250954238 0)
(-0.00310862477196 -0.0466027013926 0)
(-0.00307530421646 -0.0444031095229 0)
(-0.00304066672506 -0.0422276852913 0)
(-0.00300399420439 -0.0400776757456 0)
(-0.00296651949403 -0.0379540564474 0)
(-0.00292762849033 -0.0358576752913 0)
(-0.00288848519783 -0.0337890875005 0)
(-0.00284857863149 -0.0317487139979 0)
(-0.0028089880922 -0.0297366704843 0)
(-0.00276929768025 -0.0277529380862 0)
(-0.00273047958967 -0.0257971890188 0)
(-0.00269219461768 -0.0238689733264 0)
(-0.0026552731162 -0.0219675448131 0)
(-0.00261940522561 -0.0200920636641 0)
(-0.00258519455832 -0.0182414351078 0)
(-0.00255220940485 -0.0164145333867 0)
(-0.00252053095288 -0.0146100719878 0)
(-0.00248899732252 -0.0128268355779 0)
(-0.00245587800361 -0.0110635305849 0)
(-0.00241636332248 -0.00931881509079 0)
(-0.00236010867099 -0.00759093053057 0)
(-0.00226058506718 -0.00587455846669 0)
(-0.00209353682947 -0.00400357888099 0)
(-0.00242660635177 -0.00242121388207 0)
(-0.002894291736 -0.000792092239752 0)
(0.0150693944224 -0.00294390953908 0)
(0.0166862554349 -0.00996774671377 0)
(0.0166264654257 -0.0169544173927 -1.2399723701e-27)
(0.0163963854032 -0.0239575263833 0)
(0.0160858710298 -0.0308328655294 0)
(0.0157047054325 -0.0375573303953 0)
(0.0152593988186 -0.0441025856179 0)
(0.0147568792364 -0.0504429649112 0)
(0.0142044777724 -0.0565558619047 0)
(0.0136096370361 -0.0624219224607 0)
(0.0129797586176 -0.06802504744 0)
(0.0123219492486 -0.0733523138748 0)
(0.0116429596173 -0.0783938038734 0)
(0.010948984209 -0.0831423920867 0)
(0.0102457028915 -0.0875934811842 0)
(0.00953812567767 -0.0917447382772 0)
(0.00883072900625 -0.0955958072427 0)
(0.00812731948689 -0.099148053423 0)
(0.00743124672838 -0.10240429913 0)
(0.00674525549676 -0.105368610739 0)
(0.00607175883945 -0.108046080207 0)
(0.00541265120531 -0.110442665836 0)
(0.00476963148296 -0.112565023851 0)
(0.00414395683013 -0.114420400968 0)
(0.00353681320124 -0.116016507815 0)
(0.00294899601105 -0.1173614528 0)
(0.00238133271121 -0.11846364578 0)
(0.00183428147722 -0.119331759963 0)
(0.00130841512904 -0.119974653466 0)
(0.000803931654609 -0.12040135049 0)
(0.000321209230943 -0.120620968762 0)
(-0.000139772589332 -0.120642716849 0)
(-0.000578787314654 -0.120475816481 0)
(-0.000996045847761 -0.120129512625 0)
(-0.00139146791952 -0.119612995971 0)
(-0.00176545131214 -0.11893541015 0)
(-0.00211803367231 -0.118105781973 0)
(-0.00244978107835 -0.117133029311 0)
(-0.00276083540346 -0.116025893827 0)
(-0.00305191564305 -0.114792955513 0)
(-0.0033232466678 -0.113442566875 0)
(-0.00357567857463 -0.111982873532 0)
(-0.00380949371979 -0.110421752952 0)
(-0.00402564756019 -0.1087668417 0)
(-0.00422445253161 -0.107025479655 0)
(-0.00440694106007 -0.10520474199 0)
(-0.00457342658275 -0.103311391931 0)
(-0.00472498907734 -0.101351918823 0)
(-0.00486191608489 -0.0993324955286 0)
(-0.00498530660759 -0.0972590215066 0)
(-0.00509539907265 -0.0951370903151 0)
(-0.00519328619971 -0.0929720326778 0)
(-0.00527913911912 -0.090768891381 0)
(-0.00535402341544 -0.0885324660171 0)
(-0.00541803221494 -0.0862672948951 0)
(-0.00547218982719 -0.0839776965624 0)
(-0.00551650868236 -0.0816677593857 0)
(-0.00555196401926 -0.0793413764201 0)
(-0.00557849364884 -0.0770022426345 0)
(-0.0055970237642 -0.0746538815844 0)
(-0.00560743126151 -0.0722996474735 0)
(-0.00561059946215 -0.0699427409031 0)
(-0.00560636512215 -0.0675862165548 0)
(-0.0055955799364 -0.0652329870612 0)
(-0.0055780647449 -0.0628858342095 0)
(-0.00555465312968 -0.0605473997588 0)
(-0.0055251763583 -0.0582202006738 0)
(-0.00549046367602 -0.0559066080311 0)
(-0.00545038064251 -0.0536088658321 0)
(-0.0054057631929 -0.0513290575377 0)
(-0.00535653104635 -0.0490691293426 0)
(-0.0053035335892 -0.0468308493105 0)
(-0.0052467581855 -0.044615832706 0)
(-0.00518706815064 -0.0424254924102 0)
(-0.00512452449032 -0.0402610747898 0)
(-0.00505999891696 -0.0381236010625 0)
(-0.00499362374551 -0.0360139088774 0)
(-0.00492626660832 -0.0339325939015 0)
(-0.00485812103694 -0.0318800561831 0)
(-0.00479003102457 -0.0298564408097 0)
(-0.00472223258677 -0.0278616949292 0)
(-0.00465551789707 -0.0258955047082 0)
(-0.00459013302939 -0.0239573603489 0)
(-0.00452677289963 -0.0220464991392 0)
(-0.00446563240547 -0.0201619695387 0)
(-0.00440721498906 -0.0183025738984 0)
(-0.0043515145422 -0.0164669202586 0)
(-0.00429859301846 -0.0146533194501 0)
(-0.00424781185727 -0.0128597077162 0)
(-0.00419805476631 -0.0110832085226 0)
(-0.00414683408687 -0.00931924507469 0)
(-0.00408996017363 -0.00755880916265 0)
(-0.00402037642993 -0.00578205131324 0)
(-0.00393371312985 -0.00391242291789 0)
(-0.00400256242295 -0.00207697029109 0)
(-0.00383550020099 -0.000550745208785 0)
(0.0214838072557 -0.0029891111054 0)
(0.023807185512 -0.0101176845081 0)
(0.0237187704147 -0.0171995272517 1.23939474446e-27)
(0.0233854764923 -0.0242985289533 0)
(0.0229365237392 -0.031264413796 0)
(0.0223863873346 -0.0380725819024 0)
(0.0217445128816 -0.0446935209835 0)
(0.0210209881337 -0.0511008597114 0)
(0.0202264711958 -0.0572716414897 0)
(0.0193718106801 -0.0631864591553 0)
(0.0184677308386 -0.0688294149444 0)
(0.0175245393941 -0.0741879884564 0)
(0.0165519374352 -0.0792528211227 0)
(0.0155588446906 -0.0840174488055 0)
(0.0145533375057 -0.0884779984822 0)
(0.0135425763622 -0.0926328775444 0)
(0.012532848033 -0.0964824628976 0)
(0.0115295591298 -0.100028811325 0)
(0.010537346214 -0.103275388742 0)
(0.00956009606048 -0.106226835613 0)
(0.00860109107816 -0.108888756205 0)
(0.00766302355626 -0.111267547176 0)
(0.00674815383824 -0.113370246382 0)
(0.00585829760873 -0.115204416566 0)
(0.00499498584978 -0.116778042773 0)
(0.00415941379803 -0.118099456958 0)
(0.00335260132304 -0.119177266838 0)
(0.00257530116593 -0.120020308247 0)
(0.00182816477266 -0.12063759087 0)
(0.00111160991609 -0.121038265428 0)
(0.000425999232602 -0.121231576183 0)
(-0.000228525795368 -0.121226841806 0)
(-0.000851844785265 -0.121033400439 0)
(-0.00144406190879 -0.12066058244 0)
(-0.00200528250422 -0.120117683533 0)
(-0.00253584362901 -0.119413933037 0)
(-0.00303605213584 -0.118558452439 0)
(-0.0035064552357 -0.11756023644 0)
(-0.00394754060022 -0.116428111115 0)
(-0.00436004157174 -0.115170720507 0)
(-0.00474459766346 -0.113796488504 0)
(-0.00510209644792 -0.112313609327 0)
(-0.0054332940569 -0.110730016759 0)
(-0.00573919470917 -0.109053377766 0)
(-0.00602063083305 -0.107291069718 0)
(-0.0062786823765 -0.105450183189 0)
(-0.00651421638112 -0.103537500327 0)
(-0.00672834671941 -0.101559507529 0)
(-0.00692193504023 -0.0995223808414 0)
(-0.0070960897175 -0.0974320021107 0)
(-0.00725163088673 -0.0952939525925 0)
(-0.00738962754725 -0.0931135329684 0)
(-0.00751082926872 -0.0908957626979 0)
(-0.0076162387546 -0.0886454034521 0)
(-0.00770651556877 -0.086366961704 0)
(-0.00778257974619 -0.0840647149019 0)
(-0.00784499258513 -0.0817427170434 0)
(-0.00789458569954 -0.079404821723 0)
(-0.00793182508836 -0.0770546914427 0)
(-0.00795745978067 -0.0746958164816 0)
(-0.00797187489622 -0.0723315241173 0)
(-0.00797575236701 -0.0699649922859 0)
(-0.00796942015688 -0.0675992578388 0)
(-0.00795351634849 -0.065237223147 0)
(-0.007928340476 -0.0628816624355 0)
(-0.00789451363516 -0.0605352214317 0)
(-0.00785233921577 -0.0582004198916 0)
(-0.00780244790966 -0.0558796447022 0)
(-0.00774517478067 -0.0535751516109 0)
(-0.00768118290967 -0.0512890501898 0)
(-0.00761086250628 -0.0490233046954 0)
(-0.00753492405935 -0.0467797147066 0)
(-0.00745382718693 -0.0445599151646 0)
(-0.00736833658338 -0.0423653547492 0)
(-0.00727898504901 -0.0401972956704 0)
(-0.00718658747931 -0.0380567913635 0)
(-0.00709174306084 -0.0359446905015 0)
(-0.00699530249119 -0.0338616132924 0)
(-0.00689791447552 -0.0318079598671 0)
(-0.00680044141546 -0.0297838886315 0)
(-0.00670355343109 -0.0277893288195 0)
(-0.00660809103262 -0.025823961631 0)
(-0.00651470534161 -0.0238872354269 0)
(-0.00642416461175 -0.0219783507499 0)
(-0.00633704039478 -0.0200962685747 0)
(-0.00625395027562 -0.0182396904877 0)
(-0.0061752838712 -0.0164070422745 0)
(-0.0061013759283 -0.0145963949629 0)
(-0.00603229082428 -0.0128053525062 0)
(-0.00596799445767 -0.0110307268568 0)
(-0.0059084918181 -0.00926810148414 0)
(-0.00585477895687 -0.00751078811229 0)
(-0.00581160161609 -0.00574910651961 0)
(-0.00579452810748 -0.0039643975573 0)
(-0.00585461091209 -0.00222394781214 0)
(-0.00540176899762 -0.000620391074756 0)
(0.0280046572476 -0.00304845331693 0)
(0.0310363609524 -0.0103147803799 0)
(0.0309167124089 -0.0175286678869 0)
(0.0304748686108 -0.0247565476059 0)
(0.0298801979731 -0.031843294876 0)
(0.0291523137351 -0.0387625988032 0)
(0.0283040935647 -0.0454835149422 0)
(0.0273492138885 -0.0519787584704 0)
(0.0263020485019 -0.0582249314093 0)
(0.025177171261 -0.0642026053113 0)
(0.0239889083036 -0.0698962161758 0)
(0.0227509658626 -0.0752938598368 0)
(0.0214761551621 -0.0803870031103 0)
(0.0201761966011 -0.0851701429901 0)
(0.0188616172743 -0.0896404397718 0)
(0.0175417064462 -0.0937973496835 0)
(0.0162245438579 -0.0976422708692 0)
(0.0149170532719 -0.101178219415 0)
(0.0136251071045 -0.104409539091 0)
(0.0123536239079 -0.107341652031 0)
(0.0111067011874 -0.109980847002 0)
(0.00988771531339 -0.112334106394 0)
(0.00869945059369 -0.114408965907 0)
(0.0075441766713 -0.116213404786 0)
(0.00642375767788 -0.117755756848 0)
(0.00533969613402 -0.119044644713 0)
(0.00429322017485 -0.120088922861 0)
(0.00328529435746 -0.120897637652 0)
(0.00231668835463 -0.121479985002 0)
(0.00138796050927 -0.121845280954 0)
(0.000499517020804 -0.122002923019 0)
(-0.00034842238753 -0.121962375943 0)
(-0.0011557673261 -0.121733112394 0)
(-0.00192260648623 -0.121324594118 0)
(-0.00264914410302 -0.120746245859 0)
(-0.00333575887501 -0.120007416998 0)
(-0.0039829280006 -0.119117347279 0)
(-0.00459129633631 -0.118085138484 0)
(-0.00516158729186 -0.116919721876 0)
(-0.00569467984065 -0.115629831313 0)
(-0.00619150666515 -0.114223977833 0)
(-0.00665313909561 -0.112710424459 0)
(-0.00708067246977 -0.111097169555 0)
(-0.00747532081294 -0.109391927598 0)
(-0.00783828857466 -0.107602116767 0)
(-0.00817087792834 -0.105734850107 0)
(-0.0084743482504 -0.103796926742 0)
(-0.00875003453677 -0.101794832943 0)
(-0.0089991969176 -0.099734737505 0)
(-0.00922315165667 -0.0976225014674 0)
(-0.00942311138 -0.0954636799906 0)
(-0.00960032922508 -0.0932635354838 0)
(-0.00975593090873 -0.0910270466187 0)
(-0.00989107210233 -0.0887589244117 0)
(-0.0100067645568 -0.0864636264479 0)
(-0.0101040451658 -0.0841453733721 0)
(-0.0101837994007 -0.0818081669858 0)
(-0.0102469402629 -0.0794558065818 0)
(-0.0102942291632 -0.0770919056856 0)
(-0.0103264644696 -0.0747199083154 0)
(-0.0103443018841 -0.0723431026152 0)
(-0.0103484482503 -0.0699646332561 0)
(-0.0103394832316 -0.0675875119806 0)
(-0.0103180552054 -0.0652146243938 0)
(-0.0102847048623 -0.0628487364773 0)
(-0.0102400625071 -0.0604924947523 0)
(-0.010184671128 -0.0581484249999 0)
(-0.01011917809 -0.0558189319919 0)
(-0.0100441646255 -0.0535062924037 0)
(-0.00996033004292 -0.0512126456598 0)
(-0.00986832346784 -0.0489399868167 0)
(-0.00976891688219 -0.0466901530722 0)
(-0.00966284500402 -0.0444648146897 0)
(-0.00955096428499 -0.0422654590321 0)
(-0.00943409851958 -0.0400933816868 0)
(-0.00931318348162 -0.0379496710215 0)
(-0.0091891223037 -0.0358352014443 0)
(-0.00906291390917 -0.0337506182399 0)
(-0.00893551775565 -0.0316963332144 0)
(-0.00880796537413 -0.0296725142927 0)
(-0.008681237797 -0.0276790837756 0)
(-0.00855635962151 -0.0257157106493 0)
(-0.00843428774731 -0.0237818127509 0)
(-0.00831598834265 -0.0218765470814 0)
(-0.00820233903289 -0.0199988108132 0)
(-0.00809418910129 -0.0181472242013 0)
(-0.00799228194336 -0.0163201135688 0)
(-0.00789731250987 -0.0145154602854 0)
(-0.00780991695246 -0.0127308281858 0)
(-0.00773084583627 -0.0109632667306 0)
(-0.00766122741898 -0.00920914035111 0)
(-0.00760336132126 -0.00746424011706 0)
(-0.00756202951943 -0.00572449889429 0)
(-0.00754484421484 -0.0039861534633 0)
(-0.00753447809242 -0.00229455790395 0)
(-0.00681860422158 -0.000665234602804 0)
(0.034669743367 -0.00312364221753 0)
(0.0384206671862 -0.0105670955774 0)
(0.0382651717187 -0.0179524138725 0)
(0.037706757096 -0.0253463939867 0)
(0.0369559969045 -0.0325882240766 0)
(0.0360381386119 -0.0396494977828 0)
(0.0349700562548 -0.0464975325229 0)
(0.0337695711411 -0.0531039430965 0)
(0.0324552906099 -0.0594448456928 0)
(0.0310459595766 -0.0655008788441 0)
(0.02955987622 -0.0712570119735 0)
(0.0280144212927 -0.0767022393991 0)
(0.0264257118589 -0.0818291883645 0)
(0.024808375417 -0.0866336781655 0)
(0.0231754354248 -0.0911142671432 0)
(0.0215382872592 -0.0952718102823 0)
(0.0199067494913 -0.0991090498663 0)
(0.0182891656406 -0.102630250064 0)
(0.0166925434475 -0.105840882274 0)
(0.0151227084218 -0.108747361635 0)
(0.0135844674456 -0.111356834878 0)
(0.0120817613695 -0.11367701202 0)
(0.0106178122004 -0.115716037751 0)
(0.0091952452543 -0.117482396114 0)
(0.00781620095293 -0.118984838174 0)
(0.00648241668755 -0.12023233191 0)
(0.00519530165097 -0.121234024198 0)
(0.00395598047804 -0.121999208848 0)
(0.00276533772749 -0.122537302513 0)
(0.00162403382396 -0.122857819224 0)
(0.000532530630382 -0.122970340333 0)
(-0.000508908318226 -0.122884511212 0)
(-0.0015001990377 -0.122609966071 0)
(-0.00244144874031 -0.122156334277 0)
(-0.00333293514663 -0.12153320124 0)
(-0.00417511789655 -0.120750069452 0)
(-0.00496861556813 -0.119816327096 0)
(-0.00571421629031 -0.11874121402 0)
(-0.00641284838764 -0.117533792818 0)
(-0.00706558983333 -0.116202914484 0)
(-0.00767363274916 -0.114757197044 0)
(-0.0082382924746 -0.113204996342 0)
(-0.00876096615655 -0.111554388665 0)
(-0.00924314368276 -0.109813151756 0)
(-0.0096863609839 -0.10798875177 0)
(-0.010092213397 -0.106088332188 0)
(-0.0104623057714 -0.10411870972 0)
(-0.0107982697211 -0.102086371181 0)
(-0.0111017113539 -0.09999747404 0)
(-0.0113742329739 -0.0978578532941 0)
(-0.0116173802859 -0.0956730258844 0)
(-0.0118326702857 -0.0934482063649 0)
(-0.0120215384036 -0.0911883167471 0)
(-0.0121853734219 -0.0888980043769 0)
(-0.012325465719 -0.0865816587694 0)
(-0.0124430492496 -0.0842434294027 0)
(-0.0125392528115 -0.081887246909 0)
(-0.0126151493206 -0.0795168409975 0)
(-0.0126717096671 -0.0771357602188 0)
(-0.0127098581661 -0.0747473879811 0)
(-0.0127304309348 -0.0723549613055 0)
(-0.0127342337917 -0.0699615812459 0)
(-0.0127220049969 -0.0675702264911 0)
(-0.012694479209 -0.0651837647507 0)
(-0.0126523448219 -0.0628049455401 0)
(-0.0125963130409 -0.0604364177611 0)
(-0.0125270759427 -0.0580807189896 0)
(-0.0124453697021 -0.0557402768759 0)
(-0.0123519362619 -0.0534173965857 0)
(-0.0122475820672 -0.0511142560737 0)
(-0.012133135936 -0.0488328936192 0)
(-0.0120095019069 -0.0465751940874 0)
(-0.0118776179965 -0.0443428753881 0)
(-0.011738501098 -0.0421374754386 0)
(-0.0115932036364 -0.0399603379937 0)
(-0.0114428496719 -0.0378125947824 0)
(-0.0112885914249 -0.0356951570335 0)
(-0.0111316399192 -0.033608700925 0)
(-0.0109732211319 -0.0315536610348 0)
(-0.010814596511 -0.0295302169195 0)
(-0.0106570212093 -0.0275382895833 0)
(-0.0105017614474 -0.0255775376751 0)
(-0.0103500520077 -0.0236473510808 0)
(-0.0102031094135 -0.0217468494376 0)
(-0.0100620970058 -0.0198748795093 0)
(-0.00992813619392 -0.0180300055833 0)
(-0.00980228709117 -0.016210499845 0)
(-0.00968558181365 -0.0144143305383 0)
(-0.00957906068855 -0.0126391323831 0)
(-0.00948391705754 -0.0108822399405 0)
(-0.00940164349109 -0.00914071125076 0)
(-0.00933442546419 -0.00741164442565 0)
(-0.00928546203755 -0.00569290850859 0)
(-0.00925647307472 -0.00398289186958 0)
(-0.0092042234363 -0.0023153308759 0)
(-0.00827749217889 -0.000678153647252 0)
(0.0415160090763 -0.00321678510369 0)
(0.0460019667068 -0.0108803453713 0)
(0.0458041796885 -0.0184790843797 1.22977652528e-27)
(0.0451183344341 -0.0260791911265 0)
(0.0441976840456 -0.0335127204326 0)
(0.0430737811465 -0.040748635122 0)
(0.0417682133891 -0.047752144781 0)
(0.0403036687701 -0.0544935912535 0)
(0.0387036596204 -0.0609486169117 0)
(0.0369916824838 -0.0670981001645 0)
(0.0351904769046 -0.0729278412216 0)
(0.0333214441565 -0.0784281172238 0)
(0.0314042355741 -0.0835931475731 0)
(0.0294565041511 -0.088420523086 0)
(0.0274937980494 -0.0929106365182 0)
(0.0255295714498 -0.0970661487859 0)
(0.0235752846097 -0.100891509883 0)
(0.0216405648073 -0.104392546896 0)
(0.0197334044453 -0.107576121177 0)
(0.0178603750901 -0.110449855886 0)
(0.0160268417821 -0.113021924342 0)
(0.0142371642759 -0.115300894205 0)
(0.0124948798876 -0.117295616923 0)
(0.0108028585115 -0.119015153082 0)
(0.00916343367761 -0.120468723616 0)
(0.00757850474639 -0.121665682464 0)
(0.00604961531925 -0.122615497936 0)
(0.00457800745284 -0.123327740191 0)
(0.00316466128822 -0.123812070132 0)
(0.00181031600498 -0.124078225903 0)
(0.000515485495413 -0.124135999602 0)
(-0.000719538300228 -0.123995247734 0)
(-0.00189467235122 -0.123665794195 0)
(-0.00301005592959 -0.123157471061 0)
(-0.00406603582375 -0.122480055632 0)
(-0.00506316922652 -0.121643238192 0)
(-0.00600221304081 -0.120656586552 0)
(-0.0068841199658 -0.119529512125 0)
(-0.00771002229868 -0.118271235657 0)
(-0.0084812231633 -0.116890754974 0)
(-0.00919917444561 -0.115396817734 0)
(-0.00986546583761 -0.113797894021 0)
(-0.0104817982256 -0.112102155757 0)
(-0.0110499702883 -0.110317456093 0)
(-0.0115718498215 -0.108451318854 0)
(-0.0120493604067 -0.10651092594 0)
(-0.0124844514278 -0.104503113318 0)
(-0.0128790859009 -0.102434366667 0)
(-0.0132352114001 -0.100310827218 0)
(-0.0135547507444 -0.0981382952693 0)
(-0.013839574495 -0.095922240604 0)
(-0.0140914958434 -0.0936678159131 0)
(-0.0143122465352 -0.0913798702922 0)
(-0.0145034772963 -0.0890629703175 0)
(-0.0146667385212 -0.0867214190781 0)
(-0.0148034859404 -0.0843592754655 0)
(-0.0149150676751 -0.0819803807617 0)
(-0.0150027370328 -0.0795883749866 0)
(-0.0150676446604 -0.0771867247557 0)
(-0.0151108568162 -0.0747787378351 0)
(-0.015133355171 -0.0723675847717 0)
(-0.0151360616697 -0.0699563183615 0)
(-0.0151198357343 -0.0675478683493 0)
(-0.0150855079985 -0.0651450757149 0)
(-0.0150338794699 -0.0627506803687 0)
(-0.0149657514133 -0.0603673311207 0)
(-0.0148819314536 -0.0579975844912 0)
(-0.0147832567373 -0.0556438931918 0)
(-0.0146705978511 -0.0533086020038 0)
(-0.0145448832487 -0.0509939389332 0)
(-0.0144070942944 -0.0487019974753 0)
(-0.0142582851244 -0.0464347238978 0)
(-0.0140995760674 -0.0441938995438 0)
(-0.0139321646206 -0.0419811263961 0)
(-0.0137573145613 -0.0397978061756 0)
(-0.0135763632201 -0.0376451314073 0)
(-0.0133907023189 -0.0355240610361 0)
(-0.0132017806134 -0.0334353132317 0)
(-0.0130110833779 -0.0313793493909 0)
(-0.0128201294299 -0.029356369957 0)
(-0.0126304475199 -0.027366299519 0)
(-0.0124435706621 -0.0254087879384 0)
(-0.0122610138935 -0.0234832031844 0)
(-0.01208426542 -0.0215886296584 0)
(-0.0119147714074 -0.019723869886 0)
(-0.0117539323153 -0.0178874416199 0)
(-0.0116030993668 -0.0160775824567 0)
(-0.0114635914101 -0.0142922519649 0)
(-0.0113367301271 -0.0125291544716 0)
(-0.0112239197308 -0.0107858010066 0)
(-0.011126725631 -0.00905961442613 0)
(-0.0110469306475 -0.00734815312559 0)
(-0.0109864203487 -0.00564961438589 0)
(-0.0109438760459 -0.00396165547464 0)
(-0.0108631732849 -0.00231220921128 0)
(-0.00974951580443 -0.00067967366966 0)
(0.0485844604471 -0.0033299944947 0)
(0.0538253326668 -0.0112611656281 0)
(0.0535768886132 -0.0191191914142 -1.22912024144e-27)
(0.0527495289612 -0.0269689815152 0)
(0.0516411727481 -0.0346337010183 0)
(0.0502906218875 -0.0420790310651 0)
(0.0487251364455 -0.0492676585289 0)
(0.0469732176555 -0.0561685076696 0)
(0.0450641496712 -0.0627568425561 0)
(0.0430269177833 -0.0690140720783 0)
(0.0408892822194 -0.074927261126 0)
(0.0386770771529 -0.0804884918056 0)
(0.0364137417972 -0.0856941393546 0)
(0.0341200660474 -0.0905441269339 0)
(0.0318141181314 -0.0950412113935 0)
(0.029511317156 -0.0991903355959 0)
(0.027224609506 -0.102998068908 0)
(0.0249647124997 -0.106472142878 0)
(0.0227403933819 -0.109621084596 0)
(0.0205587580708 -0.112453937022 0)
(0.0184255300404 -0.114980058483 0)
(0.0163453071444 -0.117208986863 0)
(0.0143217859503 -0.11915035763 0)
(0.0123579505738 -0.120813855672 0)
(0.0104562258842 -0.122209204753 0)
(0.00861859360505 -0.123346162655 0)
(0.00684667627802 -0.124234533087 0)
(0.00514179402991 -0.12488417401 0)
(0.00350499906125 -0.125305004969 0)
(0.00193709393478 -0.125507005036 0)
(0.00043863910002 -0.125500198552 0)
(-0.00099005158875 -0.125294683974 0)
(-0.00234889529018 -0.124900498217 0)
(-0.0036380684646 -0.124327712937 0)
(-0.0048579889384 -0.123586330058 0)
(-0.0060093197278 -0.122686263033 0)
(-0.00709296250002 -0.121637294693 0)
(-0.00811004844564 -0.120449041024 0)
(-0.00906192465365 -0.119130913026 0)
(-0.00995013790906 -0.117692084012 0)
(-0.0107764151957 -0.116141457498 0)
(-0.0115426428951 -0.114487638243 0)
(-0.012250842471 -0.112738911627 0)
(-0.0129031463526 -0.110903222406 0)
(-0.0135017716008 -0.108988161496 0)
(-0.0140489952689 -0.107000953822 0)
(-0.0145471276028 -0.104948455752 0)
(-0.0149984878965 -0.102837152309 0)
(-0.0154053789491 -0.100673160582 0)
(-0.0157700666908 -0.0984622387168 0)
(-0.0160947560688 -0.0962097938565 0)
(-0.0163815758105 -0.0939209026221 0)
(-0.0166325587814 -0.0916003231695 0)
(-0.0168496320181 -0.0892525225124 0)
(-0.0170346040425 -0.0868816934751 0)
(-0.0171891616324 -0.0844917858996 0)
(-0.0173148638941 -0.0820865258434 0)
(-0.0174131477253 -0.0796694462569 0)
(-0.017485327369 -0.0772439096359 0)
(-0.0175326110699 -0.0748131332864 0)
(-0.0175561080903 -0.0723802051317 0)
(-0.0175568462176 -0.0699481034928 0)
(-0.0175357863765 -0.0675197169834 0)
(-0.017493845144 -0.0650978504001 0)
(-0.0174319115562 -0.0626852312141 0)
(-0.0173508713045 -0.0602845122581 0)
(-0.0172516222961 -0.0578982651461 0)
(-0.0171350988044 -0.0555289847201 0)
(-0.0170022808214 -0.0531790634349 0)
(-0.0168542162443 -0.0508507915189 0)
(-0.0166920261964 -0.0485463351318 0)
(-0.0165169161287 -0.0462677137091 0)
(-0.0163301811957 -0.0440167925008 0)
(-0.0161332077938 -0.0417952520079 0)
(-0.0159274697818 -0.0396045731453 0)
(-0.0157145276406 -0.0374460169086 0)
(-0.0154960168009 -0.0353206075689 0)
(-0.0152736389272 -0.0332291134614 0)
(-0.0150491487731 -0.0311720398115 0)
(-0.014824338984 -0.0291496087893 0)
(-0.0146010217358 -0.0271617559505 0)
(-0.0143810163148 -0.0252081259781 0)
(-0.0141661263323 -0.0232880649351 0)
(-0.0139581282308 -0.0214006245219 0)
(-0.0137587540137 -0.0195445618959 0)
(-0.0135696839361 -0.0177183456736 0)
(-0.013392542224 -0.0159201694046 0)
(-0.0132288982294 -0.0141479654351 0)
(-0.0130802897248 -0.0123994480993 0)
(-0.0129482473397 -0.0106721694121 0)
(-0.0128343147594 -0.00896365535342 0)
(-0.0127400032017 -0.00727151738303 0)