/*--------------------------------*- C++ -*----------------------------------*\
| =========                 |                                                 |
| \\      /  F ield         | OpenFOAM: The Open Source CFD Toolbox           |
|  \\    /   O peration     | Version:  v1906                                 |
|   \\  /    A nd           | Web:      www.OpenFOAM.com                      |
|    \\/     M anipulation  |                                                 |
\*---------------------------------------------------------------------------*/
FoamFile
{
    version     2.0;
    format      ascii;
    class       volScalarField;
    location    "328";
    object      pa;
}
// * * * * * * * * * * * * * * * * * * * * * * * * * * * * * * * * * * * * * //

dimensions      [0 2 -2 0 0 0 0];


internalField   nonuniform List<scalar> 
9216
(
919.327490056
919.021877796
918.389617196
917.425199294
916.133976199
914.521968252
912.596631344
910.366815725
907.842539513
905.034963444
901.956142988
898.619019297
895.037147791
891.224711216
887.196234011
882.966625258
878.550886579
873.964190326
869.221585972
864.338115817
859.328521926
854.207399155
848.98890259
843.686935757
838.314857078
832.885700334
827.411878329
821.905432343
816.377731284
810.839747173
805.301748424
799.773599894
794.264450448
788.783050468
783.337432774
777.935251735
772.583457117
767.288647455
762.05673818
756.893327866
751.803360989
746.791504305
741.861805299
737.018075746
732.263546972
727.601257835
723.033708201
718.56324838
714.191732178
709.920905077
705.752058377
701.686413368
697.72477797
693.867924511
690.116250418
686.470147336
682.929667285
679.49488135
676.165552873
672.941484116
669.822197956
666.807271399
663.89602737
661.087854088
658.381908407
655.777420415
653.273409851
650.86897527
648.563024885
646.354549826
644.242370735
642.225394505
640.302377755
638.47216648
636.733477472
635.085120121
633.525796643
632.054305281
630.669360122
629.369774795
628.15430248
627.021799213
625.971084605
625.001083734
624.110708876
623.298978844
622.564921504
621.907668605
621.326376545
620.820290378
620.388668336
620.030782691
619.745743951
619.531471591
619.389465002
619.336416764
919.632076762
919.324747744
918.69086691
917.722127847
916.424752177
914.805033184
912.870606587
910.630450488
908.094738685
905.274756684
902.182723447
898.831704077
895.235418606
891.408163936
887.364621191
883.11979604
878.688832467
874.086977199
869.329404449
864.431207014
859.407233578
854.272106373
849.04007036
843.725035488
838.340435753
832.899293234
827.414084607
821.896824078
816.358935208
810.811350253
805.264385834
799.727855675
794.210948359
788.72235452
783.270145579
777.86190943
772.504630641
767.204835586
761.968472573
756.801063974
751.707586179
746.692627106
741.76026583
736.914233838
732.157794304
727.493905509
722.925099803
718.453647619
714.081436247
709.810132946
705.641063685
701.575373942
697.613907638
693.757364375
690.006178863
686.360673526
682.82093883
679.386980442
676.058600987
672.835541162
669.717363569
666.703587455
663.793575361
660.986661328
658.282041173
655.678894153
653.176277701
650.773242593
648.468732946
646.261694947
644.150982852
642.135461267
640.213917775
638.385158694
636.647928835
635.00100054
633.443100952
631.972994034
630.589415627
629.291148055
628.076963111
626.945688806
625.896160357
624.927278534
624.037968613
623.227229742
622.494101652
621.837704374
621.257212398
620.751885084
620.321051748
619.964147482
619.680761427
619.470783942
619.33626029
619.283299959
920.265696801
919.953663557
919.314076548
918.336715453
917.027903312
915.394063399
913.443028672
911.183988636
908.627358568
905.784662869
902.668381025
899.291823163
895.668968863
891.81434768
887.742882855
883.469786526
879.010416265
874.380190917
869.594464323
864.668464264
859.617184488
854.455346453
849.197308428
843.857047765
838.44808446
832.983480949
827.475777281
821.937005494
816.378633935
810.811593884
805.246231234
799.692343207
794.159135998
788.655270698
783.188825245
777.767347356
772.397820388
767.086722246
761.839993934
756.663103042
751.56101422
746.538256106
741.598893115
736.746594655
731.984607669
727.315827122
722.742768831
718.26764017
713.89231273
709.618392308
705.447191027
701.37979569
697.417039021
693.559565655
689.807802313
686.16202079
682.622306999
679.188620579
675.860762953
672.63843333
669.521196044
666.508533011
663.599810794
660.794329663
658.091290926
655.4898429
652.989049116
650.58793151
648.285440074
646.080493599
643.971951308
641.958651368
640.039384912
638.212932481
636.478040735
634.833456828
633.277907973
631.81013366
630.428868139
629.132870279
627.920908915
626.791790087
625.744345159
624.777455113
623.890041289
623.081086492
622.349628307
621.69477708
621.115712663
620.611701594
620.182103502
619.82640303
619.544262396
619.335639678
619.201453975
619.14137985
921.239755997
920.92231752
920.273812993
919.282983093
917.956344831
916.300548166
914.32371855
912.035376563
909.446303563
906.56840473
903.414556193
899.998460509
896.334490284
892.437548764
888.322922313
884.006156234
879.502924171
874.828925114
869.999773815
865.030921169
859.937566266
854.734599256
849.436533033
844.057465688
838.611028496
833.110364373
827.568088754
821.996280897
816.406454997
810.809562015
805.215969132
799.635470544
794.07727407
788.550018771
783.061767133
777.620029572
772.231761072
766.903390356
761.64082004
756.449459556
751.334227871
746.299589156
741.349557265
736.487733241
731.717310857
727.041115085
722.461608038
717.980927568
713.600892982
709.323042971
705.148640503
701.078709339
697.114037608
693.255212279
689.502621013
685.85648413
682.316854528
678.883646875
675.556635565
672.335481089
669.21972622
666.208819717
663.302111093
660.498871972
657.798289931
655.199487941
652.701517817
650.303378209
648.004008197
645.802304266
643.697114505
641.687254912
639.771504558
637.948621445
636.217338856
634.576380855
633.024459915
631.56029203
630.182595595
628.890105977
627.681575538
626.555787457
625.511556725
624.547742987
623.663252343
622.857049082
622.128158323
621.475676908
620.898777732
620.396721701
619.968867601
619.614690728
619.333807105
619.126003472
618.991527342
618.927751891
922.558242765
922.233856239
921.573162888
920.563888807
919.212846999
917.527019648
915.514937252
913.18658047
910.553233737
907.627330375
904.422290076
900.952358275
897.232443439
893.277963894
889.104697826
884.728648026
880.16591274
875.432574231
870.544594235
865.517728043
860.367444441
855.108863577
849.756698381
844.325212285
838.828177746
833.27884938
827.689935502
822.073583126
816.441359639
810.804247413
805.172633862
799.556314464
793.964490331
788.405776725
782.888206714
777.419246819
772.005804949
766.654250231
761.370424662
756.159666293
751.026823586
745.976281037
741.011975422
736.137423017
731.355736989
726.669655435
722.081559207
717.593499992
713.207217852
708.924168603
704.745540384
700.672279627
696.705106022
692.844536486
689.090898052
685.444349372
681.904891229
678.472385367
675.146562552
671.927038725
668.81332078
665.804820278
662.900857306
660.100672158
657.403427781
654.808219944
652.314078852
649.919978346
647.62483724
645.427528066
643.326878618
641.32168063
639.410691886
637.59264509
635.866250758
634.230206378
632.683200141
631.223920368
629.851060019
628.563326243
627.359445497
626.238173025
625.198298375
624.238654587
623.358123927
622.555646651
621.830226934
621.180941351
620.606945475
620.107482724
619.681892577
619.329620436
619.050223371
618.843369003
618.70908577
618.644443536
924.227743099
923.894568235
923.218264276
922.185329737
920.802982904
919.078654415
917.021408884
914.641830409
911.951858836
908.964615086
905.694222483
902.15562903
898.364432294
894.336712997
890.08887714
885.637511781
880.999252611
876.190667608
871.228153386
866.127847738
860.905553706
855.576678099
850.156178877
844.65852426
839.09765763
833.486971563
827.839285235
822.166829323
816.481232898
810.793517088
805.114090001
799.452748429
793.818680385
788.220471158
782.666112418
777.163015856
771.71802588
766.337437336
761.027011808
755.791998498
750.637153138
745.56676115
740.584658377
735.694255758
730.898561152
726.200204786
721.601461453
717.104275972
712.710285019
708.420841833
704.237036935
700.159721332
696.189525451
692.326880183
688.572033481
684.925068776
681.385918893
677.954381606
674.630130789
671.412729146
668.30163677
665.296221349
662.395764547
659.599470166
656.906468921
654.315825184
651.826540784
649.437560966
647.147777848
644.956036164
642.8611369
640.861843277
638.956884933
637.144964433
635.424762196
633.794943639
632.254164893
630.801080539
629.434350007
628.152645741
626.954660088
625.839113657
624.804762454
623.850406186
622.974895411
622.1771396
621.456114168
620.810868218
620.240531407
619.744321304
619.321549706
618.971626859
618.694062476
618.488460901
618.354782162
618.290141251
926.256616902
925.912613934
925.21704088
924.154887598
922.733893422
920.962065694
918.849149579
916.406494083
913.646865385
910.584248243
907.233645765
903.610881466
899.732407429
895.615122974
891.276205792
886.732958437
882.002670622
877.102498932
872.049363009
866.859858664
861.55018569
856.136089909
850.632816369
845.055072917
839.417000979
833.732153314
828.013476156
822.273296482
816.523312451
810.774588474
805.037553111
799.32200187
793.637102766
787.991402352
782.392838561
776.848754826
771.365915477
765.95052399
760.608241815
755.344209522
750.163068118
745.068982273
740.065663404
735.156394282
730.344053198
725.631139264
721.019796936
716.511841267
712.108782011
707.811848027
703.622010156
699.540003982
695.566350707
691.701377555
687.945236012
684.297919358
680.759277867
677.329033218
674.006790559
670.792049856
667.684215039
664.682602646
661.78644853
658.994914383
656.307092681
653.722011791
651.238639903
648.855889462
646.57262079
644.387646497
642.299735392
640.307617357
638.409987962
636.605514099
634.8928395
633.270591247
631.737386192
630.291838268
628.932565689
627.65819885
626.467388059
625.358811753
624.33118447
623.383265087
622.513864724
621.721854745
621.006174341
620.36583801
619.799942558
619.307673409
618.888309929
618.541229043
618.265904093
618.061903154
617.929168407
617.864925527
928.65515309
928.298083634
927.57928117
926.481909184
925.014358972
923.185361094
921.005509838
918.487103771
915.64392955
912.491033562
909.044494603
905.321201592
901.338641059
897.114698495
892.66747602
888.015128699
883.175720367
878.167099852
873.006797022
867.711938096
862.299178217
856.78464942
851.183921019
845.51197005
839.78315891
834.011218564
828.209235608
822.389642877
816.564213092
810.744055975
804.939618791
799.160690959
793.416411931
787.715278607
782.065161521
776.473320317
770.94642153
765.490558309
760.111271278
754.81357092
749.601960671
744.480461245
739.452635333
734.52161327
729.690118732
724.960495099
720.334731456
715.814488896
711.401126032
707.095724378
702.899112501
698.811889581
694.83444734
690.96699097
687.209558105
683.562036508
680.024179643
676.595620823
673.275885278
670.064400854
666.960506838
663.963461641
661.072448964
658.286583162
655.60491354
653.026428255
650.550057609
648.174677352
645.899111789
643.722137247
641.642485658
639.658848742
637.769882514
635.974212509
634.270439403
632.657145369
631.132900794
629.696271656
628.345827143
627.080147793
625.897833721
624.797513183
623.777851051
622.837557444
621.975396091
621.190192662
620.480842679
619.846319163
619.285679569
618.798072155
618.382741143
618.039029291
617.766379723
617.56433869
617.432836787
617.369218959
931.435747348
931.06314197
930.316773608
929.177628699
927.654904202
925.758226377
923.499236051
920.891395825
917.949735999
914.690589271
911.13133011
907.290123344
903.185687116
898.83707415
894.263473908
889.484037529
884.517726596
879.383186111
874.098641241
868.681816495
863.14987513
857.519375694
851.806242104
846.02574355
840.192480761
834.320376202
828.422666522
822.511896989
816.599917949
810.697884145
804.816258054
798.964815686
793.152656984
787.388216479
781.679281527
776.0330104
770.455952375
764.954069511
759.532759478
754.196879597
748.950771664
743.798287686
738.742816235
733.787309402
728.934310179
724.185980056
719.544126746
715.01023169
710.585477274
706.270773325
702.066782844
697.973946489
693.992505816
690.122524812
686.363909775
682.71642719
679.179719707
675.753320032
672.436662873
669.229094971
666.129883342
663.138221964
660.253237036
657.473991162
654.799486575
652.228667827
649.760424022
647.393591021
645.126953651
642.959248294
640.889165833
638.915355258
637.036427834
635.250962051
633.557509222
631.954599829
630.440750488
629.014471521
627.674275038
626.418683412
625.246238095
624.155508598
623.14510161
622.213670041
621.359922009
620.582629535
619.880636944
619.252868739
618.698336975
618.216147533
617.805505576
617.465719941
617.196204503
616.996483179
616.866476415
616.803649687
934.613109158
934.222216689
933.443480549
932.255320802
930.667925841
928.69202493
926.340540687
923.628352162
920.571992736
917.189339033
913.499310113
909.52158169
905.276320682
900.783943716
896.064901825
891.139493004
886.027703436
880.749077766
875.322617724
869.766707486
864.099062777
858.336699584
852.495917487
846.592292329
840.640673607
834.655183145
828.649213494
822.635425926
816.62574927
810.631380801
804.662792118
798.729736276
792.84126075
787.005721898
781.230805869
775.523549595
769.890363635
764.337056215
758.868858221
753.490449077
748.205983329
743.019118044
737.933040756
732.950498107
728.073824768
723.304972821
718.645541028
714.096804177
709.65974183
705.335066615
701.123251362
697.024555172
693.03904777
689.166632225
685.407065492
681.759976915
678.224884321
674.801207904
671.488281739
668.285363187
665.191640247
662.206237137
659.328218331
656.556591359
653.890308671
651.328268875
648.869317667
646.512248713
644.255804774
642.098679263
640.039518426
638.076924289
636.209458434
634.43564668
632.753984633
631.162944125
629.660980406
628.246540105
626.918069733
625.674024747
624.512878902
623.433133928
622.433329216
621.512051585
620.6679448
619.899718921
619.206159166
618.586134346
618.038604485
617.562627846
617.157366926
616.82209234
616.556187424
616.359155263
616.2308969
616.169002714
938.204513332
937.792234873
936.975752654
935.730486601
934.067844539
931.999912833
929.541180077
926.708242514
923.519440839
919.994493125
916.154146104
912.019849732
907.613459662
902.956970554
898.072281736
892.980996368
887.704254946
882.262603408
876.67589541
870.963226705
865.142898048
859.232400909
853.248419101
847.206838769
841.122760103
835.010506249
828.883627633
822.754902747
816.636337808
810.539168329
804.473866456
798.450150461
792.476999135
786.562671959
780.714732895
774.94007501
769.244946262
763.634976236
758.115203302
752.690102481
747.363613832
742.139171547
737.019733681
732.007812445
727.105505056
722.314524807
717.636232431
713.071667187
708.621577786
704.286452393
700.066547836
695.96191718
691.972435803
688.097825183
684.337674572
680.69145996
677.158560545
673.738272385
670.42981952
667.232362503
664.145004676
661.166796395
658.296737524
655.533778601
652.876820961
650.324716301
647.87626593
645.530220177
643.285278107
641.140087961
639.093248361
637.143310584
635.288781831
633.528129688
631.859787632
630.282161621
628.793637631
627.39259005
626.077390797
624.846418999
623.698071134
622.630771384
621.64298219
620.733214682
619.900039042
619.142094458
618.458098727
617.846857193
617.307271149
616.838345076
616.439193258
616.109045786
615.847251785
615.65328672
615.527031125
615.466206815
942.230110203
941.792913646
940.932592684
939.621078668
937.871285025
935.696971028
933.11453943
930.142665304
926.801856059
923.114016207
919.102042896
914.789455765
910.200064465
905.357674991
900.285835066
895.00761918
889.545453975
883.920984909
878.154984058
872.267297313
866.276826468
860.201538762
854.058493993
847.863878169
841.633034007
835.380481721
829.119928683
822.864270487
816.625588977
810.415152174
804.243422151
798.120067331
792.053978092
786.053294634
780.125434455
774.277121074
768.514413446
762.842735388
757.266905079
751.791164809
746.419211144
741.154225794
735.998907051
730.95550204
726.025839381
721.21136247
716.513162799
711.932013477
707.468402204
703.122563781
698.8945113
694.784065997
690.790884953
686.914486599
683.15427338
679.509551586
675.979548006
672.563423489
669.260283399
666.069185165
662.989143176
660.019131328
657.158083666
654.40489348
651.758411395
649.217442814
646.780745249
644.447025843
642.214939544
640.083088118
638.050020324
636.114233338
634.274175561
632.528250809
630.874823852
629.312227252
627.838769311
626.452743097
625.152436233
623.936141449
622.802167528
621.748850659
620.774565819
619.877738213
619.056854415
618.310473253
617.637236096
617.035876634
616.505229729
616.044239683
615.651967497
615.327596102
615.070436586
614.879936382
614.75594597
614.696327324
946.713310684
946.247121911
945.335977904
943.947771887
942.097286729
939.800354007
937.075721717
933.944582503
930.43003671
926.556576013
922.349615412
917.835074928
913.039010683
907.9872937
902.705334466
897.217852958
891.548695344
885.720699267
879.755609252
873.674041123
867.495490635
861.238376411
854.920102997
848.557127582
842.165015264
835.758473581
829.351364872
822.956703134
816.586645101
810.252485493
803.964663382
797.732778402
791.56560818
785.471146867
779.456636919
773.528603281
767.692886563
761.954675472
756.318538308
750.78845451
745.367846421
740.059611806
734.866157153
729.78943176
724.830962631
719.991889821
715.273002365
710.6747741
706.197399535
701.840828781
697.60480164
693.488879693
689.492476464
685.614884559
681.855299925
678.212842416
674.686572882
671.275506432
667.978622156
664.794869396
661.723170928
658.762423491
655.911496067
653.169226566
650.534417307
648.005830041
645.582180817
643.262135423
641.04430556
638.927246354
636.909455208
634.98937241
633.165383344
631.435822527
629.79897921
628.253104586
626.796420334
625.427128359
624.143421536
622.943495182
621.825559151
620.787850172
619.828644444
618.946270024
618.139119124
617.40565985
616.744447506
616.154135074
615.63348308
615.181368168
614.796791028
614.478883797
614.226914292
614.040293826
613.918842932
613.860572391
951.681266682
951.18132547
950.21125476
948.734286714
946.76754742
944.329452403
941.441635224
938.128341243
934.415770382
930.331465559
925.903775866
921.161389283
916.132928893
910.846605541
905.3299218
899.609425959
893.710518166
887.657313375
881.472565508
875.17765425
868.792629865
862.33630324
855.826360644
849.279477545
842.711407739
836.13703269
829.570371303
823.024562976
816.511843261
810.043528746
803.630021249
797.280825617
791.004577193
784.809091124
778.701401359
772.687801114
766.773880543
760.964561606
755.264131314
749.676274461
744.204106718
738.850208711
733.61666103
728.505080458
723.516656934
718.652191548
713.912134896
709.296626046
704.805531208
700.438482117
696.194913023
692.074096058
688.075173873
684.197189271
680.439110989
676.799855482
673.278304291
669.873317057
666.583740243
663.408411814
660.346162342
657.395812954
654.556170845
651.826022858
649.204127976
646.689209217
644.279945755
641.974965657
639.77283992
637.672078033
635.671125508
633.768363435
631.962110224
630.250625444
628.632115673
627.104742212
625.666630373
624.315880229
623.050578393
621.86881079
620.768675917
619.748298602
618.805843757
617.939530162
617.147643826
616.428550969
615.780710249
615.202684311
614.693150254
614.250909373
613.874895772
613.564182747
613.317990094
613.135692507
613.01707113
612.960294968
957.165476591
956.626146485
955.587622017
954.00777466
951.906699881
949.30606438
946.231070329
942.709671794
938.771768888
934.448489627
929.771583273
924.772909375
919.484005325
913.935717513
908.157885974
902.179080214
896.026390783
889.725285887
883.299543586
876.771265932
870.16097259
863.487758007
856.769481857
850.022952551
843.264063678
836.507858867
829.768526796
823.059353598
816.392666992
809.779805847
803.23111374
796.75596657
790.362820839
784.059271292
777.852103239
771.747340867
765.750288838
759.865569115
754.097154572
748.448402243
742.92208716
737.52043776
732.245172743
727.097539294
722.078352597
717.188036249
712.426663809
707.794000746
703.289546992
698.912578798
694.662189878
690.537330185
686.536842161
682.65949294
678.904002427
675.269066232
671.753373584
668.355619873
665.074514139
661.908781804
658.857163099
655.918407973
653.091268022
650.374486492
647.766786898
645.266861397
642.873359335
640.584877046
638.399949101
636.317041864
634.334549309
632.450791644
630.664016436
628.972402497
627.374066057
625.867069233
624.449430321
623.119135726
621.874153168
620.712445828
619.631987248
618.630776488
617.706853556
616.858314485
616.083326251
615.380140871
614.747108954
614.182692123
613.685474694
613.254173778
612.887648587
612.584909108
612.34512107
612.167613834
612.052129858
611.997004695
963.202555745
962.617061679
961.498725805
959.799273578
957.542619906
954.754564632
951.464750985
947.705645951
943.511557491
938.917803759
933.960046264
928.673750025
923.093736887
917.253804303
911.186393011
904.922300521
898.490449392
891.917728204
885.228926279
878.446778605
871.592124335
864.684160184
857.74074489
850.77868901
843.813961588
836.861768374
829.936508907
823.051665737
816.21969171
809.451948066
802.758695052
796.149135221
789.631492316
783.21308844
776.900412861
770.699178799
764.61436861
758.650270081
752.810508692
747.098079715
741.51538224
736.064255773
730.746018898
725.561509926
720.511128729
715.594880195
710.812418696
706.163094023
701.64599778
697.26001013
693.003845321
688.876095353
684.875270121
680.999833335
677.248233014
673.618926134
670.110396972
666.721169112
663.449811374
660.294938
657.255203922
654.329295696
651.515919287
648.813785411
646.22159375
643.738016737
641.361684152
639.091169077
636.924976197
634.861532738
632.89918265
631.036184001
629.270709777
627.600851805
626.024627604
624.539989833
623.144837883
621.837031367
620.614404928
619.474784255
618.416002661
617.435918219
616.532430782
615.703498957
614.947156411
614.261527619
613.644842548
613.095450416
612.611832066
612.192611388
611.836565326
611.542631397
611.309915893
611.137702266
611.025684517
610.972373399
969.835232555
969.195297922
967.983394231
966.144243262
963.706755547
960.702051618
957.165336267
953.134573081
948.649299119
943.749691931
938.475869564
932.867353735
926.962635009
920.798794989
914.411160182
907.832984633
901.095178252
894.226112659
887.251543814
880.194686245
873.076455481
865.915860918
858.730485517
851.536945541
844.351206593
837.188669842
830.064043186
822.991108537
815.982506922
809.049627498
802.2026061
795.450402277
788.800932553
782.261178904
775.837277731
769.534585949
763.357726356
757.310619743
751.396511674
745.618001592
739.977076224
734.475147509
729.113093585
723.891301888
718.809713836
713.867870904
709.064962756
704.399876941
699.87125052
695.477521977
691.216982952
687.087827328
683.088196913
679.21622148
675.470052668
671.847890451
668.34800209
664.968733397
661.708512558
658.56584733
655.539316081
652.627554154
649.829236169
647.143056069
644.567705561
642.10185276
639.744121624
637.493073725
635.347192708
633.304872575
631.364409729
629.523999428
627.781736129
626.135617915
624.583554209
623.123376651
621.752852362
620.469699309
619.271603217
618.156235591
617.121272601
616.164414149
615.283403191
614.476044431
613.740222696
613.073920094
612.475232365
611.942383691
611.473740456
611.067823069
610.723316691
610.439081146
610.214156548
610.04777117
609.939571321
609.888250095
977.113656365
976.408978352
975.086551744
973.083183314
970.434457456
967.178436845
963.357334411
959.015800088
954.199529095
948.954266919
943.325135731
937.356157554
931.08987522
924.567002079
917.826065199
910.903041162
903.83101409
896.639909809
889.356374518
882.003865091
874.602995588
867.17213194
859.728148398
852.287168946
844.865068148
837.477550464
830.139840741
822.866217536
815.669621555
808.561475574
801.551710701
794.648932835
787.860643803
781.193396837
774.652909516
768.244135491
761.971304667
755.837942433
749.846885073
744.000302693
738.299732111
732.746117001
727.33985205
722.080829352
716.968485545
712.001850872
707.179600324
702.50010815
697.961504826
693.561736158
689.298622036
685.169913187
681.173343246
677.306674518
673.567735751
669.954451013
666.464859265
663.09712449
659.849537054
656.720506771
653.708549099
650.812265357
648.030318805
645.361407662
642.80423705
640.357490889
638.019805608
635.789746461
633.665787908
631.646298437
629.729530667
627.913616558
626.196567852
624.576281128
623.050547022
621.617062915
620.273448378
619.017262923
617.84602529
616.757234128
615.74838922
614.817013275
613.960673408
613.177002368
612.463718732
611.818646155
611.239731128
610.725059354
610.27287031
609.881570472
609.54974475
609.276165118
609.059799577
608.899820382
608.795815988
608.746669169
985.097152282
984.314637643
982.860360873
980.662330851
977.765263526
974.216415467
970.066868678
965.369368288
960.176768747
954.541077515
948.512917312
942.14120491
935.472894892
928.552691378
921.422681838
914.121897494
906.685849415
899.146126128
891.530165984
883.861325541
876.159343072
868.441223631
860.722438858
853.018156528
845.344076074
837.716472072
830.151505743
822.664315759
815.268327505
807.974974419
800.793824817
793.732948254
786.799271902
779.998806959
773.33677844
766.817694613
760.445369815
754.22291653
748.152738154
742.236543106
736.475378891
730.869677149
725.419303207
720.123606365
714.981469613
709.99136037
705.151384869
700.459346925
695.912812069
691.509174794
687.245727235
683.11972507
679.128448466
675.269254603
671.53962057
667.937175013
664.459718259
661.105231121
657.871872658
654.75796853
651.761990538
648.882529865
646.118264827
643.467925952
640.93025935
638.503991042
636.187793181
633.980254393
631.879854838
629.884947552
627.993746025
626.204318704
624.514589562
622.922344655
621.425243236
620.020833074
618.706568585
617.479831497
616.337953114
615.278237848
614.297987588
613.394526163
612.565223917
611.807521231
611.118951429
610.497161793
609.939933367
609.445198527
609.01105708
608.635789864
608.317870877
608.055978284
607.84900061
607.696044422
607.596640856
607.549867985
993.856625634
992.979235278
991.365659945
988.93440287
985.743050148
981.851211696
977.321203756
972.215461066
966.594981392
960.518609619
954.042823492
947.221714606
940.10695143
932.747598004
925.189734535
917.475894891
909.644397043
901.728695603
893.756933661
885.751901209
877.731602014
869.710542797
861.701652263
853.718383333
845.776208571
837.892567277
830.085377788
822.371290406
814.764483861
807.276302472
799.915640329
792.689700907
785.604608094
778.66569463
771.877620547
765.244421855
758.76949964
752.45555636
746.304548524
740.317690305
734.495496366
728.837837683
723.344000207
718.012740646
712.842336937
707.830639358
702.975126182
698.272967374
693.721096349
689.316288722
685.055243199
680.934660371
676.951314532
673.102115256
669.384156379
665.794750908
662.331451801
658.992058447
655.774610342
652.677368725
649.698788593
646.837482449
644.092178634
641.461675877
638.944796976
636.540343207
634.24705218
632.063560357
629.988372439
628.019838153
626.156137679
624.395275269
622.735080982
621.173219194
619.707202816
618.334411858
617.05211511
615.857494308
614.747669774
613.719727547
612.770746954
611.897828755
611.098122653
610.368854208
609.707350098
609.111061793
608.577587009
608.104689072
607.690313829
607.332604642
607.029915111
606.78081865
606.584117924
606.438852615
606.344486201
606.300297867
1003.47794084
1002.48293369
1000.67377846
997.959300887
994.41587427
990.119923098
985.147893278
979.573556336
973.466831523
966.893679332
959.916502169
952.594638221
944.984670421
937.140405875
929.11246897
920.947541483
912.687359678
904.367649532
896.017259536
887.657826366
879.304355783
870.967036709
862.654318309
854.376619344
846.149221142
837.992005944
829.92622782
821.971186912
814.142182922
806.450152979
798.902665188
791.505486142
784.26362738
777.181606073
770.263463392
763.512771041
756.932568047
750.52518735
744.292136292
738.234096774
732.350997403
726.642091117
721.106029407
715.740924738
710.544398331
705.513626671
700.645396646
695.936172539
691.382178141
686.979489924
682.724135593
678.612189362
674.639858672
670.803556804
667.099959393
663.526043205
660.079106859
656.756774743
653.556984411
650.477960693
647.5181772
644.676309379
641.951180234
639.34170294
636.846821829
634.465455556
632.196444045
630.038502306
627.990182383
626.049845542
624.215644903
622.485519213
620.8571962
619.328204718
617.895892941
616.557451593
615.30993985
614.150313744
613.075455751
612.082205754
611.16739275
610.327866647
609.560529991
608.862367968
608.230477241
607.662091796
607.154606844
606.705599436
606.312846921
605.974342175
605.688306833
605.453203005
605.267739737
605.130880144
605.042020188
605.000644122
1014.06677835
1012.92299834
1010.86884932
1007.8045565
1003.83517761
999.060169746
993.573349777
987.46117786
980.802717556
973.670739392
966.133148719
958.254267768
950.095640477
941.716228459
933.171944716
924.51458747
915.790321923
907.037941146
898.287253131
889.55809821
880.860676233
872.197925771
863.570418455
854.983065425
846.451192487
837.999854776
829.656661245
821.445510615
813.383232574
805.479501775
797.739220716
790.165731407
782.762590785
775.533433714
768.481678637
761.610498973
754.922718406
748.420406115
742.104627474
735.975471855
730.032207776
724.273397968
718.696997418
713.300424467
708.080594866
703.033955587
698.156534227
693.444008381
688.891799838
684.495189453
680.249439505
676.149912483
672.192176685
668.372092953
664.685880122
661.130157538
657.701965822
654.39876596
651.218419738
648.159152858
645.219504671
642.398266673
639.694413962
637.107032146
634.635243881
632.278137429
630.034701187
627.903766162
625.883959734
623.973671763
622.171035069
620.473919516
618.879939101
617.386469005
615.990670055
614.689517687
613.479833391
612.358317801
611.321584637
610.366196113
609.488698872