/*--------------------------------*- C++ -*----------------------------------*\
| =========                 |                                                 |
| \\      /  F ield         | OpenFOAM: The Open Source CFD Toolbox           |
|  \\    /   O peration     | Version:  v1906                                 |
|   \\  /    A nd           | Web:      www.OpenFOAM.com                      |
|    \\/     M anipulation  |                                                 |
\*---------------------------------------------------------------------------*/
FoamFile
{
    version     2.0;
    format      ascii;
    class       surfaceScalarField;
    location    "328";
    object      phi;
}
// * * * * * * * * * * * * * * * * * * * * * * * * * * * * * * * * * * * * * //

dimensions      [0 3 -1 0 0 0 0];
oriented        oriented;


internalField   nonuniform List<scalar> 
18240
(
-0.000352676971885
0.000352630671212
-0.000738853388013
0.000386121574619
-0.00112468367066
0.000385783219118
-0.00150556959979
0.000380829244656
-0.00187941573717
0.00037380108453
-0.00224451241662
0.000365038304304
-0.00259931235778
0.000354756874709
-0.00294249747071
0.000343125060435
-0.00327286559364
0.000330327102097
-0.00358945148942
0.000316524204555
-0.00389138956771
0.000301899247281
-0.00417805530351
0.000286602455553
-0.00444889622935
0.000270804389939
-0.004703593977
0.000254632945134
-0.00494186525387
0.000238237209801
-0.00516364787726
0.000221716386873
-0.00536887411715
0.00020519476146
-0.00555768370095
0.000188742029222
-0.00573017139041
0.000172458997708
-0.00588662884542
0.000156388723469
-0.00602726722217
0.000140612597366
-0.00615248866245
0.000125151701508
-0.00626258420404
0.000110072883329
-0.00635803480426
9.5380046715e-05
-0.00643918427047
8.1130045772e-05
-0.0065065691552
6.7313735718e-05
-0.006560566602
5.3981468487e-05
-0.00660175215293
4.11140441312e-05
-0.0066305223729
2.87577783658e-05
-0.00664747957796
1.68856015557e-05
-0.00665303011154
5.54181563683e-06
-0.00664779337832
-5.30815749606e-06
-0.00663217353411
-1.56247768134e-05
-0.00660679578451
-2.54486936287e-05
-0.00657205768004
-3.47390940721e-05
-0.0065285859466
-4.3541888523e-05
-0.0064767645369
-5.18184404375e-05
-0.00641721347357
-5.96201052408e-05
-0.00635029690889
-6.69095235556e-05
-0.00627662173674
-7.37427749201e-05
-0.00619652726267
-8.00834013103e-05
-0.00611060161607
-8.59914751012e-05
-0.00601915531292
-9.14311409859e-05
-0.00592275329604
-9.64657424463e-05
-0.00582167453736
-0.000101059611131
-0.00571645733481
-0.0001052784955
-0.00560734762727
-0.000109086581235
-0.0054948549508
-0.000112551223221
-0.00537919193831
-0.000115636080124
-0.00526083817661
-0.000118409256623
-0.00513997384768
-0.000120833666711
-0.00501704854742
-0.00012297746294
-0.00489221177196
-0.000124802623999
-0.00476588366446
-0.000126376673017
-0.00463818548043
-0.000127660687517
-0.00450950911384
-0.000128721101277
-0.00437995037509
-0.000129518196966
-0.00424987413431
-0.000130116929673
-0.0041193536186
-0.00013047713041
-0.00398872796951
-0.000130662108614
-0.00385805043817
-0.000130631643523
-0.00372763522031
-0.000130447280122
-0.00359751774864
-0.000130069321193
-0.00346798769197
-0.00012955757914
-0.00333906420623
-0.000128873429796
-0.00321101210772
-0.000128074947392
-0.00308383520964
-0.00012712519189
-0.00295777273838
-0.000126080531571
-0.00283281353844
-0.000124906195278
-0.00270916995045
-0.000123656752225
-0.00258681586103
-0.000122300047518
-0.00246593533252
-0.000120888714561
-0.00234648712017
-0.00011939348537
-0.00222862550359
-0.000117864769198
-0.00211229400415
-0.000116276386005
-0.00199761594538
-0.000114676177553
-0.00188451975247
-0.000113041097236
-0.0017730969361
-0.000111415963346
-0.00166326139944
-0.000109780859521
-0.00155507262225
-0.000108177095662
-0.0014484310974
-0.000106587771407
-0.00134336466772
-0.000105050122005
-0.00123976224419
-0.000103550074843
-0.0011376214072
-0.000102120105714
-0.00103682240016
-0.000100748465934
-0.00093733570792
-9.94616333162e-05
-0.000839038725147
-9.82484209639e-05
-0.000741884051611
-9.71253249921e-05
-0.000645764321437
-9.60732234282e-05
-0.000550653147227
-9.50782115563e-05
-0.000456547611744
-9.40620486206e-05
-0.000363662718719
-9.28497831125e-05
-0.000272722818941
-9.09023244015e-05
-0.000186223265896
-8.64649805512e-05
-0.000103802115708
-8.23757208003e-05
-0.000103775960006
-0.000389830142566
0.000742410443447
-0.00082506496144
0.000821300804122
-0.00125783340218
0.000818498552436
-0.00168431144807
0.000807251456242
-0.00210256793271
0.000792004992774
-0.00251083479628
0.000773249055547
-0.00290744699918
0.000751317086985
-0.00329092701694
0.00072654867326
-0.00365996031534
0.000699309094276
-0.00401345133224
0.00066995858539
-0.00435046837388
0.000638865753846
-0.00467029645882
0.000606373753234
-0.00497236263325
0.000572820924459
-0.00525629230665
0.000538505779375
-0.00552181961499
0.000503715883198
-0.00576885163086
0.000468691627707
-0.00599736726112
0.000433662919258
-0.00620749256588
0.000398810763933
-0.00639939048015
0.000364310742886
-0.00657334912932
0.000330291165184
-0.00672966346667
0.00029688225793
-0.00686873728253
0.000264169852725
-0.00699095692273
0.000232249502617
-0.00709680681554
0.000201175009739
-0.00718673490779
0.000171016981754
-0.00726128106061
0.000141805903924
-0.00732093366453
0.000113594955558
-0.00736627004517
8.63976019371e-05
-0.00739780376722
6.02546392753e-05
-0.0074161360793
3.51664835423e-05
-0.00742179307129
1.11643778427e-05
-0.00741538902202
-1.17620120516e-05
-0.00739745662939
-3.35889517459e-05
-0.00736861702834
-5.43362296232e-05
-0.00732939784593
-7.39872453468e-05
-0.00728041510555
-9.25704566248e-05
-0.00722218415542
-0.000110075347961
-0.00715530947055
-0.000126538270154
-0.00708028751586
-0.000141954281914
-0.0069977044723
-0.000156366722034
-0.00690803197641
-0.00016977537776
-0.00681183208877
-0.000182229464006
-0.00670954681443
-0.000193732464932
-0.0066017094731
-0.000204338175802
-0.00648872893252
-0.000214052642509
-0.00637110645637
-0.000222932857805
-0.00624921566613
-0.000230986241854
-0.00612352382056
-0.000238271578666
-0.00599436853332
-0.000244796543088
-0.00586218237166
-0.000250620398841
-0.00572726742955
-0.00025575008403
-0.00559002203322
-0.000260244189574
-0.00545071425809
-0.000264108161223
-0.00530970949128
-0.000267399021111
-0.00516724404199
-0.000270120239471
-0.00502365224542
-0.000272326665609
-0.00487914128646
-0.000274019648539
-0.00473401653133
-0.000275251596869
-0.00458845874213
-0.000276021909723
-0.00444274630157
-0.000276380593966
-0.00429703595926
-0.000276325574326
-0.00415158066061
-0.000275904761204
-0.00400651502779
-0.000275115285613
-0.00386206752452
-0.000274003428758
-0.00371835183403
-0.000272566327347
-0.00357557216683
-0.000270849158466
-0.0034338217569
-0.000268849844529
-0.0032932801587
-0.000266612917192
-0.00315402002607
-0.00026413775241
-0.00301619532241
-0.000261468537737
-0.00287985758246
-0.000258606561693
-0.00274513399516
-0.000255595746742
-0.00261205426018
-0.000252439515697
-0.00248071756659
-0.000249181363905
-0.00235113115989
-0.000245826820703
-0.00222336526616
-0.000242418569828
-0.00209740437059
-0.00023896400953
-0.00197328918989
-0.000235504442934
-0.00185098164996
-0.000232048728554
-0.00173049303662
-0.000228636086797
-0.00161176354371
-0.000225276297495
-0.00149477578795
-0.00022200567079
-0.00137944979752
-0.000218834213683
-0.0012657411413
-0.000215794291149
-0.00115355213311
-0.000212895060171
-0.00104281399358
-0.000210163216079
-0.000933414946429
-0.000207604617221
-0.000825265751316
-0.000205235959277
-0.00071824369376
-0.000203052049924
-0.000612236463888
-0.000201045194458
-0.000507083915948
-0.000199172727971
-0.000402538323005
-0.000197355758282
-0.000297957991185
-0.000195442111687
-0.000191193711868
-0.000193191143238
-8.21288191538e-05
-0.000191402902827
-0.000185885030445
-0.000396788048748
0.00113914740755
-0.000837661797842
0.00126212009647
-0.00127668503551
0.00125746727493
-0.0017093444302
0.00123985591703
-0.00213351114722
0.00121611748687
-0.00254732258116
0.00118700552709
-0.00294907537478
0.00115301592786
-0.00333725770415
0.00111467608323
-0.00371054927601
0.00107254701481
-0.00406784222751
0.00102719673876
-0.00440822142674
0.000979191694053
-0.00473097548357
0.000929073222455
-0.00503556393181
0.00087735659418
-0.00532162447982
0.00082451205698
-0.00558893244799
0.00077097168351
-0.00583740907509
0.000717114425473
-0.00606707720069
0.000663279611163
-0.00627807397261
0.000609754294441
-0.00647060527161
0.000556791513386
-0.00664496460261
0.00050459800511
-0.00680148727368
0.000453355461994
-0.00694057597523
0.000403206996179
-0.0070626547561
0.000354280081565
-0.00716820095001
0.000306670770451
-0.00725769835113
0.000260467624376
-0.00733167474806
0.000215733200324
-0.00739065359108
0.00017252870795
-0.00743519629926
0.000130892752653
-0.00746585170915
9.0866815866e-05
-0.00748320244974
5.24714326976e-05
-0.0074878118531
1.57326404662e-05
-0.00748027392731
-1.93437424978e-05
-0.00746115738998
-5.27443431145e-05
-0.00743105881611
-8.44763900017e-05
-0.00739054386477
-0.000114538529758
-0.00734020338766
-0.000142950086665
-0.00728059203427
-0.000169720334966
-0.00721228728254
-0.000194879522886
-0.0071358256863
-0.000218446593601
-0.00705176457392
-0.000240461482511
-0.00696061618586
-0.000260951407016
-0.00686291187653
-0.000279964370539
-0.00675913452091
-0.000297534195787
-0.00664978497781
-0.000313715092478
-0.0065353130312
-0.000328545577737
-0.00641618584832
-0.00034208402721
-0.00629281783676
-0.000354371704799
-0.00616564075044
-0.000365469133963
-0.00603503272124
-0.000375418413725
-0.0059013896504
-0.000384280305777
-0.00576505378756
-0.000392096081148
-0.00562638597301
-0.000398925130787
-0.00548569400962
-0.000404806535958
-0.00534330532138
-0.000409797068621
-0.00519949547842
-0.000413932733992
-0.00505456077957
-0.00041726693905
-0.00490874716744
-0.00041983219509
-0.00476232226757
-0.000421678286752
-0.00461550505254
-0.000422834362864
-0.00446853683939
-0.000423346849164
-0.00432161195751
-0.000423242089413
-0.00417494726264
-0.000422563797042
-0.00402871419886
-0.000421336441823
-0.00388310638445
-0.000419601956635
-0.00373827337481
-0.000417384008921
-0.00359438595302
-0.000414723739963
-0.0034515720352
-0.000411645101001
-0.00330997930338
-0.000408189345979
-0.00316971361464
-0.000404381578015
-0.00303089868497
-0.000400263789843
-0.00289361747107
-0.000395862814886
-0.00275796860339
-0.00039122167304
-0.00262401111446
-0.000386369100921
-0.00249181736782
-0.000381349033202
-0.00236142157385
-0.000376191927085
-0.00223286893255
-0.000370942178732
-0.00210616827213
-0.000365631436037
-0.00198133715664
-0.000360303806306
-0.00185835901956
-0.000354991369037
-0.00173722395401
-0.000349736996763
-0.00161789061526
-0.00034457224865
-0.00150032243938
-0.00033953765533
-0.00138445460041
-0.000334663157703
-0.00127022536868
-0.000329985650911
-0.00115754827473
-0.000325532057479
-0.00104633825665
-0.000321333877357
-0.000936488861853
-0.000317412839515
-0.000827891938965
-0.000313792066222
-0.000720417641168
-0.000310484234379
-0.000613921656788
-0.000307499557939
-0.000508213144443
-0.000304838924594
-0.000403018188246
-0.000302509953661
-0.000297867048099
-0.000300554396957
-0.000191925978473
-0.000299091664431
-8.57394851366e-05
-0.000297549454298
-0.000271605988881
-0.000402984367401
0.00154208056047
-0.000849965967679
0.00170904650438
-0.0012950817312
0.00170252829331
-0.00173359018838
0.00167830933194
-0.00216322817224
0.00164570075469
-0.00258204046768
0.00160576293075
-0.0029882687005
0.00155918955796
-0.0033803660563
0.00150671867337
-0.00375700279248
0.00144912933937
-0.00411707298765
0.00138721235338
-0.00445968409171
0.0013217486549
-0.00478415150557
0.00125348632612
-0.00508997715886
0.00118312847905
-0.00537683813654
0.00111131910121
-0.00564456025731
0.00103864052028
-0.00589310615136
0.000965606888468
-0.00612254833837
0.000892669145834
-0.00633306030935
0.000820213485397
-0.00652489162786
0.000748570960433
-0.00669836366745
0.000678018081408
-0.00685384759016
0.000608788479711
-0.00699176496899
0.000541073412899
-0.00711256835725
0.000475033711331
-0.00721674617658
0.000410798824152
-0.00730480505267
0.000348478100873
-0.00737727802442
0.000288157811405
-0.00743470767668
0.000229911518904
-0.00747765673432
0.000173795067734
-0.00750669119617
0.000119856221929
-0.0075223926177
6.812795277e-05
-0.00752534076391
1.86377265727e-05
-0.00751612696516
-2.86003788184e-05
-0.00749533592691
-7.35762076097e-05
-0.00746356027375
-0.00011629258701
-0.0074213816313
-0.000156755558185
-0.0073693860217
-0.000194983731347
-0.00730814406508
-0.000230998013685
-0.00723822741438
-0.000264831486774
-0.00716018835261
-0.000296518522702
-0.00707457721209
-0.000326105014206
-0.00698192151259
-0.000353636914409
-0.00688274437319
-0.000379170787487
-0.00677754332559
-0.000402761826954
-0.00666680968137
-0.000424474729295
-0.00655100715228
-0.000444371294768
-0.00643059211361
-0.000462521617792
-0.00630599212682
-0.000478991359001
-0.00617762698728
-0.000493853256407
-0.006045887237
-0.000507174187066
-0.00591115586787
-0.000519026982406
-0.00577378688143
-0.000529477373758
-0.00563412747147
-0.000538596099324
-0.00549249668071
-0.000546445850405
-0.00534920787717
-0.000553093634061
-0.00520454753315
-0.00055859780598
-0.00505879777358
-0.000563020650557
-0.00491221530057
-0.000566415596117
-0.00476505379984
-0.000568839940912
-0.00461754302825
-0.00057034230566
-0.00446991085304
-0.000570975420838
-0.00432236253759
-0.000570783867717
-0.00417510222516
-0.000569816808033
-0.00402831248114
-0.000568116024633
-0.00388217505116
-0.000565728466293
-0.00373685075421
-0.000562694602268
-0.00359249940134
-0.000559060639688
-0.00344926017158
-0.000554867188858
-0.00330727060296
-0.000550161025212
-0.00316664761217
-0.000544984086236
-0.00302750551525
-0.000539384661441
-0.00288993787506
-0.00053340674921
-0.00275403451385
-0.000527100589341
-0.00261986437125
-0.000520512441133
-0.00248749148639
-0.000513694393449
-0.00235695904633
-0.000506694637177
-0.00222830429571
-0.000499566511833
-0.00210154392688
-0.000492359364651
-0.00197668786965
-0.00048512680074
-0.00185372615926
-0.000477918220096
-0.00173264153049
-0.000470786241469
-0.00161339785709
-0.000463779004403
-0.00149595145976
-0.000456946727952
-0.00138024118086
-0.000450334849845
-0.00126619826656
-0.000443989664288
-0.00115373802642
-0.000437952348031
-0.00104276801397
-0.000432263618444
-0.00093318092954
-0.000426958721317
-0.000824860199728
-0.000422071228745
-0.00071767260014
-0.000417629457068
-0.000611468562007
-0.000413660987174
-0.000506071451434
-0.000410194358189
-0.00040126939148
-0.000407270996006
-0.000296816260367
-0.000404965534835
-0.000192535327547
-0.000403332687902
-8.93894884057e-05
-0.000400655843938
-0.000360975077264
-0.000410972469481
0.00195300133984
-0.000866430406977
0.00216444980457
-0.00131979820003
0.00215584073378
-0.00176614107369
0.00212459706289
-0.00220306191437
0.00208256643278
-0.00262849929672
0.00203114519525
-0.0030406226681
0.00197125790275
-0.00343784245728
0.00190388344015
-0.00381881578162
0.00183004778753
-0.00418244610756
0.00175078782205
-0.00452787213164
0.00166712002609
-0.00485445378507
0.00158001337537
-0.00516175048554
0.00149037084003
-0.00544950082027
0.00139901519157
-0.00571759731979
0.00130668311534
-0.00596606608259
0.00121402189677
-0.0061950431379
0.00112159286642
-0.00640475778164
0.00102987501547
-0.00659551305617
0.000939273636571
-0.00676767421169
0.00085012693575
-0.00692165379716
0.000762716376433
-0.00705790504678
0.000677273361076
-0.00717691089044
0.000593988976741
-0.0072791812391
0.000513019072571
-0.0073652447031
0.000434492296507
-0.00743564851495
0.000358512935296
-0.00749095174859
0.000285167016391
-0.00753172676499
0.000214523027225
-0.00755855297085
0.000146636437596
-0.00757201901611
8.1548797515e-05
-0.00757271654411
1.92912456214e-05
-0.00756124255192
-4.01174845789e-05
-0.00753819303907
-9.66675232303e-05
-0.00750416557075
-0.000150360850142
-0.00745975255636
-0.000201207936595
-0.00740554416501
-0.000249230379089
-0.00734212128931
-0.000294457607179
-0.00727005881339
-0.000336929466723
-0.00718991854479
-0.000376692644643
-0.00710225291098
-0.000413803194559
-0.00700759796234
-0.000448322662787
-0.00690647756898
-0.000480320577074
-0.00679939661027
-0.000509870338361
-0.00668684570543
-0.000537051703722
-0.00656929463882
-0.000561946510555
-0.00644719762612
-0.000584641216539
-0.00632098702854
-0.000605222548542
-0.00619107911656
-0.000623780138101
-0.00605786806285
-0.000640402165864
-0.00592173214267
-0.000655178149068
-0.00578302800624
-0.00066819466786
-0.00564209722053
-0.000679538331516
-0.00549926076171
-0.00068929164757
-0.00535482578721
-0.000697536207973
-0.00520908030285
-0.000704348770095
-0.00506230002565
-0.000709804665291
-0.00491474313023
-0.000713974121875
-0.00476665706183
-0.000716925898596
-0.00461827329867
-0.000718723869848
-0.00446981397116
-0.000719430831178
-0.00432148655476
-0.000719105317316
-0.00417349018374
-0.000717805517711
-0.00402601025408
-0.000715586284281
-0.00387922434755
-0.000712503047634
-0.00373329673227
-0.000708608937921
-0.00358838386887
-0.0007039586034
-0.00344462887522
-0.000698605381033
-0.00330216661902
-0.000692604905315
-0.00316111822108
-0.000686012268677
-0.00302159578188
-0.000678885351303
-0.00288369705325
-0.000671281952959
-0.0027475098509
-0.000663262787355
-0.00261310700278
-0.00065488859005
-0.00248055050848
-0.00064622277117
-0.00234988688933
-0.000637328543029
-0.00222115112899
-0.000628271233335
-0.00209436250391
-0.000619115486478
-0.00196952832736
-0.000609927268607
-0.00184664033347
-0.00060077120905
-0.00172567820995
-0.00059171231691
-0.00160660655528
-0.000582813519203
-0.0014893781684
-0.000574137115814
-0.00137393157057
-0.000565742565609
-0.00126019396715
-0.000557687692689
-0.0011480792305
-0.000550026772241
-0.00103749036245
-0.000542811545318
-0.000928317719374
-0.000536089743058
-0.000820440475908
-0.000529906160519
-0.000713724874273
-0.000524302315402
-0.00060802444598
-0.000519318599123
-0.000503178513351
-0.000514996964059
-0.00039901891408
-0.000511388734172
-0.000295389930052
-0.000508555084188
-0.000192236819622
-0.000506443463392
-9.02862791601e-05
-0.000502564033615
-0.000451242032221
-0.000421129108472
0.00237407865256
-0.000887598323653
0.00263086316362
-0.00135162926709
0.00261981624525
-0.00180804714419
0.00258095928841
-0.00225429137978
0.00252875518138
-0.00268817268044
0.00246497098693
-0.003107771908
0.00239080167613
-0.00351145004444
0.00230750615679
-0.00389785199342
0.00221639437723
-0.00426590045042
0.00211878099271
-0.00461477998783
0.00201594437241
-0.00494391530269
0.00190909361766
-0.00525294447273
0.0017993450864
-0.00554169125777
0.001687707224
-0.00581013642178
0.0015750737398
-0.00605839158875
0.00146222276177
-0.00628667438214
0.00134982165182
-0.00649528781859
0.00123843475553
-0.00668460161129
0.00112853411534
-0.00685503810305
0.00102051051172
-0.0070070596794
0.000914685521582
-0.00714116043294
0.000811322172303
-0.00725785837264
0.000710635564006
-0.0073576912366
0.00061280117348
-0.00744121181016
0.000517962812591
-0.00750898622146
0.000426237979746
-0.00756159081616
0.000337723065034
-0.00759961158311
0.00025249604675
-0.00762364147612
0.000170619526594
-0.0076342801156
9.21415410141e-05
-0.0076321309817
1.70972803047e-05
-0.00761780076723
-5.44915077713e-05
-0.00759189659194
-0.000122614312209
-0.00755502515331
-0.000187273771727
-0.0075077893864
-0.000248483875256
-0.00745078787775
-0.000306270821389
-0.00738461129954
-0.000360671688577
-0.00730984198959
-0.000411734941559
-0.0072270504557
-0.000459518803169
-0.0071367952637
-0.000504091572829
-0.00703961975587
-0.000545529706967
-0.00693605235566
-0.000583917985986
-0.00682660359049
-0.000619347366021
-0.00671176687194
-0.00065191507171
-0.00659201588089
-0.000681722312676
-0.00646780584353
-0.000708874380954
-0.0063395712894
-0.000733478316515
-0.00620772780404
-0.000755643089831
-0.00607267015053
-0.00077547730586
-0.00593477445379
-0.000793089538825
-0.00579439664032
-0.000808586148396
-0.00565187497719
-0.000822071832534
-0.00550752876814
-0.00083364763371
-0.00536166114671
-0.000843411760466
-0.00521455793379
-0.000851457840456
-0.00506649055603
-0.000857876048767
-0.00491771495781
-0.000862751651297
-0.00476847450677
-0.000866166440891
-0.0046189988413
-0.000868197571187
-0.00446950662339
-0.000868919265746
-0.00432020422307
-0.000868401906957
-0.00417128820861
-0.000866713935698
-0.00402294379862
-0.000863921112776
-0.00387534701953
-0.000860088496897
-0.00372866291024
-0.000855279778086
-0.00358304733598
-0.000849559204387
-0.00343864498055
-0.000842990877488
-0.00329559085445
-0.000835640513026
-0.00315400815805
-0.000827574615314
-0.0030140095647
-0.000818861985821
-0.00287569506378
-0.000809572726344
-0.00273915311336
-0.000799779457463
-0.00260445857862
-0.000789556147732
-0.00247167384717
-0.000778979045833
-0.00234084696387
-0.00076812536732
-0.00221201277682
-0.000757073978857
-0.00208519134232
-0.0007459040014
-0.00196038914213
-0.000734695299237
-0.00183759780192
-0.000723527065491
-0.00171679538509
-0.000712478170657
-0.00159794543205
-0.000701625794371
-0.00148099830662
-0.000691045680809
-0.00136589052787
-0.000680810876067
-0.00125254610958
-0.000670991935379
-0.00114087610681
-0.000661655837485
-0.00103077985368
-0.000652866224057
-0.000922144652491
-0.000644682642627
-0.000814846858664
-0.000637161069261
-0.000708751817302
-0.000630353791472
-0.000603715443375
-0.000624311027817
-0.000499587281135
-0.000619082469012
-0.000396215799156
-0.000614718080888
-0.000293464676511
-0.000611262609798
-0.00019127336878
-0.000608593574744
-9.01837881117e-05
-0.000603612655758
-0.000541404447647
-0.00043371887398
0.00280774507577
-0.000913900616253
0.00311098961396
-0.00139118555221
0.00309704501183
-0.00186008255975
0.00304980039166
-0.00231782421732
0.00298644083049
-0.00276206363511
0.00290915445749
-0.00319077611772
0.00281945821726
-0.0036022684866
0.00271894259636
-0.00399517927207
0.00260924928194
-0.00436846564651
0.00249201151435
-0.00472137940139
0.00236880236678
-0.00505343609815
0.00224109462114
-0.00536437991387
0.00211023335242
-0.00565414794651
0.00197741983146
-0.00592283531943
0.00184370589589
-0.0061706636789
0.00170999610028
-0.00639795305384
0.00157705628854
-0.0066050985848
0.00144552583001
-0.00679255109014
0.00131593253379
-0.00696080231255
0.00118870802439
-0.00711037328879
0.00106420325085
-0.00724180642585
0.000942702545179
-0.00735565955158
0.000824436490944
-0.00745250250765
0.000709592524192
-0.00753291456734
0.000598323937687
-0.00759748336724
0.000490756555874
-0.00764680375316
0.000386994009867
-0.0076814774113
0.00028712109247
-0.00770211184052
0.000191206238701
-0.0077093197421
9.93026798759e-05
-0.007703717656
1.14494454152e-05
-0.00768592439292
-7.23294380125e-05
-0.00765655949536
-0.000152022744112
-0.00761624136772
-0.000227634227611
-0.00756558494369
-0.000299181381701
-0.00750519984753
-0.000366695676522
-0.00743568791907
-0.000430222022584
-0.00735764142037
-0.000489818405063
-0.00727164071097
-0.000545555016722
-0.00717825269551
-0.000597513541277
-0.00707802881481
-0.000645785981532
-0.00697150386719
-0.000690473669522
-0.00685919442491
-0.000731685890916
-0.00674159810144
-0.000769538724042
-0.00661919243881
-0.000804153569504
-0.00649243464345
-0.000835655928577
-0.00636176095696
-0.000864173947537
-0.00622758684602
-0.00088983723029
-0.00609030682762
-0.000912775489409
-0.00595029507036
-0.000933117484632
-0.00580790562718
-0.000950989870647
-0.00566347337787
-0.000966516341299
-0.00551731458323
-0.000979816751867
-0.0053697280699
-0.000991006548823
-0.00522099599828
-0.00100019623774
-0.00507138516089
-0.00100749115445
-0.00492114781981
-0.00101299131616
-0.00477052297259
-0.00101679155967
-0.00461973711334
-0.00101898177361
-0.00446900532101
-0.0010196473718
-0.00431853180212
-0.00101886984149
-0.00416851068656
-0.00101672746997
-0.00401912626048
-0.00101329609599
-0.00387055340537
-0.00100864995629
-0.00372295748116
-0.00100286248938
-0.00357649441224
-0.000996007155142
-0.00343131025739
-0.000988158142715
-0.00328754100633
-0.000979391022958
-0.00314531192143
-0.00096978323836
-0.00300473715488
-0.000959414494646
-0.00286591899002
-0.000948366967339
-0.00272894740321
-0.000936725389817
-0.0025938993303
-0.000924576967897
-0.00246083828922
-0.000912011182387
-0.00232981378542
-0.000899119456125
-0.00220086107835
-0.000885994725214
-0.00207400079796
-0.000872730930822
-0.00194923890348
-0.000859422437304
-0.00182656654984
-0.000846163431046
-0.00170596024838
-0.00083304726078
-0.00158738197806
-0.000820165816818
-0.00147077953269
-0.000807608865294
-0.00135608684062
-0.000795463472093
-0.00124322446201
-0.000783813396758
-0.00113210005481
-0.000772738628104
-0.0010226089989
-0.00076231492952
-0.000914635037934
-0.000752613594518
-0.000808051036435
-0.000743701277284
-0.000702720388223
-0.000735640283859
-0.000598498582446
-0.000728488645307
-0.000495235571388
-0.000722300563782
-0.00039278283666
-0.000717127510678
-0.000291001132634
-0.000713003939616
-0.000189795049788
-0.000709755609217
-8.96117024766e-05
-0.000703751797316
-0.000630996210381
-0.000449019554764
0.00325671205832
-0.000945874378689
0.0036077876506
-0.00143923938836
0.00359035373682
-0.00192322120079
0.00353372563801
-0.00239479048084
0.00345795368464
-0.00285140821421
0.00336571570709
-0.00329092666495
0.00325892018103
-0.00371159734906
0.00313955679112
-0.00411206489468
0.00300966032482
-0.0044913440374
0.00287123418921
-0.00484878411688
0.00272618599403
-0.00518402583711
0.00257627996981
-0.00549695489983
0.00242310611026
-0.00578765602192
0.00226806478712
-0.00605637021057
0.00211236405198
-0.00630345691155
0.00195702697917
-0.00652936205964
0.00180290583185
-0.00673459216317
0.00165070062211
-0.00691969422915
0.00150097960026
-0.00708524092093
0.00135420010383
-0.00723182019708
0.00121072833254
-0.00736002865279
0.00107085729417
-0.00747046766247
0.000934822323967
-0.00756374167349
0.000802813954191
-0.00764045778284
0.000674988115564
-0.00770122620062
0.000551473748832
-0.00774666084802
0.00043237820381
-0.00777738002171
0.000317790634403
-0.00779400651576
0.000207783998544
-0.0077971674356
0.00010241580722
-0.00778749369515
1.72894039566e-06
-0.00776561833068
-9.42505012628e-05
-0.00773217474298
-0.0001855108678
-0.00768779541131
-0.000272056913411
-0.00763310915192
-0.000353909709214
-0.00756873904512
-0.00043110655618
-0.00749529990928
-0.000503700522079
-0.00741339623373
-0.000571760039381
-0.00732361977678
-0.000635367904963
-0.00722654779478
-0.000694620442822
-0.00712274097427
-0.000749626079049
-0.00701274211492
-0.000800504195079
-0.00689707450835
-0.000847383415151
-0.00677624115233
-0.000890400294812
-0.00665072362576
-0.000929697463827
-0.00652098185522
-0.000965422283794
-0.00638745348482
-0.000997724970664
-0.00625055417654
-0.00102675733893
-0.0061106774475
-0.00105267101387
-0.00596819545862
-0.00107561636281
-0.00582345926274
-0.00109574089538
-0.00567680000739
-0.00111318847955
-0.0055285295116
-0.00112809803015
-0.00537894177382
-0.00114060310092
-0.00522831375463
-0.00115083095076
-0.0050769070416
-0.00115890258595
-0.00492496868462
-0.00116493226763
-0.00477273284114
-0.00116902803179
-0.00462042149101
-0.0011712916434
-0.00446824588242
-0.00117181955617
-0.0043164069697
-0.00117070324911
-0.00416509651321
-0.00116803051126
-0.00401449712964
-0.00116388602411
-0.00386478296271
-0.00115835279812
-0.00371611931211
-0.00115151282169
-0.00356866287557
-0.00114344844985
-0.00342256100239
-0.00113424293366
-0.00327795158628
-0.00112398158183
-0.00313496205865
-0.00111275202366
-0.00299370906837
-0.00110064502065
-0.00285429736649
-0.00108775438129
-0.00271681942842
-0.00107417737844
-0.00258135438415
-0.00106001431094
-0.0024479677241
-0.00104536855667
-0.00231671039837
-0.00103034583755
-0.00218761870677
-0.00101505399071
-0.00206071364675
-0.000999602030912
-0.00193600103909
-0.000984099742741
-0.0018134711577
-0.000968656642222
-0.00169309909795
-0.000953381488279
-0.00157484468308
-0.000938381235873
-0.00145865305164
-0.000923760547556
-0.00134445480764
-0.000909620817381
-0.00123216679141
-0.000896059748359
-0.00112169243751
-0.000883170521172
-0.0010129227196
-0.000871041500501
-0.000905736773873
-0.000859755631314
-0.000800003180842
-0.000849390362695
-0.000695581037406
-0.000840017195704
-0.000592321986284
-0.000831702036475
-0.000490073516233
-0.000824504940793
-0.000388680198268
-0.000818477152803
-0.000287988807422
-0.000813649706386
-0.00018788268271
-0.000809819115864
-8.87545832315e-05
-0.000802837538469
-0.000719728452361
-0.000467370800671
0.00372402946877
-0.000984201443178
0.00412456213748
-0.0014967803339
0.00410287546116
-0.00199870625712
0.00403559466733
-0.00248662447379
0.00394581484137
-0.00295776388053
0.00383679807121
-0.00340983765861
0.00371093686425
-0.00384104682321
0.00357070880753
-0.00425006398274
0.00341862032137
-0.0046359959815
0.00325710897866
-0.00499833181852
0.00308846464696
-0.00533688303529
0.00291477399547
-0.00565172207424
0.00273788803608
-0.00594312373799
0.00255940939254
-0.00621151241104
0.00238069581259
-0.00645741735833
0.00220287514849
-0.0066814362623
0.00202686818438
-0.00688420730214
0.00185341533966
-0.00706638858385
0.00168310487877
-0.00722864431235
0.00151640016396
-0.00737163614741
0.00135366491914
-0.0074960189453
0.00119518529326
-0.00760243946348
0.00104118857182
-0.00769153732333
0.000891858114352
-0.00776394710456
0.000747344838518
-0.00782030104449
0.000607775327257
-0.00786123158353
0.000473257140566
-0.0078873734699
0.000343881742429
-0.00789936506901
0.000219725698669
-0.00789784883563
0.000100850633987
-0.00788347068024
-1.2697148914e-05
-0.00785687960056
-0.000120888415714
-0.00781872532128
-0.000223710849867
-0.00776965637017
-0.000321170337309
-0.00771031772075
-0.000413291581424
-0.00764134817704
-0.000500117965852
-0.00756337785043