/*--------------------------------*- C++ -*----------------------------------*\
| =========                 |                                                 |
| \\      /  F ield         | OpenFOAM: The Open Source CFD Toolbox           |
|  \\    /   O peration     | Version:  v1906                                 |
|   \\  /    A nd           | Web:      www.OpenFOAM.com                      |
|    \\/     M anipulation  |                                                 |
\*---------------------------------------------------------------------------*/
FoamFile
{
    version     2.0;
    format      ascii;
    class       surfaceScalarField;
    location    "50";
    object      phi;
}
// * * * * * * * * * * * * * * * * * * * * * * * * * * * * * * * * * * * * * //

dimensions      [0 3 -1 0 0 0 0];
oriented        oriented;


internalField   nonuniform List<scalar> 
18240
(
-0.000276954554552
0.000275270246012
-0.000517960445087
0.000239029775394
-0.000769852913144
0.000250643813388
-0.00102349182502
0.000251490049083
-0.00127380321232
0.00024921935698
-0.00152098570108
0.000244863174367
-0.00176216108049
0.000240247301751
-0.00199899057154
0.000234342248148
-0.00222800375015
0.000228257853347
-0.00245178587046
0.000221133279533
-0.00266701346679
0.00021465769682
-0.00287646096768
0.000206642364139
-0.00307628540657
0.000199447086901
-0.0032703563926
0.000191112150004
-0.00345270275166
0.000182177734888
-0.00362856028178
0.0001727614283
-0.00379233544581
0.000163825125427
-0.00395015446233
0.000154611668568
-0.00409814741781
0.000148275708971
-0.00424233744368
0.000140892262702
-0.00437509666073
0.000133278808299
-0.00450175456776
0.000123307863237
-0.00461382180916
0.000112848474938
-0.00471979417466
0.000102606417838
-0.00481421974018
9.54774878382e-05
-0.00490578954763
8.82078052203e-05
-0.00498746420708
8.30031262398e-05
-0.00506520925645
7.44378099586e-05
-0.00512789264275
6.42793651918e-05
-0.0051828913461
5.18031873253e-05
-0.00522430666727
4.32798131662e-05
-0.00525516892019
2.78309537773e-05
-0.00526561876812
1.25673792401e-05
-0.0052706601092
2.23989549867e-06
-0.00525875271628
-9.57223729392e-06
-0.00523921600976
-2.20728233701e-05
-0.00520510401263
-3.15976113578e-05
-0.00516430728179
-4.30433629701e-05
-0.00510891665554
-5.27146913189e-05
-0.00504517009231
-6.5673707609e-05
-0.00496655753167
-7.58175281547e-05
-0.0048818671261
-8.62862263999e-05
-0.00478268361085
-9.62944271726e-05
-0.00467387537704
-0.00011005735329
-0.0045489079384
-0.000122010325392
-0.00441943941666
-0.000130361392943
-0.00427810273257
-0.000138337152587
-0.00412963224096
-0.000148978444195
-0.00396997224135
-0.00015667134351
-0.00380715099858
-0.000162932172061
-0.00363560988196
-0.000168624276233
-0.0034604874212
-0.000174844700769
-0.00327999836998
-0.000177696850819
-0.00310162442142
-0.000177755128633
-0.00292223443002
-0.00017676856944
-0.0027448662596
-0.000176461949633
-0.00256798270175
-0.000174467765617
-0.00239591622019
-0.000170942929818
-0.00222559472206
-0.000168134081539
-0.00205844410537
-0.000165882598473
-0.00189520844653
-0.000161277720749
-0.00173933676051
-0.00015454774406
-0.00159090239507
-0.000146712467305
-0.00145277546158
-0.000136822938582
-0.00132312548784
-0.000128152242672
-0.00119924588722
-0.000122645024825
-0.00108375372544
-0.000114193329566
-0.000980482504487
-0.000102124986365
-0.000889237451765
-9.01099158553e-05
-0.000805446715322
-8.27420084689e-05
-0.000725846157537
-7.86013480377e-05
-0.000651542656327
-7.33180815131e-05
-0.000586513309946
-6.41006508913e-05
-0.000531615475586
-5.39701280458e-05
-0.000483635750323
-4.71036310192e-05
-0.000441056281832
-4.16832589031e-05
-0.000405572504447
-3.46243295238e-05
-0.00037717751192
-2.75048123621e-05
-0.000353485853876
-2.28415843506e-05
-0.000332162870828
-2.0415095232e-05
-0.000312840782671
-1.84306681352e-05
-0.000297056907239
-1.48499402881e-05
-0.000285156138668
-1.09762679429e-05
-0.000275634105971
-8.53995315086e-06
-0.000265800443563
-8.83325999826e-06
-0.000254973045789
-9.79562340042e-06
-0.000245651238036
-8.27608341852e-06
-0.000241294280839
-3.12452024184e-06
-0.000234139350082
-5.7322737668e-06
-0.000217873205666
-1.44746999181e-05
-0.000195407203675
-2.04564304295e-05
-0.000166695853526
-2.64546302621e-05
-0.000129270291963
-3.50887763267e-05
-8.36207638158e-05
-4.32912410587e-05
-3.69084519235e-05
-4.44335218718e-05
-3.58042220294e-05
-0.000242802765775
0.00051652730258
-0.000535534430308
0.000529945031518
-0.000814653585949
0.000528138977822
-0.00108808517921
0.000523056657828
-0.00135680167084
0.000516342971465
-0.00162132146633
0.000507474094606
-0.00187965386263
0.000497023951083
-0.00213177606523
0.000484515300705
-0.00237631415456
0.000471287886352
-0.00261385529694
0.000456694029039
-0.00284286396552
0.000442213185027
-0.00306550244024
0.000427273662505
-0.00327945870582
0.000412012994997
-0.0034840771651
0.00039370464807
-0.00367868938919
0.000375470091709
-0.00386490748175
0.000356950352995
-0.00404137147113
0.000339059161841
-0.00421148089058
0.000322711214393
-0.00436976002007
0.000305432534378
-0.00451887956595
0.00028803976773
-0.00465995416298
0.000273365582483
-0.00479343772967
0.000254882271631
-0.00491607109943
0.000234645782398
-0.0050321600187
0.0002168765554
-0.00513615846088
0.000198801416076
-0.0052301709823
0.000180520064545
-0.00531285676339
0.000165194005348
-0.00538913352498
0.000149164291278
-0.00545836327036
0.000133226938364
-0.00552067063887
0.000112742086178
-0.00556658418579
8.91289720023e-05
-0.0056006589413
6.0758286798e-05
-0.00562276130005
3.48397410381e-05
-0.00563392711993
1.24999385881e-05
-0.00563117191254
-1.1907561475e-05
-0.00561664339709
-3.72570998445e-05
-0.00558836987265
-5.92042382346e-05
-0.00554900007278
-8.28153561418e-05
-0.00549330342232
-0.00010751811562
-0.00542722303464
-0.000131920903659
-0.00534589221159
-0.000156035915639
-0.00525086258931
-0.000181245406196
-0.0051431674999
-0.000202681633979
-0.00502927510033
-0.000223601377604
-0.00490180112063
-0.000248013238283
-0.00476299494322
-0.000268530239642
-0.00461306857733
-0.000286631488641
-0.00445160158033
-0.000309525513263
-0.00427871092292
-0.000327773506674
-0.00410249515238
-0.000337978551364
-0.00392109937513
-0.000348102781539
-0.00373910364007
-0.000355452677583
-0.00355320292036
-0.000361590562355
-0.00336224380362
-0.00036716060793
-0.003168928627
-0.000368047102383
-0.00297959780219
-0.000364132638054
-0.00279272052761
-0.00035933272302
-0.00260787835235
-0.000354072380532
-0.00242799540782
-0.000346082627621
-0.0022531765438
-0.00033898257112
-0.00208223611158
-0.000330390171268
-0.00191833330696
-0.000316786942494
-0.00176165768719
-0.000301712889883
-0.00160983078707
-0.000287095203956
-0.00146811841684
-0.000268361453862
-0.00134028877631
-0.000249047191458
-0.00122017148992
-0.000232949582698
-0.00110011660295
-0.000220879269833
-0.000981355998323
-0.000207658737321
-0.00087368087759
-0.00018927253668
-0.000780813931644
-0.000170375869309
-0.000700769404552
-0.000152288360178
-0.000634041734392
-0.000129783341613
-0.000578632929201
-0.00010837549492
-0.000528291033312
-9.64679753784e-05
-0.000481177579587
-8.78316372387e-05
-0.000437213863284
-7.76208485788e-05
-0.000397237757081
-6.65405860271e-05
-0.000364016992151
-5.51282600433e-05
-0.000337949009786
-4.55410246249e-05
-0.000318497152941
-3.69256056479e-05
-0.000301830979785
-3.0554374193e-05
-0.00028684569253
-2.50123855687e-05
-0.000273958646461
-2.04435297828e-05
-0.000261175311787
-2.06468417932e-05
-0.000247453557146
-2.25223859591e-05
-0.000238138636421
-1.65463520954e-05
-0.000232951846451
-7.14626624428e-06
-0.000229287743626
-8.06073526482e-06
-0.000223793702706
-1.8285493028e-05
-0.000207681459706
-3.4538805465e-05
-0.000180602522203
-5.13839723411e-05
-0.000147674032564
-6.56726578156e-05
-0.00010426611455
-8.40528681015e-05
-4.78109495457e-05
-9.84621808011e-05
-8.26279131915e-05
-0.000257925086912
0.000772849910381
-0.000541355364636
0.000811629939746
-0.000821368819681
0.000806427010903
-0.00109753611682
0.000797442854584
-0.00136937109554
0.000786457903264
-0.00163570778525
0.000772015746053
-0.00189562550686
0.000755231933503
-0.00214908171806
0.000736169280065
-0.00239546496025
0.000715976395281
-0.00263491928217
0.000694345000959
-0.00286581332378
0.0006714345346
-0.00308728664908
0.000646949040131
-0.00329908221247
0.000622164402146
-0.00350560050435
0.000598437995615
-0.00370488499962
0.000573146755184
-0.00389444066108
0.00054474467241
-0.00407441611424
0.000517482402738
-0.00424445812135
0.000491039838705
-0.00440461873884
0.000464119172355
-0.00455557634025
0.000437356904088
-0.00469430520709
0.000410716713668
-0.00482360419324
0.000382637720642
-0.00494808153822
0.000357861338295
-0.0050650379181
0.000332394837701
-0.00517476626815
0.000307402664644
-0.0052792404727
0.00028368930603
-0.00537368595485
0.000258678325035
-0.00545539616997
0.000229745070184
-0.0055227688484
0.000199835906756
-0.0055820844484
0.000171130477373
-0.00563108074638
0.000137584821394
-0.00567199153055
0.000100956810686
-0.00570105854353
6.36107546513e-05
-0.00571406132746
2.50348713428e-05
-0.00571239580384
-1.36201550323e-05
-0.00569564215225
-5.42158335592e-05
-0.00566306755011
-9.15881065087e-05
-0.0056183689875
-0.000127488815193
-0.00556133401006
-0.000164136656544
-0.0054905873273
-0.000202400927705
-0.00540688637043
-0.000239121637619
-0.00531754360294
-0.000270061509433
-0.00521838877748
-0.00030098809042
-0.00511012560418
-0.000331095925282
-0.00499378250152
-0.000363254294703
-0.00486268149961
-0.000398626272461
-0.00471600136539
-0.000431975158875
-0.00456706633311
-0.000457205891591
-0.00440574887779
-0.000487540048026
-0.00422570327346
-0.000516538488562
-0.00403673187732
-0.000535343107706
-0.00384018733383
-0.000550329930834
-0.00364038382322
-0.000559529628207
-0.00343891633841
-0.000566828317708
-0.0032358604499
-0.000569167341491
-0.00303191289156
-0.000566211924488
-0.00282948444631
-0.000559809824009
-0.00263306973015
-0.000548619392176
-0.00244515879705
-0.000532079768756
-0.00226529435012
-0.000517029115135
-0.002091360763
-0.000502497368982
-0.00192585397299
-0.000480582909167
-0.00177058873574
-0.00045529862475
-0.00162758053234
-0.000428538702885
-0.00149593178702
-0.000398476155623
-0.00137450654622
-0.000369034145664
-0.001261574828
-0.000344481651627
-0.00115832571759
-0.000322798151066
-0.00106584499514
-0.000298851762286
-0.000980934276817
-0.000272935689173
-0.000899711587468
-0.000250376710437
-0.00081623195624
-0.000234551796908
-0.000727307372083
-0.000217531434292
-0.000647003998713
-0.000187552316147
-0.000585648953115
-0.000156752344127
-0.000535264264565
-0.000137135802089
-0.000494044751865
-0.000117763654226
-0.000459271827217
-0.000100226161997
-0.000426293151253
-8.7021595937e-05
-0.000394147889597
-7.65942605049e-05
-0.000359603186352
-7.03813140431e-05
-0.000327061914998
-6.20420557919e-05
-0.000302393086769
-4.86239374923e-05
-0.00028282612293
-3.89918897931e-05
-0.000265710225522
-3.67613478657e-05
-0.000253240101776
-3.39721721606e-05
-0.00023950641714
-2.92005211681e-05
-0.000222210792912
-2.33106997694e-05
-0.000211233522865
-1.77623379902e-05
-0.000207628020879
-2.03516545155e-05
-0.000195245969113
-4.51308235381e-05
-0.000173606613332
-7.08480503615e-05
-0.00014385261266
-9.2939957381e-05
-0.000101487249949
-0.000124091639067
-4.98128287413e-05
-0.000147986388034
-0.000131323494314
-0.000264828609511
0.00103605581461
-0.000548754876327
0.00109379634471
-0.000830649327236
0.00108657638307
-0.00110967154196
0.00107469851852
-0.00138398683629
0.00105902394427
-0.00165261274667
0.00103887329698
-0.00191485191983
0.00101572329256
-0.00217099695942
0.000990545543874
-0.00241970487508
0.00096294208921
-0.00265972553774
0.000932602513055
-0.00289069996036
0.000900678945671
-0.00311286802904
0.000867365601062
-0.00332887682044
0.000836461582377
-0.00353666143368
0.000804486773331
-0.0037335455103
0.000768346411169
-0.0039222478211
0.000731742415871
-0.00410172615004
0.000695322874696
-0.0042718324828
0.000659494029039
-0.00443235670195
0.000623075617854
-0.00458430971912
0.00058773348683
-0.00472844151257
0.000553370256525
-0.0048654466241
0.000518156481531
-0.0049918996515
0.00048293426731
-0.00511077474251
0.000449889598597
-0.00522594321024
0.000421318223509
-0.00533168371562
0.00038819486386
-0.00542533421485
0.000351243652524
-0.00551061117284
0.000313969208428
-0.00558475225323
0.000273092314287
-0.0056425320306
0.000228064031162
-0.00568803910493
0.000182426038297
-0.00572154563455
0.00013385407882
-0.00574362261616
8.52597915246e-05
-0.0057561959001
3.72379965954e-05
-0.0057563996017
-1.3596360512e-05
-0.00574686497939
-6.38886424169e-05
-0.0057230099179
-0.0001153950294
-0.00568159639451
-0.000168799767643
-0.00563001683334
-0.000215448003442
-0.00558129294214
-0.000250785250243
-0.00552718938691
-0.000292696818536
-0.00545359902535
-0.000343064973694
-0.00535811919525
-0.000395672348069
-0.00523702556321
-0.00045132397542
-0.0050988474677
-0.000500397635717
-0.00495238813744
-0.000543968143193
-0.00479510238784
-0.000587973162629
-0.00462551591198
-0.000625437969738
-0.00445433481569
-0.000657200198434
-0.00427708443233
-0.00069222104126
-0.00408392776318
-0.000726794235022
-0.0038811283489
-0.000751383877186
-0.00367635384324
-0.000762452751789
-0.00346854739073
-0.000772767401992
-0.00325897461144
-0.000776796375685
-0.00304909488193
-0.000774150226405
-0.00283994421145
-0.000766984084272
-0.0026340743631
-0.000752534021917
-0.00243375641571
-0.000730473417808
-0.00224204565907
-0.000706859900396
-0.00206066858161
-0.00068208111042
-0.00189080146611
-0.000648709737998
-0.00173262021682
-0.000611847363457
-0.0015880810757
-0.000571490718717
-0.0014590169687
-0.000526036817354
-0.00134289986918
-0.000483696048692
-0.00123621308854
-0.000449780706689
-0.00113855462127
-0.000419112716193
-0.00105054074915
-0.000385557100971
-0.000968347456064
-0.000353867528287
-0.000887328779663
-0.00033015005715
-0.00081432798751
-0.000306302693941
-0.000753008850306
-0.000277601165548
-0.000688614239228
-0.000250743061132
-0.00062325232187
-0.000220946434675
-0.000569118056968
-0.000190103865507
-0.000526038275356
-0.000159675879345
-0.000492199844749
-0.000132908561602
-0.000457881621522
-0.000120190853053
-0.000425287015721
-0.000108023967864
-0.000398607086044
-9.59034070444e-05
-0.000374329032621
-8.51273000007e-05
-0.00034562379448
-7.61627674631e-05
-0.00031433797566
-6.91816373406e-05
-0.000285190221814
-6.48494702072e-05
-0.000260728958952
-5.73813671375e-05
-0.000237693726506
-5.10973813292e-05
-0.000221698916197
-3.81103500775e-05
-0.000205979164817
-3.22451619808e-05
-0.000185295583855
-3.96924740916e-05
-0.000179155702986
-4.96048414275e-05
-0.000160294316668
-8.76255757851e-05
-0.000121754343452
-0.000129343302102
-8.97294276705e-05
-0.000153876753769
-4.8416484004e-05
-0.000187073788796
-0.0001787527758
-0.000270602976517
0.0013050268216
-0.000558066406568
0.00137952653783
-0.000843867754035
0.00137061947521
-0.00112670553008
0.0013557784011
-0.00140413316127
0.00133469491646
-0.00167583736533
0.00130881714622
-0.0019416330477
0.00127976274337
-0.00220022721916
0.00124737802396
-0.00245019712738
0.00121115925474
-0.00269172403968
0.00117237235754
-0.00292421703846
0.00113142835745
-0.00314995223994
0.00109135324334
-0.00336719247425
0.00105196900307
-0.00357307848298
0.00100864091798
-0.00377010587274
0.000963666068977
-0.00395865036008
0.000918585144404
-0.0041379924146
0.000872997167983
-0.00430898646029
0.000828839744763
-0.00447298601445
0.000785473294506
-0.00462761250971
0.000740783419316
-0.00476948393039
0.000693719333983
-0.00490425487316
0.000651436196268
-0.00503566781932
0.000612917404726
-0.00516298412069
0.000575820474335
-0.00528007069367
0.000537103634434
-0.00538645180784
0.000493340584594
-0.00548195740924
0.000445618310163
-0.00556247382718
0.000393432668945
-0.00563173457981
0.000341418972403
-0.00569034471649
0.000285835406531
-0.005739235641
0.000230607345348
-0.00578244808212
0.000176462644553
-0.00581367239704
0.000116008844008
-0.00582895945192
5.21502697379e-05
-0.00582936627837
-1.34444285556e-05
-0.00581454550057
-7.88484173425e-05
-0.00579683923017
-0.000133123215902
-0.00578537488193
-0.000180172163179
-0.00576329566088
-0.000237285147606
-0.00570986745718
-0.000303861756642
-0.00562861028975
-0.000373453136872
-0.00553015106563
-0.000440892299735
-0.00542196929665
-0.000503078688798
-0.00530771492676
-0.000564687942493
-0.00517882043913
-0.000628245677403
-0.00503115412294
-0.000690482713389
-0.00486846210888
-0.000749374351218
-0.0046912908975
-0.000801202964265
-0.00450503714764
-0.000841937848394
-0.00431525044513
-0.000880399605115
-0.00412427548049
-0.000916070583983
-0.00392438215216
-0.000949495690248
-0.00371631603107
-0.000968662570925
-0.00350235677245
-0.000984806957313
-0.00328535285307
-0.000991820240018
-0.00306978798445
-0.000987696526191
-0.00286017385217
-0.000974560573352
-0.00265627004622
-0.000954423081758
-0.00244962323268
-0.000935161667299
-0.00225196663607
-0.000902659771606
-0.00207145412664
-0.000860763089703
-0.00190410973664
-0.00081433147724
-0.00175610329959
-0.000758165026327
-0.00162059606773
-0.000705378903133
-0.00149136263594
-0.000653699547887
-0.00137464901755
-0.000598916856667
-0.0012668208796
-0.000556182680354
-0.00116724807138
-0.000517289594015
-0.00107443013985
-0.000477035561917
-0.000988369109982
-0.000438618935596
-0.000912665884913
-0.000404547502393
-0.000838394339705
-0.000379245859553
-0.00076286224451
-0.000351835144031
-0.000698491467475
-0.000313858321777
-0.000637705678149
-0.000280484766087
-0.000577825132492
-0.00024874530898
-0.000520393270519
-0.000215874967507
-0.000476124633745
-0.000176012369014
-0.000441766208976
-0.000153379576206
-0.000411211992329
-0.00013741309164
-0.000384352666374
-0.000121568357423
-0.00036153615715
-0.000106740537956
-0.000340863459906
-9.56849356579e-05
-0.000318103655822
-9.08390714397e-05
-0.000301974397522
-7.98971357492e-05
-0.00028506972159
-7.31100695323e-05
-0.000268672013779
-6.6234062448e-05
-0.000236008139963
-6.95563438332e-05
-0.000197837270102
-6.92143418034e-05
-0.000169854663683
-6.63722030585e-05
-0.000150818614397
-6.72162629479e-05
-0.00014747703202
-8.91041439258e-05
-0.000123704767839
-0.000150700965347
-8.0539120486e-05
-0.000195054888743
-4.32935524372e-05
-0.000222467504325
-0.000221000538221
-0.0002765897054
0.00157998766601
-0.000569528339878
0.00167070921376
-0.000860548596646
0.00165989169079
-0.00114799401474
0.00164146735023
-0.001429992343
0.00161494047721
-0.00170646577254
0.00158353467329
-0.00197570140627
0.00154724148028
-0.00223650079537
0.0015064203193
-0.0024889400555
0.0014618428661
-0.00273251061972
0.00141418890675
-0.00296696423664
0.00136413075704
-0.00319416531064
0.00131680477154
-0.00341097891801
0.00126703935204
-0.00361786874652
0.00121379474251
-0.00381540725747
0.00115948026898
-0.00400490335877
0.00110637247166
-0.00418744136243
0.00105384941832
-0.00436096913318
0.00100070744718
-0.00452318690852
0.00094606672089
-0.00467551434438
0.000891518576236
-0.00482045818963
0.00083710956054
-0.00496042190671
0.000789884489428
-0.00509678256218
0.000747813204149
-0.00522674631343
0.000704378562542
-0.00534293624719
0.00065196184567
-0.00544491592437
0.000594067377632
-0.00553544776785
0.000534984886624
-0.00561620180372
0.000473113927672
-0.00568902564777
0.000413277409271
-0.00575749971396
0.000353449335518
-0.00581484050563
0.000287211262579
-0.00585438775602
0.000215381881509
-0.00588026834174
0.00014137557351
-0.00589834052261
6.98071034312e-05
-0.00591203575768
-4.01832589488e-08
-0.00592626999225
-6.4797103692e-05
-0.00593121720469
-0.000128217684984
-0.00590643410898
-0.000204868989178
-0.00585428321587
-0.000289212678092
-0.00578829077238
-0.000369496720894
-0.00571704586696
-0.000444198177593
-0.00562927528307
-0.000528032674804
-0.0055187471766
-0.000612826602362
-0.0053895219331
-0.00069300249347
-0.00524592060871
-0.000770803725121
-0.00509435015101
-0.000840882130273
-0.00493832955877
-0.000904092135979
-0.00476947892123
-0.000968628992014
-0.00458027382805
-0.00102960887783
-0.00438469929942
-0.00107434848509
-0.00418644470143
-0.00111261073051
-0.00398084511698
-0.00115328234427
-0.00376851759446
-0.00117908926466
-0.00355584471863
-0.00119548638048
-0.00334334854418
-0.00120226049047
-0.00312619691861
-0.00120276293803
-0.00290940011551
-0.00118928133495
-0.00269353086703
-0.00116830445824
-0.00248548903434
-0.00114129972566
-0.00228193523927
-0.00110432647401
-0.00210710156063
-0.00103377079846
-0.00195043953491
-0.000969186247363
-0.00179035627434
-0.000916498995917
-0.00165004963553
-0.000843984078337
-0.00150855729367
-0.000793577663399
-0.00136767009738
-0.000738281898397
-0.00123920628718
-0.00068319346044
-0.00113517306772
-0.000619918992463
-0.00104477947151
-0.000566078381921
-0.000962154826111
-0.000519922463313
-0.000884131585687
-0.00048123744876
-0.000815000316066
-0.000447036924092
-0.00075070976593
-0.000414790269436
-0.000691255994559
-0.000372006952143
-0.000640022223723
-0.000330410092587
-0.000591196432806
-0.000296237519099
-0.000543505670472
-0.000262252967555
-0.000501856812862
-0.000216416808027
-0.000466046014143
-0.000187966450503
-0.000435613610018
-0.000166588367379
-0.000411219983139
-0.000144686408968
-0.000377872696552
-0.000138839319743
-0.000346318489039
-0.000126083914289
-0.000318795090718
-0.000117225989877
-0.000292994946895
-0.000104549490368
-0.000270592417189
-9.42584799964e-05
-0.000250361434949
-8.52825934179e-05
-0.000230197578267
-8.8525064127e-05
-0.000208960493044
-8.92237400738e-05
-0.000177900006866
-9.61072984722e-05
-0.000142871947412
-0.000100760240073
-0.000122760510754
-0.000107573033648
-0.000118407183725
-0.000153254735368
-8.1688853152e-05
-0.000229683315314
-4.23236788369e-05
-0.000259867787778
-0.000262397231164
-0.000283485191808
0.00186184529987
-0.000583437225366
0.00196894016559
-0.00088116859976
0.00195587292572
-0.00117469764637
0.00193325122677
-0.00146295558116
0.001901449594
-0.00174423327208
0.00186306175115
-0.00201652829721
0.0018177846141
-0.00228099755578
0.00176913501179
-0.00253653062988
0.00171562249411
-0.00278258285681
0.00165848557
-0.00301994409699
0.00159973858825
-0.00324811103635
0.0015432157582
-0.0034645118956
0.00148168936587
-0.00367280703064
0.00142034360872
-0.00387368001892
0.00135861788957
-0.00406541893286
0.0012963880984
-0.00424590921787
0.00123263915381
-0.0044163673118
0.00116949118697
-0.0045780441659
0.001106097425
-0.00473060918113
0.00104246667648
-0.00488017551607
0.000985090182255
-0.00502693024625
0.000935092064546
-0.00516555011475
0.000884938050089
-0.0052903396283
0.00082773424706
-0.00540217608244
0.00076243884987
-0.00550490734789
0.000695514238652
-0.00559842051211
0.000627300076482
-0.00568856733502
0.000562158338521
-0.00577021512455
0.000493927035624
-0.00583571840713
0.000418067585332
-0.00588852336317
0.000339240484572
-0.00593033835084
0.000256530997474
-0.00596654261983
0.000177013948103
-0.00599595330382
9.87660697594e-05
-0.00602190749332
2.55793952804e-05
-0.00603954572593
-4.73539116974e-05
-0.00602989954516
-0.000137926013919
-0.00599660388292
-0.000238082498189
-0.00595532256993
-0.00033027952441
-0.00590033798104
-0.000424125370834
-0.00581868096319
-0.000525366832114
-0.00571807443882
-0.000627992647055
-0.00560484386563
-0.000725281233956
-0.00548681889463
-0.000810099399481
-0.00535363117407
-0.000902931405582
-0.00519663414436
-0.000996685601529
-0.00502283739767
-0.00107656250904
-0.00484960822404
-0.00114042567126
-0.00466605333628
-0.00121160897448
-0.00446376483863
-0.00127499139537
-0.00425903227524
-0.00131558829313
-0.0040481000779
-0.00136234562138
-0.00383723881444
-0.00138796459677
-0.00361564922611
-0.00141501375196
-0.00339404592465
-0.00142177596195
-0.00316583829122
-0.00142890313893
-0.00293379997619
-0.00141934280134
-0.00271770330195
-0.0013824988236
-0.00253672908969
-0.00132036006086
-0.00240973757713
-0.00122937224546
-0.00225173424062
-0.0011898315389
-0.0020996742469
-0.00111934332845
-0.00193061454108
-0.00108367929174
-0.00175190398295
-0.00102092611855
-0.00158080574083
-0.000962984350056
-0.0014359763091
-0.000881521186911
-0.00128846375529
-0.000829149482956
-0.00115241234126
-0.000754507027329
-0.00103695883411
-0.000680122393615
-0.000934200470132
-0.000621284649867
-0.000852682165434
-0.000561366879625
-0.000784032705075
-0.000514280946346
-0.000723890777975
-0.000473551791332
-0.000667838539285
-0.000426684878757
-0.000618356950276
-0.000378529213063
-0.000573626461146
-0.000339587627903
-0.000528138629439
-0.000306411213655
-0.000491485489494
-0.000251819923571
-0.000462732620216
-0.000215484424042
-0.000434608401828
-0.000193416085242
-0.000409203776569
-0.000168845779299
-0.000388831607867
-0.000157969951594
-0.000368651253241
-0.000145051603958
-0.000353370682469
-0.000131245495643
-0.000335817411846
-0.00012073987813
-0.000304796190091
-0.000123904940575
-0.000262524085774
-0.00012628153019
-0.000224688461917
-0.000125144940226
-0.000191567146787
-0.000121104464842
-0.000171083703164
-0.000115292618296
-0.000140243971313
-0.000130251559404
-0.000108693585337
-0.000137695696794
-0.000100972328086
-0.000159256341917
-8.05705746569e-05
-0.000248201446175
-4.1054246138e-05
-0.000297558684207
-0.000302395117291
-0.000291456228229
0.00215168701252
-0.000600155196168
0.00227589799685
-0.000906233492993
0.00226021955873
-0.00120650333087
0.00223178078569
-0.00150094695409
0.00219415472151
-0.00178718349969
0.0021475563737
-0.0020649749777
0.00209383007439
-0.00233437867131
0.00203678931464
-0.00259336540133
0.00197285611401
-0.00284161025703
0.0019049772498
-0.00308140971302
0.0018377783287
-0.00331049264027
0.00177053932102
-0.00353092179644
0.00170035729321
-0.00374185506521
0.00162952039296
-0.00394114339818
0.00155615697408
-0.00412984197651
0.0014833530381
-0.00430941527531
0.00141049723313
-0.00447985327807
0.00133823457434
-0.00464172111916
0.00126629399485
-0.00479691928528
0.00119601578752
-0.00495017265522
0.00113672578401
-0.00509855502708
0.00108189486085
-0.00523455359642
0.00101940886461
-0.00535620273596
0.000947918540751
-0.00546928238103
0.000874121990687
-0.00557418555094
0.000799096634755
-0.00567604657828
0.000727927120546
-0.00576898669937
0.000653959247421
-0.00584753680306
0.000571443892869
-0.00591539707388
0.000485000819315
-0.00597230540168
0.00039532577137
-0.00602527577807
0.000308782349867
-0.00607482625042
0.000225958479841
-0.00611703486113
0.000140480543654
-0.00614635644212
5.45497439243e-05
-0.00615067237927
-4.32534832879e-05
-0.00613294348431
-0.000155720437516
-0.00610895855207
-0.000261998124842
-0.00606833005902
-0.00037068756768
-0.00600443527019
-0.000487673578855
-0.00592441889476
-0.000604870444489
-0.00583504845187
-0.000716713321928
-0.00573045417756
-0.000829061685009
-0.00559828497318
-0.000941324695541
-0.0054513145333
-0.0010488163021
-0.00529787412571
-0.00114890330277
-0.00513024639981
-0.00124285425675
-0.00493995700819
-0.00132925465978
-0.00475033589129
-0.00139966934334
-0.00455030198637
-0.00147333730643
-0.0043390789384
-0.00152500506705
-0.00411923083589
-0.00158023438271
-0.00389586439752
-0.00160930119416
-0.00366707950584
-0.00164172227155
-0.00341963066807
-0.00166720168218
-0.00318652518294
-0.00166009740357
-0.00297237058329
-0.00163159353198
-0.00283612812382
-0.00151679969637
-0.00269216980133
-0.00146229616655
-0.0025257998214
-0.00139374246295
-0.00233828922875
-0.00137535363724
-0.0021420925996
-0.00131358731614
-0.00197227852939
-0.00125161553823
-0.00180787521107
-0.00118350385043
-0.00166017524283
-0.00110894843326
-0.00150693620075
-0.00103305296812
-0.00137186526043
-0.000962584032162
-0.00122382166872
-0.00090091654855
-0.0011100876922
-0.000792278936633
-0.00100785103742
-0.000721933255685
-0.000897381532428
-0.000670241823621
-0.000815233861207
-0.000594874163978
-0.00074454747171
-0.00054269748456
-0.000681560750814
-0.000488213829021
-0.000628301916814
-0.000430307888624
-0.000584235032018
-0.000382248405125
-0.000539557805764
-0.000349662499002
-0.000495102765633
-0.000295012103032
-0.000468268516893
-0.000240973903272
-0.00043578995521
-0.00022460614751
-0.000399224144527
-0.000204112955857
-0.000380433748833
-0.000175512936039
-0.000360697117203
-0.000163493303713
-0.00034501983966
-0.000145584292507
-0.00032314637265
-0.000141259230056
-0.000304668576557
-0.000141041655519
-0.000286612691178
-0.000142968940393
-0.000259850345221
-0.000150494851129
-0.00021802147682
-0.000161516938086
-0.000171460959314
-0.000160545717662
-0.000138167019971
-0.000162182665234
-0.000107444715242
-0.000167052329702
-8.56299769309e-05
-0.000179683950677
-8.25866503234e-05
-0.000249333968942
-4.08279207713e-05
-0.000337300643722
-0.000342308103143
-0.000301058306517
0.00245113746979
-0.000619989731721
0.00259313074999
-0.000935495090058
0.00257399588577
-0.00124433367886
0.00253889593561
-0.0015469539718
0.00249504445988
-0.00184065369696
0.00243952281015
-0.00212453579408
0.00237597338962
-0.00239839755155
0.00230890643803
-0.00266117762863
0.00223388770555
-0.00291330215751
0.00215534604931
-0.00315531858997
0.00207803424564
-0.00338600035361
0.00199945384034
-0.00360706842303
0.0019196577358
-0.00381572114494
0.00183640624274
-0.00401418365895
0.00175286128945
-0.0042026271632
0.0016700493556
-0.00438171738512
0.00158785433675
-0.00455164026926
0.0015064400092
-0.00471249943551
0.00142545237883
-0.00487047920831
0.00135231727571
-0.00502648916863
0.00129108212278
-0.00517299823599
0.00122679123088
-0.00530688158991
0.00115173083757
-0.00543006208106
0.00106959484224
-0.00554527219081
0.000987896679798
-0.00565822563099
0.000910685283721
-0.00576268935476
0.000831112886458
-0.00585256864729
0.000742652240396
-0.00593417202378
0.000651969874617
-0.00600621263187
0.000556056733986
-0.0060742242121
0.000462465052591
-0.00613919019099
0.000372980043053
-0.00619516762022
0.000281287746292
-0.00624162412287
0.000186423325334