/*--------------------------------*- C++ -*----------------------------------*\
| =========                 |                                                 |
| \\      /  F ield         | OpenFOAM: The Open Source CFD Toolbox           |
|  \\    /   O peration     | Version:  v1906                                 |
|   \\  /    A nd           | Web:      www.OpenFOAM.com                      |
|    \\/     M anipulation  |                                                 |
\*---------------------------------------------------------------------------*/
FoamFile
{
    version     2.0;
    format      ascii;
    class       surfaceScalarField;
    location    "123";
    object      phi;
}
// * * * * * * * * * * * * * * * * * * * * * * * * * * * * * * * * * * * * * //

dimensions      [0 3 -1 0 0 0 0];
oriented        oriented;


internalField   nonuniform List<scalar> 
18240
(
0.0119448543854
-0.0119448567796
0.0244857026517
-0.0125408516195
0.036977430851
-0.0124917304187
0.049330240149
-0.0123528128162
0.0614915012083
-0.0121612629727
0.0734144794751
-0.0119229819063
0.0850563542547
-0.0116418763842
0.0963779083066
-0.0113215577758
0.107343628295
-0.0109657212869
0.117921836626
-0.0105782121035
0.128084821328
-0.0101629856979
0.137808869209
-0.00972405167018
0.147074266986
-0.00926539848445
0.155865199424
-0.00879093621736
0.164169630962
-0.00830443196935
0.171979097709
-0.00780947049444
0.179288506008
-0.00730940847537
0.186095857966
-0.00680735565381
0.19240200577
-0.00630614774223
0.198210347833
-0.00580834569124
0.20352657193
-0.00531622381949
0.208358351308
-0.00483178292525
0.212715100967
-0.00435674918415
0.216607693944
-0.00389259643257
0.220048246127
-0.00344055153321
0.223049864507
-0.003001621735
0.225626468353
-0.00257660303764
0.227792574696
-0.00216610958997
0.229563158548
-0.00177058290807
0.230953477676
-0.00139032226239
0.231978975121
-0.00102549637726
0.232655155477
-0.000676183375111
0.23299757104
-0.000342414392209
0.233021965346
-2.4397205905e-05
0.232743444908
0.000278521701093
0.232176270158
0.000567171970813
0.231334658375
0.000841613122804
0.230232607381
0.00110204833869
0.228883789476
0.00134881931089
0.227301467156
0.00158231979114
0.225498489912
0.00180297870305
0.223487249959
0.00201123755051
0.221279698815
0.00220755264847
0.218887316434
0.00239238010767
0.216321136314
0.00256618165685
0.213591722173
0.00272941199619
0.210709197901
0.00288252583435
0.20768322932
0.00302596656531
0.204523056956
0.00316017394095
0.201237481331
0.00328557373769
0.197834897135
0.00340258578196
0.194323280954
0.00351161442155
0.190710225828
0.00361305671114
0.187002930645
0.00370729355032
0.183208234348
0.00379469787604
0.179332606471
0.00387562637036
0.175382180489
0.00395042754552
0.171362745162
0.004019433945
0.167279776678
0.00408297002875
0.163138430599
0.0041413448182
0.158943572602
0.00419485951522
0.154699770909
0.00424380055245
0.150411325503
0.0042884468926
0.146082261017
0.00432906346332
0.141716354367
0.00436590810055
0.137317128109
0.00439922535219
0.132887876483
0.00442925303582
0.128431659284
0.00445621640705
0.123951326336
0.00448033431311
0.119449511935
0.00450181372292
0.114928657793
0.00452085546076
0.110391008124
0.00453764910289
0.105838631108
0.00455237828238
0.101273414698
0.00456521595596
0.0966970866387
0.0045763292719
0.0921112110774
0.00458587521547
0.0875172071962
0.00459400503558
0.0829163466811
0.00460086027475
0.078309771023
0.00460657674942
0.073698489912
0.0046112809713
0.0690833972576
0.00461509367593
0.0644652705788
0.00461812663467
0.0598447858108
0.00462048571443
0.0552225177997
0.00462226805926
0.0505989540518
0.00462356461719
0.0459744966335
0.00462445756327
0.0413494754537
0.00462502197806
0.0367241529328
0.00462532277228
0.032098740056
0.00462541361151
0.0274734120703
0.00462532833529
0.0228483496784
0.00462506304247
0.0182238266757
0.0046245234243
0.0136004830841
0.00462334411811
0.00897998816522
0.00462049547348
0.00437520327017
0.00460478549641
0.00437520355175
0.0126155683373
-0.0245604278558
0.0260058130375
-0.0259310994286
0.0393018152044
-0.0257877353702
0.0524371801691
-0.0254881808687
0.0653636661178
-0.0250877515623
0.078034286112
-0.0245936049367
0.0904043628358
-0.0240119555911
0.102432477086
-0.0233496749892
0.11408097392
-0.0226142204323
0.125316247296
-0.0218134883492
0.136108910206
-0.02095565074
0.146433853617
-0.0200489978406
0.156270235648
-0.0191017824635
0.165601382963
-0.0181220861722
0.174414645881
-0.0171176966529
0.182701186461
-0.0160960135857
0.190455744115
-0.0150639677152
0.197676355026
-0.0140279689434
0.204364071014
-0.0129938651432
0.210522650157
-0.0119669270783
0.21615826449
-0.0109518393982
0.221279192838
-0.0099527133831
0.225895543169
-0.00897310060303
0.230018968654
-0.00801602389366
0.233662420791
-0.00708400460822
0.236839900649
-0.00617910343851
0.239566250713
-0.00530295389966
0.241856946045
-0.00445680664001
0.243727926435
-0.00364156396422
0.245195426007
-0.00285782342824
0.246275839061
-0.00210590997528
0.246985568804
-0.00138591459321
0.247340866793
-0.00069771281047
0.247357393787
-4.0925559183e-05
0.24705105663
0.000584858534446
0.24643812877
0.00118009858414
0.245534206145
0.00174553552345
0.244354322894
0.00228193045095
0.242913049743
0.00279009232899
0.241224490639
0.0032708778608
0.239302284545
0.00372518474846
0.237159585977
0.00415393518493
0.234809068327
0.004558070328
0.23226291061
0.00493853698718
0.229532807341
0.00529628502848
0.226629961742
0.00563225685187
0.223565100723
0.00594738702242
0.220348472781
0.00624259385385
0.216989866308
0.00651878064383
0.213498610632
0.00677682884644
0.209883596255
0.0070176004441
0.206153277875
0.00724193231697
0.202315695532
0.00745063939092
0.198378478774
0.00764450990327
0.194348867984
0.00782430904747
0.19023371912
0.0079907749048
0.186039524718
0.00814462237088
0.181772418824
0.00828653958062
0.177438197358
0.00841719195407
0.173042323
0.00853721898685
0.168589944711
0.00864723829441
0.164085902463
0.00874784267672
0.1595347458
0.00883960407292
0.154940738364
0.00892307083654
0.150307875469
0.00899877153785
0.145639888409
0.00906721240802
0.14094026106
0.00912888094599
0.136212234014
0.00918424350561
0.131458820228
0.00923374867852
0.126682809046
0.00927782501102
0.121886780955
0.0093168841449
0.117073111558
0.0093513186592
0.112243985487
0.00938150495908
0.107401400408
0.00940780124374
0.102547180157
0.00943055013838
0.0976829788343
0.0094500767937
0.092810293232
0.00946669125917
0.0879304670847
0.00948068672116
0.0830447028394
0.00949234161688
0.0781540661311
0.00950191801688
0.0732594969478
0.00950966347604
0.0683618143933
0.00951580955873
0.0634617273052
0.0095205734085
0.0585598393764
0.00952415638621
0.0536566593027
0.00952674528496
0.0487526063525
0.0095285109442
0.0438480200991
0.00952960882162
0.0389431663194
0.00953017702418
0.0340382453859
0.0095303351385
0.0291333945486
0.00953017968652
0.0242286800904
0.00952977805533
0.0193240443097
0.009529159707
0.0144190915223
0.00952829747085
0.00951273592946
0.00952685163443
0.00460768291903
0.00950983909881
0.00898288678323
0.0127557634618
-0.0373161941176
0.0262518156431
-0.0394271546133
0.0396671774219
-0.0392031000686
0.0529211210987
-0.0387421275015
0.065961555359
-0.0381281886345
0.0787398732101
-0.0373719256515
0.0912104590392
-0.0364825441082
0.103331217706
-0.0354704364094
0.115063995253
-0.0343470005297
0.126374856305
-0.0331243520272
0.137234246224
-0.0318150430583
0.147617045995
-0.0304318000997
0.157502542339
-0.0289872810499
0.166874316142
-0.0274938623185
0.175720071947
-0.025963454539
0.184031410715
-0.0244073545474
0.191803569133
-0.0228361280547
0.199035125822
-0.0212595276757
0.205727696632
-0.0196864377158
0.211885616421
-0.018124848762
0.217515627393
-0.0165818519788
0.222626568058
-0.0150636557977
0.227229080573
-0.0135756145768
0.231335327461
-0.0121222723895
0.23495873344
-0.0107074119037
0.238113740907
-0.00933411237627
0.240815593241
-0.0080048074128
0.243080132704
-0.00672134744301
0.244923625957
-0.00548505826745
0.24636260266
-0.00429680134531
0.247413719259
-0.00315702750109
0.248093633097
-0.00206582952598
0.248418902385
-0.00102298290825
0.248405959799
-2.79839522324e-05
0.248070924124
0.000919893512389
0.247429587847
0.00182143399238
0.24649742889
0.00267769388686
0.245289517042
0.00348984153513
0.243820480481
0.00425912839397
0.242104482428
0.00498687524786
0.240155209581
0.0056744571911
0.237985858608
0.00632328558529
0.235609133351
0.00693479526809
0.233037239423
0.00751043043199
0.230281888448
0.00805163576614
0.227354298843
0.00855984605768
0.224265205075
0.00903648063083
0.221024862723
0.00948293588672
0.217643061051
0.00990058222601
0.214129130826
0.0102907588281
0.210491958853
0.0106547723953
0.206739997424
0.0109938935735
0.202881279852
0.0113093570031
0.198923430731
0.0116023589192
0.194873681777
0.0118740580994
0.190738882348
0.0121255742922
0.186525515122
0.0123579897484
0.18223970651
0.0125723482094
0.177887241879
0.0127696567864
0.173473575626
0.0129508853115
0.169003845775
0.0131169683917
0.164482883597
0.0132688049783
0.159915227487
0.0134072604704
0.155305132091
0.013533166403
0.150656581441
0.0136473225128
0.145973297588
0.0137504964768
0.141258753012
0.0138434258811
0.136516178807
0.0139268179676
0.131748576408
0.0140013514691
0.126958725377
0.014067676339
0.122149194512
0.0141264154309
0.117322349304
0.0141781642005
0.112480362491
0.0142234922202
0.107625221253
0.0142629428507
0.102758737277
0.0142970345878
0.0978825537631
0.0143262607087
0.0929981550619
0.0143510904539
0.0881068735586
0.014371968654
0.0832098989339
0.0143893167516
0.0783082849863
0.0144035324166
0.0734029585737
0.0144149904089
0.0684947264181
0.0144240421831
0.0635842837683
0.0144310165834
0.0586722212182
0.0144362194179
0.0537590330897
0.0144399339426
0.0488451241989
0.0144424203335
0.0439308177251
0.0144439158365
0.039016361294
0.0144446339815
0.0341019327172
0.0144447642732
0.0291876415004
0.0144444714465
0.0242735235112
0.014443896606
0.0193595199833
0.0144431637536
0.0144454339469
0.0144423840155
0.00953115106401
0.014441135126
0.00462405167155
0.0144169391192
0.0136069387379
0.0129136019921
-0.0502297989346
0.0265633985837
-0.0530769542046
0.040132358703
-0.052772063134
0.053535489034
-0.0521452607571
0.0667180618744
-0.0513107643224
0.0796296037308
-0.0502834703277
0.09222312098
-0.0490760640889
0.104455494452
-0.0477028125818
0.11628784806
-0.0461793567373
0.12768580495
-0.0445223114833
0.138619629896
-0.0427488704596
0.149064263752
-0.0408764363779
0.158999264982
-0.0389222845824
0.168408669027
-0.036903268634
0.177280783168
-0.0348355708272
0.185607928048
-0.0327345015444
0.193386143135
-0.0306143451329
0.200614865383
-0.0284882518863
0.207296596056
-0.0263681702252
0.213436561795
-0.0242648163124
0.219042381737
-0.0221876736057
0.224123743338
-0.0201450190612
0.228692095666
-0.0181439684431
0.232760359776
-0.0161905380199
0.236342662462
-0.0142897159867
0.239454090685
-0.0124455419808
0.242110471199
-0.0106611891893
0.244328171116
-0.00893904860919
0.246123922764
-0.00728081104785
0.2475146677
-0.00568754740485
0.248517422774
-0.00415978358493
0.249149163628
-0.00269757138356
0.249426728674
-0.00130054884538
0.249366781222
3.19626123937e-05
0.248985632395
0.00130104156284
0.248299221903
0.00250784370965
0.247323125731
0.00365378938801
0.246072499396
0.00474046719781
0.244562041144
0.00576958607418
0.242805968742
0.00674294707527
0.240818006253
0.00766241920105
0.238611374486
0.0085299168698
0.236198787908
0.009347381455
0.233592453393
0.0101167645508
0.230804073998
0.0108400148528
0.227844853453
0.0115190662888
0.224725504638
0.0121558292157
0.221456257922
0.0127521823653
0.21804687265
0.0133099673413
0.214506647877
0.0138309834374
0.210844435607
0.0143169845779
0.207068652855
0.0147696762288
0.203187295729
0.0151907141069
0.199207952038
0.0155817025776
0.195137815605
0.0159441945705
0.190983698905
0.0162796910199
0.18675204717
0.0165896415774
0.182448950737
0.0168754447256
0.17808015868
0.0171384489895
0.173651090667
0.0173799534604
0.169166849973
0.0176012092792
0.164632234753
0.0178034203811
0.160051750371
0.0179877450903
0.155429620051
0.0181552969511
0.150769796519
0.0183071463225
0.146075972058
0.0184443212064
0.141351589487
0.0185678087682
0.136599851658
0.0186785561037
0.131823731838
0.0187774716402
0.12702598271
0.0188654258102
0.122209146217
0.0189432523072
0.117375562144
0.0190117486501
0.112527377495
0.0190716772841
0.107666554721
0.0191237660328
0.102794880707
0.0191687090439
0.0979139747187
0.0192071671335
0.0930252970562
0.0192397685832
0.0881301567852
0.0192671093861
0.0832297201191
0.0192897539043
0.0783250179882
0.0193082350276
0.0734169541975
0.0193230546998
0.0685063128754
0.0193346839983
0.0635937664336
0.0193435635337
0.0586798829052
0.0193501034485
0.0537651336736
0.0193546836905
0.0488499005905
0.0193576539319
0.0439344832263
0.0193593337336
0.0390191052422
0.0193600125033
0.0341039201591
0.0193599499122
0.0291890152861
0.0193593768795
0.0242744137508
0.0193584986732
0.0193600760028
0.0193575020258
0.0144459154758
0.0193565451182
0.009532097017
0.0193549541519
0.00462666396733
0.0193223727571
0.0182336030224
0.0131210171393
-0.0633508188933
0.0269842995675
-0.0669402396038
0.0407626187901
-0.0665503853132
0.0543676504247
-0.0657502953026
0.0677420392472
-0.0646851560002
0.0808330722297
-0.0633745061144
0.0935919446795
-0.0618349392777
0.105974151214
-0.060085021798
0.117939840405
-0.0581450485369
0.129454052807
-0.0560365264295
0.140486837192
-0.0537816573087
0.151013251886
-0.0514028534692
0.161013265312
-0.0489223003224
0.170471570882
-0.046361576448
0.17937733414
-0.0437413362443
0.187723888083
-0.0410810575767
0.195508393424
-0.0383988524765
0.202731477077
-0.0357113374741
0.209396862206
-0.033033557203
0.215510999066
-0.0303789549551
0.221082705953
-0.027759382191
0.226122825451
-0.0251851401941
0.230643901651
-0.0226650461954
0.234659880267
-0.0202065181271
0.238185834535
-0.0178156716658
0.241237716498
-0.015497425298
0.24383213472
-0.0132556086874
0.245986156568
-0.0110930716792
0.247717135078
-0.00901179070531
0.249042557796
-0.00701297121945
0.249979917282
-0.00509714409406
0.250546600864
-0.00326425594156
0.250759798033
-0.00151374691997
0.250636427514
0.000155332272773
0.250193046386
0.00174442190251
0.249445821995
0.00325506735381
0.248410491927
0.00468911877432
0.247102334501
0.00604862398028
0.245536141102
0.00733577889118
0.24372619776
0.00855288987028
0.241686274484
0.00970234198786
0.239429619382
0.0107865715159
0.236968957664
0.0118080427717
0.234316493612
0.0127692282328
0.231483915973
0.013672592173
0.228482405148
0.0145205768243
0.225322642778
0.0153155913456
0.222014822274
0.0160600026565
0.218568660991
0.0167561284577
0.214993412723
0.0174062315631
0.211297881295
0.0180125159087
0.20749043402
0.0185771234302
0.20357901588
0.0191021322142
0.199571163281
0.0195895551646
0.195474018232
0.0200413396483
0.191294341925
0.0204593673737
0.18703852858
0.0208454550073
0.182712618556
0.0212013548518
0.178322311625
0.0215287560574
0.173872979471
0.0218292857664
0.169369678281
0.0221045106544
0.164817160554
0.0223559383077
0.160219886976
0.0225850188983
0.155582037536
0.0227931466337
0.150907522697
0.0229816614324
0.14619999385
0.023151850336
0.141462853829
0.0233049490974
0.136699266766
0.0234421434874
0.131912168007
0.0235645707426
0.127104273446
0.0236733207263
0.122278088923
0.0237694372083
0.117435919097
0.0238539188636
0.112579876417
0.0239277203728
0.107711889612
0.0239917532561
0.102833712296
0.0240468867971
0.0979469311566
0.0240939487184
0.0930529742619
0.0241337259402
0.0881531190065
0.0241669651107
0.0832485001841
0.0241943732095
0.0783401177431
0.0242166179559
0.0734288446673
0.0242343282728
0.0685154345857
0.0242480945791
0.063600529484
0.0242584691415
0.0586846671688
0.024265966271
0.0537682887895
0.0242710625844
0.0488517460851
0.0242741971561
0.0439353085671
0.0242757717829
0.039019170323
0.0242761512913
0.0341034565774
0.0242756642099
0.029188229966
0.0242746040432
0.0242734974374
0.0242732317673
0.0193592205538
0.0242717794361
0.0144453423568
0.0242704238153
0.00953206205248
0.0242682350712
0.00462740588088
0.0242270295629
0.0228610091826
0.0133834910245
-0.0767343127483
0.0275208572557
-0.0810776088277
0.0415671429713
-0.0805966739806
0.0554298740609
-0.0796130293022
0.0690485476689
-0.0783038324606
0.0823677160202
-0.0766936772646
0.0953363164258
-0.0748035424187
0.107908104393
-0.0726568124393
0.120042016583
-0.0702789633301
0.131702394046
-0.0676969064283
0.142859065705
-0.0649383314263
0.153487303545
-0.062031093697
0.163567667018
-0.0590026661012
0.173085756371
-0.0558796680344
0.182031895939
-0.0526874779627
0.190400767161
-0.049449930877
0.198191010009
-0.0461890973189
0.205404808546
-0.0429251379337
0.212047474438
-0.0396762249358
0.218127038855
-0.0364585211426
0.223653861399
-0.0332862064262
0.228640261676
-0.0301715420923
0.23310017785
-0.0271249639155
0.237048854163
-0.0241551959189
0.240502558718
-0.0212693776261
0.243478331128
-0.0184731990495
0.245993759509
-0.0157710383398
0.248066785068
-0.0131660984478
0.249715532846
-0.0106605396261
0.250958166338
-0.00825560579647
0.251812764219
-0.00595174299459
0.252297216821
-0.00374870950647
0.252429138099
-0.00164566909952
0.252225777599
0.00035869192848
0.251703999789
0.00226619892855
0.250880222022
0.0040788443884
0.249770377769
0.00579896235092
0.24838989487
0.00742910625021
0.246753676202
0.00897199698154
0.244876087305
0.010430478234
0.242770950158
0.0118074786502
0.240451541551
0.0131059796803
0.237930595484
0.0143289884411
0.235220308546
0.015479514813
0.232332347952
0.0165605524525
0.229277861421
0.0175750630775
0.226067488753
0.0185259637766
0.222711374428
0.0194161167793
0.219219181216
0.0202483215057
0.215600104235
0.0210253084126
0.21186288553
0.0217497345187
0.208015828699
0.0224241801965
0.204066813711
0.0230511471713
0.200023311497
0.0236330573763
0.195892398532
0.0241722526431
0.191680771004
0.0246709949574
0.187394758845
0.0251314672521
0.183040339273
0.0255557745335
0.178623150104
0.0259459453637
0.174148502546
0.0263039334841
0.169621393729
0.0266316196569
0.165046518716
0.0269308135268
0.160428282249
0.027203255595
0.155770809998
0.0274506191335
0.151077959562
0.0276745121393
0.146353331009
0.0278764791771
0.1416002772
0.0280580032148
0.136821913696
0.028220507317
0.132021128478
0.0283653563041
0.127200591311
0.0284938582534
0.122362762945
0.0286072659513
0.117509904015
0.0287067781857
0.112644083813
0.0287935409823
0.107767188805
0.0288686486868
0.102880931051
0.028933144988
0.0979868564101
0.0289880238081
0.0930863526868
0.0290342301254
0.0881806575901
0.0290726606795
0.0832708666555
0.0291041646263
0.0783579410224
0.0291295440788
0.0734427151801
0.0291495546117
0.0685259045932
0.0291649056673
0.0636081133041
0.0291762609362
0.0586898414226
0.0291842386617
0.0537714925809
0.0291894119403
0.0488533812676
0.0291923089906
0.0439357401048
0.0291934134779
0.0390187270179
0.0291931649205
0.0341024324604
0.0291919593239
0.0291868869319
0.0291901501366
0.0242720695862
0.0291880496406
0.0193579198276
0.0291859297211
0.0144443605786
0.0291839836521
0.00953154738746
0.0291810488242
0.00462739769201
0.0291311798407
0.0274884071956
0.0137055543506
-0.0904398699206
0.0281803483806
-0.0955524058257
0.0425562977746
-0.0949726263334
0.0567355561583
-0.0937922905915
0.0706536908368
-0.0922219699928
0.0842518923431
-0.0902918815652
0.0974763394291
-0.0880279922385
0.11027868353
-0.085459159207
0.122616425962
-0.0826167083626
0.134453122804
-0.0795336057956
0.145758424276
-0.0762436353522
0.156507967044
-0.0727806388399
0.166683143094
-0.0691778444507
0.176270771081
-0.0654672982409
0.185262696126
-0.0616794051503
0.193655342287
-0.0578425791012
0.201449239304
-0.053982996322
0.208648541744
-0.0501244422815
0.215260555269
-0.0462882402922
0.221295281174
-0.0424932488027
0.226764987376
-0.03875591431
0.231683811117
-0.0350903674403
0.236067396583
-0.0315085509181
0.23993256864
-0.0280203694416
0.243297042637
-0.0246338530199
0.246179169075
-0.0213553268163
0.248597711368
-0.0181895818951
0.250571654315
-0.0151400425922
0.252120040826
-0.0122089272718
0.253261834189
-0.00939740023243
0.25401580333
-0.00670571314739
0.254400428315
-0.00413333544328
0.254433820958
-0.00167906263417
0.254133612343
0.000658899710806
0.253517031166
0.00288277933137
0.252600774539
0.00499510029473
0.251400995493
0.00699874073032
0.249933289909
0.00889681121643
0.248212684422
0.0106926018997
0.246253630576
0.0123895315586
0.244070004125
0.0139911046243
0.241675108382
0.015500874991
0.239081680891
0.0169224155426
0.236301902698
0.0182592926583
0.233347409695
0.0195150451477
0.2302293055
0.020693167004
0.226958175523
0.0217970935225
0.223544101831
0.0228301902778
0.219996678578
0.0237957446004
0.216325027729
0.0246969591373
0.212537814934
0.0255369472246
0.208643265339
0.0263187297336
0.204649179292
0.0270452331919
0.200562947762
0.0277192889097
0.196391567479
0.0283436329606
0.192141655662
0.0289209068349
0.187819464387
0.0294536586163
0.183430894469
0.029944344567
0.17898150894
0.0303953310331
0.174476546045
0.0308088965439
0.169920931811
0.031187234079
0.165319292156
0.031532453392
0.160675964594
0.0318465833893
0.155995009506
0.0321315744738
0.151280221051
0.0323893008671
0.14653513768
0.0326215628388
0.14176305234
0.0328300888655
0.136967022322
0.0330165376624
0.132149878854
0.0331825001184
0.127314236383
0.0333295010861
0.122462501648
0.0334590010644
0.117596882502
0.0335723977259
0.112719396544
0.0336710273494
0.107831879567
0.0337561660876
0.102935993848
0.0338290311448
0.0980332362916
0.0338907818148
0.0931249464554
0.0339425204244
0.0882123144516
0.0339852931564
0.0832963887712
0.0340200907897
0.0783780840055
0.0340478493351
0.0734581885118
0.0340694506026
0.0685373719987
0.0340857226823
0.0636161930673
0.0340974403736
0.0586951066859
0.0341053255525
0.0537744716283
0.0341100475127
0.0488545578579
0.0341122232823
0.0439355539032
0.0341124179641
0.0390175742514
0.0341111451181
0.0341006668911
0.0341088672359
0.029184821247
0.0341059963321
0.0242699769547
0.0341028945038
0.0193560342031
0.0340998730009
0.0144428724545
0.0340971458905
0.00953058665751
0.034093335241
0.00462700222792
0.0340347649092
0.0321154096983
0.0140919376293
-0.104531810389
0.0289718003431
-0.11043227154
0.0437432293403
-0.109744058287
0.0583016378814
-0.108350702044
0.0725777299613
-0.106498064925
0.0865085986098
-0.104222753009
0.100037105031
-0.10155650139
0.113112415211
-0.0985344720525
0.12569038839
-0.095194684134
0.137733752512
-0.091576972439
0.149212081414
-0.0877219666968
0.160101601175
-0.0836701609687
0.170384858251
-0.079461103813
0.180050283346
-0.0751327255467
0.18909168386
-0.0707208077923
0.197507694446
-0.0662585917398
0.205301211076
-0.0617765149222
0.212478829059
-0.0573020621608
0.21905030088
-0.0528597139291
0.225028025129
-0.0484709747948
0.230426574126
-0.0441544649728
0.235262264496
-0.0399260594055
0.23955277251
-0.0357990604541
0.243316793981
-0.0317843923651
0.246573747192
-0.0278908076136
0.249343516303
-0.0241250972442
0.251646232169
-0.0204922990107
0.253502087139
-0.0169958987482
0.254931180407
-0.0136380216627
0.255953390514
-0.0104196114016
0.256588271925
-0.00734059555823
0.256854972508
-0.00440003696633
0.256772168209
-0.00159625921505
0.256357911296
0.00107315580271
0.255629841751
0.00361084811441
0.254604960488
0.00601998084969
0.253299657185
0.00830404337851
0.251729707135
0.0104667606603
0.249910266577
0.0125120419001
0.247855873979
0.0144439236454
0.245580455732
0.0162665224051
0.243097335182
0.0179839951192
0.240419244308
0.0196005060358
0.237558337415
0.0211201992123
0.234526206314
0.0225471759497
0.231333896561
0.0238854764973
0.227991924403
0.0251390654576
0.224510294136
0.0263118203585
0.220898515643
0.0274075229415
0.217165621921
0.0284298527426
0.213320186446
0.0293823826157
0.209370340261
0.0302685758678
0.205323788694
0.0310917847381
0.201187827643
0.0318552499696
0.196969359373
0.0325621012698
0.192674907802
0.0332153584724
0.18831063326
0.0338179332515
0.183882346699
0.0343726312475
0.179395523377
0.0348821544993
0.174855316009
0.0353491040806
0.170266567413
0.0357759828665
0.165633822659
0.03616519836
0.160961340756
0.0365190655272
0.156253105891
0.0368398095944
0.151512838258
0.0371295687748
0.146744004496
0.0373903968951
0.141949827771
0.0376242659029
0.137133297525
0.0378330682387
0.132297178927
0.0380186190635
0.127444022049
0.0381826583281
0.122576170789
0.0383268527044
0.117695771571
0.0384527973391
0.112804781859
0.0385620174718
0.107904978475
0.0386559698975
0.102997965771
0.0387360442865
0.0980851836697
0.0388035643682
0.0931679155716
0.0388597889857
0.0882472961734
0.0389059130288
0.0833243191904
0.0389430682559
0.0783998450048
0.0389723240119
0.0734746082511
0.0389946878537
0.0685492253445
0.0390111060913
0.0636242019656
0.0390224642586
0.0586999405054
0.0390295875226
0.0537767474865
0.0390332410459
0.0488548409656
0.039034130325
0.0439343579558
0.0390329015061
0.0390153619056
0.0390301417105
0.0340978503338
0.0390263793647
0.0291817627395
0.0390220844929
0.0242669889429
0.039017668823
0.0193533782624
0.0390134842071
0.0144407552768
0.0390097694741
0.00952915083352
0.0390049402397
0.00462631461703
0.0389376017009
0.0367417246393
0.0145482052169
-0.11908001844
0.0299063261089
-0.125790395411
0.0451442609732
-0.124981996122
0.0601491442382
-0.123355588222
0.0748457402376
-0.121194663783
0.0891662020153
-0.118543217581
0.103049454653
-0.115439756759
0.116441784262
-0.111926804322
0.129297228714
-0.108050131177
0.141577704566
-0.103857450803
0.153252895033
-0.0993971596016
0.164299938751
-0.094717207042
0.174702963907
-0.0898641312475
0.18445251252
-0.0848822763542
0.193544896307
-0.0798131936975
0.201981520286
-0.0746952177537
0.20976820366
-0.0695632002545
0.216914520944
-0.0644483813228
0.223433179857
-0.0593783746448
0.229339447
-0.0543772436624
0.234650627621
-0.0494656472454
0.239385602121
-0.0446610354835
0.243564419127
-0.0399778789684
0.247207942994
-0.0354279176688
0.250337552256
-0.0310204182448
0.252974884778
-0.0267624310673
0.255141624957
-0.0226590404264
0.256859328262
-0.018713603224
0.258149278536
-0.0149279730466
0.259032373854
-0.0113027077687
0.259529037467
-0.00783726015872
0.259659150166
-0.00453015059204
0.259442011322
-0.0013791212374
0.258896128913
0.0016190374049
0.258039583543
0.00446739273555
0.256889693868
0.00716986983078
0.255463096021
0.00973064058235
0.253775748695
0.0121541073936
0.251842936538
0.0144448535113
0.24967927952
0.0166075801632
0.247298745843
0.0186470556275
0.244714667387
0.0205680731636
0.241939757037
0.0223754160158
0.238986127305
0.0240738286148
0.235865309799
0.0256679931669
0.232588275161
0.0271625108832
0.229165453204
0.0285618872002
0.225606752982
0.029870520402
0.22192158264
0.0310926931404
0.218118868882
0.0322325663899
0.214207075971
0.0332941754508
0.210194224151
0.0342814276425
0.206087907479
0.0351981013951
0.201895310997
0.0360478464667
0.197623227241
0.0368341850703
0.19327807208
0.0375605137047
0.188865899895
0.0382301055353
0.184392418096
0.0388461131704
0.179863001018
0.039411571726
0.175282703203
0.0399294020675
0.17065627211
0.0404024141551
0.165988160273
0.040833310414
0.161282536955
0.0412246890838
0.156543299317
0.0415790474916
0.151774083147
0.0418987852231
0.146978273183
0.0421862071556
0.14215901306
0.0424435263413
0.137319214913
0.0426728667175
0.132461568682
0.0428762656442
0.127588551122
0.0430556762539
0.122702434585
0.0432129696228
0.117805295566
0.0433499367548
0.112899023059
0.0434682903912
0.107985326739
0.0435696666435
0.103065745001
0.0436556264653
0.0981416528586
0.0437276569626
0.0932142697474
0.0437871725614
0.0882846672179
0.0438355160329
0.0833537765617
0.0438739593963
0.0784223963639
0.0439037047013
0.0734912000069
0.0439258847087
0.0685607431258
0.0439415634749
0.0636314710347
0.0439517368561
0.0587037261258
0.0439573329412
0.0537777552585
0.0439592124282
0.0488537171516
0.0439581689531
0.0439316898034
0.0439549293857
0.0390116779706
0.0439501540893
0.0340936207493
0.0439444371367
0.029177399332
0.0439383064592
0.0242628449694
0.0439322237606
0.0193497471508
0.0439265825541
0.0144378680927
0.043921649011
0.00952717244164
0.0439156365141
0.00462533917823
0.0438394356066
0.0413670640874
0.0150810779989
-0.134161099302
0.0309975135267
-0.141706833964
0.0467794049913
-0.140763890561
0.0623038274372
-0.138880013596
0.0774883572324
-0.136379196441
0.0922592452609
-0.133314108412
0.106550800115
-0.129731314345
0.120306029024
-0.125682035894
0.133477015094
-0.121221119831
0.146024966191
-0.11640540441
0.157919974925
-0.111292170762
0.1691405464
-0.105937780865
0.179672954699
-0.100396541811
0.189510486776
-0.0947198106157
0.198652626156
-0.0889553351779
0.207104220106
-0.0831468137258
0.214874664499
-0.0773336465859
0.221977131282
-0.0715508499693
0.228427855282
-0.0658291004279
0.234245490007
-0.0601948800969
0.239450536713
-0.0546706955838
0.244064846739
-0.0492753470714
0.248111194285
-0.0440242280044
0.251612914804
-0.0389296396086
0.254593603122
-0.0340011079145
0.257076864863
-0.0292456940946
0.259086114689
-0.0246682914716
0.260644415059
-0.0202719047506
0.26177434965
-0.0160579087326
0.262497926025
-0.0120262851779
0.262836503481
-0.00817583858895
0.262810738874
-0.00450438689601
0.262440610038
-0.0010089932531
0.261745130709
0.00231451594222
0.260742806025
0.00546971668639
0.259451276691
0.00846139848476
0.257887429164
0.0112944874809
0.25606740165
0.0139741343271
0.254006598246
0.0165056563825
0.251719707849
0.0188944700738
0.249220725237
0.0211460377954
0.246522973685
0.0232658243154
0.243639128506
0.0252592608355
0.240581241078
0.0271317157249
0.237360762961
0.0288884710037
0.233988569848
0.0305347037539
0.230474985107
0.032075471735
0.226829802766
0.0335157025735
0.223062309806
0.0348601859648
0.21918130769
0.036113568404
0.215195133059
0.0372803500126
0.211111677565
0.0383648830978
0.206938406838
0.0393713721145
0.202682378565
0.0403038747609
0.198350259724
0.0411663039611
0.193948342967
0.0419624305385
0.189482562207
0.0426958863987
0.184958507424
0.0433701680825