/*--------------------------------*- C++ -*----------------------------------*\
| =========                 |                                                 |
| \\      /  F ield         | OpenFOAM: The Open Source CFD Toolbox           |
|  \\    /   O peration     | Version:  v1906                                 |
|   \\  /    A nd           | Web:      www.OpenFOAM.com                      |
|    \\/     M anipulation  |                                                 |
\*---------------------------------------------------------------------------*/
FoamFile
{
    version     2.0;
    format      ascii;
    class       volScalarField;
    location    "692";
    object      p;
}
// * * * * * * * * * * * * * * * * * * * * * * * * * * * * * * * * * * * * * //

dimensions      [0 2 -2 0 0 0 0];


internalField   nonuniform List<scalar> 
9216
(
268.203562834
268.289057659
268.462585229
268.724508925
269.0734003
269.507530616
270.024765738
270.622631137
271.29833581
272.048837782
272.8708641
273.760979582
274.715598662
275.731053556
276.803594555
277.929455187
279.104839432
280.32598324
281.589128799
282.890582995
284.226679884
285.59383731
286.988509242
288.40724184
289.846617416
291.303311057
292.774027965
294.255561394
295.744725075
297.238412959
298.733528457
300.22704615
301.715940096
303.197247515
304.667998256
306.12528029
307.566173324
308.98781554
310.387344473
311.761963893
313.108895267
314.425442868
315.708958938
316.956903998
318.16682811
319.336422292
320.463516982
321.546119809
322.582430656
323.570861512
324.510065935
325.398939222
326.236659631
327.022671696
327.756737656
328.43891092
329.069595342
329.649512388
330.17975767
330.661754345
331.097292109
331.488458888
331.837652525
332.147485326
332.420765729
332.66039509
332.869350558
333.050595002
333.207052713
333.34152535
333.456667374
333.55492788
333.638546009
333.709529335
333.76967232
333.820561767
333.863603259
333.900029294
333.930915172
333.95718475
333.979627269
333.9989103
334.01559842
334.030168089
334.043078196
334.054234615
334.063425971
334.070767689
334.076399799
334.080560128
334.083503888
334.085522712
334.086872862
334.087692033
334.08810465
334.088248731
268.118140719
268.204061192
268.378223118
268.641361242
268.991903263
269.428062438
269.947662902
270.548185165
271.226799473
271.980418459
272.805732588
273.699263841
274.657395842
275.676423647
276.752574829
277.882052878
279.061047791
280.285772557
281.552463498
282.85741063
284.196948995
285.567484291
286.965476842
288.387464001
289.83003839
291.289868413
292.763672268
294.248237604
295.740392677
297.237025964
298.735055827
300.231450826
301.723199137
303.207330211
304.680885829
306.140943709
307.584591893
309.008954961
310.411173802
311.788434728
313.137956553
314.457022366
315.742975387
316.993252268
318.205388305
319.377050021
320.506049059
321.590370752
322.628194592
323.617915124
324.558166016
325.447830817
326.286068523
327.072315476
327.806313584
328.488109316
329.11808711
329.69696792
330.22583934
330.706140747
331.139675047
331.528570511
331.875265264
332.182435305
332.452940388
332.689741788
332.895863806
333.074328216
333.2281073
333.360052834
333.472850937
333.568974716
333.65066798
333.719934976
333.778554876
333.828099285
333.869958457
333.905355136
333.935353688
333.960865996
333.982666026
334.001405753
334.017631428
334.031794591
334.044276046
334.055174955
334.06422057
334.071346865
334.076871252
334.080972367
334.083826784
334.085780387
334.087105656
334.087881364
334.088253722
334.088403783
267.943843192
268.030856261
268.206766312
268.47250504
268.826456826
269.266774044
269.791207425
270.39715483
271.081702987
271.841677709
272.673688012
273.574175358
274.539452725
275.565747775
276.649233067
277.786060709
278.972382489
280.204375772
281.478254109
282.790285501
284.136794985
285.514176945
286.918891462
288.347472358
289.796518971
291.262701382
292.742749016
294.233454206
295.731658792
297.234256957
298.738180918
300.240403909
301.737926055
303.227778416
304.707010416
306.172695955
307.62192388
309.05180733
310.459478855
311.842104019
313.196882637
314.521067221
315.811971282
317.066992371
318.283627371
319.459498691
320.592375095
321.680198158
322.721105675
323.713454374
324.655841975
325.547122528
326.386424443
327.173158741
327.90703612
328.58807642
329.216633753
329.79341313
330.319495806
330.796339619
331.225785236
331.610030208
331.951610104
332.253326652
332.518158212
332.749175819
332.949507132
333.12228697
333.270596911
333.397388197
333.505419191
333.597207333
333.675007808
333.740811121
333.796362954
333.843197211
333.882673611
333.915996072
333.944210613
333.968204115
333.988719781
334.006379171
334.021699881
334.035108555
334.04697459
334.057368329
334.065827717
334.072507334
334.077819717
334.081753311
334.084435188
334.08630948
334.087546159
334.08825956
334.088637768
334.088824273
267.678512627
267.766931056
267.945543723
268.215302243
268.574514537
269.021236091
269.553103075
270.167386697
270.861042344
271.630762853
272.473029106
273.384160404
274.36035879
275.397751218
276.492423797
277.640453549
278.837931745
280.080985512
281.365791361
282.688588278
284.045683399
285.433458665
286.84837068
288.286952843
289.745811154
291.221623346
292.711132004
294.21114184
295.718511187
297.230148333
298.743002283
300.254059028
301.760332583
303.258862128
304.746704494
306.220933382
307.678634765
309.116909607
310.5328738
311.923665829
313.286452741
314.618443871
315.916903816
317.179172484
318.402684937
319.584996681
320.723808629
321.816994706
322.862628232
323.859007018
324.804675763
325.698443043
326.539395116
327.326903388
328.060634042
328.740559423
329.366983965
329.9405771
330.462408777
330.933954951
331.357114914
331.734182563
332.067857685
332.361153476
332.617243105
332.839352532
333.030762615
333.194783673
333.334678784
333.453560999
333.554306829
333.63950026
333.711410148
333.771995
333.82293588
333.865695039
333.901582519
333.931782227
333.957321072
333.979047025
333.997652186
334.013709886
334.027695376
334.040000383
334.050984106
334.060537127
334.068220198
334.074377406
334.079211673
334.082825904
334.085399417
334.087151983
334.088288349
334.088975677
334.089363174
334.08955293
267.320835495
267.411119037
267.593432788
267.868700394
268.235116488
268.690597917
269.232619288
269.858275119
270.564337266
271.347314638
272.203510544
273.129077194
274.12006444
275.172463414
276.282242951
277.445380577
278.657886429
279.915822648
281.215316695
282.552571538
283.923870971
285.325583188
286.75416054
288.206138662
289.678132562
291.166832891
292.668999682
294.181456857
295.701084541
297.224812599
298.749612257
300.272489441
301.790476602
303.300626747
304.800006547
306.285692343
307.754766089
309.204314999
310.631432105
312.033221368
313.406804671
314.749333984
316.058006085
317.330082525
318.562912195
319.753958284
320.900826902
322.001297948
323.053355429
324.055216205
325.005354572
325.902520138
326.745748024
327.534360308
328.267965398
328.946463615
329.570078335
330.139412194
330.655513878
331.119867005
331.534448594
331.901656742
332.224441662
332.506165986
332.750291747
332.960216806
333.139407724
333.291424184
333.419807194
333.52791482
333.618796368
333.695125877
333.759180936
333.812856289
333.857714101
333.895085471
333.926205223
333.952257783
333.974268705
333.993028928
334.009146393
334.023124296
334.035379582
334.046257118
334.056090566
334.064531789
334.071275243
334.076745503
334.081133543
334.084418087
334.08674431
334.088357075
334.089435715
334.090101678
334.090491328
334.090684421
266.868871572
266.961544027
267.148630556
267.431004352
267.806705091
268.273462216
268.828534095
269.468780631
270.190731187
270.990653494
271.864619278
272.808564801
273.818344429
274.889776746
276.018682574
277.20091559
278.432385643
279.709076073
281.027055373
282.38248465
283.771621108
285.190818919
286.636527427
288.105287903
289.593728512
291.098558562
292.616561493
294.14458758
295.679545692
297.218395058
298.758136303
300.29580288
301.82845214
303.353157183
304.866998966
306.367059929
307.8504188
309.314147889
310.755312692
312.170975105
313.558200126
314.914067171
316.235685711
317.520216056
318.764894488
319.967063129
321.124202993
322.233969744
323.294229867
324.303095012
325.258951372
326.160479256
327.006659801
327.796764688
328.530335784
329.207171263
329.827360585
330.391384209
330.900263732
331.355453459
331.759044911
332.113467685
332.422052511
332.688778784
332.917528372
333.11179667
333.275224
333.411721687
333.525257691
333.619555044
333.697903521
333.763089063
333.817384669
333.862570009
333.899993083
333.930738464
333.955923458
333.976812491
333.994495739
334.009669824
334.022792685
334.034270692
334.0444481
334.053613652
334.061977991
334.069092561
334.074941527
334.079768645
334.08359394
334.086402241
334.088519136
334.090018728
334.091021675
334.091716729
334.092123564
334.092328494
266.320135522
266.41578178
266.608816561
266.900041965
267.287294077
267.768057109
268.33930833
268.9976049
269.739165447
270.559951257
271.455742216
272.422205182
273.454952982
274.549593532
275.701768956
276.907185563
278.161635478
279.461011355
280.801315165
282.178662477
283.589282989
285.029518478
286.495818537
287.984734968
289.49291489
291.017093163
292.55408399
294.100772135
295.654103508
297.211075509
298.768726821
300.324127229
301.874367157
303.416547523
304.947769932
306.465127953
307.965699758
309.446542993
310.904692348
312.337160834
313.740945219
315.113036653
316.450436615
317.750179003
319.009357925
320.225161486
321.394910232
322.516099995
323.586445749
324.603925857
325.56681875
326.473729772
327.323593843
328.115649395
328.849378533
329.524441123
330.140699368
330.69839923
331.198575524
331.642541252
332.03264212
332.370989901
332.661510939
332.909425312
333.119233334
333.294174032
333.437953142
333.555012439
333.650014152
333.727228184
333.79026135
333.842026052
333.884768103
333.920082328
333.948940575
333.971935311
333.989972158
334.004634608
334.017268338
334.028370481
334.038092281
334.046724472
334.054538109
334.06174507
334.068439262
334.074208491
334.079102491
334.083169543
334.086395529
334.088886774
334.090821879
334.09223015
334.093177146
334.093877884
334.094296447
334.094505173
265.671532316
265.770809039
265.971103549
266.273120861
266.674434204
267.172211915
267.763071612
268.443186066
269.208382797
270.054241116
270.97618102
271.969541021
273.029643311
274.151845837
275.331581903
276.564388535
277.845925246
279.171984941
280.538498661
281.941535669
283.377300165
284.842125613
286.332467475
287.844894852
289.376081436
290.922795947
292.481892195
294.050298762
295.625008319
297.20306651
298.781560351
300.357606309
301.928338035
303.490893916
305.042404879
306.579982823
308.100710421
309.601632889
311.079752776
312.532028543
313.955378133
315.346688279
316.702830522
318.020684465
319.297168581
320.529278386
321.714132206
322.849021526
323.931468467
324.959280234
325.930605388
326.843970008
327.698290048
328.492822143
329.22703905
329.900428559
330.512451657
331.062846385
331.552919679
331.983452208
332.357693041
332.676112429
332.943636678
333.168374563
333.355745082
333.507571221
333.627326267
333.72039051
333.792650096
333.849193437
333.89400172
333.930098114
333.959680018
333.984096204
334.003687779
334.01799927
334.027450399
334.034612108
334.041623463
334.048431962
334.054483558
334.060002494
334.065242913
334.07028038
334.075179228
334.07960231
334.083519634
334.086877334
334.08963544
334.091896902
334.093634806
334.094984648
334.095946776
334.09659207
334.097031956
334.097240876
264.91928404
265.022938477
265.231979802
265.546981252
265.965178556
266.483335989
267.097614435
267.803702895
268.596941655
269.472439712
270.425179591
271.450106382
272.542199415
273.696526845
274.908284459
276.172820929
277.48565191
278.842465555
280.239121624
281.671646209
283.136223507
284.62918588
286.147002911
287.686270054
289.243697084
290.816096555
292.400372168
293.993507058
295.592551741
297.194611683
298.796834156
300.396394601
301.990482218
303.57628502
305.150974642
306.711691447
308.255530606
309.779530024
311.280661251
312.755824561
314.201849507
315.615502382
316.993501398
318.33254123
319.629326175
320.880614704
322.083270509
323.234327952
324.331057372
325.371047883
326.35227821
327.273193817
328.132737481
328.93030389
329.66551489
330.337702455
330.945583795
331.487607411
331.966461683
332.380897085
332.737851538
333.03157621
333.268814458
333.46537603
333.627771415
333.752861858
333.843375412
333.906751636
333.95124
333.983105426
334.006629618
334.02484699
334.039911955
334.052993214
334.06349358
334.068611433
334.067337746
334.065063986
334.066256647
334.06914061
334.071404067
334.073575549
334.076142993
334.078826847
334.081922647
334.085052091
334.088086107
334.090843895
334.093263071
334.095306134
334.096970062
334.098262094
334.09924003
334.099858698
334.100332812
334.100541723
264.058836629
264.167732049
264.387233672
264.717735198
265.156039184
265.698393526
266.340380533
267.077082684
267.903236803
268.813377309
269.801960516
270.863466324
271.992476383
273.183729806
274.432159177
275.732910212
277.081348809
278.473058858
279.90383387
281.369664739
282.866725495
284.391358212
285.940057934
287.509457959
289.096315735
290.697499261
292.309973922
293.930789437
295.557066678
297.185983987
298.814762644
300.44065142
302.060909973
303.672790993
305.273521614
306.860284407
308.430198919
309.980304596
311.507546699
313.008766435
314.480697481
315.91997004
317.323124901
318.686637551
320.006955619
321.280545516
322.503957806
323.673894655
324.787306465
325.841481364
326.834172137
327.763711582
328.629135677
329.43019854
330.167100149
330.839250049
331.44399223
331.975899211
332.443412026
332.837316722
333.179682925
333.442364021
333.635598854
333.798075026
333.935661866
334.030870259
334.085273864
334.111408704
334.122399453
334.125566636
334.124820544
334.123000443
334.122458443
334.124751345
334.128340786
334.124842891
334.108506977
334.092840566
334.089198676
334.090028206
334.088432773
334.086839075
334.086853322
334.086918349
334.088343248
334.09032962
334.092660686
334.094949481
334.097132666
334.099079897
334.100762923
334.102095694
334.103056781
334.103708265
334.104198015
334.10442142
263.08474012
263.199889919
263.431857308
263.780790903
264.242934959
264.813875867
265.488462178
266.26101655
267.125530451
268.075840126
269.105774106
270.209268753
271.380451778
272.613696637
273.903652323
275.245253941
276.63371922
278.064535752
279.533442668
281.036409721
282.569615681
284.129427378
285.712379964
287.315158739
288.934582414
290.567587691
292.211214713
293.862593062
295.518927682
297.177484326
298.835573788
300.49053485
302.139715332
303.780451151
305.410043731
307.02573619
308.62468919
310.203957618
311.760469843
313.291011398
314.792215388
316.260562232
317.692389968
319.083919454
320.431290526
321.730620035
322.978064328
324.169915303
325.302691674
326.373280296
327.379079562
328.318224319
329.189856102
329.994430756
330.733764756
331.408406859
332.013423397
332.530501808
332.990349751
333.350481041
333.69466689
333.917359926
334.037913238
334.179571833
334.317273381
334.384052114
334.386779083
334.356009665
334.315926537
334.279111012
334.248416358
334.223495948
334.20562545
334.199186721
334.203676197
334.194020428
334.150258552
334.111275201
334.107825856
334.112175331
334.105637954
334.098776222
334.097145895
334.093814938
334.093971339
334.095036121
334.09700365
334.099057882
334.101257543
334.103285095
334.105018523
334.106418156
334.107453032
334.108156834
334.108641651
334.108887503
261.990494087
262.113106743
262.359924331
262.730758617
263.221129811
263.825772422
264.53860132
265.352985922
266.261998095
267.258629024
268.335963933
269.48731156
270.706290453
271.986877587
273.323426854
274.710665303
276.143674594
277.617863762
279.128938145
280.672867685
282.245856777
283.844316657
285.464840818
287.104183302
288.759239624
290.427029775
292.10468281
293.789422298
295.478551964
297.169440691
298.859506035
300.546195758
302.226966706
303.899260502
305.560476523
307.207942346
308.838882746
310.450388431
312.039386804
313.602616748
315.13661115
316.637688983
318.101962323
319.52535672
320.90365392
322.232544806
323.507714252
324.724925485
325.880151837
326.96970461
327.990435823
328.940016319
329.817494472
330.624268142
331.366087295
332.048492897
332.664746382
333.149790211
333.623539418
333.913986681
334.386755876
334.555395596
334.454258595
334.269104245
334.271055561
334.327240758
334.352161375
334.345690187
334.325522215
334.30318551
334.284984183
334.274356623
334.274319161
334.28815826
334.308275675
334.294233958
334.190430599
334.090525222
334.113476484
334.140500715
334.123995734
334.107048389
334.107851158
334.098092146
334.098291755
334.098786953
334.10104392
334.1030598
334.105603061
334.107902517
334.109795287
334.111260918
334.112384517
334.113172554
334.113637561
334.113892667
260.768346655
260.899886909
261.164434077
261.561334411
262.085160654
262.72954266
263.487201088
264.350306221
265.310795387
266.360640605
267.492053897
268.69762908
269.970425493
271.304003692
272.692424802
274.130225255
275.612376933
277.134240816
278.691519713
280.280213752
281.896580448
283.537100095
285.198446262
286.877460949
288.571133545
290.276582918
291.991041688
293.711841956
295.436401346
297.162208434
298.886806159
300.607772556
302.322697635
304.029155729
305.724673484
307.406693738
309.072536157
310.719356185
312.344104691
313.94349132
315.513955192
317.051648249
318.552432647
320.011901845
321.425415954
322.788170608
324.095270275
325.341843062
326.523152616
327.6347509
328.672622986
329.633441734
330.515260671
331.319464948
332.0598232
332.759788804
333.426668147
333.827852391
334.473763081
334.347313345
334.350000391
334.443275584
334.445723063
334.385618618
334.350854668
334.354257309
334.353522884
334.33934203
334.318351204
334.297608295
334.281221005
334.269995861
334.263952975
334.261770387
334.256674641
334.234736551
334.202624985
334.196569705
334.232596701
334.244177592
334.150553391
334.094556228
334.121203718
334.0957001
334.101066177
334.101183892
334.104939167
334.10671395
334.110131988
334.112969537
334.115105095
334.116676321
334.117839419
334.118701224
334.119139026
334.119403599
259.409031279
259.551303338
259.837112894
260.265156757
260.828755218
261.520093338
262.330354881
263.250196295
264.270154981
265.3809787
266.573863499
267.840602658
269.173658466
270.566173492
272.011939515
273.50534065
275.04128434
276.615130058
278.222622281
279.859831092
281.523101813
283.209013356
284.91434442
286.636046111
288.371219831
290.117099158
291.871034812
293.630481521
295.392985671
297.156172165
298.917728907
300.675387467
302.426898608
304.170001285
305.902385392
307.621648057
309.325244431
311.010434456
312.674228548
314.313335093
315.924116865
317.502557816
319.044254458
320.544423756
321.997949149
323.399438506
324.743322123
326.023953036
327.235748224
328.373309705
329.431454651
330.405023176
331.288837938
332.078795469
332.801625376
333.549767509
334.49565493
334.357128573
334.377832431
334.443612119
334.422117123
334.437776988
334.425883951
334.386340513
334.357387711
334.347633172
334.337833681
334.321444434
334.301538371
334.283367095
334.269447314
334.259244135
334.252030402
334.245976631
334.237493863
334.222246252
334.20487296
334.19882439
334.206582573
334.20242108
334.196529455
334.221111604
334.206475133
334.067536209
334.099885226
334.101085626
334.109474445
334.109363535
334.11501226
334.11874816
334.121067972
334.122660117
334.123851331
334.124704976
334.12514462
334.125408302
257.901418174
258.056682421
258.368158981
258.833630379
259.444741016
260.191768244
261.063903971
262.049886343
263.138525655
264.319107103
265.581659608
266.917101088
268.317282107
269.774955257
271.283697256
272.837807094
274.432197798
276.062293765
277.723940239
279.413327723
281.126931132
282.861462118
284.613832081
286.381123644
288.160568488
289.949530219
291.745490971
293.546040792
295.348868211
297.151750239
298.952539354
300.7491455
302.53951101
304.321576775
306.093239412
307.852299286
309.596399606
311.322958752
313.029097347
314.711567068
316.366682563
317.990274291
319.577655222
321.123633719
322.622543185
324.068324884
325.454613798
326.774864585
328.022510732
329.191167898
330.274522062
331.265000192
332.150325941
332.898090921
333.518146706
334.229232411
334.392295479
334.470492427
334.432537824
334.441503392
334.426540259
334.41978269
334.399472939
334.365663535
334.337580938
334.319819178
334.304048834
334.286085824
334.268206265
334.25359031
334.242402038
334.234197855
334.22824244
334.223025108
334.216559363
334.207360161
334.197769865
334.193698362
334.195394676
334.192947157
334.189207873
334.191605624
334.180030499
334.186758681
334.186752175
334.099635743
334.115911098
334.108343876
334.120935682
334.125929882
334.127909869
334.129248995
334.130368835
334.131179788
334.131658978
334.131880655
256.232047397
256.403185164
256.745913133
257.256710448
257.924949647
258.738362519
259.683540675
260.746782741
261.914771129
263.175057789
264.516355243
265.928657314
267.403228471
268.932504845
270.509946679
272.129873787
273.787306242
275.477823315
277.19744668
278.942548369
280.709781085
282.496026601
284.298358005
286.11401183
287.940367491
289.774932173
291.615330401
293.459297265
295.30467393
297.149402797
298.991519423
300.829137567
302.660424936
304.483567132
306.296719518
308.097945989
309.885145457
311.655965648
313.407709705
315.137234442
316.840860062
318.514283099
320.152536915
321.74997286
323.300315854
324.796736416
326.231962991
327.598385732
328.888297583
330.094521197
331.210808132
332.230868525
333.144539128
333.868500057
334.227253226
334.295136184
334.388173073
334.438935951
334.427112594
334.417684821
334.39867966
334.378290264
334.350743888
334.31743088
334.287719901
334.264916529
334.245785909
334.227799833
334.212876125
334.20235028
334.194790298
334.189902714
334.187079227
334.185179499
334.183054363
334.180248345
334.178073133
334.178819462
334.18191629
334.182796608
334.181093268
334.180461678
334.175421874
334.175657262
334.171577663
334.18615297
334.18034066
334.090465678
334.129145392
334.135680376
334.135643546
334.13628143
334.137361632
334.138132885
334.138588653
334.138747277
254.38449413
254.575247266
254.956430594
255.522640738
256.260125178
257.153181869
258.184983115
259.338716855
260.598452534
261.949713467
263.379767871
264.877688196
266.434244374
268.041697745
269.693552406
271.384305875
273.109225139
274.864161087
276.645404271
278.449578792
280.273567515
282.114460903
283.969522065
285.836162448
287.711924441
289.594469521
291.481571617
293.37111589
295.26110145
297.149644875
299.03498021
300.915449882
302.789482893
304.655557972
306.512150118
308.35766062
310.190328482
312.008125777
313.808633089
315.588909533
317.34535079
319.073576563
320.768335161
322.423493237
324.032078825
325.586401978
327.078158844
328.498426833
329.837835419
331.088259393
332.246712212
333.327534753
334.386625445
334.376419282
334.349894706
334.367355725
334.402569542
334.413561148
334.39482058
334.36906578
334.337707835
334.304683328
334.269607517
334.234104687
334.202810424
334.177936897
334.158284284
334.142626019
334.132204531
334.126545049
334.12390849
334.124022053
334.126336342
334.129955003
334.13409775
334.138501838
334.143687136
334.150290042
334.157581296
334.163378534
334.167285846
334.170592552
334.171030556
334.17097362
334.170431671
334.174818566
334.16979316
334.175343821
334.171688938
334.15396027
334.143895247
334.143223054
334.14475796
334.145508811
334.145839181
334.145898237
252.338492314
252.55381652
252.982921477
253.617639976
254.43985483
255.429179974
256.564261771
257.824317025
259.190227726
260.645188507
262.174951903
263.767763365
265.414093822
267.106270575
268.838086017
270.6044368
272.401021849
274.224108461
276.070363501
277.936739354
279.820401669
281.718685584
283.629069328
285.549156914
287.476665734
289.409418158
291.345339119
293.282461641
295.218940062
297.153066256
299.083282513
301.008182058
302.926492471
304.837038873
306.738686538
308.630261565
310.510449548
312.377666162
314.229904797
316.064553475
317.87820866
319.666482316
321.423869824
323.143692622
324.818192368
326.438722378
327.995909556
329.479162721
330.87539649
332.172509741
333.374828101
334.550957846
334.572324686
334.531344356
334.446518963
334.409267567
334.391045928
334.364430433
334.324862483
334.281076162
334.235991841
334.192194197
334.15069868
334.112924787
334.081259719
334.056947097
334.039363252
334.028743001
334.024699791
334.024818135
334.028401959
334.035152555
334.044429165
334.055418748
334.067434814
334.080104775
334.093394657
334.107219591
334.12087446
334.133161558
334.143689238
334.1527137
334.159376186
334.16458353
334.168406942
334.171463812
334.172213691
334.177574861
334.191212627
334.182696683
334.143833403
334.147526262
334.152502842
334.153365951
334.15333525
334.153193501
250.068701849
250.315304128
250.805015189
251.525536896
252.452556222
253.559229117
254.818179128
256.203560586
257.692412399
259.26533852
260.906620913
262.603926831
264.347782433
266.130962384
267.947902748
269.794199529
271.666217971
273.56081256
275.475142942
277.406564618
279.352571876
281.310772572
283.278878145
285.254697871
287.236132205
289.22116663
291.207871586
293.194415668
295.179093231
297.160360457
299.136868083
301.107477357
303.071251247
305.027419169
306.975315552
308.914294505
310.843614987
312.762292647
314.668906485
316.561366924
318.436641188
320.290473828
322.117140542
323.909342758
325.658367919
327.354545915
328.987868768
330.546472492
332.010291551
333.365121362
334.663473444
334.723894456
334.68405116
334.577052936
334.473896303
334.39767438
334.335240771
334.27406086
334.211020477
334.149516162
334.091744818
334.039376219
333.993398428
333.95476026
333.924611705
333.903509531
333.891040687
333.887044033
333.889860533
333.897108784
333.908381915
333.923267266
333.94103182
333.960864818
333.982053198
334.004060397
334.026501453
334.048944938
334.070695687
334.090908858
334.109124018
334.125221167
334.138823183
334.150262124
334.159485171
334.166696437
334.171468304
334.175189223
334.181043456
334.179083037
334.168907761
334.150815888
334.163001251
334.162289025
334.160963374
334.160419568
247.542938616
247.830114883
248.397792601
249.227367067
250.285585524
251.536613758
252.945036127
254.478587268
256.109763251
257.816434695
259.581674017
261.393068903
263.241791094
265.121637863
267.028185549
268.958120064
270.908755744
272.877722308
274.862785809
276.86176579
278.872513624
280.892921928
282.920942167
284.954595292
286.991970135
289.031214135
291.07053
293.108195284
295.14261039
297.172365614
299.196305675
301.213568801
303.223588851
305.226060433
307.220873889
309.208026039
311.187500764
313.159103264
315.12223375
317.075586939
319.016777343
320.941901808
322.845104007
324.718297804
326.551413137
328.333468025
330.055318103
331.708852044
333.271293523
334.774319417
334.882895238
334.81657972
334.699340891
334.569953274
334.4435854
334.33024906
334.229509733
334.137423006
334.052332154
333.975326451
333.907441788
333.849385355
333.801542837
333.764214623
333.737709189
333.722069788
333.716781363
333.720631429
333.730986195
333.746360384
333.766371772
333.790428343
333.817710663
333.84737048
333.878624826
333.910789171
333.943254977
333.975396933
334.006494884
334.035808474
334.062807369
334.087175229
334.108591654
334.127055764
334.142475287
334.154893159
334.164014082
334.17005314
334.173940279
334.173291407
334.168534581
334.169239166
334.186543988
334.173598926
334.168239867
334.16712743
244.719571155
245.060560983
245.730517127
246.700977309
247.925583088
249.355893103
250.94576677
252.654889223
254.450561438
256.308043322
258.209834613
260.144334428
262.104292429
264.085362489
266.084928227
268.101250278
270.132911469
272.178503029
274.236486938
276.305174269
278.382768385
280.467431993
282.557346913
284.650746668
286.745915297
288.84116286
290.93480376
293.025178312
295.110729475
297.190121512
299.262356025
301.326846142
303.38343039
305.432332949
307.474090129
309.509464128
311.539331398
313.564516269
315.585538794
317.602250799
319.61333555
321.615645931
323.603404044
325.567430674
327.495176258
329.372373421
331.19380668
332.984531236
334.771310618
335.020780736
334.929986103
334.803809853
334.663701831
334.508449786
334.35047804
334.202930646
334.070751258
333.953851322
333.851462165
333.763450385
333.689641598
333.629691677
333.583169405
333.549682251
333.528935576
333.520683679
333.523722256
333.535608553
333.553873795
333.577878242
333.607098167
333.640751807
333.677950556
333.717805119
333.759466018
333.802139044
333.845072989
333.88751988
333.92871157
333.967906741
334.004496982
334.038022097
334.068091302
334.09449046
334.117027033
334.135599443
334.150044479
334.16042737
334.167086955
334.169587712
334.169012266
334.168953325
334.165498949
334.177798348
334.17146504
334.172211401
241.54358487
241.957847626
242.764998979
243.920750976
245.35926697
247.014367424
248.825692134
250.743037438
252.72809443
254.754149708
256.804394761
258.869531612
260.945302238
263.030381452
265.124816818
267.229008968
269.343135329
271.466897814
273.599485905
275.739666869
277.885935005
280.03666704
282.190243801
284.345110575
286.499766473
288.652699187
290.802311233
292.946931394
295.084934001
297.214948337
299.336062206
301.447948357
303.550886672
305.645701171
307.733662539
309.816415081
311.895900013
313.974217717
316.05337672
318.134889508
320.21916146
322.304559678
324.386009984
326.452970888
328.487807731
330.464218389
332.384261377
334.430697894
335.040137568
334.980430324
334.874668672
334.740931394
334.571543333
334.382216027
334.192677768
334.017009919
333.861724998
333.728219209
333.615776238
333.523141975
333.448869126
333.391506445
333.349763734
333.322615941
333.309386607
333.309752483
333.321143787
333.340381283
333.366541533
333.399110493
333.437308653
333.480240934
333.526997029
333.576674342
333.628390632
333.681290663
333.734539871
333.787309349
333.838774054
333.888144697
333.93472364
333.977923772
334.017245819