/*--------------------------------*- C++ -*----------------------------------*\
| =========                 |                                                 |
| \\      /  F ield         | OpenFOAM: The Open Source CFD Toolbox           |
|  \\    /   O peration     | Version:  v1906                                 |
|   \\  /    A nd           | Web:      www.OpenFOAM.com                      |
|    \\/     M anipulation  |                                                 |
\*---------------------------------------------------------------------------*/
FoamFile
{
    version     2.0;
    format      ascii;
    class       surfaceScalarField;
    location    "798";
    object      phi;
}
// * * * * * * * * * * * * * * * * * * * * * * * * * * * * * * * * * * * * * //

dimensions      [0 3 -1 0 0 0 0];
oriented        oriented;


internalField   nonuniform List<scalar> 
18240
(
-0.000352223799452
0.000352252147837
-0.000737890894706
0.000385699833392
-0.00112321149322
0.0003853499668
-0.00150356706905
0.000380389230297
-0.00187688576205
0.00037334732772
-0.00224142468605
0.000364573512093
-0.00259566875165
0.000354271922731
-0.00293825726533
0.000342624140731
-0.0032680295399
0.000329799314304
-0.00358396818393
0.000315975398025
-0.00388525882862
0.000301316779124
-0.00417121488758
0.000285994006123
-0.00444134534177
0.000270155599586
-0.00469525961637
0.000253953453948
-0.00493274657196
0.000237510980083
-0.00515366136855
0.000220955216472
-0.00535801956594
0.00020438099031
-0.00554586766559
0.000187889733607
-0.00571739521936
0.000171548958852
-0.0058727899091
0.000155437478144
-0.00601236945086
0.000139599444255
-0.00613642131742
0.000124095715047
-0.00624535503802
0.000108951964366
-0.00633952620352
9.42159510687e-05
-0.00641940908979
7.98993766501e-05
-0.00648540447254
6.60409532517e-05
-0.00653803186092
5.26419923031e-05
-0.0065777208195
3.97351422018e-05
-0.00660502198683
2.73138294391e-05
-0.00662038207358
1.54066911797e-05
-0.00662437302995
4.00158293071e-06
-0.00661744903325
-6.8771745983e-06
-0.00660019024119
-1.72502061744e-05
-0.00657304860442
-2.70948152875e-05
-0.00653660829841
-3.64338064111e-05
-0.00649131473789
-4.52469578184e-05
-0.00643774800462
-5.35622693338e-05
-0.00637633985545
-6.13619868663e-05
-0.00630765923061
-6.86781893047e-05
-0.00623211856153
-7.54951604791e-05
-0.00615026959298
-8.18484570637e-05
-0.00606250084494
-8.77241030745e-05
-0.00596934175542
-9.31604460592e-05
-0.00587115330628
-9.8144863043e-05
-0.00576843858601
-0.000102717794761
-0.00566152864646
-0.000106867598866
-0.0055508973008
-0.000110636040883
-0.0054368443272
-0.000114012045348
-0.00531981245966
-0.000117037998252
-0.00520007003637
-0.000119703061859
-0.00507802792211
-0.000122049551528
-0.00495392368959
-0.000124066569483
-0.00482813641646
-0.000125795808528
-0.0047008744116
-0.000127226156466
-0.00457248568423
-0.000128398210872
-0.00444315117113
-0.000129300571073
-0.00431318893611
-0.000129972447746
-0.00418275473415
-0.000130402241456
-0.00405213793138
-0.000130627585339
-0.00392147115267
-0.000130636850663
-0.00379101622246
-0.000130466066975
-0.00366088449291
-0.000130103869143
-0.00353131111102
-0.000129584717177
-0.00340238751065
-0.000128897821281
-0.0032743226518
-0.000128076194678
-0.003147188987
-0.000127109967877
-0.00302116937575
-0.000126030808826
-0.00289631769867
-0.000124830046083
-0.00277279048709
-0.000123538102954
-0.00265062316458
-0.000122147731713
-0.00252994550915
-0.000120688127113
-0.00241077434633
-0.00011915357247
-0.00229321226081
-0.000117572002354
-0.0021772573656
-0.000115939256009
-0.00206298474921
-0.000114281884658
-0.00195037379603
-0.000112597200476
-0.00183947209182
-0.000110910208357
-0.00173024059737
-0.000109219551306
-0.00162269977808
-0.00010754846779
-0.00151679282555
-0.000105896727455
-0.0014125139399
-0.000104285569787
-0.0013097896802
-0.000102715660099
-0.00120858935192
-0.000101205973286
-0.00110882452186
-9.9757788711e-05
-0.00101044161004
-9.8387493421e-05
-0.000913339584147
-9.70965435975e-05
-0.000817445098423
-9.5898075813e-05
-0.000722648760882
-9.47924748174e-05
-0.000628864467604
-9.37870166848e-05
-0.000535987346482
-9.28748093008e-05
-0.000443947334048
-9.20417917893e-05
-0.000352713341355
-9.12329821146e-05
-0.000262412449123
-9.03013204851e-05
-0.000173689589444
-8.8723412754e-05
-8.92759994914e-05
-8.4414967596e-05
-8.9276384079e-05
-0.000389329534693
0.000741612395091
-0.000823993875515
0.000820397536201
-0.00125618760943
0.000817576302404
-0.00168207712068
0.000806312511384
-0.00209973871259
0.000791041384251
-0.00250738858075
0.000772257466187
-0.00290337259126
0.00075028828628
-0.00328619391645
0.000725479920737
-0.00365455259944
0.000698190242623
-0.00400732998942
0.000668787644834
-0.00434361284021
0.000637631757147
-0.00466265920902
0.000605075643464
-0.00496391871543
0.00057144706407
-0.00524698588299
0.000537056283638
-0.00551162180573
0.000502178633406
-0.00575769873242
0.00046706815513
-0.00598522716622
0.000431940829017
-0.00619429440889
0.000396993265736
-0.00638509984362
0.000362385375346
-0.00655788893964
0.000328263046406
-0.006712998133
0.000294739064223
-0.00685078472268
0.000261918841644
-0.00697168169567
0.000229878688945
-0.00707612325504
0.000198693979595
-0.00716460923243
0.000168414284234
-0.0072376256695
0.000139093644359
-0.00729571810335
0.000110762412215
-0.00733940662144
8.3459547371e-05
-0.00736926716425
5.72012733755e-05
-0.00738584050232
3.20153910801e-05
-0.00738972003684
7.90682477987e-06
-0.00738145697748
-1.51055519465e-05
-0.0073616568916
-3.70259008673e-05
-0.00733087467101
-5.78431893695e-05
-0.00728971523636
-7.75702486464e-05
-0.00723872627408
-9.62030511705e-05
-0.00717850501502
-0.000113762023653
-0.00710958563215
-0.000130249612739
-0.00703255064722
-0.000145693203694
-0.00694791427497
-0.000160101005112
-0.00685623794282
-0.000173506403605
-0.00675801039204
-0.000185922461591
-0.00665376660055
-0.000197387445634
-0.00654396546652
-0.000207918226565
-0.00642911137856
-0.000217556696364
-0.00630963030239
-0.000226322399268
-0.00618599317225
-0.000234259562723
-0.00605859121092
-0.000241389278074
-0.00592786030335
-0.000247756850879
-0.00579415635107
-0.000253383871025
-0.00565787974226
-0.000258315598922
-0.00551935152988
-0.000262573242305
-0.0053789371318
-0.000266201081932
-0.00523692407565
-0.00026921928094
-0.00509364404429
-0.000271670467763
-0.00494935290555
-0.000273573371562
-0.00480435027264
-0.000274968573745
-0.00465886248375
-0.000275873258812
-0.00451315886296
-0.000276325861009
-0.00436743828691
-0.000276342179396
-0.00422194142369
-0.000275958646829
-0.00407684147305
-0.000275190045003
-0.00393235171089
-0.000274071142633
-0.00378862096193
-0.000272616205291
-0.00364583589726
-0.000270858762864
-0.00350412174687
-0.000268813095804
-0.00336363886505
-0.000266511921445
-0.00322448915353
-0.000263970004718
-0.00308680653221
-0.000261219580523
-0.0029506694795
-0.00025827622741
-0.00281618510637
-0.00025517187967
-0.00268340816531
-0.000251923075822
-0.00255241852872
-0.000248561447927
-0.00242324694079
-0.000245104446949
-0.00229594573959
-0.000241583229329
-0.00217052156188
-0.000238015936877
-0.00204699922357
-0.000234432929098
-0.00192536151436
-0.000230852682377
-0.00180560616684
-0.000227304335818
-0.00168769282618
-0.000223806251869
-0.00157159309025
-0.000220385860001
-0.00145724469086
-0.00021706090552
-0.00134459459143
-0.000213856575409
-0.00123356038778
-0.000210789434933
-0.00112406649603
-0.000207881809107
-0.00101601274503
-0.000205148348054
-0.000909303682536
-0.000202607552057
-0.000803824183108
-0.0002002707088
-0.000699461560184
-0.000198150149072
-0.000596086234143
-0.000196249629603
-0.000493560226644
-0.000194568031109
-0.000391702284657
-0.00019309057181
-0.000290217707627
-0.000191786552523
-0.000188360223511
-0.000190581642973
-8.41619024773e-05
-0.00018861420487
-0.000173439047451
-0.00039628707428
0.00113793041657
-0.000836595045568
0.001260738684
-0.00127504419961
0.00125605850945
-0.0017071188914
0.0012384206012
-0.00213069053233
0.00121464613122
-0.00254388929747
0.0011854897757
-0.00294501304857
0.00115144521385
-0.0033325414981
0.00111304211192
-0.00370515672213
0.00107083874229
-0.00406174117334
0.00102540605724
-0.00440138331173
0.0009773072641
-0.00472336086646
0.000927087373379
-0.00502713832612
0.000875257963747
-0.00531234140848
0.000822293722046
-0.00557875191271
0.00076862258926
-0.00582627804682
0.000714628767406
-0.00605495081716
0.000660646992281
-0.00626489341418
0.000606970378207
-0.00645632171986
0.000553846907427
-0.00662951442864
0.000501490203005
-0.00678481881851
0.000450076405591
-0.00692262204005
0.000399756318698
-0.00704336218763
0.000350651372518
-0.00714750040311
0.000302866123135
-0.00723553669796
0.000256482571059
-0.00730798215759
0.000211572558337
-0.00736537868621
0.000168190234929
-0.007408270575
0.000126384270746
-0.00743722740674
8.61885718845e-05
-0.00745281441871
4.76344684705e-05
-0.00745561802438
1.07399200955e-05
-0.00744621465568
-2.44777657815e-05
-0.00742519843677
-5.80137248545e-05
-0.00739314841067
-8.98631105228e-05
-0.00735065792214
-0.000120033567636
-0.00729830038373
-0.000148531654255
-0.00723666038429
-0.000175376166586
-0.00716629822837
-0.000200584113942
-0.00708778253567
-0.000224184452387
-0.00700165376054
-0.00024620349578
-0.00690845816799
-0.000266679018211
-0.00680871061199
-0.000285645181996
-0.00670292968646
-0.000303146923608
-0.00659160004869
-0.000319224532721
-0.00647520857107
-0.000333928274208
-0.00635420646185
-0.000347302724361
-0.00622904614737
-0.00035940155333
-0.0061001434405
-0.000370271767988
-0.00596791491963
-0.000379968606151
-0.00583274035402
-0.000388539795554
-0.00569500025973
-0.000396040479441
-0.00555503878852
-0.000402517634127
-0.00541320118881
-0.000408024970402
-0.00526979732213
-0.000412607606234
-0.00512513868782
-0.000416316855914
-0.0049795027315
-0.00041919527996
-0.00483316915536
-0.000421291293
-0.00468638514778
-0.000422644660249
-0.0045394006568
-0.000423300821549
-0.00439243468329
-0.00042329691953
-0.00424570927955
-0.000422675751757
-0.00409941702891
-0.000421472362534
-0.0039537535169
-0.000419727507706
-0.00380888614701
-0.0004174748578
-0.00366498493053
-0.000414753880672
-0.00352219277802
-0.00041159766344
-0.00338065445493
-0.000408045108126
-0.0032404885128
-0.000404129405083
-0.00310181434813
-0.000399889469278
-0.00296472591782
-0.000395359074778
-0.00282931683329
-0.00039057746489
-0.00269565601002
-0.000385579187391
-0.00256381079261
-0.000380403846656
-0.00243382465168
-0.000375086663148
-0.00230573831523
-0.0003696673432
-0.00217956961417
-0.000364181408855
-0.00205533263308
-0.000358668184673
-0.00193301976265
-0.000353162925085
-0.0018126188559
-0.000347703917616
-0.0016940975322
-0.000342325444989
-0.00157741834805
-0.000337064012311
-0.00146252536218
-0.000331952158876
-0.00134935730578
-0.000327023807648
-0.00123783640419
-0.000322308937161
-0.00112787952995
-0.000317838039412
-0.00101938920958
-0.00031363762339
-0.000912262626873
-0.000309733734356
-0.000806384512561
-0.000306148227706
-0.000701633287972
-0.000302901281233
-0.000597874118647
-0.000300008582686
-0.000494958653815
-0.00029748370548
-0.00039271041388
-0.000295338645004
-0.000290905609383
-0.000293591097851
-0.000189262447559
-0.000292226027237
-8.79662204016e-05
-0.000289911988563
-0.000261405623787
-0.000402490516825
0.00154045188727
-0.00084891567593
0.00170719680577
-0.00129346600511
0.00170064198646
-0.00173139931024
0.00167638714285
-0.00216045061502
0.00164373066559
-0.00257866020243
0.0016037327294
-0.00298426775126
0.00155708611664
-0.00337572156551
0.00150452946195
-0.0037516901866
0.00144684087442
-0.00411106241802
0.00138481201391
-0.00445294431766
0.00131922284042
-0.00477664568969
0.00125082265286
-0.00508166752391
0.00118031361191
-0.00536768108751
0.00110834133957
-0.00563451185449
0.00103548726039
-0.0058821165452
0.000962267596563
-0.00611056807715
0.000889132436058
-0.006320034051
0.000816470487181
-0.00651076530183
0.000744611982657
-0.00668307745243
0.000673836377087
-0.00683734393385
0.000604376498867
-0.00697398080569
0.000536426975522
-0.00709344399235
0.000470147830893
-0.0071962167498
0.000405672289243
-0.00728281027847
0.000343108882112
-0.00735375289088
0.000282548056294
-0.00740959303339
0.000224062529863
-0.00745088924986
0.000167712702173
-0.00747821477129
0.000113545462711
-0.00749214761573
6.1598708776e-05
-0.0074932762403
1.18989940666e-05
-0.00748218910837
-3.55344626069e-05
-0.00745948107046
-8.0692378344e-05
-0.00742574278956
-0.000123572053389
-0.00738156758606
-0.000164180568057
-0.00732754041225
-0.000202530704422
-0.0072642451316
-0.000238644540278
-0.00719225328226
-0.000272549158839
-0.00711213190822
-0.000304280300428
-0.00702443219868
-0.000333877806129
-0.00692969787365
-0.000361389279569
-0.00682845382705
-0.00038686530567
-0.00672121506876
-0.000410363130457
-0.00660847549111
-0.000431941714343
-0.0064907173326
-0.000451665438436
-0.00636840015144
-0.000469599071399
-0.00624197075251
-0.000485811529303
-0.00611185243535
-0.000500370827751
-0.00597845529286
-0.000513347905912
-0.00584216576729
-0.000524811640394
-0.00570335721143
-0.000534832753118
-0.00556237977324
-0.000543478949308
-0.00541957108747
-0.000550818910056
-0.00527524647998
-0.000556917616232
-0.00512970964723
-0.00056184042882
-0.00498324316534
-0.000565648641058
-0.00483611900588
-0.000568403625376
-0.00468858931848
-0.000570162643975
-0.00454089663698
-0.000570983034466
-0.00439326491587
-0.000570918281397
-0.00424590929811
-0.000570022183708
-0.00409902739171
-0.000568345174555
-0.00395280849901
-0.000565938407047
-0.00380742515121
-0.000562850288508
-0.00366304173727
-0.000559130405567
-0.00351980633384
-0.000554826237719
-0.00337785870809
-0.000549986853491
-0.00323732251194
-0.000544659768263
-0.00309831266838
-0.000538894351122
-0.00296092800795
-0.000532738809051
-0.00282525806696
-0.000526243270405
-0.00269137625404
-0.000519456891655
-0.00255934610217
-0.000512430601597
-0.00242921503974
-0.000505214346144
-0.00230102013299
-0.000497859500106
-0.00217478252499
-0.000490416274446
-0.00205051270105
-0.000482935812253
-0.00192820563437
-0.00047546778928
-0.00180784559009
-0.000468062217712
-0.00168940200037
-0.000460767267593
-0.00157283381634
-0.000453630799841
-0.00145808611234
-0.000446698430463
-0.00134509397543
-0.000440014808447
-0.00123377981668
-0.000433621934703
-0.00112405676108
-0.000427560193564
-0.00101582658504
-0.000421866932068
-0.000908982464015
-0.000416577259238
-0.000803407267522
-0.000411722926565
-0.000698975262565
-0.000407333077133
-0.000595550037773
-0.000403433762235
-0.000492983918136
-0.000400049557924
-0.000391116032216
-0.000397206262102
-0.000289776336182
-0.000394931465451
-0.000188836209286
-0.000393166817455
-8.87722481201e-05
-0.000389976890452
-0.000350178722617
-0.000410488867529
0.0019509716434
-0.00086540291418
0.0021621438451
-0.00131821725869
0.00215348940269
-0.00176399761762
0.00212220068483
-0.00220034408871
0.00208011033787
-0.0026251917253
0.00202861367145
-0.00303670701585
0.00196863476116
-0.00343329654569
0.00190115247698
-0.00381361447239
0.00182719234421
-0.00417656020446
0.00174779143582
-0.0045212695332
0.00166396590653
-0.00484709822379
0.00157668523006
-0.00515360296356
0.00148685226339
-0.00544051820953
0.00139529063204
-0.00570773408288
0.0013027371664
-0.00595527272886
0.00120984038323
-0.00618326823014
0.00111716201594
-0.00639194624777
0.0010251826491
-0.00658160846948
0.00093430822416
-0.00675261694414
0.000844878886522
-0.00690538357197
0.00075717696976
-0.00704035893652
0.000671436135562
-0.00715802612944
0.000587848550325
-0.00725889305705
0.000506572630458
-0.00734348939922
0.000427738292283
-0.00741236113606
0.000351452675576
-0.00746606940913
0.000277803257748
-0.00750518616257
0.000206861655518
-0.00753029395581
0.000138684951715
-0.00754198196205
7.33180820727e-05
-0.00754084617273
1.07939889819e-05
-0.00752748506413
-4.88651829413e-05
-0.00750250017996
-0.000105647527893
-0.00746649174549
-0.00015955121524
-0.00742005904691
-0.000210584713212
-0.00736379607719
-0.000258765635798
-0.0072982919599
-0.00030412139095
-0.00722412662865
-0.000346687789355
-0.00714187148433
-0.000386509564556
-0.00705208521722
-0.000423638796342
-0.00695531478885
-0.000458135285988
-0.00685209149683
-0.000490064813319
-0.00674293233007
-0.000519499397554
-0.00662833634948
-0.00054651545301
-0.00650878644947
-0.000571193996364
-0.00638474609023
-0.000593618763339
-0.0062566614469
-0.000613876415585
-0.00612495850351
-0.000632054692032
-0.00599004556221
-0.000648242674758
-0.00585231067848
-0.000662529030161
-0.00571212445978
-0.000675002376567
-0.00556983780379
-0.000685749676084
-0.00542578491374
-0.000694856748892
-0.00528028127606
-0.000702406854336
-0.00513362678268
-0.000708481376292
-0.00498610387373
-0.000713158629678
-0.0048379806658
-0.000716514731295
-0.00468950917205
-0.000718622634245
-0.00454092831749
-0.000719553166135
-0.00439246216071
-0.000719374277078
-0.00424432270979
-0.000718152207941
-0.00409670808382
-0.000715950899465
-0.0039498050554
-0.000712833222202
-0.00380378712781
-0.000708860485467
-0.00365881678398
-0.000704093654837
-0.00351504348611
-0.000698592883331
-0.00337260563511
-0.000692418638392
-0.00323162853922
-0.000685631196394
-0.00309222613353
-0.000678291623171
-0.00295449898187
-0.000670461185582
-0.0028185358116
-0.00066220215038
-0.00268441162731
-0.000653577102144
-0.00255218913181
-0.000644649557211
-0.00242191701996
-0.000635483195313
-0.00229363133686
-0.000626142303941
-0.00216735401021
-0.000616690955939
-0.00204309419021
-0.000607193316084
-0.00192084705457
-0.000597712799117
-0.00180059514697
-0.000588312271362
-0.00168230747388
-0.000579053229053
-0.0015659408492
-0.000569995926343
-0.00145143927879
-0.000561198603012
-0.00133873529511
-0.000552717562483
-0.00122774960678
-0.000544606476081
-0.00111839238299
-0.000536916431775
-0.00101056310245
-0.000529695342147
-0.000904151679484
-0.000522988006099
-0.000799038407876
-0.000516835712525
-0.000695094719101
-0.000511276444568
-0.000592183163707
-0.000506345070685
-0.000490158464445
-0.000502074357617
-0.000388868829389
-0.000498495674554
-0.000288164706268
-0.000495635041939
-0.000187945027912
-0.000493387732415
-8.86655868285e-05
-0.000489257967718
-0.000438844582121
-0.000420658877592
0.00237166135817
-0.000886599069052
0.00262811679747
-0.00135009204092
0.00261701542513
-0.00180596296064
0.00257810468242
-0.00225164859153
0.00252582913699
-0.0026849562637
0.00246195457826
-0.00310396361041
0.00238767544736
-0.00350702805433
0.00230425035624
-0.00389279106766
0.00221298891419
-0.00426017161828
0.00211520564809
-0.00460835076084
0.00201217883521
-0.00493674941006
0.00190511776177
-0.00524500219376
0.00179513903889
-0.00553292918748
0.00168325169236
-0.0058005079415
0.00157035006693
-0.00604784665653
0.00145721328305
-0.0062751601358
0.00134450971362
-0.0064827483708
0.00123280509439
-0.00667097878184
0.00112257282222
-0.00684027120879
0.00101420543435
-0.00699108638799
0.000908026176852
-0.00712391653374
0.000804300179685
-0.00723927875388
0.000703244501
-0.00733770963699
0.000605037044047
-0.00741976191501
0.000509823850555
-0.007486001386
0.000417725155969
-0.00753700528188
0.000328839831262
-0.00757336017363
0.000243248880993
-0.00759566092674
0.000161017622959
-0.00760450873095
8.21973897167e-05
-0.00760051015144
6.82641800441e-06
-0.00758427452869
-6.50702822607e-05
-0.00755641315397
-0.000133478953901
-0.00751753660454
-0.000198398361689
-0.00746825335439
-0.000259839200719
-0.00740916712007
-0.000317823707984
-0.00734087546493
-0.000372385584801
-0.00726396717108
-0.000423569267098
-0.0071790210233
-0.000471429645435
-0.00708660336269
-0.000516031073997
-0.00698726717228
-0.000557446884495
-0.00688154992515
-0.00059575818023
-0.00676997305492
-0.000631053207473
-0.00665304016864
-0.000663426011967
-0.00653123693607
-0.000692975743448
-0.00640502969451
-0.000719805262806
-0.00627486575855
-0.000744020460508
-0.00614117241351
-0.000765728893641
-0.00600435761305
-0.00078503918545
-0.00586480932882
-0.000802059766337
-0.00572289658306
-0.000816898418786
-0.00557896910091
-0.000829661184918
-0.00543335859833
-0.00084045210755
-0.00528637865841
-0.000849372360166
-0.00513832617764
-0.000856520226789
-0.00498948137138
-0.000861990490402
-0.00484010926254
-0.00086587466776
-0.00469045971
-0.000868260666752
-0.00454076882491
-0.000869233265076
-0.00439125892297
-0.000868874009494
-0.00424213976696
-0.000867261885534
-0.00409360836552
-0.000864473398414
-0.00394584997487
-0.000860583352783
-0.00379903770767
-0.000855665026632
-0.00365333326971
-0.000849790959372
-0.00350888638571
-0.000843033123965
-0.00336583529344
-0.000835463627423
-0.00322430603651
-0.000827154797193
-0.00308441277437
-0.000818179718037
-0.00294625701763
-0.000808612179244
-0.00280992783297
-0.000798527009082
-0.00267550110748
-0.000787999864355
-0.00254303972915
-0.000777107358897
-0.00241259295703
-0.000765926711252
-0.00228419664467
-0.000754535694891
-0.00215787277468
-0.000743012181426
-0.00203362977156
-0.000731433956113
-0.0019114622342
-0.000719878203368
-0.00179135136101
-0.000708421236542
-0.00167326489186
-0.000697137970405
-0.001557157651
-0.000686101608738
-0.00144297168891
-0.000675383141141
-0.00133063693026
-0.000665051024774
-0.0012200714884
-0.000655170735586
-0.00111118238509
-0.000645804477333
-0.00100386599054
-0.000637010821591
-0.000898008759894
-0.000628844492699
-0.000793487739505
-0.000621356160305
-0.000690171377857
-0.000614592458235
-0.000587920300591
-0.000608596014917
-0.000486588392783
-0.000603405778084
-0.000386026054487
-0.000599057589304
-0.000286086895106
-0.000595574875863
-0.000186662016474
-0.000592813082487
-8.81677234191e-05
-0.000587753012345
-0.000527013138012
-0.000433264379373
0.00280495645711
-0.000912935426319
0.00310782067649
-0.00138970055522
0.00309381344636
-0.00185806934225
0.00304650649298
-0.00231527136266
0.00298306422487
-0.00275895656099
0.0029056729559
-0.00318709688102
0.00281584903834
-0.0035979955845
0.00271518246707
-0.00399028761361
0.00260531446125
-0.0043629263216
0.00248787802466
-0.00471515976932
0.00236444606008
-0.00504649960249
0.00223649152024
-0.00535668629448
0.00210535974739
-0.00564565312833
0.00197225267036
-0.00591349173943
0.00183822288033
-0.00616042024532
0.00170417608268
-0.00638675556789
0.00157087934319
-0.00659288976052
0.00143897363408
-0.00677927104894
0.00130898841378
-0.00694638865178
0.00118135731769
-0.00709476163633
0.00105643333344
-0.00722493055683
0.000934503176539
-0.00733745199548
0.000815799835268
-0.00743289471103
0.000700513480835
-0.00751183755096
0.000588800156498
-0.00757486793736
0.000480788750551
-0.00762258120239
0.000376585972083
-0.00765557977218
0.000276279986156
-0.00767447262573
0.000179942604588
-0.00767987420836
8.76306758038e-05
-0.00767240367037
-6.12898697443e-07
-0.00765268284803
-8.47603890927e-05
-0.00762133485036
-0.000164796788283
-0.007578982318
-0.000240721309622
-0.00752624525521
-0.000312547291913
-0.00746373880953
-0.000380301823558
-0.00739207125986
-0.000444025468121
-0.00731184180799
-0.000503771749465
-0.00722363868604
-0.000559606505793
-0.00712803718376
-0.000611607055953
-0.0070255980474
-0.000659861241844
-0.00691686587341
-0.000704466352553
-0.00680236789573
-0.000745527950768
-0.00668261281528
-0.000783158659923
-0.00655809002271
-0.000817476885963
-0.00642926888363
-0.000848605570005
-0.00629659839687
-0.000876670905776
-0.00616050692037
-0.00090180115209
-0.00602140223951
-0.000924125436461
-0.00587967169138
-0.000943772705754
-0.0057356825883
-0.000960870692667
-0.0055897826749
-0.000975545077871
-0.00544230083232
-0.000987918691375
-0.00529354777665
-0.000998110946842
-0.0051438169389
-0.00100623733381
-0.0049933852904
-0.00101240916997
-0.00484251427871
-0.00101673341759
-0.00469145065037
-0.00101931276159
-0.00454042731268
-0.00102024574084
-0.00438966402993
-0.00101962711792
-0.00423936810198
-0.00101754826954
-0.00408973483644
-0.00101409776322
-0.00394094796911
-0.00100936190636
-0.00379317986298
-0.00100342541309
-0.00364659165341
-0.000996371989931
-0.00350133317953
-0.000988284962767
-0.00335754288824
-0.000979247778277
-0.00321534755577
-0.000969344481246
-0.00307486203147
-0.000958660042199
-0.00293618883942
-0.000947280612456
-0.00279941786072
-0.000935293632411
-0.00266462591665
-0.000922787843337
-0.00253187648919
-0.000909853179745
-0.00240121937447
-0.000896580559367
-0.00227269051809
-0.000883061597858
-0.00214631180405
-0.000869388229952
-0.00202209105501
-0.000855652304922
-0.00190002199168
-0.000841945100644
-0.00178008441708
-0.00082835685971
-0.00166224435744
-0.000814976256782
-0.00154645442922
-0.000801889927246
-0.00143265415179
-0.000789181936799
-0.00132077047822
-0.00077693334268
-0.00121071825603
-0.000765221706061
-0.0011024008905
-0.0007541207192
-0.000995710921538
-0.000743699797005
-0.000890530780484
-0.000734023808786
-0.000786733514867
-0.000725152807552
-0.000684183612991
-0.000717141872554
-0.000582738077304
-0.00071004111392
-0.000482248138243
-0.000703895707029
-0.000382560721592
-0.000698744630725
-0.000283523893651
-0.000694610830773
-0.000185018101038
-0.000691320002245
-8.74281815432e-05
-0.000685344470059
-0.000614441435947
-0.000448583601191
0.00325357068953
-0.000944948259164
0.00360421781011
-0.00143781493175
0.0035867129541
-0.00192129017951
0.00353001459854
-0.0023923420622
0.00345414909381
-0.00284842832133
0.00336179228168
-0.00328739783874
0.00325485176449
-0.00370749854002
0.00313531649508
-0.00410737125075
0.00300522066358
-0.00448602680762
0.00286656720254
-0.00484281049871
0.00272126354404
-0.00517735899932
0.00257107393456
-0.00548955393925
0.00241758876035
-0.00577947610443
0.00226220900477
-0.00604736264099
0.00210614371556
-0.00629356937051
0.00195041716728
-0.00651853876577
0.00179588317632
-0.00672277417333
0.00164324348423
-0.00690681967459
0.0014930683807
-0.00707124534998
0.00134581740086
-0.0072166368755
0.0012018592181
-0.00734358893822
0.00106148947077
-0.00745270137151
0.000924946372287
-0.00754457748749
0.00079242349712
-0.00761982368223
0.000664080038381
-0.00767904989718
0.000540048371611
-0.0077228702878
0.00042043946909
-0.00775190384474
0.000305346290114
-0.0077667746424
0.000194845762653
-0.00776811162299
8.89995798193e-05
-0.00775654758596
-1.21454846995e-05
-0.00773271854244
-0.000108558495019
-0.00769726176535
-0.000200223182536
-0.00765081376284
-0.000287139507939
-0.00759400825455
-0.000369323620014
-0.00752747382257
-0.000446807711192
-0.00745183166746
-0.000519639764295
-0.00736769326812
-0.000587882973573
-0.00727565830605
-0.000651615028885
-0.00717631256747
-0.000710927078854
-0.00707022622564
-0.000765922645994
-0.00695795213629
-0.000816716256933
-0.00684002458605
-0.000863432124449
-0.00671695805589
-0.000906202587097
-0.00658924647458
-0.000945166693908
-0.00645736246824
-0.000980468587527
-0.00632175711329
-0.00101225611188
-0.00618285965329
-0.00104067925079
-0.00604107771394
-0.00106588885632
-0.00589679744312
-0.00108803523861
-0.00575038412952
-0.00110726710207
-0.00560218269884
-0.0011237303728
-0.00545251864993
-0.00113756742264
-0.00530169881084
-0.00114891621572
-0.00515001247681
-0.00115790989121
-0.00499773229986
-0.00116467629064
-0.00484511548403
-0.00116933793954
-0.00469240466049
-0.00117201197794
-0.00453982898613
-0.00117281053171
-0.00438760485984
-0.00117184100916
-0.00423593678596
-0.00116920678827
-0.00408501781886
-0.00116500778082
-0.00393503010074
-0.00115934130592
-0.00378614497993
-0.00115230277588
-0.00363852319799
-0.00114398659324
-0.00349231469657
-0.00113448679917
-0.00334765849859
-0.00112389783702
-0.00320468228132
-0.0011123150261
-0.00306350204916
-0.00109983507419
-0.0029242215896
-0.00108655629221
-0.00278693206052
-0.00107257880054
-0.00265171145399
-0.00105800446371
-0.00251862421633
-0.00104293679745
-0.00238772082548
-0.00102748065924
-0.00225903753389
-0.00101174191149
-0.00213259613089
-0.000995826936956
-0.00200840386216
-0.000979842136324
-0.00188645341014
-0.000963893347601
-0.00176672300992
-0.000948085257181
-0.00164917665046
-0.000932520793802
-0.00153376438296
-0.000917300519643
-0.00142042272437
-0.000902522053446
-0.00130907514001
-0.000888279492655
-0.00119963261866
-0.000874662905197
-0.00109199430133
-0.000861757821313
-0.000986048198211
-0.000849644825031
-0.00088167194245
-0.000838399146529
-0.000778733626796
-0.000828090367271
-0.000677092784166
-0.000818782182805
-0.000576601485267
-0.00081053210675
-0.000477105278786
-0.000803391156673
-0.000378445741088
-0.000797403521076
-0.000280463999761
-0.000792593184156
-0.000183026951671
-0.000788757237995
-8.649817874e-05
-0.000781873683448
-0.000700940369538
-0.000466955377645
0.00372055649933
-0.000983319703844
0.0041206146971
-0.00149542414763
0.00409884997506
-0.00199686825205
0.00403149145527
-0.00248429441742
0.00394160806864
-0.00295492847325
0.00383245929258
-0.0034064801586
0.00370643652612
-0.00383714676518
0.00356601635162
-0.00424559698369
0.00341370427895
-0.00463093346136
0.00325193726951
-0.00499264096064
0.0030830047806
-0.00533052661572
0.00290899351845
-0.0056446585864
0.00273175479028
-0.00593530735546
0.00255289200364
-0.00620289324984
0.00237376393598
-0.00644794155036
0.00219549992565
-0.00667104630819
0.00201902244029
-0.00687284222225
0.00184507398155
-0.00705398432208
0.001674245052
-0.00721513394414
0.00150700160397
-0.00735695031728
0.0013437100916
-0.00748008613227
0.0011846597176
-0.00758518645134
0.00103008096636
-0.00767288952976
0.000880160696905
-0.00774382908442
0.000735053477814
-0.00779863688439
0.000594889813021
-0.00783794543181
0.000459781339616
-0.0078623899894
0.000329823837839
-0.00787260999248
0.000205098357423
-0.00786924947664
8.56712318726e-05
-0.00785295642217
-2.84068507117e-05
-0.0078243825541
-0.000137101187744
-0.0077841810117
-0.000240394103106
-0.00773300438638
-0.000338286101901
-0.00767150238865
-0.000430796202803
-0.00760031933564
-0.000517962007058
-0.00752009158627