/*--------------------------------*- C++ -*----------------------------------*\
| =========                 |                                                 |
| \\      /  F ield         | OpenFOAM: The Open Source CFD Toolbox           |
|  \\    /   O peration     | Version:  v1906                                 |
|   \\  /    A nd           | Web:      www.OpenFOAM.com                      |
|    \\/     M anipulation  |                                                 |
\*---------------------------------------------------------------------------*/
FoamFile
{
    version     2.0;
    format      ascii;
    class       volScalarField;
    location    "476";
    object      pa;
}
// * * * * * * * * * * * * * * * * * * * * * * * * * * * * * * * * * * * * * //

dimensions      [0 2 -2 0 0 0 0];


internalField   nonuniform List<scalar> 
9216
(
978.49088308
978.129271087
977.394533167
976.28352877
974.799912502
972.947971801
970.733069309
968.161595971
965.240859654
961.979075877
958.385244598
954.469145972
950.241206371
945.712500756
940.894614047
935.799653867
930.440113681
924.828899229
918.979198941
912.904526022
906.61859995
900.135404498
893.46908214
886.634006329
879.644688504
872.515861275
865.262396039
857.899392335
850.442102717
842.906022657
835.306819174
827.660414581
819.982912407
812.290670485
804.600220013
796.928319757
789.291863037
781.707907969
774.193568677
766.76601743
759.442358278
752.23959923
745.174508687
738.263557806
731.522761338
724.967591323
718.612803656
712.472324499
706.559063122
700.884774553
695.459861769
690.293226645
685.392074284
680.761781209
676.40572991
672.325239943
668.519468645
664.985450049
661.718086275
658.71031703
655.953205591
653.436230344
651.147444839
649.073848
647.201594251
645.516404797
644.003790372
642.649423987
641.439299006
640.359998271
639.398757111
638.543630545
637.783481337
637.108076143
636.508024227
635.974823051
635.500763574
635.078941088
634.703145272
634.367851667
634.068107918
633.799507141
633.558056348
633.339822855
633.143044146
632.972448852
632.830596562
632.715998985
632.627522551
632.561973016
632.515577624
632.483785678
632.462517987
632.449611718
632.443112227
632.440840215
978.852020193
978.489258176
977.753256918
976.639194875
975.151279172
973.293938189
971.072627004
968.49379723
965.564831489
962.294003667
958.690392964
954.763839237
950.524849833
945.984556354
941.154621042
936.047200242
930.674856214
925.05053167
919.187471771
913.099212699
906.799516903
900.302376832
893.621964433
886.772649084
879.768960272
872.625616936
865.357500519
857.979691549
850.507449064
842.956249447
835.341767208
827.679909868
819.986795779
812.278779405
804.5724187
796.884484921
789.231914885
781.631799391
774.101315949
766.657692022
759.318116017
752.09967395
745.019238893
738.093381839
731.338241275
724.769409829
718.401785263
712.249433798
706.325422608
700.641661203
695.208717699
690.035646846
685.129803596
680.496683967
676.139769024
672.060424618
668.257820733
664.728935827
661.468582185
658.46953638
655.72267707
653.217234672
650.941013831
648.880712184
647.022199154
645.350887973
643.852034911
642.511072646
641.313827805
640.246739586
639.296965015
638.452493175
637.702170594
637.03575046
636.44386839
635.918045065
635.450624963
635.034747369
634.66426819
634.333718741
634.038227401
633.773483313
633.535686613
633.32156662
633.128435432
632.959425365
632.819330489
632.707544437
632.620334648
632.555466
632.510408249
632.479636459
632.458756558
632.44656344
632.440728868
632.438367326
979.588146925
979.22222769
978.481995979
977.361586784
975.865245031
973.997457156
971.763775585
969.170756125
966.225901998
962.93760737
959.315084493
955.368299978
951.10789647
946.545128358
941.691784867
936.560131238
931.162839118
925.512938289
919.623759031
913.508897956
907.182175247
900.657616148
893.949423762
887.071975482
880.039809792
872.867634909
865.570326292
858.162943342
850.660733167
843.079150348
835.433862131
827.740764951
820.015985307
812.275888278
804.537066984
796.81633616
789.130704696
781.49734833
773.933560306
766.456699201
759.084115198
751.833071919
744.720648778
737.763638372
730.978427251
724.380871165
717.986155775
711.808649984
705.86174513
700.157684406
694.707379165
689.520217799
684.603870027
679.964099572
675.604594705
671.526838066
667.730022011
664.211030669
660.964476976
657.982819987
655.256532988
652.774355681
650.523554803
648.490224866
646.659611977
645.016503655
643.54559883
642.231852315
641.060728283
640.018395342
639.091836665
638.268929056
637.538471326
636.890207666
636.31481322
635.803873751
635.349830072
634.945925904
634.586136809
634.265111394
633.978102394
633.720918474
633.4898831
633.281846701
633.093717563
632.929440657
632.796532316
632.690497406
632.605769542
632.54310527
632.50065486
632.471093171
632.451654878
632.440508823
632.434614418
632.431684426
980.706724398
980.337142541
979.590398194
978.460220071
976.950938485
975.067142194
972.814522482
970.199795254
967.23064312
963.915649997
960.264228281
956.286545981
951.9934491
947.39638787
942.507341352
937.338749332
931.903445364
926.214599947
920.285667016
914.130342444
907.762527065
901.19630232
894.4459104
887.525746255
880.450352953
873.234427028
865.892825261
858.440578917
850.892907157
843.265234986
835.573208554
827.832710129
820.059868886
812.271068762
804.482947192
796.712387873
788.976501315
781.292595885
773.678134409
766.150678988
758.727820837
751.427097955
744.265899278
737.261357945
730.430233515
723.788784532
717.352631114
711.136606496
705.154596101
699.419361072
693.942345361
688.733465941
683.800891654
679.150821102
674.787277535
670.711942528
666.92404936
663.420347055
660.195136071
657.240384641
654.545920851
652.099727796
649.888236846
647.896607722
646.109084601
644.509460216
643.081541497
641.809546935
640.678387414
639.673841887
638.782644263
637.992523163
637.292212208
636.671455447
636.120992671
635.632523713
635.198641644
634.812760387
634.469037715
634.162303294
633.887985078
633.642046365
633.420934715
633.221530641
633.040694967
632.885656354
632.761878539
632.662166184
632.584022324
632.525972781
632.485031143
632.457413528
632.439678724
632.429062502
632.423118256
632.420193777
982.210742821
981.836455049
981.080902591
979.937484361
978.410667901
976.505192878
974.226940783
971.582847464
968.580839917
965.22976334
961.539303341
957.51990558
953.182693499
948.539387246
943.602224272
938.383884625
932.897421176
927.156197547
921.173833547
914.964160363
908.54118469
901.919063273
895.112086312
888.134670379
881.001358716
873.726828942
866.325905811
858.81357872
851.205021689
843.515615261
835.760969085
827.956941081
820.11965585
812.265517492
804.411215524
796.573722186
788.770278877
781.018370105
773.335683492
765.740054901
758.249398656
750.881623078
743.654532956
736.585720064
729.692444111
722.991504588
716.499104491
710.230703368
704.200857106
698.423038163
692.909431663
687.670702723
682.715737982
678.051372726
673.682127142
669.609987672
665.834261855
662.351528794
659.155657515
656.237933555
653.58725915
651.19057091
649.033174256
647.098929514
645.37062932
643.83061722
642.461419099
641.246235788
640.169246116
639.215746456
638.372178702
637.626109646
636.966205243
636.382223682
635.865006202
635.406429091
634.99930982
634.637307789
634.314835657
634.026975762
633.769393564
633.538253649
633.330134991
633.141617046
632.971808815
632.829534368
632.716411821
632.625367377
632.553129736
632.499897967
632.462935562
632.437769131
632.421178561
632.411129323
632.40534235
632.402463663
984.104835157
983.724645898
982.957921043
981.797681548
980.248583758
978.315570776
976.004772712
973.323411393
970.279730046
966.882912379
963.142997
959.070788911
954.677769542
949.976007876
944.978074012
939.69695767
934.145992787
928.338790467
922.289181026
916.01116682
909.518885847
902.82658692
895.948615437
888.899409589
881.693505249
874.345548727
866.870315393
859.282733187
851.597909171
843.831158106
835.998032574
828.114349153
820.196215156
812.260049478
804.322596593
796.400931386
788.512452242
780.674860211
772.906122392
765.224418389
757.648069638
750.195452367
742.884896147
735.73457064
728.762363612
721.985752542
715.421670698
709.08636557
702.99524404
697.162694806
691.601876183
686.324457863
681.340313296
676.657171164
672.280264313
668.212022504
664.451884255
660.996229283
657.838375844
654.968706332
652.37482605
650.042301594
647.955082822
646.095337421
644.443816887
642.980810524
641.687081432
640.544506342
639.536384946
638.647491848
637.863991018
637.173310227
636.564058697
636.026023404
635.550194007
635.128711202
634.754713373
634.422194877
634.125907811
633.861273804
633.624282269
633.411399828
633.219495478
633.045306098
632.890083946
632.762369785
632.659309435
632.576284719
632.512263942
632.46670975
632.433357689
632.41051128
632.395672551
632.385534445
632.37976389
632.376852911
986.394804899
986.00742171
985.227050091
984.046251442
982.469922833
980.503265971
978.152724527
975.425879328
972.331369653
968.878802573
965.078657715
960.94218863
956.481323194
951.708564964
946.636897877
941.27969614
935.650641633
929.763650466
923.632810654
917.272331888
910.696508526
903.919695648
896.956298037
889.820770723
882.52762989
875.091472072
867.527000158
859.849054225
852.072646096
844.212995901
836.285571331
828.306122408
820.29071867
812.255780175
804.218102024
796.194869041
788.203657803
780.262422714
772.389463974
764.60337546
756.922972475
749.36720015
741.955025658
734.705318171
727.636721925
720.767526798
714.115539113
707.697950925
701.531199942
695.630805454
690.011157469
684.685236938
679.66424426
674.957147766
670.570182604
666.506418098
662.765486957
659.343574602
656.233317192
653.423977059
650.901247193
648.648945424
646.649691368
644.883555128
643.328374955
641.961503446
640.7613113
639.708034646
638.7840199
637.97358928
637.262740265
636.638839739
636.0904554
635.607391849
635.180839629
634.80333994
634.468489532
634.170721007
633.905216443
633.667836278
633.454984326
633.263517916
633.090682621
632.933465277
632.795105305
632.682350171
632.590936813
632.51860816
632.464115372
632.42417433
632.394532826
632.374015363
632.361008846
632.351483147
632.345978724
632.343246864
989.087726954
988.691770242
987.89513892
986.689843449
985.0810762
983.0743584
980.676519482
977.895581118
974.740667802
971.22190467
967.350310178
963.137685507
958.596502851
953.739795227
948.581049828
943.13410764
937.413071364
931.432224332
925.205962113
918.748738885
912.07502921
905.199305833
898.136032493
890.899670675
883.504697859
875.9656353
868.297082693
860.513758131
852.630541607
844.662521152
836.625042347
828.533753645
820.404655955
812.254146624
804.099057132
795.956680906
787.844786966
779.781615543
771.785852003
763.876576702
756.073189799
748.395312523
740.862668739
733.494953429
726.311696337
719.332129426
712.575064397
706.058780661
699.800915397
693.818332682
688.126939166
682.741393823
677.674673827
672.937461187
668.537421125
664.47850852
660.760620821
657.37979256
654.327867991
651.592902578
649.15738097
647.002845924
645.111476403
643.460863917
642.024425044
640.775165304
639.68822559
638.741919603
637.917740207
637.199824728
636.574285223
636.028591717
635.551253449
635.131990581
634.762225959
634.43515296
634.145036823
633.886853439
633.656294424
633.449782153
633.264226989
633.096960518
632.945676355
632.80778984
632.688681833
632.591694384
632.513505379
632.452266587
632.406201522
632.371297208
632.346600322
632.328534346
632.316581531
632.30904942
632.30389005
632.301502625
992.192025908
991.786018369
990.970347477
989.736370989
988.089638938
986.03606022
983.582931979
980.738809128
977.513402159
973.917460731
969.962652096
965.661435916
961.026938386
956.07282783
950.813194658
945.262437997
939.435162184
933.346085607
927.009965002
920.441537018
913.655478932
906.666388439
899.488782073
892.137109794
884.625783227
876.969213901
869.181858815
861.278270656
853.27315166
845.181409978
837.018220945
828.799084244
820.539888601
812.256971452
803.967173709
795.687884397
787.437070103
779.233283337
771.095645032
763.043796888
755.097822043
747.278135048
739.605346604
732.100112366
724.782979129
717.67424356
710.793836368
704.161239132
697.795424585
691.714797114
685.937074133
680.479036278
675.356030655
670.581158921
666.164146981
662.110181719
658.419350743
655.087739336
652.106275281
649.462520766
647.13239306
645.094102182
643.333088756
641.824057329
640.532912778
639.42592179
638.47390159
637.653162142
636.944799967
636.333392574
635.805739367
635.349711406
634.953635978
634.606769013
634.300711135
634.029861106
633.78950975
633.575227043
633.383228015
633.210688174
633.055109976
632.914360503
632.786560264
632.670450698
632.57181677
632.49116084
632.426687991
632.376634372
632.338606203
632.310066341
632.289167851
632.274533211
632.264219662
632.258578815
632.253861885
632.251933333
995.717566383
995.299916948
994.462223934
993.195083689
991.504474156
989.39677069
986.879831724
983.962851119
980.656239937
976.971493234
972.921051266
968.518157449
963.776715491
958.711148557
953.336262792
947.667118526
941.718912125
935.506872502
929.046175499
922.351879674
915.438885196
908.321916902
901.015529898
893.534135205
885.892040762
878.103503449
870.182787466
862.144226565
854.0022886
845.771642882
837.46723338
829.104349619
820.698708588
812.266533987
803.824632353
795.390460049
786.982173659
778.618656347
770.319512475
762.10502432
753.996066981
746.013981981
738.180415657
730.517135442
723.045844299
715.788018138
708.76479232
701.996913973
695.504763998
689.308416277
683.427673281
677.881938676
672.689745447
667.867680994
663.428600806
659.379364883
655.719660566
652.446215069
649.548605136
647.018195226
644.814500003
642.909383537
641.304229951
639.969562511
638.856639597
637.920844238
637.127510959
636.451452334
635.874558598
635.383048114
634.965477274
634.610666476
634.306370846
634.040280066
633.803803722
633.593985262
633.407778572
633.241156154
633.090625524
632.95456189
632.83110702
632.718704115
632.616084266
632.523328511
632.444825881
632.380660334
632.330446321
632.292162598
632.263044083
632.24101039
632.223811165
632.211755855
632.204361919
632.200126841
632.196452242
632.194885723
999.675758952
999.244739013
998.38179975
997.076653668
995.335789773
993.166140987
990.576235709
987.576028337
984.176761952
980.39081471
976.231541179
971.713110436
966.850343954
961.658555285
956.153394542
950.350700446
944.266364364
937.916210549
931.315897991
924.480847949
917.4262009
910.166803578
902.717225052
895.091797105
887.30467299
879.369896936
871.301478562
863.11346795
854.820031094
846.435527297
837.974593942
829.452231913
820.883907708
812.285656011
803.674183464
795.066964665
786.482321344
777.939473764
769.458553786
761.060569198
752.767312392
744.601211049
736.585127133
728.742120974
721.095209508
713.667158934
706.480355924
699.556799289
692.918228529
686.586381391
680.583301146
674.931534757
669.653880746
664.772137235
660.304272515
656.259541968
652.634732943
649.429154228
646.628365061
644.245677151
642.193864407
640.427831622
639.00764756
637.892492254
637.001024524
636.27100856
635.661961861
635.149211623
634.718039053
634.358291212
634.062211203
633.820705914
633.62004034
633.443324725
633.280238611
633.134641999
633.006359815
632.890729384
632.783548366
632.685766979
632.595992059
632.513118169
632.436863358
632.367927145
632.309536095
632.26282243
632.227014568
632.199616196
632.178610823
632.162870962
632.151004265
632.14225566
632.136839901
632.134188287
632.132158384
632.130952869
1004.07968679
1003.63340411
1002.74170354
1001.39327992
999.59522965
997.35515102
994.68236904
991.587739935
988.083490077
984.183038507
979.900814908
975.252075519
970.252718944
964.919104064
959.267871827
953.315774598
947.079517333
940.575617169
933.820287904
926.82935662
919.618217157
912.201823137
904.594718208
896.811097739
888.86489177
880.76985842
872.539677636
864.188040277
855.728732359
847.175720236
838.543244196
829.845918746
821.09885721
812.317803089
803.519268719
794.720669897
785.94044396
777.198137225
768.514445905
759.911195111
751.411242586
743.038300028
734.816675551
726.770956705
718.925673969
711.305004798
703.932593991
696.831564262
690.02477516
683.535349312
677.387441334
671.607084663
666.222687274
661.264077145
656.758555126
652.71961475
649.132254209
646.004688515
643.302861702
641.136320974
639.273894761
637.612541467
636.41887066
635.596979657
634.987063269
634.50322954
634.103458566
633.769082147
633.493959734
633.273854616
633.107868124
632.99183902
632.909015129
632.830961417
632.739595816
632.65840831
632.591979424
632.531141088
632.467340132
632.408929793
632.353867507
632.30079561
632.251254493
632.205939407
632.168106851
632.138874347
632.116381386
632.099157342
632.086196782
632.077170289
632.0707131
632.066571724
632.063593418
632.062225462
632.06220221
632.061678653
1008.94425695
1008.48062081
1007.55629788
1006.15881146
1004.29598153
1001.97619916
999.209735616
996.00851376
992.385918415
988.356590232
983.936217359
979.141326472
973.98907492
968.497044119
962.68303575
956.564873231
950.160214475
943.486383562
936.560231816
929.398038089
922.01545722
914.42752046
906.648686405
898.692932952
890.573875541
882.304893272
873.899247561
865.37018473
856.731024927
847.995248317
839.176592616
830.289166165
821.347597644
812.367202543
803.364166725
794.355731645
785.36036587
776.397903625
767.489629009
758.65828193
749.927963395
741.323922896
732.872224177
724.599307494
716.531498873
708.694553904
701.113353793
693.811885163
686.813606547
680.142294845
673.823458132
667.88632494
662.36616025
657.305239142
652.750322427
648.725527944
645.175056821
642.143520751
639.494326231
637.712000715
636.076560132
634.149933398
633.18887802
632.824434213
632.619721788
632.454837153
632.307379987
632.17904022
632.076001332
632.010236492
631.999188863
632.051483872
632.145009558
632.214486199
632.190715599
632.170838819
632.17262056
632.172732255
632.146939018
632.128557961
632.109417717
632.085021284
632.062028526
632.039372662
632.021691879
632.008060469
631.998412696
631.991882075
631.988024933
631.98616372
631.985271372
631.985388298
631.985953837
631.986250798
631.988270759
631.988475607
1014.28638127
1013.80306345
1012.84184121
1011.3888939
1009.45290315
1007.04320645
1004.17119885
1000.85006382
997.09454769
992.92072002
988.345735401
983.387598492
978.064931297
972.396741101
966.402187508
960.10035097
953.510008626
946.649428839
939.536198462
932.187099224
924.618046765
916.844101014
908.879546195
900.738028034
892.432723952
883.976517117
875.382147347
866.662325833
857.8298186
848.897521408
839.878550157
830.786363014
821.63493715
812.438979242
803.214166265
793.977397547
784.747038248
775.543130859
766.387545465
757.304034609
748.318155579
739.457026311
730.748894292
722.222527065
713.906481107
705.828370078
698.014313044
690.488775362
683.274955157
676.395879778
669.876492626
663.747232976
658.049871257
652.844660582
648.222652162
644.246767592
640.71220677
637.764119219
634.474971224
633.751124187
632.957607901
632.565445359
632.467094108
632.460062421
632.436237907
632.38138985
632.305050453
632.222878042
632.15013374
632.099695947
632.078733187
632.069154812
632.006990295
631.805264993
631.597207214
631.60214961
631.712776137
631.822501855
631.823342867
631.848896795
631.869259545
631.868554969
631.872286163
631.869519468
631.870325297
631.871571301
631.874848748
631.879809164
631.885445574
631.891013758
631.896198458
631.900969559
631.90492659
631.907870955
631.911409246
631.912476902
1020.12519296
1019.61957594
1018.61668085
1017.10114102
1015.08266956
1012.57173606
1009.58107298
1006.12535376
1002.2209227
997.88551499
993.137986337
987.998051845
982.486030422
976.622587481
970.428471082
963.924240658
957.129995692
950.065118501
942.748052881
935.196142812
927.425554982
919.451300263
911.287355964
902.946870655
894.442414738
885.786226808
876.990409721
868.067052126
859.028287547
849.886333464
840.653555667
831.342591122
821.96655542
812.539308785
803.075771138
793.592260561
784.106832942
774.639595083
765.212955114
755.851761971
746.58327685
737.43691509
728.443706538
719.635454808
711.043645738
702.698265272
694.626798157
686.853767843
679.400963497
672.288482756
665.537062974
659.17287344
653.238824261
647.81211919
643.083281116
639.226278155
635.293729527
633.189071712
633.086128065
633.186123382
633.091058631
632.975590555
632.899134653
632.845930466
632.784962626
632.707765229
632.613879216
632.511435597
632.409440676
632.315766247
632.235010003
632.155529262
632.051980175
631.923761401
631.831826301
631.822555129
631.823436012
631.673140913
631.452599528
631.540425807
631.639676493
631.650886893
631.686951831
631.696172361
631.715968414
631.730979037
631.748384485
631.76486849
631.779613708
631.792651302
631.804465483
631.814417132
631.82243606
631.828289971
631.832671246
631.83493538
1026.48230632
1025.9514225
1024.90148129
1023.31533762
1021.20394337
1018.5791292
1015.45522401
1011.84866537
1007.77767119
1003.26191171
998.322204745
992.980232513
987.258268692
981.178900971
974.764735698
968.038080282
961.02060974
953.733037562
946.194821447
938.423942691
930.436797308
922.248228553
913.871708713
905.31964787
896.603771204
887.735481148
878.726119929
869.587087533
860.329838515
850.965840986
841.506580821
831.963673271
822.349107404
812.675586494
802.95693915
793.208568038
783.447913444
773.694905209
763.972360556
754.306264695
744.725849934
735.26337158
725.953472377
716.832053994
707.9346647
699.294602756
690.941145343
682.898612271
675.186223119
667.818546379
660.806639011
654.161248337
647.900055974
642.025214501
636.616487207
633.854329598
633.660259062
633.598643827
633.606849503
633.668072299
633.633330451
633.560118899
633.467825715
633.374731347
633.281047324
633.181110399
633.072514507
632.957293572
632.838870995
632.723269354
632.612432086
632.496102674
632.356272883
632.1948663
632.049525274
631.946708413
631.855615926
631.75393329
631.70681962
631.686583116
631.519968216
631.391206308
631.510539189
631.515324238
631.562649595
631.586827458
631.620637603
631.647755339
631.671222327
631.692838737
631.711922832
631.727413423
631.739664188
631.748446642
631.754129989
631.757499567
1033.38212962
1032.82258041
1031.71949656
1030.0536765
1027.83757142
1025.08465718
1021.81117875
1018.03566883
1013.77854206
1009.06170727
1003.90822911
998.34203208
992.387624664
986.069812954
979.413378381
972.442706137
965.181370661
957.651703786
949.87439112
941.868154851
933.649586865
925.233185283
916.63161963
907.856199241
898.917457091
889.82570465
880.591401761
871.225248728
861.738048454
852.140502669
842.443099208
832.656195655
822.790317992
812.8566071
802.867356276
792.836594394
782.780702441
772.719047287
762.674590504
752.674393283
742.749902765
732.93686364
723.274656374
713.804855774
704.568894267
695.605042862
686.945304509
678.613948826
670.627119719
662.992458756
655.708445411
648.758099791
642.06032587
635.073985908
634.528717903
634.397105291
634.358648157
634.367424202
634.354943904
634.338677165
634.287470794
634.209750103
634.111057793
634.004336081
633.892805006
633.774228257
633.649118272
633.517257738
633.378953737
633.23812945
633.095190466
632.943323305
632.772485784
632.585393669
632.404999856
632.247492674
632.098620416
631.948537096
631.824333693
631.721417172
631.644895486
631.611600773
631.493134466
631.285135291
631.411735769
631.436091719
631.494491085
631.530421293
631.563369467
631.594315438
631.620818093
631.642080121
631.658296493
631.670241878
631.677644307
631.681932006
1040.85224348
1040.26010014
1039.09689403
1037.34103833
1035.00680997
1032.10968909
1028.66823732
1024.70348944
1020.23843758
1015.2975674
1009.90648966
1004.09165262
997.880090649
991.299153564
984.376168575
977.138009008
969.610572293
961.818201929
953.78311699
945.524938227
937.06041262
928.403433405
919.565415255
910.556009184
901.384028502
892.058339827
882.588420394
872.984381213
863.256550469
853.414955045
843.468995477
833.427486762
823.299054052
813.092746501
802.818741935
792.489082681
782.118464723
771.725098114
761.331605535
750.965867398
740.661670704
730.45894757
720.403274177
710.544193634
700.931924234
691.612569116
682.622389925
673.986186802
665.717665728
657.820346322
650.284057792
643.042302047
635.586227216
634.680483126
635.005046006
635.189783283
635.229093504
635.189190833
635.146207763
635.101946945
635.038908722
634.954341784
634.850076835
634.732745175
634.604737559
634.466389495
634.320502571
634.166196354
634.002452247
633.831746267
633.654023676
633.46572606
633.262937756
633.049319074
632.838055998
632.638447423
632.445751105
632.256046054
632.079967575
631.919134048
631.775579653
631.656365705
631.557337783
631.507242664
631.413927861
631.248264075
631.375372095
631.414928977
631.457347377
631.498935371
631.532979922
631.559968833
631.580378776
631.595203103
631.604543825
631.609691708
1048.92386127
1048.29453339
1047.06314308
1045.20532016
1042.73758254
1039.67787193
1036.04758123
1031.87075952
1027.17343102
1021.9830275
1016.32800112
1010.23758552
1003.7416213
996.870345557
989.654063062
982.122651317
974.304897615
966.227711274
957.91530037
949.388442115
940.664008647
931.754916985
922.670636591
913.418278669
904.00409832
894.434993304
884.71941945
874.867258741
864.888832123
854.793781833
844.590379848
834.285527881
823.885357128
813.396131076
802.825174299
792.181751178
781.478018733
770.730148597
759.95960705
749.19448655
738.470737399
727.833058988
717.334969971
707.037245295
697.003520859
687.292746237
677.94732008
668.992608912
660.440984424
652.291610566
644.490250536
636.551518325
635.580929193
635.795174944
636.063363877
636.123815197
636.129086305
636.082811095
636.026567369
635.963599015
635.885309252
635.78821052
635.671957795
635.538850724
635.390353847
635.229080758
635.057889309
634.875725742
634.682492021
634.479849188
634.26787369
634.045077637
633.810601772
633.567868516
633.324488352
633.086098928
632.852768827
632.625072577
632.408413013
632.204640211
632.013628537
631.839118734
631.683173279
631.559100789
631.466559081
631.416852577
631.343401802
631.293178864
631.349730124
631.407680287
631.450156117
631.482564029
631.507191246
631.524639774
631.536049044
631.54189114
1057.63239154
1056.96046511
1055.6514814
1053.67782592
1051.05877476
1047.81531847
1043.97236154
1039.55763644
1034.60075289
1029.13247996
1023.18436498
1016.78862095
1009.97812167
1002.78633093
995.247027571
987.393749395
979.258945111
970.872889511
962.262479298
953.450092003
944.45275164
935.281889385
925.9439732
916.442148371
906.778714286
896.957759806
886.986819497
876.87641484
866.637879195
856.281107913
845.813257106
835.238767579
824.56041913
813.780775449
802.903411244
791.933844544
780.88057281
769.756468037
758.580538452
747.379906511
736.191888406
725.066032118
714.065559078
703.266929513
692.754672905
682.610312316
672.883821963
663.599745501
654.764965609
646.330855995
637.808581392
636.827998453
637.075417857
637.236632958
637.25615259
637.209350628
637.154638865
637.081204642
637.002249786
636.915727414
636.815637217
636.697863646
636.560371035
636.403036777
636.227108429
636.037416892
635.835870892
635.621575425
635.396237861
635.161026468
634.916181132
634.661192001
634.396245382
634.123918354
633.848784362
633.574687326
633.303550066
633.037725002
632.781055839
632.536047538
632.304443599
632.088915374
631.890883095
631.716149081
631.570516581
631.464103343
631.408527987
631.339050032
631.231129263
631.322066569
631.374492215
631.41132216
631.439429414
631.459533442
631.472800907
631.479345323
1067.01812564
1066.29716734
1064.89947722
1062.79373281
1060.00257669
1056.55079457
1052.46774108
1047.78575103
1042.53871626
1036.76113436
1030.48779014
1023.75391461
1016.59551404
1009.04957082
1001.15389857
992.946534521
984.464652437
975.743062484
966.812445847
957.697561582
948.415776572
938.976384637
929.381249466
919.627199175
909.710141416
899.62987942
889.393420483
879.013836943
868.505539888
857.879899975
847.142980508
836.295817535
825.336494891
814.262665887
803.073163305
791.768677986
780.352648184
768.83290752
757.2240518
745.550191875
733.848087861
722.170949712
710.592618398
699.210708473
688.142642786
677.514307206
667.382549315
657.759980114
648.596359728
639.388102234
638.368868018
638.696802493
638.837238302
638.710410215
638.554619488
638.414992759
638.29383651
638.177822093
638.065206224
637.947666592
637.817566227
637.669380563
637.499892718
637.308106923
637.095917067
636.869812396
636.631970237
636.382096165
636.12273643
635.854960732
635.578951709
635.294327701
635.001185285
634.701013025
634.396499386
634.090391464
633.785059431
633.483289939
633.188450739
632.903560424
632.63156031
632.375632281
632.138706748
631.924921744
631.737714022
631.581630686
631.461829216
631.362504731
631.313436107
631.267663822
631.311549994
631.347942406
631.377945242
631.400538295
631.415509779
631.422971729
1077.12706739
1076.34945238
1074.84969558
1072.59266037
1069.60489535
1065.91589702
1061.56084308
1056.57802252
1051.00652741
1044.88492819
1038.25114497
1031.14315681
1023.599947
1015.66218842
1007.37234391
998.774027188
989.910609876
980.823158033
971.547863464
962.113250018
952.537611804
942.82739187
932.977474458
922.974451167
912.803414269
902.457025276
891.942765849
881.280369001
870.491366642
859.590771686
848.58339936
837.46504044
826.226782765
814.859770209
803.357242205
791.71407307
779.926990529
767.996468874
755.929940629
743.745341235
731.475154353
719.172407524
706.919434521
694.839732133
683.101091774
671.930929677
661.375152083
651.361740891
641.356577851
640.220923416
640.602114508
640.754857295
640.525231865
640.200758333
639.924419313
639.701558839
639.518409394
639.356323553
639.203402754
639.047069665
638.877746797
638.688681912
638.475897952
638.238406961
637.979596678
637.707865012
637.426393597
637.136145374
636.84034664
636.540002208
636.234849131
635.923899676
635.60637398
635.282397036
634.953069735
634.620066635
634.285455821
633.951895869
633.622572897
633.300843915
632.990292178
632.694767954
632.41832102