/*--------------------------------*- C++ -*----------------------------------*\
| =========                 |                                                 |
| \\      /  F ield         | OpenFOAM: The Open Source CFD Toolbox           |
|  \\    /   O peration     | Version:  v1906                                 |
|   \\  /    A nd           | Web:      www.OpenFOAM.com                      |
|    \\/     M anipulation  |                                                 |
\*---------------------------------------------------------------------------*/
FoamFile
{
    version     2.0;
    format      ascii;
    class       volVectorField;
    location    "183";
    object      U;
}
// * * * * * * * * * * * * * * * * * * * * * * * * * * * * * * * * * * * * * //

dimensions      [0 1 -1 0 0 0 0];


internalField   nonuniform List<vector> 
9216
(
(-0.0937712280452 0.0938353005646 0)
(-0.0964340450933 0.291976059572 4.51344030948e-26)
(-0.09598302714 0.49154518772 -6.50439246448e-30)
(-0.0948955646893 0.69049571827 0)
(-0.0934090908574 0.886693448925 0)
(-0.0915606344744 1.0794466548 0)
(-0.0893827597818 1.26804203417 0)
(-0.0869041793901 1.45182244726 0)
(-0.0841537675747 1.63018936477 0)
(-0.0811613694355 1.80260461078 0)
(-0.0779575985546 1.96859250436 0)
(-0.0745734193315 2.12774120644 0)
(-0.0710395949851 2.27970300507 0)
(-0.067386234602 2.42419350884 0)
(-0.0636423179551 2.56098987643 0)
(-0.059835376998 2.68992819343 0)
(-0.0559911680334 2.81090018119 0)
(-0.0521335101744 2.92384937336 0)
(-0.0482841028077 3.02876693737 0)
(-0.0444625028427 3.12568726191 0)
(-0.0406860604322 3.21468345539 0)
(-0.0369700011744 3.29586284623 0)
(-0.0333274451555 3.36936258945 0)
(-0.0297695581003 3.43534543695 0)
(-0.0263056200262 3.49399573751 0)
(-0.0229432138826 3.54551569468 0)
(-0.0196883169144 3.59012191668 0)
(-0.0165455038432 3.62804226595 0)
(-0.0135180450141 3.65951302117 0)
(-0.0106081184148 3.68477635332 0)
(-0.00781693377821 3.70407813744 0)
(-0.00514503944431 3.71766614545 0)
(-0.00259281896339 3.72578931476 0)
(-0.000162307398503 3.72869105856 0)
(0.00215223064738 3.72663873814 0)
(0.00435860058232 3.71984895358 0)
(0.00645723552214 3.70855377458 0)
(0.0084492685565 3.69297990986 0)
(0.010337109153 3.673348816 0)
(0.0121236991817 3.64987608302 0)
(0.0138122774539 3.62277069011 0)
(0.01540620504 3.59223462811 0)
(0.0169089498222 3.55846268845 0)
(0.0183239918781 3.52164235283 0)
(0.0196548437709 3.48195374946 0)
(0.0209049763561 3.4395696688 0)
(0.0220778499388 3.39465561792 0)
(0.0231768499145 3.34736991508 0)
(0.0242053235253 3.29786380707 0)
(0.0251665224305 3.24628161432 0)
(0.0260636428524 3.19276088742 0)
(0.0268997735717 3.13743258278 0)
(0.027677938024 3.08042124157 0)
(0.0284010466276 3.02184518162 0)
(0.0290719397072 2.96181668678 0)
(0.0296933433718 2.90044220497 0)
(0.0302679124266 2.83782253978 0)
(0.0307981891935 2.774053048 0)
(0.0312866457397 2.70922382794 0)
(0.0317356452296 2.6434199121 0)
(0.0321474829884 2.57672144899 0)
(0.0325243500723 2.50920388835 0)
(0.0328683727829 2.44093815472 0)
(0.0331815782745 2.371990824 0)
(0.0334659322559 2.302424288 0)
(0.0337233065033 2.2322969221 0)
(0.0339555145408 2.16166324079 0)
(0.0341642810087 2.09057405667 0)
(0.0343512751908 2.01907662758 0)
(0.0345180822093 1.94721480757 0)
(0.0346662342908 1.87502918636 0)
(0.0347971838087 1.80255723325 0)
(0.0349123322287 1.72983342982 0)
(0.0350130050222 1.65688940776 0)
(0.0351004782366 1.58375407583 0)
(0.0351759553335 1.51045375251 0)
(0.0352405913569 1.4370122883 0)
(0.035295471738 1.36345119417 0)
(0.035341634026 1.28978976006 0)
(0.0353800487074 1.21604518005 0)
(0.0354116384543 1.14223266806 0)
(0.0354372609528 1.06836558069 0)
(0.0354577255292 0.994455531181 0)
(0.0354737778082 0.920512511341 0)
(0.0354861131795 0.846545005771 0)
(0.0354953621928 0.772560116358 0)
(0.0355020981518 0.698563683552 0)
(0.0355068167185 0.624560427926 0)
(0.0355099205681 0.550554112594 0)
(0.0355116476342 0.476547783679 0)
(0.0355119002826 0.402544221537 0)
(0.0355097625333 0.328546715867 0)
(0.0355015319473 0.254563046644 0)
(0.0354823416163 0.180571245127 0)
(0.0353795578284 0.107054143792 0)
(0.0343259310628 0.0343260903504 0)
(-0.292338174584 0.0970775911665 0)
(-0.308635286279 0.310103298676 0)
(-0.307122212061 0.522294628912 -4.56922883292e-26)
(-0.303605625281 0.733970674124 0)
(-0.298850635828 0.942555575678 0)
(-0.29296952086 1.14741981896 0)
(-0.286044505681 1.3478311963 0)
(-0.278159960081 1.54309882254 0)
(-0.269405299148 1.73258894239 0)
(-0.259874494258 1.91573062582 0)
(-0.249664558255 2.09201927327 0)
(-0.238873847957 2.26101843886 0)
(-0.227600267282 2.42236020733 0)
(-0.215939717009 2.57574430839 0)
(-0.203984636972 2.72093615523 0)
(-0.191822905364 2.85776397344 0)
(-0.179536862789 2.98611521204 0)
(-0.167202707233 3.1059324039 0)
(-0.154889984905 3.21720865255 0)
(-0.142661420556 3.31998288915 0)
(-0.130572788584 3.41433504187 0)
(-0.118673074563 3.50038122442 0)
(-0.107004615184 3.57826904432 0)
(-0.0956034780708 3.64817309874 0)
(-0.0844997639675 3.71029071898 0)
(-0.0737181057651 3.76483799816 0)
(-0.0632780462805 3.81204613076 0)
(-0.0531945819932 3.85215807307 0)
(-0.0434785579719 3.88542552821 0)
(-0.0341372159967 3.91210624146 0)
(-0.0251745958074 3.9324615707 0)
(-0.0165921341515 3.9467542393 0)
(-0.00838922531298 3.95524562339 0)
(-0.00056482514062 3.95819753938 0)
(0.00688949969556 3.9558453002 0)
(0.0139844803159 3.9484618227 0)
(0.0207264669161 3.93629891593 0)
(0.0271230594376 3.91960091525 0)
(0.0331834125271 3.89860470548 0)
(0.038917554774 3.87353973438 0)
(0.0443361239132 3.8446279998 0)
(0.0494500837285 3.81208390112 0)
(0.0542706489583 3.77611410353 0)
(0.0588090989429 3.73691745828 0)
(0.0630767602512 3.69468497594 0)
(0.0670848626247 3.64959985269 0)
(0.0708445509589 3.60183753643 0)
(0.0743667679868 3.55156583144 0)
(0.0776622854553 3.49894502842 0)
(0.0807416063649 3.44412806066 0)
(0.0836150093226 3.38726067453 0)
(0.0862924655716 3.32848161665 0)
(0.0887836921363 3.26792282739 0)
(0.0910980800456 3.20570964425 0)
(0.0932447528823 3.14196100584 0)
(0.0952325034924 3.07678966114 0)
(0.0970698553588 3.01030237533 0)
(0.0987650057448 2.94260013798 0)
(0.100325887915 2.8737783652 0)
(0.101760119228 2.80392710216 0)
(0.103075062748 2.73313121823 0)
(0.104277779206 2.6614706013 0)
(0.105375086924 2.589020344 0)
(0.106373516914 2.51585092874 0)
(0.107279370352 2.44202840421 0)
(0.108098676333 2.36761456084 0)
(0.108837246349 2.29266709784 0)
(0.109500634423 2.21723978925 0)
(0.110094188234 2.14138264214 0)
(0.110623011478 2.06514205407 0)
(0.111092011409 1.9885609632 0)
(0.111505863392 1.91167899823 0)
(0.111869054727 1.83453262138 0)
(0.112185851417 1.75715527186 0)
(0.112460338202 1.67957750281 0)
(0.112696387619 1.60182711931 0)
(0.112897696219 1.5239293104 0)
(0.113067756012 1.44590678258 0)
(0.113209886832 1.36777988793 0)
(0.113327210251 1.28956675408 0)
(0.113422678027 1.21128340929 0)
(0.113499048457 1.13294390987 0)
(0.113558910612 1.05456046321 0)
(0.113604662676 0.976143553643 0)
(0.113638530797 0.897702064608 0)
(0.113662547089 0.819243404312 0)
(0.113678557841 0.740773628278 0)
(0.11368818966 0.662297564795 0)
(0.113692820262 0.583818931504 0)
(0.113693469542 0.505340424821 0)
(0.113690576687 0.426863743094 0)
(0.113683443058 0.348388901755 0)
(0.113668527065 0.269914558622 0)
(0.113632192688 0.19137523364 0)
(0.113355917744 0.113400532203 0)
(0.107078895139 0.0354027825298 0)
(-0.494481654333 0.0980981658899 0)
(-0.522280936393 0.313233180218 0)
(-0.519329692043 0.527177278272 -4.54001930823e-26)
(-0.5132530228 0.740777762065 0)
(-0.505154868776 0.951227895217 0)
(-0.495173961083 1.15786893579 0)
(-0.483432180415 1.35994873445 0)
(-0.470066776637 1.55676377134 0)
(-0.455227887462 1.74767094056 0)
(-0.439074933387 1.93209269105 0)
(-0.42177306121 2.10952046179 0)
(-0.403489782841 2.27951641649 0)
(-0.384391818596 2.44171363311 0)
(-0.364642318635 2.59581495772 0)
(-0.344398434193 2.74159073032 0)
(-0.323809365774 2.8788755827 0)
(-0.303014797034 3.00756451345 0)
(-0.282143801102 3.12760843019 0)
(-0.261314084915 3.2390093404 0)
(-0.240631638048 3.34181534811 0)
(-0.220190628805 3.43611559703 0)
(-0.200073610269 3.52203527317 0)
(-0.180351872942 3.59973076209 0)
(-0.161086013296 3.6693850304 0)
(-0.142326558296 3.73120328564 0)
(-0.124114727312 3.78540894826 0)
(-0.106483179358 3.83223995735 0)
(-0.0894568400935 3.87194541741 0)
(-0.0730536651701 3.9047825844 0)
(-0.0572854443425 3.93101417874 0)
(-0.042158504473 3.95090600523 0)
(-0.0276743991119 3.96472486107 0)
(-0.0138303544863 3.9727366575 0)
(-0.00061903385282 3.97520551314 0)
(0.0119679028261 3.97239349598 0)
(0.0239396434375 3.96455421187 0)
(0.0353105959168 3.95193820792 0)
(0.0460964139766 3.9347900419 0)
(0.0563136606359 3.91334740775 0)
(0.0659797770308 3.88784071754 0)
(0.075112933957 3.8584928372 0)
(0.0837317931367 3.82551888797 0)
(0.0918553441824 3.78912611639 0)
(0.0995027080962 3.74951382987 0)
(0.106693024844 3.70687338857 0)
(0.113445307012 3.66138824679 0)
(0.119778371434 3.61323403441 0)
(0.125710732651 3.56257867262 0)
(0.131260567802 3.50958251581 0)
(0.13644564006 3.45439851561 0)
(0.141283287843 3.39717240041 0)
(0.145790370381 3.33804286793 0)
(0.149983274196 3.27714178559 0)
(0.153877874695 3.21459439738 0)
(0.157489554445 3.15051953306 0)
(0.160833176077 3.08502981942 0)
(0.163923108175 3.01823189013 0)
(0.16677320593 2.95022659478 0)
(0.169396841485 2.8811092041 0)
(0.171806889703 2.81096961255 0)
(0.174015760639 2.73989253583 0)
(0.176035388523 2.66795770473 0)
(0.177877264664 2.59524005316 0)
(0.179552428313 2.52180990233 0)
(0.181071498828 2.44773313881 0)
(0.182444667512 2.37307138876 0)
(0.18368172824 2.29788218633 0)
(0.1847920697 2.22221913838 0)
(0.185784703983 2.14613208382 0)
(0.186668258897 2.06966724973 0)
(0.18745100422 1.99286740249 0)
(0.188140843944 1.91577199635 0)
(0.18874534005 1.83841731745 0)
(0.189271704649 1.76083662585 0)
(0.189726821249 1.68306029359 0)
(0.190117236846 1.60511594124 0)
(0.190449180703 1.52702857107 0)
(0.190728556492 1.44882069914 0)
(0.190960958629 1.37051248453 0)
(0.191151664543 1.29212185794 0)
(0.191305648574 1.21366464783 0)
(0.191427574346 1.13515470632 0)
(0.191521805991 1.05660403301 0)
(0.191592400213 0.978022898776 0)
(0.191643113884 0.899419967445 0)
(0.191677394037 0.820802417101 0)
(0.191698378513 0.742176057509 0)
(0.191708878116 0.663545442525 0)
(0.19171136104 0.584913966965 0)
(0.191707916193 0.506283925316 0)
(0.191700222007 0.427656537825 0)
(0.191689574979 0.349031411706 0)
(0.191676941788 0.270408747043 0)
(0.191657249605 0.191726616825 0)
(0.191334007205 0.113693894317 0)
(0.180645186297 0.035508894848 0)
(-0.699856753036 0.0992967618366 0)
(-0.739477207088 0.31699968154 0)
(-0.735250753117 0.533394651337 4.50580456185e-26)
(-0.726562602429 0.749429379458 0)
(-0.714995400556 0.962215019855 0)
(-0.700752517923 1.17106334386 0)
(-0.684008195357 1.37519590789 0)
(-0.664958839852 1.57389006812 0)
(-0.643819908526 1.76648878522 0)
(-0.620820403239 1.95240521985 0)
(-0.596197481781 2.13112586635 0)
(-0.570191416922 2.3022119715 0)
(-0.543040987002 2.46529933008 0)
(-0.514979425237 2.62009667347 0)
(-0.486230965598 2.76638288127 0)
(-0.457008050054 2.90400324767 0)
(-0.427509163354 3.03286503213 0)
(-0.397917300741 3.15293250743 0)
(-0.368398983824 3.2642217003 0)
(-0.339103796804 3.36679499331 0)
(-0.310164334919 3.4607557318 0)
(-0.281696528566 3.54624295166 0)
(-0.25380023281 3.62342631934 0)
(-0.226560053101 3.69250135092 0)
(-0.200046307116 3.75368495731 0)
(-0.174316108564 3.80721134419 0)
(-0.149414487828 3.85332828081 0)
(-0.125375551734 3.89229373945 0)
(-0.102223611693 3.92437289818 0)
(-0.0799742958266 3.94983549213 0)
(-0.0586355830152 3.96895349399 0)
(-0.0382087802493 3.98199912007 0)
(-0.0186893450608 3.9892430357 0)
(-6.80412553412e-05 3.99095294682 0)
(0.0176690340615 3.98739665622 0)
(0.0345374267938 3.9788277587 0)
(0.0505569042446 3.96549956148 0)
(0.0657494697937 3.94765811278 0)
(0.0801387671166 3.92554232897 0)
(0.0937497448839 3.89938362364 0)
(0.106608330391 3.86940559965 0)
(0.118741111854 3.83582386889 0)
(0.13017507997 3.79884595412 0)
(0.140937388817 3.75867125587 0)
(0.151055171855 3.71549107403 0)
(0.160555371395 3.66948867529 0)
(0.169464615521 3.62083939804 0)
(0.177809101492 3.56971078785 0)
(0.185614519218 3.51626275711 0)
(0.192905975294 3.46064776356 0)
(0.199707950889 3.40301100284 0)
(0.206044255551 3.34349061148 0)
(0.211938009839 3.28221787659 0)
(0.217411620347 3.21931744992 0)
(0.222486779489 3.15490756354 0)
(0.227184455176 3.08910024586 0)
(0.231524901982 3.02200153581 0)
(0.235527660462 2.95371169473 0)
(0.239211575365 2.88432541439 0)
(0.242594800898 2.81393202108 0)
(0.2456948228 2.74261567472 0)
(0.248528466869 2.67045556324 0)
(0.251111922609 2.59752609143 0)
(0.253460753141 2.52389706495 0)
(0.255589918835 2.44963386864 0)
(0.257513787327 2.37479764018 0)
(0.259246156083 2.29944543835 0)
(0.260800261705 2.22363040689 0)
(0.262188800776 2.14740193353 0)
(0.263423937974 2.07080580503 0)
(0.26451732484 1.993884358 0)
(0.265480106475 1.91667662626 0)
(0.266322938074 1.83921848447 0)
(0.267055990157 1.76154278907 0)
(0.26768896285 1.68367951588 0)
(0.268231089722 1.60565589564 0)
(0.26869114989 1.52749654672 0)
(0.269077470575 1.44922360627 0)
(0.269397937159 1.37085685909 0)
(0.269659994584 1.29241386521 0)
(0.269870655453 1.21391008571 0)
(0.270036500341 1.13535900759 0)
(0.27016368388 1.05677226703 0)
(0.270257933838 0.978159771797 0)
(0.270324554828 0.899529821841 0)
(0.270368425579 0.820889228214 0)
(0.270393999582 0.742243428278 0)
(0.27040530045 0.663596595169 0)
(0.270405922166 0.584951736105 0)
(0.270399034771 0.506310766932 0)
(0.270387423391 0.427674609415 0)
(0.270373611041 0.34904284467 0)
(0.27035983213 0.270416773909 0)
(0.270337398032 0.191736020169 0)
(0.269883651642 0.113724564881 0)
(0.254692786521 0.0355262422773 0)
(-0.908038889526 0.100881324884 0)
(-0.959466932901 0.322033408901 0)
(-0.95391482605 0.541811585748 0)
(-0.942516621806 0.761147586796 0)
(-0.927343843279 0.977088619935 0)
(-0.90867106439 1.1889127784 0)
(-0.886731585376 1.39580859783 0)
(-0.861787046612 1.59702781115 0)
(-0.834123865114 1.79189448246 0)
(-0.804045943721 1.97980932559 0)
(-0.771867410453 2.16025248906 0)
(-0.737905816355 2.3327844989 0)
(-0.702475973301 2.49704545641 0)
(-0.665884575332 2.65275273704 0)
(-0.628425677054 2.79969745797 0)
(-0.590377070822 2.93773998749 0)
(-0.55199753927 3.06680475951 0)
(-0.513524943978 3.18687463495 0)
(-0.47517506358 3.29798502407 0)
(-0.437141099562 3.40021795089 0)
(-0.399593737604 3.49369620822 0)
(-0.362681673566 3.57857771947 0)
(-0.326532494201 3.65505019407 0)
(-0.291253833497 3.72332613677 0)
(-0.256934711948 3.78363824915 0)
(-0.223647000705 3.83623524284 0)
(-0.191446939893 3.88137806905 0)
(-0.160376675161 3.91933655778 0)
(-0.130465762113 3.95038645129 0)
(-0.101732621099 3.97480681114 0)
(-0.07418590712 3.99287777262 0)
(-0.0478257952439 4.00487866372 0)
(-0.0226450911087 4.01108592746 0)
(0.00136892860703 4.01177325422 0)
(0.0242358202066 4.00721149773 0)
(0.0459773148276 3.99765798817 0)
(0.0666194944404 3.9833692006 0)
(0.0861913833659 3.96459347859 0)
(0.104724169662 3.94157144838 0)
(0.12225067175 3.9145358088 0)
(0.138804885362 3.88371107292 0)
(0.154421585273 3.84931343505 0)
(0.16913598937 3.81155071881 0)
(0.182983467979 3.77062238669 0)
(0.195999305031 3.72671960045 0)
(0.208218494581 3.68002532306 0)
(0.219675579193 3.63071445402 0)
(0.230404514319 3.57895399139 0)
(0.240438565598 3.52490321426 0)
(0.249810224198 3.46871388093 0)
(0.258551147679 3.41053043829 0)
(0.266692112509 3.3504902388 0)
(0.274262986212 3.28872376221 0)
(0.281292706194 3.22535483933 0)
(0.28780927359 3.16050087595 0)
(0.293839750043 3.09427307532 0)
(0.299410265929 3.0267766577 0)
(0.30454602878 2.95811107629 0)
(0.309271340421 2.8883702285 0)
(0.313609612346 2.81764266226 0)
(0.317583387786 2.74601177685 0)
(0.321214360643 2.67355601826 0)
(0.324523399647 2.60034906866 0)
(0.327530568482 2.52646003047 0)
(0.330255150047 2.45195360464 0)
(0.332715666192 2.37689026367 0)
(0.334929900787 2.30132641947 0)
(0.336914918043 2.22531458621 0)
(0.338687083608 2.14890353861 0)
(0.340262080883 2.07213846588 0)
(0.341654929723 1.99506112154 0)
(0.342880000476 1.9177099697 0)
(0.343951030128 1.84012032769 0)
(0.344881134014 1.76232450576 0)
(0.345682819422 1.68435194389 0)
(0.346367995069 1.60622934607 0)
(0.346947982303 1.52798081225 0)
(0.347433522515 1.44962796841 0)
(0.347834786124 1.37119009464 0)
(0.348161378145 1.29268425177 0)
(0.348422345158 1.21412540652 0)
(0.348626179218 1.13552655531 0)
(0.348780822981 1.05689884695 0)
(0.348893672133 0.978251704002 0)
(0.348971578883 0.899592942728 0)
(0.349020853345 0.820928891311 0)
(0.349047266459 0.742264505423 0)
(0.349056053045 0.663603480224 0)
(0.349051920758 0.584948357659 0)
(0.349039070039 0.506300624294 0)
(0.349021240851 0.427660865162 0)
(0.349001800797 0.349028513214 0)
(0.348983450182 0.270405224609 0)
(0.348953341575 0.191730604006 0)
(0.348363086353 0.113728871401 0)
(0.328726798127 0.0355311977542 0)
(-1.1199710803 0.102886238519 0)
(-1.18335373654 0.328435979249 0)
(-1.17639414472 0.552550043009 0)
(-1.162144862 0.776104394283 0)
(-1.14317973981 0.996068203929 0)
(-1.11985070166 1.21167825755 0)
(-1.09245720979 1.42208248399 0)
(-1.06133361304 1.62650052516 0)
(-1.02684474462 1.82423280438 0)
(-0.989376607369 2.01466475808 0)
(-0.949327037394 2.19726923654 0)
(-0.907096972073 2.37160680735 0)
(-0.863082600329 2.53732412587 0)
(-0.817668577164 2.69415068315 0)
(-0.771222397597 2.84189426159 0)
(-0.724089958813 2.98043542751 0)
(-0.676592273175 3.10972137041 0)
(-0.629023255154 3.22975936581 0)
(-0.581648467343 3.34061009889 0)
(-0.534704698817 3.44238104333 0)
(-0.488400235221 3.53522004825 0)
(-0.442915688076 3.61930924676 0)
(-0.398405251748 3.6948593656 0)
(-0.354998275374 3.76210448575 0)
(-0.312801044358 3.82129727988 0)
(-0.271898688302 3.87270473316 0)
(-0.232357140235 3.91660433971 0)
(-0.194225093267 3.95328075592 0)
(-0.157535906407 3.9830228849 0)
(-0.122309429626 4.00612136229 0)
(-0.0885537199954 4.022866406 0)
(-0.056266642942 4.03354607758 0)
(-0.0254372431739 4.03844378469 0)
(0.00395213287563 4.03784092115 0)
(0.0319270435357 4.03201173561 0)
(0.0585159671992 4.02121824827 0)
(0.0837522864085 4.00572063123 0)
(0.107672734332 3.98576997108 0)
(0.130316579389 3.96160896716 0)
(0.151724965692 3.93347183865 0)
(0.171940354117 3.90158414433 0)
(0.191006044891 3.86616271818 0)
(0.20896577369 3.82741567854 0)
(0.225863369489 3.78554249215 0)
(0.241742470379 3.74073408288 0)
(0.256646287357 3.69317297639 0)
(0.270617413254 3.64303347286 0)
(0.283697667823 3.5904818414 0)
(0.295927977101 3.53567653064 0)
(0.307348279155 3.47876839078 0)
(0.317997455246 3.41990090336 0)
(0.327913279587 3.35921041549 0)
(0.337132387501 3.29682637586 0)
(0.345690256107 3.23287157047 0)
(0.353621198016 3.16746235631 0)
(0.360958362891 3.10070889168 0)
(0.367733747943 3.03271536205 0)
(0.373978212836 2.96358020088 0)
(0.379721500473 2.89339630453 0)
(0.384992259679 2.82225124132 0)
(0.389818071543 2.7502274542 0)
(0.394225475879 2.67740245718 0)
(0.398239999759 2.60384902543 0)
(0.401886184968 2.52963537929 0)
(0.405187616431 2.45482536232 0)
(0.408166948785 2.37947861366 0)
(0.410845933204 2.30365073493 0)
(0.413245441922 2.2273934521 0)
(0.415385492553 2.15075477251 0)
(0.417285269904 2.07377913753 0)
(0.418963147331 1.9965075711 0)
(0.420436705548 1.91897782449 0)
(0.421722750868 1.84122451771 0)
(0.422837330981 1.76327927776 0)
(0.423795750141 1.68517087415 0)
(0.424612582048 1.60692535191 0)
(0.425301682185 1.52856616232 0)
(0.425876198046 1.45011429182 0)
(0.426348578899 1.37158838901 0)
(0.426730583669 1.29300489024 0)
(0.427033288436 1.2143781438 0)
(0.427267092306 1.13572053288 0)
(0.427441723014 1.05704259742 0)
(0.427566241219 0.978353154826 0)
(0.427649044797 0.899659419563 0)
(0.427697872506 0.820967121486 0)
(0.427719808634 0.742280622728 0)
(0.427721289121 0.663603033201 0)
(0.427708112219 0.584936325831 0)
(0.427685456904 0.506281449303 0)
(0.42765791394 0.427638506997 0)
(0.427629519305 0.349006524635 0)
(0.427603230713 0.270386930102 0)
(0.427562278029 0.191718461073 0)
(0.426833603231 0.113722582783 0)
(0.402766118428 0.0355292090307 0)
(-1.33656742139 0.10534865472 0)
(-1.41212073379 0.336303089247 0)
(-1.40364253943 0.565750893281 4.42585476164e-26)
(-1.38635541518 0.794490478329 0)
(-1.36335500324 1.01939072003 0)
(-1.33507828377 1.23963663404 0)
(-1.30189939857 1.45432652211 0)
(-1.26423469901 1.66264097819 0)
(-1.22253692987 1.86385206697 0)
(-1.17728343726 2.05732748428 0)
(-1.12896440699 2.24253245063 0)
(-1.0780719431 2.41902914578 0)
(-1.02509035145 2.58647395834 0)
(-0.970487849466 2.74461296068 0)
(-0.914709805941 2.89327602915 0)
(-0.858173520113 3.03237001463 0)
(-0.801264470139 3.16187133258 0)
(-0.744333907402 3.28181829189 0)
(-0.687697635709 3.39230342596 0)
(-0.631635798031 3.49346603336 0)
(-0.576393487602 3.58548508212 0)
(-0.522182008449 3.66857258477 0)
(-0.469180622334 3.7429675112 0)
(-0.417538638954 3.80893027352 0)
(-0.36737772464 3.86673779154 0)
(-0.318794327157 3.91667912823 0)
(-0.27186213204 3.95905167054 0)
(-0.226634485858 3.99415782194 0)
(-0.183146735821 4.02230216744 0)
(-0.141418450785 4.04378907034 0)
(-0.101455497014 4.05892065003 0)
(-0.0632519598915 4.06799523401 0)
(-0.0267917568213 4.07130430604 0)
(0.00794927492888 4.06913879399 0)
(0.0410031520387 4.06177579669 0)
(0.0724062222542 4.04948357603 0)
(0.10220007019 4.03252629659 0)
(0.130429916572 4.01115810012 0)
(0.157143769849 3.98562401011 0)
(0.182391660448 3.95615991566 0)
(0.206224992996 3.92299248568 0)
(0.228695998938 3.88633918924 0)
(0.249857274523 3.84640837873 0)
(0.26976139305 3.80339941906 0)
(0.288460583445 3.75750285401 0)
(0.306006466087 3.70890060129 0)
(0.322449839337 3.65776616915 0)
(0.33784050911 3.60426488884 0)
(0.352227156316 3.54855415777 0)
(0.365657235811 3.49078368945 0)
(0.378176902911 3.4310957669 0)
(0.389830962296 3.36962549666 0)
(0.400662836401 3.30650106138 0)
(0.41071454914 3.24184396916 0)
(0.420026722905 3.17576929833 0)
(0.428638585562 3.10838593675 0)
(0.436587986048 3.03979681471 0)
(0.443911415956 2.9700991311 0)
(0.450644036323 2.8993845725 0)
(0.456819707471 2.82773952503 0)
(0.462471021586 2.75524527901 0)
(0.467629336298 2.68197822639 0)
(0.472324809252 2.60801005137 0)
(0.476586432296 2.5334079142 0)
(0.480442065474 2.45823462872 0)
(0.48391846973 2.3825488337 0)
(0.487041338688 2.30640515865 0)
(0.48983532859 2.22985438422 0)
(0.492324086881 2.15294359769 0)
(0.494530278692 2.07571634404 0)
(0.496475611757 1.99821277274 0)
(0.498180859159 1.92046978082 0)
(0.499665880471 1.84252115263 0)
(0.50094964077 1.76439769638 0)
(0.502050228119 1.68612737806 0)
(0.502984869067 1.60773545289 0)
(0.503769942744 1.52924459465 0)
(0.504420993173 1.45067502309 0)
(0.504952740353 1.37204462975 0)
(0.50537908978 1.29336910228 0)
(0.50571314095 1.21466204758 0)
(0.505967194552 1.13593511375 0)
(0.506152758891 1.05719811113 0)
(0.506280555366 0.97845913245 0)
(0.50636052357 0.899724672065 0)
(0.506401826099 0.820999744579 0)
(0.506412853897 0.742288002852 0)
(0.50640123272 0.663591856024 0)
(0.506373832065 0.584912589104 0)
(0.506336777516 0.506250481719 0)
(0.50629546579 0.427604993411 0)
(0.506254561745 0.34897451684 0)
(0.506217318091 0.270359917982 0)
(0.506163392734 0.191698760777 0)
(0.505295832996 0.113709293506 0)
(0.476801935726 0.0355239296827 0)
(-1.55881784794 0.108305377684 0)
(-1.64681344977 0.345745573959 0)
(-1.63667828064 0.581591953573 -4.38962581254e-26)
(-1.61611850367 0.816547447684 0)
(-1.5887780138 1.04735500837 0)
(-1.5551894377 1.27313542147 0)
(-1.51581256012 1.4929269935 0)
(-1.47115752704 1.70586372536 0)
(-1.42177700154 1.91118462095 0)
(-1.36825131165 2.10823765805 0)
(-1.31117379788 2.29648093776 0)
(-1.25113736198 2.47548091585 0)
(-1.18872266452 2.64490813997 0)
(-1.12448822197 2.8045310413 0)
(-1.05896249949 2.95420832111 0)
(-0.992637970699 3.09388043533 0)
(-0.925967020146 3.223560619 0)
(-0.859359500362 3.34332581892 0)
(-0.793181717612 3.45330782526 0)
(-0.727756606235 3.55368481889 0)
(-0.663364853485 3.64467348468 0)
(-0.600246752086 3.72652178438 0)
(-0.538604579602 3.79950243669 0)
(-0.478605330747 3.86390711607 0)
(-0.420383656016 3.92004135562 0)
(-0.364044887676 3.96822012019 0)
(-0.309668058703 4.00876400432 0)
(-0.2573088433 4.0419960022 0)
(-0.207002366426 4.06823879438 0)
(-0.158765846658 4.0878124973 0)
(-0.112601048201 4.10103281158 0)
(-0.0684965317387 4.10820971862 0)
(-0.0264295191178 4.10964378483 0)
(0.0136326106654 4.1056372286 0)
(0.0517287516838 4.09646901341 0)
(0.0879045834698 4.08241532348 0)
(0.122210913605 4.06374444821 0)
(0.154702320527 4.04071378092 0)
(0.185436305733 4.01357081238 0)
(0.214472430463 3.98255315512 0)
(0.241871591997 3.94788856855 0)
(0.267695416967 3.90979507824 0)
(0.292005751506 3.86848114444 0)
(0.314864236367 3.82414586657 0)
(0.336331956876 3.77697921559 0)
(0.356469157776 3.72716228659 0)
(0.375335014551 3.67486756527 0)
(0.392987453135 3.62025920328 0)
(0.409483011304 3.56349329815 0)
(0.424876735263 3.50471817446 0)
(0.439222106212 3.44407466356 0)
(0.45257099178 3.38169637966 0)
(0.464973618345 3.31770999063 0)
(0.476478560289 3.25223548242 0)
(0.487132743221 3.18538641595 0)
(0.496981458138 3.11727017602 0)
(0.506068384387 3.04798821184 0)
(0.514435619143 2.97763626891 0)
(0.522123711889 2.90630461233 0)
(0.52917170221 2.83407824155 0)
(0.535617159891 2.7610370968 0)
(0.541496226064 2.68725625754 0)
(0.546843654797 2.61280613314 0)
(0.551692854196 2.53775264634 0)
(0.556075926705 2.46215740978 0)
(0.560023707957 2.38607789617 0)
(0.563565804035 2.30956760242 0)
(0.566730626724 2.23267620831 0)
(0.569545426752 2.15544973007 0)
(0.572036324739 2.07793066935 0)
(0.57422833998 2.00015815803 0)
(0.576145416858 1.92216809922 0)
(0.577810449102 1.84399330492 0)
(0.579245301751 1.76566363063 0)
(0.58047083109 1.68720610731 0)
(0.581506902465 1.60864507105 0)
(0.582372406255 1.53000229062 0)
(0.583085271965 1.45129709331 0)
(0.583662480714 1.3725464892 0)
(0.584120076104 1.29376529413 0)
(0.584473173757 1.21496625158 0)
(0.584735969535 1.13616015356 0)
(0.584921746736 1.05735596071 0)
(0.585042882357 0.978560921715 0)
(0.585110852745 0.89978069225 0)
(0.585136238861 0.821019453517 0)
(0.585128731587 0.742280030813 0)
(0.585097137408 0.663564012608 0)
(0.585049384817 0.584871871673 0)
(0.584992531196 0.506203084527 0)
(0.584932767644 0.427556314517 0)
(0.58487539788 0.348929144866 0)
(0.58482404086 0.270321686553 0)
(0.584754990742 0.191670211094 0)
(0.583747719448 0.11368971737 0)
(0.550829042076 0.0355163042978 0)
(-1.78779344146 0.111799304152 0)
(-1.88855534366 0.356897448294 0)
(-1.8765930755 0.600293454206 0)
(-1.85247100188 0.842575335081 0)
(-1.82041480281 1.08033145054 0)
(-1.78106676581 1.31260398346 0)
(-1.73498646881 1.53835952966 0)
(-1.68279283617 1.75667737297 0)
(-1.62515355128 1.96675888222 0)
(-1.56276642058 2.1679310557 0)
(-1.49634124677 2.35964655166 0)
(-1.42658343192 2.54148023996 0)
(-1.35417983819 2.71312290081 0)
(-1.27978717063 2.87437280459 0)
(-1.20402294463 3.02512587008 0)
(-1.12745894235 3.16536502618 0)
(-1.05061694982 3.2951493054 0)
(-0.973966495661 3.41460309015 0)
(-0.897924278129 3.52390582711 0)
(-0.822854960722 3.6232824292 0)
(-0.749073030793 3.71299450185 0)
(-0.676845443017 3.79333246374 0)
(-0.606394804253 3.86460857988 0)
(-0.537902894129 3.92715088719 0)
(-0.471514352942 3.98129796628 0)
(-0.407340403562 4.02739449648 0)
(-0.345462505231 4.06578752207 0)
(-0.285935864501 4.09682335411 0)
(-0.228792751548 4.12084503311 0)
(-0.174045589359 4.13819028307 0)
(-0.121689799905 4.14918987996 0)
(-0.0717063955417 4.15416663715 0)
(-0.0240641829006 4.15343109238 0)
(0.0212802505923 4.1472984461 0)
(0.0643731332712 4.13604809994 0)
(0.105271209459 4.11996589567 0)
(0.14403562752 4.09932415555 0)
(0.180731285797 4.07438360019 0)
(0.215426017025 4.04539421781 0)
(0.248189630754 4.01259529043 0)
(0.279093125738 3.97621555199 0)
(0.308208035895 3.93647342039 0)
(0.335605884078 3.89357726215 0)
(0.36135773051 3.8477256814 0)
(0.385533803808 3.7991078259 0)
(0.408203203449 3.7479037035 0)
(0.42943366379 3.69428450362 0)
(0.449291370798 3.63841291978 0)
(0.467840823705 3.58044346962 0)
(0.48514473464 3.52052281006 0)
(0.501263960187 3.4587900455 0)
(0.516257459502 3.39537702764 0)
(0.53018227437 3.33040864584 0)
(0.543093527119 3.2640031074 0)
(0.55504443294 3.19627220725 0)
(0.566086323531 3.12732158696 0)
(0.576268679568 3.05725098296 0)
(0.585639169713 2.98615446426 0)
(0.594243694377 2.91412065983 0)
(0.602126432596 2.84123297609 0)
(0.609329890783 2.76756980486 0)
(0.615894952199 2.69320472237 0)
(0.621860926328 2.61820667978 0)
(0.627265597381 2.54264018572 0)
(0.632145271415 2.4665654815 0)
(0.636534821571 2.39003870957 0)
(0.640467731168 2.31311207555 0)
(0.643976134346 2.23583400472 0)
(0.647090854155 2.15824929323 0)
(0.649841437964 2.08039925458 0)
(0.652256190179 2.00232186199 0)
(0.654362202248 1.92405188696 0)
(0.656185380041 1.84562103446 0)
(0.65775046864 1.76705807525 0)
(0.659081074683 1.68838897563 0)
(0.66019968634 1.60963702492 0)
(0.661127691092 1.53082296104 0)
(0.661885391437 1.45196509448 0)
(0.662492018687 1.37307943088 0)
(0.662965745 1.2941797924 0)
(0.663323693848 1.21527793816 0)
(0.663581949041 1.13638368398 0)
(0.663755562547 1.05750502131 0)
(0.663858561254 0.978648235924 0)
(0.663903952914 0.89981802615 0)
(0.663903731478 0.821017621124 0)
(0.663868882027 0.74224889923 0)
(0.663809385432 0.663512507219 0)
(0.663734222662 0.58480798102 0)
(0.663651378153 0.50613386356 0)
(0.663567839664 0.427487884621 0)
(0.663489569483 0.348866675003 0)
(0.663420605689 0.270269454752 0)
(0.6633339788 0.191631130026 0)
(0.66218570037 0.11366342062 0)
(0.624842872594 0.0355064370985 0)
(-2.02466289604 0.115882137389 0)
(-2.13856874991 0.369921812514 0)