/*--------------------------------*- C++ -*----------------------------------*\
| =========                 |                                                 |
| \\      /  F ield         | OpenFOAM: The Open Source CFD Toolbox           |
|  \\    /   O peration     | Version:  v1906                                 |
|   \\  /    A nd           | Web:      www.OpenFOAM.com                      |
|    \\/     M anipulation  |                                                 |
\*---------------------------------------------------------------------------*/
FoamFile
{
    version     2.0;
    format      ascii;
    class       surfaceScalarField;
    location    "936";
    object      phi;
}
// * * * * * * * * * * * * * * * * * * * * * * * * * * * * * * * * * * * * * //

dimensions      [0 3 -1 0 0 0 0];
oriented        oriented;


internalField   nonuniform List<scalar> 
18240
(
-0.000200032496411
0.000200057990714
-0.000409529129607
0.000209533615123
-0.000617652160422
0.00020814600016
-0.000822743644196
0.000205131466039
-0.00102378428301
0.000201060180996
-0.00121980782516
0.000196066466788
-0.00141003623058
0.000190244704145
-0.00159370132464
0.000183710859238
-0.00177024161291
0.000176553343739
-0.00193908474205
0.000168891590728
-0.00209988265739
0.000160807616112
-0.00225224747017
0.000152415843364
-0.00239602385836
0.000143782713394
-0.00253098014266
0.000135009761375
-0.00265711946127
0.000126142150637
-0.00277432864901
0.000117264985725
-0.00288272993426
0.000108400591864
-0.00298228972728
9.96177666816e-05
-0.00307321166359
9.09175556568e-05
-0.00315550664381
8.23549718229e-05
-0.00322942763807
7.39128687926e-05
-0.00329500170208
6.56358962628e-05
-0.00335250610401
5.7492345243e-05
-0.00340196269275
4.95200839815e-05
-0.00344365491537
4.16762006092e-05
-0.00347758486654
3.39949263065e-05
-0.0035040302049
2.64252092984e-05
-0.00352296441583
1.90004973371e-05
-0.00353465288429
1.16642927201e-05
-0.00353903731723
4.45185414552e-06
-0.00353636951061
-2.69607372501e-06
-0.00352656095734
-9.7401818226e-06
-0.00350985337305
-1.67397740819e-05
-0.00348613611231
-2.36481799576e-05
-0.00345565064643
-3.05215496558e-05
-0.00341827757835
-3.7303582102e-05
-0.0033742727267
-4.40446082409e-05
-0.00332352667336
-5.06765847314e-05
-0.00326632807269
-5.72419860297e-05
-0.00320259877399
-6.36603843167e-05
-0.0031326791765
-6.99663915168e-05
-0.00305654231551
-7.6069203227e-05
-0.00297459431845
-8.19981854434e-05
-0.00288687174343
-8.76570405598e-05
-0.0027938500703
-9.30751235062e-05
-0.00269563032832
-9.81574240467e-05
-0.00259274868046
-0.000102938517867
-0.00248536144715
-0.000107329407241
-0.00237405135649
-0.000111370450947
-0.00225902351924
-0.000114975941952
-0.00214090524304
-0.000118182404813
-0.00201996713458
-0.000120893661242
-0.00189691172458
-0.0001231233638
-0.0017721290887
-0.000124746982407
-0.00164645947708
-0.000125741270166
-0.00152048048209
-0.000125952793855
-0.00139521789718
-0.000125336789509
-0.00127145646582
-0.000123744430248
-0.00115038108618
-0.00012115079906
-0.00103292154801
-0.000117451929515
-0.000920301206469
-0.000112696303022
-0.000813371060205
-0.000106931597169
-0.000713076414583
-0.00010036954977
-0.000619936590472
-9.31473597195e-05
-0.000534488317594
-8.55191115535e-05
-0.000456846509063
-7.7651744716e-05
-0.000387238960723
-6.96727790803e-05
-0.000325590594837
-6.16583418673e-05
-0.000271837912225
-5.38120847556e-05
-0.000225534550082
-4.63129664202e-05
-0.000186211526627
-3.93776243871e-05
-0.000153105887609
-3.31153266311e-05
-0.000125532389924
-2.76242348859e-05
-0.000102651460822
-2.28908237393e-05
-8.38064998998e-05
-1.88923859784e-05
-6.83063083549e-05
-1.55107832395e-05
-5.57095376106e-05
-1.26417782161e-05
-4.55648339328e-05
-1.01572215918e-05
-3.75704373347e-05
-8.03773690318e-06
-3.13114286245e-05
-6.27294482703e-06
-2.64936058005e-05
-4.85909173229e-06
-2.27816937963e-05
-3.7267521495e-06
-1.99861209921e-05
-2.83445123902e-06
-1.78882760935e-05
-2.11265219117e-06
-1.64508633572e-05
-1.47389882416e-06
-1.53386174967e-05
-1.12978433548e-06
-1.43667148014e-05
-1.00941800344e-06
-1.35410749573e-05
-8.5058726655e-07
-1.26842546417e-05
-9.00795834399e-07
-1.16332279083e-05
-1.0893057806e-06
-1.04588890255e-05
-1.23084039141e-06
-9.10796247297e-06
-1.40767631936e-06
-7.41242530631e-06
-1.76446457637e-06
-5.23983386692e-06
-2.25248895024e-06
-2.6158249221e-06
-2.71801799625e-06
-2.66333513097e-06
-0.000211623295897
0.000411710393627
-0.000435848253548
0.000433792732632
-0.000657865838519
0.000430193296713
-0.000876415482325
0.000423715421938
-0.00109050843627
0.000415181991568
-0.00129918249567
0.000404775340524
-0.00150159008176
0.000392680279356
-0.00169695075733
0.000379106866897
-0.00188463310068
0.000364262676881
-0.00206407385894
0.000348368090793
-0.00223486515573
0.00033162481817
-0.00239665083937
0.000314237573615
-0.00254922372978
0.000296380312394
-0.00269240271078
0.000278224989796
-0.00282614285768
0.000259905740836
-0.00295039608425
0.000241554552205
-0.00306523631422
0.000223262868976
-0.00317070568739
0.000205123442873
-0.0032669560846
0.000187188505446
-0.0033540820292
0.000169517041426
-0.00343227906296
0.000152128795256
-0.00350166375895
0.000135056382504
-0.00356244888193
0.000118294588582
-0.00361475055425
0.000101857061885
-0.00365877984268
8.57206791691e-05
-0.00369463698943
6.98867516532e-05
-0.00372251896963
5.43203781165e-05
-0.00374250082844
3.90162942373e-05
-0.00375475876426
2.39333177519e-05
-0.00375933876044
9.06494742763e-06
-0.00375639488512
-5.63096637867e-06
-0.0037459461725
-2.01567266633e-05
-0.00372812935611
-3.45497704586e-05
-0.00370294400469
-4.88024087569e-05
-0.00367051948829
-6.29414131956e-05
-0.00363084996427
-7.69431845157e-05
-0.00358407409038
-9.08180992173e-05
-0.003530200429
-0.000104521767004
-0.00346939808544
-0.000118044318076
-0.00340171311964
-0.000131318645056
-0.00332736729655
-0.000144314810511
-0.00324646574932
-0.000156946282431
-0.00315930012088
-0.000169169301584
-0.0030660478725
-0.000180887663301
-0.00296707599996
-0.000192055852285
-0.00286263352607
-0.000202581930213
-0.00275315317203
-0.000212431699045
-0.00263894143405
-0.000221527824791
-0.00252047864024
-0.000229850813296
-0.00239811491329
-0.000237332037572
-0.00227237227044
-0.00024394800494
-0.00214365712282
-0.00024960770316
-0.00201256732554
-0.000254241873009
-0.0018796269003
-0.000257693411558
-0.0017455892705
-0.000259813188003
-0.0016111835232
-0.000260371519106
-0.00147738665849
-0.000259172722953
-0.00134516132817
-0.000255989010632
-0.00121568318996
-0.000250672194547
-0.00109009735652
-0.000243063535019
-0.000969687899831
-0.000233153170827
-0.000855519805505
-0.000221131803878
-0.000748529593177
-0.000207409623769
-0.000649377160221
-0.000192333806306
-0.000558534531032
-0.000176410220102
-0.000476116255279
-0.000160103213591
-0.00040230183337
-0.000143532394214
-0.000337128584369
-0.000126862194808
-0.000280498024959
-0.000110483984596
-0.000231978303843
-9.48610958551e-05
-0.000190967035855
-8.04271801619e-05
-0.000156646476467
-6.74630216571e-05
-0.000128177799191
-5.61288969607e-05
-0.000104662185559
-4.64324686654e-05
-8.53097240455e-05
-3.82790648714e-05
-6.94056420593e-05
-3.14403687803e-05
-5.64575401224e-05
-2.56236915547e-05
-4.6084424284e-05
-2.0556498615e-05
-3.79697737493e-05
-1.61861258395e-05
-3.168978269e-05
-1.25792719371e-05
-2.68715042045e-05
-9.71012777495e-06
-2.3183097916e-05
-7.44135833669e-06
-2.03895268643e-05
-5.65939812522e-06
-1.82436418554e-05
-4.28394746882e-06
-1.64855646893e-05
-3.26138968043e-06
-1.50778164677e-05
-2.56337836745e-06
-1.40656110765e-05
-2.05303291147e-06
-1.32558984027e-05
-1.69132341163e-06
-1.24742520703e-05
-1.71993829176e-06
-1.15887113819e-05
-2.01768540899e-06
-1.04693790121e-05
-2.4023107127e-06
-9.10175906535e-06
-2.83210189868e-06
-7.48025069663e-06
-3.45295079885e-06
-5.41255616104e-06
-4.39951188624e-06
-2.72786809688e-06
-5.48879102698e-06
-5.43298044971e-06
-0.000214481645833
0.000626221983779
-0.000440991244367
0.000660334233502
-0.000665472423719
0.000654706256222
-0.000886412822379
0.000644688285479
-0.00110273457712
0.000631535024096
-0.00131344909823
0.000615522399849
-0.00151767720282
0.000596939263042
-0.00171464178129
0.000576103941602
-0.00190369444028
0.000553345775666
-0.00208429254966
0.0005289985356
-0.0022560208963
0.00050338305298
-0.00241855685925
0.000476805610797
-0.0025716907699
0.000449543485475
-0.00271528291379
0.000421848849649
-0.0028492859
0.000393937249376
-0.00297369651482
0.000365996424216
-0.00308858261739
0.000338176667469
-0.0031940318328
0.000310603336167
-0.00329018434835
0.000283367744259
-0.00337717939882
0.000256542061571
-0.00345519449749
0.00023016953532
-0.00352438989114
0.000204280895846
-0.00358495409309
0.000178883190133
-0.00363704609871
0.000153977208872
-0.00368084693212
0.000129544578903
-0.00371649930008
0.000105566164903
-0.00374416475105
8.20074389548e-05
-0.0037639605668
5.88379768315e-05
-0.00377602235861
3.60152289245e-05
-0.00378043819116
1.35053973889e-05
-0.00377731647604
-8.73413260526e-06
-0.00376671751975
-3.07323709424e-05
-0.00374872683541
-5.2523493273e-05
-0.00372338453128
-7.41227969935e-05
-0.00369076390045
-9.55467879988e-05
-0.00365089899339
-0.000116787703757
-0.00360386831762
-0.00013783533884
-0.0035497206659
-0.00015865079302
-0.00348856296101
-0.00017919068593
-0.0034204838761
-0.000199381198485
-0.0033456441505
-0.000219145626893
-0.00326419675387
-0.00023837973056
-0.00317637696859
-0.000256983150255
-0.00308241745293
-0.000274836461528
-0.00298263531224
-0.000291835698195
-0.00287734106128
-0.000307869574374
-0.00276692122165
-0.000322853844963
-0.00265174305794
-0.000336704539173
-0.00253223529834
-0.000349366366183
-0.0024087956364
-0.000360776211129
-0.00228187738513
-0.000370880009163
-0.002151911551
-0.000379584256216
-0.00201940924532
-0.0003867638407
-0.00188490635426
-0.000392212971183
-0.00174907860629
-0.000395666129028
-0.0016126916754
-0.000396780491787
-0.00147669165796
-0.000395202713544
-0.00134211962511
-0.000390588159903
-0.0012101549102
-0.000382671786365
-0.00108209696876
-0.000371154119029
-0.000959405818695
-0.000355885270935
-0.000843344579287
-0.00033723130125
-0.000734839057139
-0.000315958705774
-0.000634667074408
-0.000292545360849
-0.000543232066653
-0.000267887303885
-0.000460413902448
-0.000242958993668
-0.00038640524989
-0.000217580309944
-0.000321430257792
-0.000191871775072
-0.000265451538525
-0.000166498668221
-0.000218014510077
-0.000142330087502
-0.000178375583838
-0.000120099993811
-0.000145598367346
-0.000100270594735
-0.000118693280319
-8.3066411696e-05
-9.66567969383e-05
-6.84981563504e-05
-7.85722105683e-05
-5.63949085449e-05
-6.36707200918e-05
-4.63707191049e-05
-5.14817738828e-05
-3.78437962808e-05
-4.18045996219e-05
-3.02640862729e-05
-3.44228083043e-05
-2.35994492725e-05
-2.88532746382e-05
-1.81788023003e-05
-2.4627733183e-05
-1.39665012658e-05
-2.14259186897e-05
-1.06727006527e-05
-1.90381149589e-05
-8.07727746065e-06
-1.72472180667e-05
-6.10298614953e-06
-1.58571195094e-05
-4.6802379266e-06
-1.47649620898e-05
-3.68420265663e-06
-1.37870071489e-05
-3.06270498152e-06
-1.28148592433e-05
-2.69633609014e-06
-1.20370014257e-05
-2.53515088303e-06
-1.13700614273e-05
-2.72838665334e-06
-1.0225736028e-05
-3.59794604993e-06
-8.65229027197e-06
-4.46281665208e-06
-6.82826089139e-06
-5.34180874433e-06
-4.65565549132e-06
-6.6429078226e-06
-2.42565445927e-06
-7.79226142867e-06
-7.89620956519e-06
-0.000217902350903
0.000844154418794
-0.000447765760452
0.000890230626464
-0.000675524012729
0.000882496436688
-0.000899566847504
0.000868763524035
-0.00111874916328
0.000850749164484
-0.00133203976762
0.000828845147342
-0.00153852750819
0.000803458635391
-0.00173742498152
0.000775033344977
-0.00192807778305
0.000744029887915
-0.002109957136
0.000710909516834
-0.0022826605241
0.000676117333549
-0.00244589544202
0.000640071761151
-0.00259947530617
0.000603153719028
-0.00274329842341
0.000565702710978
-0.00287734311617
0.000528011708332
-0.00300164532955
0.000490328796781
-0.00311629572195
0.00045285610642
-0.00322141796497
0.000415755041724
-0.0033171691978
0.000379147202683
-0.00340371981226
0.00034312132314
-0.00348125756692
0.00030773455781
-0.0035499687925
0.000273019829743
-0.00361004589112
0.000238986497334
-0.0036616695303
0.000205627509244
-0.00370501903132
0.000172919113565
-0.00374025506314
0.000140827721307
-0.00376753252242
0.000109308700624
-0.00378698341046
7.83131941523e-05
-0.00379873198078
4.77863050266e-05
-0.00380287771818
1.76742230551e-05
-0.00379951278884
-1.20778766814e-05
-0.00378870528344
-4.15180755026e-05
-0.00377051923963
-7.06897493735e-05
-0.00374499853246
-9.96230793159e-05
-0.00371218973526
-0.000128337291827
-0.00367212698942
-0.000156831559817
-0.00362485784316
-0.000185087912575
-0.00357042911594
-0.000213062444985
-0.00350891526137
-0.00024069001117
-0.00344040450042
-0.000267877119631
-0.00336502822316
-0.000294509932626
-0.00328294550949
-0.000320450440739
-0.00319437086182
-0.000345549059671
-0.00309955418678
-0.000369644774543
-0.00299880343648
-0.000392581878433
-0.0028924572381
-0.000414212146384
-0.00278090025741
-0.000434411567272
-0.00266452869894
-0.000453078255465
-0.00254376122958
-0.000470140626719
-0.0024190045618
-0.000485541161978
-0.00229067127192
-0.000499225947369
-0.00215916202197
-0.00051110738464
-0.00202490885725
-0.000521034618583
-0.00188839212025
-0.000528748471494
-0.00175021438783
-0.000533865810523
-0.00161113284736
-0.000535885195866
-0.00147210045987
-0.000534261300084
-0.00133422349867
-0.000528492184275
-0.00119868375463
-0.00051824253662
-0.00106695497778
-0.000502916871441
-0.000940935586172
-0.000481941920683
-0.000822218039718
-0.000455988783832
-0.000711623668473
-0.000426594024093
-0.000610208845953
-0.000393999277515
-0.0005183303444
-0.000359804397989
-0.000435083781276
-0.000326244046272
-0.000360824855605
-0.000291875621354
-0.00029622405895
-0.000256508028043
-0.000241430462922
-0.000221325703795
-0.000195886067127
-0.000187907681563
-0.000158600564345
-0.000157417018791
-0.000128406101581
-0.000130497249313
-0.000104097549168
-0.000107405450111
-8.44859358136e-05
-8.81406995288e-05
-6.84495075225e-05
-7.24613029178e-05
-5.50616093558e-05
-5.97893335069e-05
-4.39018980985e-05
-4.90355942812e-05
-3.51862019939e-05
-3.90112508284e-05
-2.89944121633e-05
-2.98239382946e-05
-2.45936713703e-05
-2.26105295629e-05
-2.12954014774e-05
-1.72965191446e-05
-1.88126005551e-05
-1.31862331729e-05
-1.7048587326e-05
-9.87214611681e-06
-1.57996486831e-05
-7.38165108534e-06
-1.49155102367e-05
-5.59373060008e-06
-1.40902717923e-05
-4.54038406125e-06
-1.33162599471e-05
-3.86999752143e-06
-1.25931832089e-05
-3.45438045486e-06
-1.16846506118e-05
-3.48218946559e-06
-1.05594314321e-05
-3.89652949134e-06
-9.59809899471e-06
-4.60832825953e-06
-7.99751709532e-06
-6.11968996962e-06
-5.91544563634e-06
-7.48402141637e-06
-3.99376760071e-06
-8.6267793084e-06
-2.09786303868e-06
-9.75324468956e-06
-1.00274030654e-05
-0.000222467946092
0.00106665285128
-0.000457000901932
0.00112479525485
-0.000689252052814
0.00111478024539
-0.00091751821019
0.00109706190562
-0.0011405780631
0.00107384125623
-0.00135734433704
0.00104564354586
-0.00156686756209
0.00101301381842
-0.00176834345825
0.000976541137988
-0.00196111610226
0.000936834176329
-0.00214467274859
0.000894497720514
-0.00231863647872
0.000850112297542
-0.00248275221244
0.000804218615394
-0.00263687369497
0.000757305943031
-0.0027809458848
0.000709805497162
-0.00291499101408
0.00066208699058
-0.00303909135725
0.000614459119568
-0.00315337745134
0.000567171676445
-0.00325801337104
0.000520420224149
-0.00335318836168
0.000474350879015
-0.00343910515155
0.000429066552012
-0.00351597499935
0.000384632204712
-0.00358400864726
0.000341080991592
-0.003643414157
0.000298418814949
-0.00369438978111
0.000256629636454
-0.00373712388203
0.000215678968918
-0.00377178905791
0.000175518330251
-0.00379854358108
0.000136087868513
-0.00381752636319
9.73203044999e-05
-0.00382885967301
5.91431362157e-05
-0.0038326448537
2.14826023702e-05
-0.00382896636747
-1.5734007143e-05
-0.00381788851098
-5.2573908972e-05
-0.00379946122044
-8.90959043849e-05
-0.00377371828816
-0.000125345268939
-0.00374068542705
-0.00016135039933
-0.00370038057174
-0.000197117162616
-0.00365282468026
-0.000232625698213
-0.00359804437103
-0.000267825355179
-0.00353608528907
-0.00030263309741
-0.0034670164379
-0.000336930972151
-0.00339094472328
-0.000370568399669
-0.00330801873306
-0.000403364596184
-0.00321844117873
-0.000435116999986
-0.00312246800074
-0.000465610293657
-0.00302041385292
-0.000494631229907
-0.0029126415101
-0.000521982290631
-0.00279955617958
-0.000547498069029
-0.00268158324937
-0.000571055202417
-0.0025591531294
-0.000592578089369
-0.00243267454248
-0.000612029416892
-0.00230252472818
-0.000629388136343
-0.00216904154557
-0.000644604309176
-0.00203255152587
-0.000657540703914
-0.00189341778758
-0.000667899398904
-0.00175213378004
-0.000675169092022
-0.00160941718092
-0.000678622010972
-0.00146626124516
-0.000677439234268
-0.00132387514448
-0.000670903185093
-0.00118328808894
-0.000658857873646
-0.00104610529014
-0.000640130502933
-0.000915241374309
-0.000612842609157
-0.000792912374191
-0.000578356752599
-0.000679307052846
-0.000540238016059
-0.000576373874479
-0.00049697083413
-0.000484607035315
-0.000451611870393
-0.000400675758424
-0.000410211645818
-0.00032563755439
-0.000366954396059
-0.000261308068595
-0.000320870584864
-0.000208227943793
-0.000274442789329
-0.000165524035988
-0.00023064180063
-0.000131737102523
-0.000191239355147
-0.000105315584066
-0.000156948020828
-8.47823452936e-05
-0.000127972473604
-6.86889867765e-05
-0.000104263300596
-5.55829363876e-05
-8.56001467475e-05
-4.41301189418e-05
-7.12731686219e-05
-3.39082986662e-05
-5.92893655182e-05
-2.61571530836e-05
-4.67964289006e-05
-2.17655972749e-05
-3.42474003356e-05
-1.91678732662e-05
-2.52415596647e-05
-1.71140219635e-05
-1.93817909947e-05
-1.54879479458e-05
-1.48442433987e-05
-1.45352651716e-05
-1.08564335389e-05
-1.39829058331e-05
-7.9649224437e-06
-1.37591975513e-05
-5.84835215567e-06
-1.35259521516e-05
-4.80683079173e-06
-1.3069204889e-05
-4.36178920052e-06
-1.21699702054e-05
-4.39037298402e-06
-1.11450331105e-05
-4.54639149866e-06
-9.99730268466e-06
-5.08812278414e-06
-8.8138813887e-06
-5.83902129314e-06
-7.52598458866e-06
-7.46058433658e-06
-5.54591120196e-06
-9.52098660544e-06
-3.54707785951e-06
-1.06819836161e-05
-1.8158675275e-06
-1.15410696661e-05
-1.18720648781e-05
-0.000228323131553
0.00129500642921
-0.000468905589786
0.00136541116655
-0.000706957368919
0.00135286440529
-0.000940651783642
0.0013307890064
-0.00116867319391
0.00130189499433
-0.00138986264544
0.00126686532889
-0.0016032248622
0.00122640818323
-0.00180793562064
0.00118128394621
-0.00200334210237
0.00113227249919
-0.00218895515422
0.00108014245959
-0.00236443668511
0.00102562526001
-0.0025295823872
0.000969395551909
-0.00268430316394
0.000912057648757
-0.00282860504371
0.00085413807425
-0.00296257062694
0.000796082921549
-0.00308634095536
0.000738259523292
-0.00320010039364
0.00068096078864
-0.00330406257312
0.000624411766528
-0.00339845971122
0.000568776932094
-0.00348353274734
0.000514168149449
-0.00355952459054
0.000460652112463
-0.00362667356154
0.000408257643056
-0.00368520951212
0.000356981916748
-0.003735349474
0.000306796342228
-0.00377729561801
0.000257651301717
-0.00381123221259
0.000209480703609
-0.00383732471653
0.000162205589474
-0.00385571752088
0.000115737917174
-0.00386653385712
6.99837083894e-05
-0.00386987422023
2.48467954771e-05
-0.00386581721357
-1.97677763883e-05
-0.00385441899918
-6.39493184635e-05
-0.00383571565598
-0.000107777100268
-0.00380972434552
-0.000151314934537
-0.00377644802423
-0.000194605855958
-0.00373587926019
-0.000237665718935
-0.00368800816523
-0.000280477589381
-0.00363282952441
-0.000322985698131
-0.00357035424759
-0.000365091407567
-0.00350061947593
-0.000406650056077
-0.00342370229486
-0.000447471678656
-0.0033397303544
-0.000487324396214
-0.00324889393901
-0.000525943656715
-0.00315145156221
-0.000563045354225
-0.00304773332588
-0.000598345222291
-0.00293813360693
-0.000631580731809
-0.00282309806651
-0.000662535663378
-0.002703097737
-0.000691060439878
-0.00257859814009
-0.00071708518298
-0.00245002089183
-0.000740616084718
-0.00231771107671
-0.000761708544174
-0.00218191812307
-0.000780409262968
-0.00204281111581
-0.000796660152365
-0.00190055084747
-0.000810173087177
-0.00175543466134
-0.000820299534254
-0.00160810225101
-0.000825970482666
-0.00145965972869
-0.000825900615395
-0.00131162344706
-0.000818959379856
-0.0011643105463
-0.000806195692636
-0.00101905446838
-0.000785419235528
-0.000881320940268
-0.000750615291542
-0.000754663251501
-0.000705055527206
-0.000636538765365
-0.000658406484041
-0.000531923438041
-0.000601633943924
-0.000442431652976
-0.000541145094538
-0.000357185249418
-0.000495500082105
-0.000279902193272
-0.00044428395827
-0.000215379728403
-0.000385431332342
-0.000164764096322
-0.000325095978998
-0.000126276860995
-0.000269163682877
-9.74913221259e-05
-0.000220057836008
-7.63262245058e-05
-0.000178145788922
-6.100777035e-05
-0.000143323899321
-4.98528364744e-05
-0.000115447460403
-4.08781291162e-05
-9.46089635738e-05
-3.17267985817e-05
-8.04495726214e-05
-2.15375008141e-05
-6.95134947847e-05
-1.41062778513e-05
-5.42578571969e-05
-1.27010785611e-05
-3.56855051832e-05
-1.30241879872e-05
-2.4947376833e-05
-1.2448051076e-05
-1.9988640319e-05
-1.15477677319e-05
-1.57750582994e-05
-1.15998164646e-05
-1.08354887952e-05
-1.18588160954e-05
-7.73738264067e-06
-1.2260188456e-05
-5.479093037e-06
-1.25180442291e-05
-4.58314481578e-06
-1.24958558131e-05
-4.42008608007e-06
-1.22223245221e-05
-4.70244837e-06
-1.14238070936e-05
-5.38758768878e-06
-1.00427290983e-05
-6.51431699074e-06
-8.25188975595e-06
-7.67602159738e-06
-6.80277199077e-06
-8.95861050883e-06
-5.33091248188e-06
-1.10451805411e-05
-3.40781090096e-06
-1.26565247512e-05
-1.72246921527e-06
-1.32773780833e-05
-1.36210706156e-05
-0.000235613173009
0.00153065059726
-0.000483741710403
0.00161357165865
-0.000729009785434
0.00159816569129
-0.000969431685127
0.00157124352649
-0.00120356955995
0.00153606559996
-0.00143017598296
0.00149350426184
-0.00164820129312
0.0014444659144
-0.00185680113746
0.00138991604037
-0.00205533297196
0.00133083641777
-0.00224334373293
0.00126818509584
-0.00242055089626
0.0012028640814
-0.00258681942939
0.00113569549215
-0.00274213702088
0.00106740639209
-0.00288658940748
0.000998621321009
-0.00302033733229
0.000929861412453
-0.00314359593926
0.000861548366436
-0.00325661719039
0.000794011945462
-0.00335967527539
0.000727499387829
-0.00345305498735
0.000662185811654
-0.0035370425882
0.00059818451599
-0.0036119189205
0.000535556814012
-0.00367795415643
0.000474320821822
-0.00373540398097
0.00041445926903
-0.00378450663904
0.000355926094344
-0.00382548079513
0.000298652137591
-0.00385852371561
0.000242549873937
-0.00388380989346
0.000187517610967
-0.00390148971829
0.000133443167484
-0.00391168848807
8.02075087005e-05
-0.00391450546144
2.76883750464e-05
-0.0039100134016
-2.42356442331e-05
-0.00389825848319
-7.56805113139e-05
-0.00387926113535
-0.000126751201276
-0.00385301775913
-0.000177535646945
-0.00381950405714
-0.000228097526548
-0.00377867997298
-0.000278468570698
-0.00373049692245
-0.000328640300769
-0.00367490725752
-0.000378556169528
-0.00361187633308
-0.000428104427036
-0.00354139677338
-0.000477113327896
-0.00346350455691
-0.000525349410799
-0.00337829568209
-0.000572521028736
-0.0032859417331
-0.000618287880155
-0.00318670179879
-0.000662278503646
-0.00308092784815
-0.000704115451641
-0.00296906001282
-0.000743448059786
-0.00285160885015
-0.00077998923683
-0.00272912209207
-0.000813551923983
-0.00260213676378
-0.000844076990333
-0.00247111784151
-0.000871642010507
-0.00233639510881
-0.000896439089566
-0.00219810808076
-0.000918703228504
-0.00205619688245
-0.000938578639601
-0.00191047765074
-0.000955900867171
-0.00176087225708
-0.000969914059667
-0.00160784498466
-0.00097900817205
-0.0014527900336
-0.000980967991823
-0.00129844812794
-0.000973323668412
-0.00114272354127
-0.000961951928057
-0.000984771111059
-0.000943414990663
-0.000837201002956
-0.000898233587281
-0.000706825771828
-0.000835485438442
-0.000580761395158
-0.000784545383908
-0.000474294353796
-0.000708153667402
-0.000394079836745
-0.000621385668895
-0.000305157605759
-0.00058450317011
-0.000221538999699
-0.00052789867129
-0.000155622237765
-0.000451430715372
-0.000108864916015
-0.00037184385608
-7.68187973721e-05
-0.000301284576896
-5.51011597047e-05
-0.000241765878506
-4.10412820157e-05
-0.000192277246998
-3.27138212454e-05
-0.00015164081752
-2.85131417965e-05
-0.000119716752004
-2.57429941401e-05
-9.73697119357e-05
-1.95533456769e-05
-8.66965348299e-05
-6.57904674315e-06
-8.25056574482e-05
2.93298212496e-06
-6.38060834563e-05
-1.67092216419e-06
-3.11122976481e-05
-7.28485903418e-06
-1.93579115438e-05
-7.99945340477e-06
-1.9302506135e-05
-6.89866977726e-06
-1.6903238938e-05
-8.38983286419e-06
-9.37366453275e-06
-9.63699211783e-06
-6.52138614711e-06
-1.09992969096e-05
-4.14925752651e-06
-1.20944626178e-05
-3.52355428061e-06
-1.24093300879e-05
-4.14266294203e-06
-1.22094154572e-05
-4.94271621282e-06
-1.14057600173e-05
-6.23458066972e-06
-1.02034514082e-05
-7.76169653683e-06
-8.42140895537e-06
-9.50508185608e-06
-6.428493298e-06
-1.0998092345e-05
-5.04440724337e-06
-1.24760586563e-05
-3.3255783228e-06
-1.44242086472e-05
-1.67047419394e-06
-1.49802821322e-05
-1.53159932318e-05
-0.000244513690533
0.00177519522378
-0.000501846733877
0.00187093889708
-0.000755894446384
0.00185224631001
-0.00100446249742
0.00181984485209
-0.00124596041929
0.00177759639829
-0.00147903181178
0.00172660852229
-0.0017025652046
0.0016680319881
-0.00191569891947
0.00160308230746
-0.00211781273033
0.00153298257852
-0.00230850802546
0.00145891254983
-0.00248758055024
0.00138196851973
-0.00265498886843
0.00130313549026
-0.00281082194918
0.00122327086718
-0.00295526800063
0.00114309849984
-0.00308858652622
0.00106321074525
-0.00321108422405
0.000984076571836
-0.00332309538556
0.000906053260592
-0.00342496632217
0.000829400149888
-0.00351704373028
0.000754292664928
-0.00359966604407
0.000680835924085
-0.00367315748723
0.000609076953577
-0.00373782384218
0.000539015514653
-0.00379394975641
0.000470613123205
-0.00384179675275
0.000403800679667
-0.00388160196294
0.000338484551986
-0.00391357691762
0.000274551705177
-0.00393790660788
0.000211873815712
-0.00395474827713
0.000150311046487
-0.00396423035803
8.97154476005e-05
-0.00396645113457
2.9934706531e-05
-0.00396147775237
-2.91838528918e-05
-0.00394934534031
-8.77881049953e-05
-0.00393005707409
-0.000146015134666
-0.00390358499497
-0.000203983888379
-0.003869872776
-0.000261786605425
-0.00382884021581
-0.000319478750248
-0.00378039083982
-0.000377068347774
-0.00372442221882
-0.000434504625237
-0.00366084034616
-0.000491667678438
-0.00358957708264
-0.000548359673195
-0.00351061141152
-0.000604300356689
-0.00342399211634
-0.000659128023828
-0.00332986109029
-0.000712409511076
-0.00322847275522
-0.000763660415978
-0.00312020660287
-0.000812378379968
-0.00300556611433
-0.000858088096924
-0.00288516013739
-0.000900397055659
-0.00275966062245
-0.000939054661654
-0.00262973510512
-0.0009740061032
-0.00249595395376
-0.00100542650946
-0.00235867761392
-0.00103371728902
-0.00221794074277
-0.00105944182566
-0.00207336572074
-0.00108315542994
-0.00192418992604
-0.0011050757923
-0.00176957207974
-0.00112453308498
-0.00160947497151
-0.00113911308527
-0.00144584071497
-0.00114462104042
-0.00128629567825
-0.00113290334325
-0.00112150725143
-0.00112678142889
-0.000940963449947
-0.0011240039578
-0.000778980163708
-0.00106027659967
-0.000650773723075
-0.00096380375814
-0.000505674344911
-0.000929664822299
-0.000394543739882
-0.000819328763158
-0.000342487461526
-0.000673500531737
-0.000239176530796
-0.000687776254552
-0.000137272696253
-0.000629892265699
-6.66458591026e-05
-0.000521997517639
-2.62465476649e-05
-0.000412347392424
-2.99968723512e-06
-0.000324474796958
9.49953282798e-06
-0.000254372313839
1.39176664987e-05
-0.00019664589061
1.16888819133e-05
-0.000149512326522
4.34572972104e-06
-0.000112339826601
-5.33660749152e-06
-8.77693659889e-05
-6.44569782983e-06
-8.56034880874e-05
1.46287224039e-05
-0.000103623189775
3.19961391436e-05
-8.12338152215e-05
1.17284818841e-05
-1.08480531473e-05
-4.94996737906e-06
-2.7284235801e-06
-5.20707567167e-06
-1.90661693488e-05
-5.71090308724e-07
-2.15672351603e-05
-5.07034566103e-06
-4.9078285373e-06
-7.3192014838e-06
-4.30173900865e-06
-1.00760586478e-05
-1.42427920169e-06
-1.23603627083e-05
-1.27385531335e-06
-1.30339529333e-05
-3.50675527632e-06
-1.28437265137e-05
-5.17367429561e-06
-1.19741269365e-05
-7.14725664608e-06
-1.03998679597e-05
-9.38077072567e-06
-8.75141374779e-06
-1.11989933029e-05
-6.71824087831e-06
-1.30770417083e-05
-4.88005760715e-06
-1.43599453761e-05
-3.35146612481e-06
-1.59986008059e-05
-1.64366470026e-06
-1.67333529599e-05
-1.6983596821e-05
-0.000255244368148
0.0020304713231
-0.000523659242053
0.00213938628452
-0.000788237222986
0.00211685828354
-0.00104652252337
0.00207816345546
-0.0012967318747
0.0020278391975
-0.00153737868844
0.0019672885272
-0.00176728327826
0.00189796967845
-0.00198557477556
0.00182140670953
-0.00219167424179
0.00173911477605
-0.00238526426082
0.00165253506875
-0.00256624968038
0.0015629862177
-0.0027347147344
0.00147163255096
-0.00289088039375
0.00137946827912
-0.00303506523018
0.00128731478275
-0.00316765140411
0.00119582808392
-0.00328905692665
0.00110551292422
-0.00339971392589
0.00101674078522
-0.003500052726
0.000929769117899
-0.00359049054689
0.000844760333066
-0.00367142420532
0.000761799061716
-0.00374322549099
0.000680907395999
-0.00380623872918
0.000602057546936
-0.00386077943744
0.000525182317787
-0.00390713388906
0.000450183278846
-0.00394555877231
0.000376937306979
-0.00397628101034
0.000305301510568
-0.00399949713808
0.00023511727011
-0.00401537248723
0.000166213446724
-0.00402403975054