/*--------------------------------*- C++ -*----------------------------------*\
| =========                 |                                                 |
| \\      /  F ield         | OpenFOAM: The Open Source CFD Toolbox           |
|  \\    /   O peration     | Version:  v1906                                 |
|   \\  /    A nd           | Web:      www.OpenFOAM.com                      |
|    \\/     M anipulation  |                                                 |
\*---------------------------------------------------------------------------*/
FoamFile
{
    version     2.0;
    format      ascii;
    class       volVectorField;
    location    "606";
    object      Ua;
}
// * * * * * * * * * * * * * * * * * * * * * * * * * * * * * * * * * * * * * //

dimensions      [0 1 -1 0 0 0 0];


internalField   nonuniform List<vector> 
9216
(
(-0.00663071144328 0.00663352355175 0)
(-0.00681627846769 0.0206873079937 2.38200774649e-27)
(-0.00680183936977 0.0348199148737 -4.58920383219e-31)
(-0.00675328270144 0.0489426787811 0)
(-0.0066854125488 0.0629188856956 0)
(-0.00659972196044 0.0767131266926 0)
(-0.0064976782449 0.0902858231512 0)
(-0.00638025684757 0.103600293176 0)
(-0.00624844099781 0.116622197163 0)
(-0.00610314399039 0.129319642947 0)
(-0.00594538846393 0.141663205428 0)
(-0.00577611696867 0.153626027009 0)
(-0.00559636952106 0.165183785747 0)
(-0.00540705536521 0.176314703701 0)
(-0.00520915501577 0.186999420861 0)
(-0.00500346636987 0.19722090502 0)
(-0.00479083534361 0.206964240763 0)
(-0.00457188227576 0.216216458093 0)
(-0.00434726175518 0.224966262176 0)
(-0.00411737459751 0.233203810366 0)
(-0.00388265617505 0.240920417327 0)
(-0.00364327801015 0.24810831623 0)
(-0.00339946160149 0.254760378085 0)
(-0.00315117287008 0.260869893467 0)
(-0.0028984566792 0.266430341207 0)
(-0.00264112634579 0.271435220457 0)
(-0.00237911248273 0.275877896562 0)
(-0.0021121506301 0.279751504896 0)
(-0.00184013852046 0.283048893926 0)
(-0.00156282755539 0.285762604436 0)
(-0.0012801724315 0.287884971954 0)
(-0.000992017606312 0.289408109124 0)
(-0.000698476257799 0.290324124505 0)
(-0.000399626689736 0.290625314422 0)
(-9.58401305894e-05 0.290304430269 0)
(0.000212496473273 0.28935494227 0)
(0.000524673747468 0.287771416705 0)
(0.000839921692144 0.285549835023 0)
(0.00115714366351 0.282688034479 0)
(0.0014751562584 0.279186041558 0)
(0.00179247252673 0.275046528006 0)
(0.00210751020038 0.270275113101 0)
(0.00241842677382 0.264880795769 0)
(0.0027232806599 0.258876203885 0)
(0.00301991412049 0.25227799574 0)
(0.00330605104054 0.245107080614 0)
(0.00357922291511 0.237389024503 0)
(0.00383679940015 0.229154303191 0)
(0.00407596456781 0.220438750812 0)
(0.00429370694729 0.211283873648 0)
(0.00448687548097 0.201737280991 0)
(0.00465219236224 0.191852933302 0)
(0.004786423271 0.181691287034 0)
(0.00488647283898 0.171319135371 0)
(0.00494964230101 0.16080905889 0)
(0.00497377142895 0.150238524299 0)
(0.0049574359033 0.139688512616 0)
(0.00490001531643 0.12924201463 0)
(0.00480174163357 0.118982287783 0)
(0.0046637797456 0.108991118497 0)
(0.00448833825034 0.0993468167244 0)
(0.00427893116166 0.0901218322861 0)
(0.00404052381268 0.0813799408497 0)
(0.00377965666801 0.0731730300923 0)
(0.00350411481045 0.0655381015094 0)
(0.00322203220755 0.0584954430157 0)
(0.00294094631548 0.0520489726405 0)
(0.00266706580093 0.0461883016759 0)
(0.00240504798573 0.0408918993782 0)
(0.0021580000233 0.036130361471 0)
(0.00192779855175 0.031869373672 0)
(0.00171527642205 0.0280720232174 0)
(0.00152059070781 0.0247006176024 0)
(0.00134334471896 0.0217178673679 0)
(0.00118292824085 0.0190877124341 0)
(0.00103849450487 0.0167756698964 0)
(0.000909184430252 0.0147491248373 0)
(0.000793925727684 0.012977487331 0)
(0.000691641086497 0.0114324670458 0)
(0.000601055246593 0.010088233947 0)
(0.00052091073722 0.00892158779204 0)
(0.000449597997575 0.00791221574189 0)
(0.00038490692816 0.00704353611438 0)
(0.000320880022529 0.00630716826355 0)
(0.000251495862394 0.00561193790184 0)
(0.000229967313464 0.00520894779994 0)
(0.000221382700451 0.00471704868976 0)
(0.000195237964748 0.00429981834691 0)
(0.000197376713801 0.00394108482335 0)
(0.000213451603102 0.00352821534439 0)
(0.000214189912519 0.00311291701036 0)
(0.000217607347781 0.00267050325752 0)
(0.000246270407573 0.00219069586293 0)
(0.000279407220111 0.00166647275929 0)
(0.000316125204891 0.00103242438072 0)
(0.00034006718319 0.000331911342004 0)
(-0.0207186568986 0.00685624244892 0)
(-0.0218731306443 0.0219739637533 0)
(-0.0217987763567 0.0370038918333 -2.4484643651e-27)
(-0.0216120065898 0.0520361429245 0)
(-0.0213578281351 0.0669005443233 0)
(-0.0210413471148 0.0815674024172 0)
(-0.020666242045 0.0959963050497 0)
(-0.020235988274 0.110148750766 0)
(-0.0197543100309 0.123988359289 0)
(-0.0192249890964 0.137481250509 0)
(-0.0186520619331 0.150596182373 0)
(-0.0180394933738 0.163304662638 0)
(-0.0173913777723 0.175580950739 0)
(-0.0167115609319 0.187402042871 0)
(-0.0160038819089 0.198747559902 0)
(-0.0152717666116 0.209599623161 0)
(-0.0145185212263 0.219942646491 0)
(-0.0137469109999 0.229763125006 0)
(-0.0129595105761 0.23904935966 0)
(-0.0121582787154 0.247791192037 0)
(-0.0113449667723 0.255979699411 0)
(-0.0105206963354 0.263606915908 0)
(-0.00968642107628 0.270665540189 0)
(-0.00884250971859 0.277148683501 0)
(-0.00798925091963 0.28304962812 0)
(-0.00712644065648 0.288361635373 0)
(-0.00625391659665 0.293077783453 0)
(-0.00537114983555 0.297190857787 0)
(-0.00447779609996 0.300693285818 0)
(-0.00357329598483 0.303577126207 0)
(-0.00265743211458 0.305834088164 0)
(-0.00172991387357 0.307455703875 0)
(-0.000790958707214 0.308433434396 0)
(0.000159089805928 0.308758870176 0)
(0.00111925096229 0.308424028371 0)
(0.00208826737399 0.307421657765 0)
(0.00306413836606 0.305745624277 0)
(0.00404447236374 0.303391290559 0)
(0.00502609778993 0.300355961641 0)
(0.00600540440036 0.296639287988 0)
(0.00697804566361 0.292243716968 0)
(0.00793925119148 0.287174864837 0)
(0.00888361447339 0.281441926511 0)
(0.00980533815525 0.275057986617 0)
(0.0106980805105 0.268040379693 0)
(0.0115550879531 0.260410965613 0)
(0.0123690748446 0.252196490853 0)
(0.0131322308212 0.243428906551 0)
(0.0138361562334 0.23414580415 0)
(0.0144718227531 0.224390829809 0)
(0.015029677197 0.214214168559 0)
(0.0154997454687 0.203672926397 0)
(0.0158720648633 0.192831373429 0)
(0.0161371056137 0.181760865604 0)
(0.0162865026806 0.170539311614 0)
(0.0163136373547 0.159250152206 0)
(0.0162141907629 0.147980827145 0)
(0.0159863929701 0.136821024386 0)
(0.0156310683573 0.125860847376 0)
(0.0151518657392 0.115189042471 0)
(0.0145556070039 0.104891066826 0)
(0.0138532247102 0.0950466012158 0)
(0.0130603417456 0.0857264237897 0)
(0.0121979555372 0.0769884958748 0)
(0.011291469679 0.0688737115204 0)
(0.0103674857658 0.0614033045038 0)
(0.00945041743122 0.0545793812494 0)
(0.00856008860773 0.0483878693039 0)
(0.0077109928783 0.0428026519531 0)
(0.00691257919341 0.0377896077091 0)
(0.00617026701039 0.0333099526452 0)
(0.00548626761901 0.0293227406207 0)
(0.0048605937915 0.0257867235286 0)
(0.00429167592448 0.0226615708206 0)
(0.00377723057021 0.0199085917319 0)
(0.00331447090251 0.0174909768318 0)
(0.00290048253922 0.0153739204177 0)
(0.00253185992752 0.0135247682963 0)
(0.00220499764935 0.0119133190204 0)
(0.00191591581961 0.0105119992706 0)
(0.00166067522875 0.00929585237791 0)
(0.00143493732326 0.00824231040546 0)
(0.00123385306445 0.00733030039806 0)
(0.00104998907517 0.00654151717524 0)
(0.000873984763128 0.00579992284158 0)
(0.000764158478012 0.005135532546 0)
(0.000675647396318 0.00462529323402 0)
(0.000592366975202 0.00421328031642 0)
(0.000583513893302 0.00379226931163 0)
(0.000621855113322 0.00345041644251 0)
(0.000641426619919 0.00308935775873 0)
(0.000674081150052 0.00262567432049 0)
(0.000737855045027 0.00213403608036 0)
(0.000905428418357 0.00168850265928 0)
(0.00110447744777 0.00107941419569 0)
(0.000999988361523 0.000296537815476 0)
(-0.0350128556222 0.0069116623499 0)
(-0.0369853103484 0.0221569219006 0)
(-0.0368332066016 0.0372792315499 -2.45181807837e-27)
(-0.0365118676228 0.0524211603156 0)
(-0.0360833223716 0.067393135783 0)
(-0.0355526976256 0.0821640796649 0)
(-0.0349247616681 0.0966925956741 0)
(-0.034204910051 0.110939657989 0)
(-0.0333991284295 0.124868491928 0)
(-0.032513742581 0.138444915633 0)
(-0.0315553986354 0.151637495412 0)
(-0.030530796855 0.164417649978 0)
(-0.0294466874884 0.176759667697 0)
(-0.0283095873926 0.18864067577 0)
(-0.0271258043856 0.200040533983 0)
(-0.0259011545395 0.210941688037 0)
(-0.024641029854 0.221328959669 0)
(-0.0233501332918 0.231189308189 0)
(-0.0220326023319 0.240511546993 0)
(-0.0206917759304 0.249286048861 0)
(-0.0193303812338 0.257504429487 0)
(-0.0179503396172 0.265159240582 0)
(-0.0165530145305 0.272243666152 0)
(-0.0151390542669 0.278751247716 0)
(-0.0137086893156 0.284675633981 0)
(-0.0122616024771 0.290010373045 0)
(-0.0107972597288 0.29474874415 0)
(-0.00931479838197 0.298883638815 0)
(-0.00781337799492 0.302407491746 0)
(-0.0062920808085 0.305312259729 0)
(-0.00475029076228 0.307589479413 0)
(-0.00318757781479 0.309230345315 0)
(-0.00160407843662 0.310225869753 0)
(-4.18541242923e-07 0.310567109452 0)
(0.00162194416677 0.31024544765 0)
(0.00326081016611 0.309252924209 0)
(0.00491294276429 0.307582628052 0)
(0.00657419002825 0.305229114291 0)
(0.00823926816529 0.302188860659 0)
(0.00990193057315 0.29846071405 0)
(0.0115548424279 0.294046345191 0)
(0.0131897832409 0.288950656123 0)
(0.014797588217 0.283182170903 0)
(0.016368330119 0.276753360267 0)
(0.0178912640718 0.269680953845 0)
(0.0193549110958 0.261986208912 0)
(0.0207469430389 0.253695214629 0)
(0.0220541342112 0.244839217745 0)
(0.0232622130749 0.235455051226 0)
(0.0243558006571 0.225585637595 0)
(0.0253184451602 0.215280589918 0)
(0.0261328790508 0.204596805938 0)
(0.0267816056576 0.193598940665 0)
(0.0272478094142 0.182359538192 0)
(0.0275165861313 0.170958609125 0)
(0.0275761679765 0.159482493921 0)
(0.0274189215235 0.14802207213 0)
(0.027041666018 0.136670653043 0)
(0.0264455731174 0.125522104556 0)
(0.0256362725292 0.114669310426 0)
(0.0246244530341 0.104202749646 0)
(0.0234278434739 0.0942081970562 0)
(0.0220723659027 0.0847634813431 0)
(0.0205946709155 0.0759335213238 0)
(0.0190408127779 0.0677632382269 0)
(0.0174592175002 0.0602731877621 0)
(0.0158935555387 0.0534607307739 0)
(0.0143782930673 0.0473048770484 0)
(0.0129375968882 0.0417723431438 0)
(0.0115865918142 0.0368227870579 0)
(0.0103334112682 0.0324124952139 0)
(0.00918092935284 0.0284968332865 0)
(0.00812828863805 0.0250319723405 0)
(0.00717221596412 0.0219760030015 0)
(0.00630833481373 0.0192894050358 0)
(0.00553188742941 0.0169349218456 0)
(0.00483792122642 0.0148772930532 0)
(0.00422081312236 0.0130833365303 0)
(0.00367426993373 0.0115224295669 0)
(0.00319165644211 0.0101668029499 0)
(0.00276644987208 0.00899145317259 0)
(0.00239230066809 0.00797388067089 0)
(0.00206348591861 0.00709329799883 0)
(0.00177548501827 0.00633449232717 0)
(0.00153119940245 0.00561829763925 0)
(0.00134489891309 0.00499946117436 0)
(0.00119783802962 0.00458954806135 0)
(0.00104036032428 0.00401758081886 0)
(0.000945371063286 0.00352529837452 0)
(0.000973870662007 0.00321934512133 0)
(0.00110120857603 0.00296740717604 0)
(0.00112317088519 0.00236667143068 0)
(0.00126928528404 0.0019440223894 0)
(0.00147277692828 0.00141312289197 0)
(0.00165080913899 0.00084758535398 0)
(0.00160576078816 0.00026183280012 0)
(-0.0495044828198 0.00696925963587 0)
(-0.0523168907126 0.0223611403752 0)
(-0.0520993415284 0.0376076755306 2.45149371595e-27)
(-0.0516406072818 0.052879050046 0)
(-0.0510295369772 0.0679768180444 0)
(-0.0502738200109 0.0828686896287 0)
(-0.0493801576943 0.0975120988851 0)
(-0.0483562314861 0.111867203935 0)
(-0.0472105705242 0.125896628354 0)
(-0.0459522865379 0.13956577115 0)
(-0.0445909061311 0.152842959573 0)
(-0.0431361082229 0.165699545498 0)
(-0.0415975696819 0.178109924626 0)
(-0.0399847055422 0.190051493127 0)
(-0.0383065399156 0.201504534855 0)
(-0.0365714675136 0.212452053621 0)
(-0.0347871695208 0.222879547265 0)
(-0.0329604182325 0.232774740094 0)
(-0.0310970578295 0.242127275168 0)
(-0.0292018714261 0.250928385349 0)
(-0.0272786402217 0.259170548828 0)
(-0.0253300818097 0.26684714855 0)
(-0.0233579871777 0.273952142745 0)
(-0.021363223626 0.280479762893 0)
(-0.0193459339865 0.286424244514 0)
(-0.0173055857506 0.291779601202 0)
(-0.0152412105276 0.296539444233 0)
(-0.0131514814682 0.300696852583 0)
(-0.0110349770306 0.304244295622 0)
(-0.0088902777666 0.307173600542 0)
(-0.00671626234133 0.309476016377 0)
(-0.00451218538719 0.311142271841 0)
(-0.00227799545751 0.312162741547 0)
(-1.44517422173e-05 0.312527682571 0)
(0.00227660259858 0.312227524487 0)
(0.00459214591112 0.311253224549 0)
(0.00692775614065 0.309596685498 0)
(0.00927758210514 0.307251214972 0)
(0.0116342195152 0.304212018574 0)
(0.013988780304 0.300476695346 0)
(0.0163308851606 0.296045723004 0)
(0.018648821011 0.290922897948 0)
(0.0209296109578 0.285115724494 0)
(0.0231591822927 0.278635730611 0)
(0.0253224067409 0.271498729807 0)
(0.0274031500872 0.2637250379 0)
(0.0293841602198 0.255339702313 0)
(0.0312469161363 0.246372788137 0)
(0.0329713685352 0.236859800456 0)
(0.0345357341991 0.226842282979 0)
(0.0359164125206 0.21636862075 0)
(0.0370882592457 0.205494975463 0)
(0.0380253464857 0.194286181325 0)
(0.038702416738 0.18281631119 0)
(0.0390968169304 0.171168456825 0)
(0.0391907740476 0.159433475398 0)
(0.0389729069909 0.14770754666 0)
(0.0384387528509 0.136089321246 0)
(0.0375895969355 0.124677870897 0)
(0.0364324559039 0.113571613913 0)
(0.0349801796586 0.102868253846 0)
(0.0332559486482 0.0926628410377 0)
(0.0312941944955 0.0830451945882 0)
(0.0291489968154 0.0740935058915 0)
(0.0268934377925 0.0658605159177 0)
(0.0246044641579 0.0583651154867 0)
(0.0223493949637 0.0515954603626 0)
(0.0201786375697 0.0455179552682 0)
(0.018125058342 0.0400871005028 0)
(0.0162076326785 0.0352526840763 0)
(0.0144354820664 0.0309636047873 0)
(0.0128106437216 0.027169854482 0)
(0.0113300223756 0.0238239655348 0)
(0.0099874060359 0.0208820173383 0)
(0.00877554750464 0.0183037663544 0)
(0.0076875083094 0.0160517623886 0)
(0.00671657170108 0.0140902735442 0)
(0.00585491484157 0.0123852480242 0)
(0.00509320562791 0.0109054193745 0)
(0.00442176455709 0.00962293625703 0)
(0.00383124597655 0.00851308402403 0)
(0.00331283383423 0.00755405445955 0)
(0.00285896689311 0.00672651719393 0)
(0.00246565453035 0.00601902715777 0)
(0.00212701285483 0.00531802341099 0)
(0.00189901330853 0.00482170046421 0)
(0.00169518929225 0.00432701181195 0)
(0.00150496435207 0.00376287881029 0)
(0.00142058743905 0.00337359227368 0)
(0.00135968177396 0.00287382477375 0)
(0.00143708838428 0.00245477650715 0)
(0.00166769390448 0.00215919328777 0)
(0.00173515603548 0.00156194468764 0)
(0.00194268616718 0.00108442384201 0)
(0.0021534410213 0.000655979948292 0)
(0.00213986520343 0.000214708718647 0)
(-0.0641433489164 0.00704365299896 0)
(-0.0677920866541 0.0226310178382 0)
(-0.067507647829 0.0380499122713 0)
(-0.0669082440785 0.0534960651504 0)
(-0.066109818093 0.0687629623365 0)
(-0.0651228464931 0.0838170933288 0)
(-0.0639562793673 0.0986145015543 0)
(-0.062620325125 0.113114253472 0)
(-0.0611262852104 0.127278139296 0)
(-0.059486256215 0.141070976436 0)
(-0.0577128610151 0.154460760341 0)
(-0.0558189466179 0.167418755496 0)
(-0.053817323259 0.179919510179 0)
(-0.0517204736595 0.191940800497 0)
(-0.0495403189715 0.203463503041 0)
(-0.0472879626084 0.214471403289 0)
(-0.0449735088986 0.224950942721 0)
(-0.0426058700274 0.234890915398 0)
(-0.0401926659318 0.244282122095 0)
(-0.0377401212952 0.253116997122 0)
(-0.0352530675808 0.261389220577 0)
(-0.0327349427073 0.269093333488 0)
(-0.0301878957916 0.276224369473 0)
(-0.0276128783598 0.282777517636 0)
(-0.0250098289837 0.288747826036 0)
(-0.0223778265881 0.29412995358 0)
(-0.0197153228429 0.298917973493 0)
(-0.0170203298071 0.303105230108 0)
(-0.0142906795092 0.306684250644 0)
(-0.0115242352612 0.309646698628 0)
(-0.00871918974283 0.311983439461 0)
(-0.00587425994192 0.313684577934 0)
(-0.00298902431993 0.314739627554 0)
(-6.4163632261e-05 0.315137753342 0)
(0.00289824791664 0.314868076011 0)
(0.00589452670878 0.313920056445 0)
(0.00891915022784 0.312283954001 0)
(0.0119646360145 0.30995134162 0)
(0.0150214430595 0.306915660279 0)
(0.018078001694 0.303172782131 0)
(0.0211207808525 0.298721553284 0)
(0.0241344672638 0.293564278816 0)
(0.0271021494841 0.287707123971 0)
(0.0300055396935 0.281160409283 0)
(0.0328251122018 0.273938804346 0)
(0.0355401620349 0.266061444514 0)
(0.0381286814684 0.257552034381 0)
(0.040567077975 0.248439026085 0)
(0.0428297240978 0.238755993039 0)
(0.0448884655123 0.228542309135 0)
(0.0467122701448 0.217844228732 0)
(0.0482673013254 0.206716324253 0)
(0.0495178299836 0.195223138922 0)
(0.0504281769685 0.183440493061 0)
(0.0509659786504 0.171455883579 0)
(0.0511058021793 0.159366926047 0)
(0.050832305907 0.147277814894 0)
(0.0501402742181 0.135294531831 0)
(0.0490314183898 0.123522430256 0)
(0.047513385734 0.112065963671 0)
(0.0455977562716 0.101031778182 0)
(0.0433108687861 0.0905272338535 0)
(0.040689274651 0.0806610591043 0)
(0.0378063143635 0.071536824472 0)
(0.0347749750957 0.0632223230688 0)
(0.0317132147629 0.0557323534507 0)
(0.0287191134131 0.04903774163 0)
(0.0258599690663 0.0430830461704 0)
(0.0231743194108 0.0378035502076 0)
(0.0206812213916 0.0331351636845 0)
(0.0183880329582 0.0290172309875 0)
(0.0162938801461 0.0253928971418 0)
(0.0143914468643 0.0222100803188 0)
(0.0126696210988 0.0194227159289 0)
(0.0111170174219 0.0169905545827 0)
(0.00972453973266 0.0148768682967 0)
(0.00848469185284 0.0130455112866 0)
(0.00738783370728 0.0114606852776 0)
(0.00642068678707 0.010089909735 0)
(0.00556984980765 0.00890540042431 0)
(0.00482281625603 0.00788301576255 0)
(0.00416754768229 0.00700203505123 0)
(0.00359335071524 0.00624637085505 0)
(0.00309513375588 0.00559907149453 0)
(0.00266638514577 0.00495142289796 0)
(0.00245111988718 0.00457141717889 0)
(0.0022602798329 0.00408516537871 0)
(0.00204538725209 0.00354370000875 0)
(0.00183281441354 0.00293048066232 0)
(0.00181059933503 0.00252344691495 0)
(0.00181686572835 0.00202424049924 0)
(0.0020529559525 0.00171723262144 0)
(0.00231811860304 0.00133777911751 0)
(0.00236864255866 0.000844187856135 0)
(0.00247927071306 0.00048825647586 0)
(0.00246119059942 0.000161602285343 0)
(-0.0789795301723 0.00713643293129 0)
(-0.0834715145742 0.0229719480909 0)
(-0.08311689855 0.0386113547984 0)
(-0.0823714507381 0.0542799914929 0)
(-0.0813785090058 0.0697616584403 0)
(-0.0801514902711 0.0850214590306 0)
(-0.0787018581132 0.100013769681 0)
(-0.0770426236536 0.114696296112 0)
(-0.0751881487587 0.129029769701 0)
(-0.0731537949146 0.142978265845 0)
(-0.0709555700979 0.156509358452 0)
(-0.0686097629099 0.169594208583 0)
(-0.0661325925912 0.182207572571 0)
(-0.0635398577712 0.194327732069 0)
(-0.060846616115 0.205936346913 0)
(-0.0580668766644 0.217018234802 0)
(-0.0552133420423 0.227561082348 0)
(-0.0522971816115 0.23755509627 0)
(-0.0493278756408 0.246992605613 0)
(-0.0463131074349 0.25586763059 0)
(-0.0432587407414 0.26417543537 0)
(-0.040168849989 0.271912084709 0)
(-0.037045832992 0.279074022892 0)
(-0.0338905627161 0.285657691742 0)
(-0.0307026013462 0.291659199279 0)
(-0.0274804284056 0.297074045962 0)
(-0.0242217080596 0.301896909959 0)
(-0.0209235524596 0.306121489959 0)
(-0.0175828151408 0.309740404432 0)
(-0.0141963792377 0.312745127945 0)
(-0.0107614970737 0.315126055197 0)
(-0.00727606675516 0.316872509253 0)
(-0.00373903250796 0.317972911584 0)
(-0.000150724145241 0.318415026506 0)
(0.00348678452297 0.318186281195 0)
(0.00716935624041 0.317274185005 0)
(0.0108905036915 0.315666842258 0)
(0.0146411934427 0.313353542525 0)
(0.0184097337454 0.310325404616 0)
(0.0221817934335 0.306576037928 0)
(0.0259405296653 0.302102176976 0)
(0.0296668396719 0.296904238228 0)
(0.0333396776284 0.290986751958 0)
(0.0369364016432 0.284358632547 0)
(0.040433048431 0.277033277187 0)
(0.0438044607929 0.269028520738 0)
(0.0470241579679 0.260366524328 0)
(0.0500639023979 0.251073734668 0)
(0.0528929429267 0.24118109623 0)
(0.055477059428 0.230724748805 0)
(0.0577776246318 0.219747394865 0)
(0.0597512030425 0.208300497625 0)
(0.0613502055953 0.196447045942 0)
(0.0625255745521 0.184264474251 0)
(0.0632315671962 0.171846116837 0)
(0.0634326231687 0.159299850698 0)
(0.0631090577406 0.146742073798 0)
(0.0622576597579 0.134288492669 0)
(0.0608815620342 0.122051044772 0)
(0.0589896413304 0.11013801867 0)
(0.0565846820938 0.0986658067085 0)
(0.0536951299304 0.0877544318029 0)
(0.0503394512125 0.0775407068859 0)
(0.0466108201186 0.0681792529933 0)
(0.0426901343628 0.0597674330925 0)
(0.0387596665453 0.0523092397257 0)
(0.0349591764251 0.0457421769086 0)
(0.0313717363198 0.0399731106546 0)
(0.0280336143188 0.0349082996569 0)
(0.0249567105105 0.0304663496174 0)
(0.0221428398211 0.0265762254836 0)
(0.0195861179783 0.0231732424308 0)
(0.0172723663817 0.0201996924919 0)
(0.0151823353712 0.0176075837431 0)
(0.0132982643677 0.0153586871645 0)
(0.0116093984538 0.0134194416194 0)
(0.0101104063299 0.0117535726083 0)
(0.00879112643777 0.010321247948 0)
(0.00763175716896 0.00908744080966 0)
(0.00661404857663 0.00802507155591 0)
(0.00572237089933 0.0071107872093 0)
(0.00494070547966 0.0063245642984 0)
(0.00425433264397 0.00565310972454 0)
(0.0036558164216 0.00506003038713 0)
(0.0031785615594 0.00449602509994 0)
(0.00293313037115 0.00410001197466 0)
(0.00267256685208 0.0035528403964 0)
(0.00252643589758 0.00313367799596 0)
(0.00242201409777 0.00268761784379 0)
(0.00238746309751 0.0022506576382 0)
(0.00222876271053 0.00166427261241 0)
(0.00233051849209 0.00126791926845 0)
(0.00266169389983 0.00102544314128 0)
(0.00275796859973 0.000689488006503 0)
(0.00277266776055 0.000383584799825 0)
(0.00275691719071 0.000126804654846 0)
(-0.094059254779 0.00724916024016 0)
(-0.0994054494379 0.0233881053176 0)
(-0.0989760806532 0.0392974499671 2.46933362792e-27)
(-0.0980774063678 0.0552381524312 0)
(-0.0968806366082 0.0709820658834 0)
(-0.0954023127763 0.0864925928737 0)
(-0.0936566896144 0.10172208635 0)
(-0.0916599016668 0.116626589924 0)
(-0.0894297186153 0.131165538273 0)
(-0.0869851209764 0.145302099697 0)
(-0.084345862496 0.159003338552 0)
(-0.0815320254284 0.172240303445 0)
(-0.0785635839471 0.184988027794 0)
(-0.0754599754939 0.197225444585 0)
(-0.0722396960641 0.208935215705 0)
(-0.068919920937 0.220103477949 0)
(-0.0655161717032 0.230719509404 0)
(-0.0620420342762 0.240775324064 0)
(-0.0585089515397 0.250265206949 0)
(-0.0549260931629 0.259185207593 0)
(-0.0513003207422 0.267532614097 0)
(-0.0476362395096 0.275305432864 0)
(-0.0439363411673 0.28250189865 0)
(-0.0402012138257 0.289120036021 0)
(-0.0364298117697 0.295157286419 0)
(-0.0326197546036 0.300610206782 0)
(-0.0287676506853 0.305474237775 0)
(-0.0248694241737 0.309743534483 0)
(-0.020920655616 0.313410853573 0)
(-0.0169169299428 0.316467468901 0)
(-0.0128542311702 0.318903229608 0)
(-0.00872928730108 0.320706525828 0)
(-0.0045400569929 0.32186445333 0)
(-0.000286166889779 0.322363049974 0)
(0.00403062944586 0.322187629579 0)
(0.00840601810678 0.321323240046 0)
(0.0128327432617 0.31975524509 0)
(0.0173003250143 0.317470013758 0)
(0.0217949053661 0.31445568981 0)
(0.0262992621622 0.310702994796 0)
(0.0307929994615 0.3062060037 0)
(0.03525291548 0.300962819118 0)
(0.0396535015333 0.29497606776 0)
(0.0439675011341 0.288253153467 0)
(0.0481664055208 0.280806231568 0)
(0.0522207423433 0.272651921325 0)
(0.0560999940696 0.263810848695 0)
(0.0597720068621 0.254307197359 0)
(0.0632018252871 0.244168559991 0)
(0.0663499897577 0.233426435598 0)
(0.0691706151815 0.222117863111 0)
(0.0716097834575 0.210288451133 0)
(0.0736054711606 0.197997116211 0)
(0.0750903219392 0.185321518549 0)
(0.0759991611836 0.172362645544 0)
(0.0762809790333 0.159244166536 0)
(0.0759120313087 0.146102627654 0)
(0.0748984037717 0.13306683463 0)
(0.0732474493134 0.120254234319 0)
(0.0709749089219 0.107768936134 0)
(0.0680562230076 0.0957371462053 0)
(0.0645350323298 0.0842819183198 0)
(0.0603484833392 0.0735766880048 0)
(0.0556057761679 0.0638874386625 0)
(0.0506217001909 0.0553710706416 0)
(0.0456858143583 0.0480012610273 0)
(0.0409946748147 0.041649651412 0)
(0.0366391913351 0.0361573152098 0)
(0.0326341902899 0.0313883618464 0)
(0.0289708507735 0.0272442435149 0)
(0.025641925544 0.0236465157457 0)
(0.0226361344833 0.0205223265692 0)
(0.0199292240768 0.0178062258207 0)
(0.017488012473 0.0154485639341 0)
(0.015283685975 0.0134175833837 0)
(0.0133053270954 0.0116889841895 0)
(0.0115577583928 0.0102272161973 0)
(0.0100343368666 0.00898201528144 0)
(0.00870078957051 0.00791281444606 0)
(0.00753221284563 0.00699600024937 0)
(0.00651165880839 0.00620965915937 0)
(0.00561823275044 0.00553390005762 0)
(0.00483277360928 0.00495857506943 0)
(0.00414518857375 0.00442813304845 0)
(0.00367981934888 0.00398143917987 0)
(0.00340644803939 0.00356892019149 0)
(0.00316079303987 0.00311252051481 0)
(0.00294104103914 0.0026379014292 0)
(0.00286962564459 0.00224251357218 0)
(0.00275746550592 0.00177543299294 0)
(0.00278387378337 0.00141810720612 0)
(0.00267571629233 0.000969713956258 0)
(0.00280526310415 0.000711071476384 0)
(0.00301967536109 0.000525924589689 0)
(0.00300104863192 0.000292431161478 0)
(0.00298464506904 9.66137314936e-05 0)
(-0.109432135602 0.00738307348056 0)
(-0.115646483081 0.0238840016497 0)
(-0.115136728704 0.0401150090099 -2.46895432344e-27)
(-0.114075835359 0.0563797812145 0)
(-0.112663596689 0.0724356587829 0)
(-0.110919959003 0.0882439530582 0)
(-0.108862311558 0.103754567138 0)
(-0.106510304278 0.118921543095 0)
(-0.10388553691 0.133702759696 0)
(-0.101011045036 0.148060304082 0)
(-0.0979107695505 0.161960643001 0)
(-0.0946090224798 0.175374710922 0)
(-0.0911299586947 0.188277902639 0)
(-0.0874970588587 0.200649971905 0)
(-0.0837326331925 0.212474835248 0)
(-0.0798573555247 0.223740280106 0)
(-0.0758898446836 0.234437578685 0)
(-0.0718463102469 0.244561013511 0)
(-0.0677402851724 0.254107327768 0)
(-0.0635824620707 0.263075121512 0)
(-0.0593806483412 0.271464222433 0)
(-0.0551398415476 0.279275064645 0)
(-0.0508624190475 0.286508109289 0)
(-0.046548419741 0.293163335509 0)
(-0.0421958921249 0.29923981984 0)
(-0.0378012760539 0.304735408745 0)
(-0.033359795585 0.309646475956 0)
(-0.0288658472262 0.313967748145 0)
(-0.024313386949 0.317692183525 0)
(-0.0196963261361 0.320810863665 0)
(-0.0150089797473 0.323313038203 0)
(-0.0102464736669 0.325186029327 0)
(-0.00540533158696 0.326415377691 0)
(-0.000484022725572 0.32698505438 0)
(0.00451644807509 0.326877799919 0)
(0.00959196327625 0.326075622014 0)
(0.014734775059 0.324560459635 0)
(0.0199331041532 0.322315000822 0)
(0.0251709107337 0.31932362273 0)
(0.0304278917378 0.315573397372 0)
(0.0356797389645 0.311055080161 0)
(0.0408986664938 0.305763975358 0)
(0.0460541666105 0.299700559181 0)
(0.0511138995258 0.292870746809 0)
(0.0560445514791 0.285285720841 0)
(0.0608124422418 0.276961309169 0)
(0.0653836159876 0.267916993818 0)
(0.0697231625636 0.258174786453 0)
(0.0737935509629 0.24775832875 0)
(0.0775519190266 0.236692833178 0)
(0.080946469282 0.225006544356 0)
(0.0839127025193 0.212734784846 0)
(0.0863709889669 0.199927098842 0)
(0.0882283991262 0.186657758866 0)
(0.0893888990948 0.173036432999 0)
(0.0897750199255 0.159212419438 0)
(0.0893585648923 0.145359218367 0)
(0.0881751793743 0.131623647919 0)
(0.0862390732572 0.118127311149 0)
(0.0835974567906 0.104946598208 0)
(0.0801417776714 0.092225767096 0)
(0.0760167862365 0.0800466092638 0)
(0.070877449507 0.0686114328079 0)
(0.0648393571545 0.0584524477237 0)
(0.0585173348241 0.0498473980389 0)
(0.0523833010648 0.0426820744869 0)
(0.0467068892356 0.0366953657144 0)
(0.0415610133679 0.0316124201338 0)
(0.0368939149621 0.0272397597508 0)
(0.0326513788864 0.0234739061192 0)
(0.0288192886935 0.0202413581625 0)
(0.0253875748848 0.0174604218287 0)
(0.0223184345972 0.0150514848905 0)
(0.0195530260136 0.0129619911778 0)
(0.0170405342324 0.0111759698579 0)
(0.014772385971 0.00969349071968 0)
(0.0127845406148 0.00848255694663 0)
(0.0110865037764 0.00746425257463 0)
(0.00960374516561 0.00658529399556 0)
(0.00830285655626 0.00583592284199 0)
(0.00717350408093 0.00519678784465 0)
(0.00618758272005 0.00464549248014 0)
(0.00532093594415 0.0041742320486 0)
(0.00456111384621 0.00371384039983 0)
(0.00413417874502 0.00337196648491 0)
(0.00382150582957 0.00296888595735 0)
(0.00362600649649 0.00260679757039 0)
(0.00342500570675 0.00218675990431 0)
(0.00327561654069 0.00178090420567 0)
(0.00311618495233 0.00136606026429 0)
(0.00305275704376 0.00103405401329 0)
(0.00308336058441 0.000767506487821 0)
(0.00299430405085 0.00049443508928 0)
(0.00321814669346 0.000358928697589 0)
(0.00317096317091 0.000212706883384 0)
(0.00314370307383 6.73028009313e-05 0)
(-0.125150995079 0.00753947906444 0)
(-0.132250081954 0.0244649314527 0)
(-0.131653115463 0.0410723812336 0)
(-0.130419017091 0.0577162570764 0)
(-0.12877707989 0.0741365666068 0)
(-0.12675103496 0.090292071767 0)
(-0.124361839653 0.106129741515 0)
(-0.121633141057 0.121601235376 0)
(-0.118590882001 0.136662593874 0)
(-0.115262680604 0.151274638312 0)
(-0.111677196801 0.165403149242 0)
(-0.10786349903 0.179018953101 0)
(-0.103850438358 0.19209790638 0)
(-0.0996660331174 0.204620778922 0)
(-0.0953368712718 0.216573032555 0)
(-0.0908875409283 0.227944489711 0)
(-0.0863401091374 0.23872888818 0)
(-0.0817136736954 0.248923324442 0)
(-0.0770240193887 0.25852759812 0)
(-0.0722834064983 0.267543482789 0)
(-0.0675005145977 0.275973960717 0)
(-0.0626805479066 0.283822467923 0)
(-0.0578254928815 0.291092197696 0)
(-0.0529344968543 0.297785503504 0)
(-0.0480043252932 0.303903425967 0)
(-0.0430298480462 0.309445346637 0)
(-0.0380045164705 0.314408749726 0)
(-0.0329208103164 0.318789058638 0)
(-0.0277706612867 0.322579515779 0)
(-0.0225458778795 0.325771048157 0)
(-0.0172386342413 0.328352287331 0)
(-0.0118419312082 0.330309384599 0)