/*--------------------------------*- C++ -*----------------------------------*\
| =========                 |                                                 |
| \\      /  F ield         | OpenFOAM: The Open Source CFD Toolbox           |
|  \\    /   O peration     | Version:  v1906                                 |
|   \\  /    A nd           | Web:      www.OpenFOAM.com                      |
|    \\/     M anipulation  |                                                 |
\*---------------------------------------------------------------------------*/
FoamFile
{
    version     2.0;
    format      ascii;
    class       surfaceScalarField;
    location    "135";
    object      phi;
}
// * * * * * * * * * * * * * * * * * * * * * * * * * * * * * * * * * * * * * //

dimensions      [0 3 -1 0 0 0 0];
oriented        oriented;


internalField   nonuniform List<scalar> 
18240
(
0.0119448554941
-0.0119448576515
0.0244857040512
-0.0125408514842
0.0369774322993
-0.0124917302422
0.0493302418606
-0.012352812611
0.0614915029668
-0.0121612628339
0.0734144815623
-0.0119229817328
0.0850563563791
-0.0116418762864
0.0963779108079
-0.0113215576251
0.107343630809
-0.010965721218
0.117921839546
-0.0105782119645
0.128084824223
-0.0101629856468
0.137808872523
-0.00972405153382
0.14707427023
-0.00926539844183
0.155865203088
-0.00879093607751
0.164169634507
-0.00830443192915
0.171979101665
-0.00780947034735
0.179288509796
-0.00730940843331
0.18609586215
-0.00680735549762
0.192402009738
-0.00630614769598
0.198210352178
-0.00580834552522
0.203526576013
-0.00531622376726
0.208358355745
-0.00483178274924
0.212715105102
-0.00435674912493
0.216607698408
-0.00389259624641
0.22004825025
-0.00344055146553
0.223049868932
-0.0030016215382
0.225626472401
-0.00257660296
0.227792579016
-0.00216610938121
0.22956316246
-0.00177058281764
0.230953481828
-0.00139032203898
0.231978978829
-0.00102549626981
0.232655159389
-0.00067618313151
0.23299757447
-0.00034241425922
0.233021968929
-2.43969268103e-05
0.232743447958
0.000278521876622
0.232176273317
0.000567172278779
0.231334660981
0.000841613309973
0.230232610079
0.00110204864506
0.228883791622
0.00134881949064
0.227301469388
0.00158232008289
0.225498491604
0.00180297886654
0.223487251739
0.00201123782071
0.221279700071
0.00220755279077
0.218887317781
0.00239238035247
0.216321137158
0.00256618177565
0.213591723115
0.00272941221358
0.210709198364
0.00288252592842
0.207683229886
0.00302596675444
0.20452305707
0.00316017401028
0.201237481554
0.00328557389843
0.197834896933
0.00340258582676
0.194323280867
0.00351161455425
0.190710225343
0.00361305673226
0.18700293028
0.00370729365561
0.183208233614
0.0037946978743
0.179332605861
0.00387562644909
0.175382179538
0.0039504275221
0.171362744339
0.00401943399811
0.167279775542
0.00408296998461
0.163138429594
0.00414134484669
0.158943571312
0.0041948594516
0.154699769752
0.00424380055734
0.15041132409
0.00428844681049
0.14608225974
0.00432906344561
0.14171635286
0.00436590800106
0.137317126738
0.00439922531283
0.13288787491
0.00442925291987
0.128431657849
0.00445621634698
0.123951324725
0.00448033418171
0.119449510463
0.00450181364296
0.11492865617
0.0045208553147
0.11039100664
0.00453764900384
0.1058386295
0.0045523781225
0.101273413227
0.00456521583855
0.0966970850693
0.00457632909888
0.0921112096454
0.00458587508039
0.0875172056902
0.0045940048501
0.0829163453123
0.00460086012263
0.0783097696056
0.00460657655201
0.0736984886323
0.0046112808027
0.0690833959553
0.00461509346715
0.0644652694154
0.00461812645011
0.0598447846512
0.00462048549467
0.055222516781
0.00462226785916
0.050598953063
0.00462356438689
0.0459744957859
0.00462445734799
0.0413494746599
0.00462502173766
0.0367241522778
0.00462532254209
0.0320987394766
0.00462541336135
0.027473411629
0.00462532809106
0.022848349339
0.00462506278363
0.0182238264759
0.00462452317004
0.0136004829992
0.00462334386304
0.00897998817673
0.00462049523735
0.0043752032795
0.00460478536122
0.00437520349448
0.0126155686117
-0.0245604286866
0.0260058124078
-0.0259310980236
0.0393018135827
-0.0257877338648
0.0524371776725
-0.0254881793988
0.0653636626942
-0.0250877501779
0.0780342819019
-0.0245936035842
0.0904043577513
-0.0240119543237
0.102432471288
-0.0233496737384
0.114080967291
-0.0226142192644
0.125316240017
-0.0218134871848
0.136108902134
-0.0209556496575
0.146433844951
-0.0200489967516
0.156270226224
-0.0191017814569
0.165601372999
-0.0181220851521
0.174414635196
-0.017117695717
0.182701175288
-0.0160960126317
0.190455732259
-0.0150639668476
0.197676342733
-0.0140279680547
0.204364058079
-0.0129938643431
0.210522636838
-0.0119669262549
0.216158250572
-0.0109518386649
0.221279178587
-0.00995271262446
0.225895528365
-0.00897309993502
0.230018953567
-0.00801602319802
0.233662405195
-0.00708400400233
0.236839884819
-0.00617910280212
0.239566234419
-0.00530295335063
0.241856929561
-0.00445680605672
0.243727909528
-0.00364156346409
0.245195408949
-0.00285782288853
0.246275821616
-0.0021059095121
0.246985551241
-0.00138591408287
0.247340848872
-0.000697712366599
0.247357375775
-4.0925053196e-05
0.247051038288
0.00058485898137
0.246438110368
0.00118009907419
0.245534187453
0.00174553593016
0.24435430418
0.00228193088483
0.242913030785
0.00279009266993
0.241224471703
0.00327087822067
0.239302265416
0.00372518501136
0.237159566916
0.00415393546245
0.234809049123
0.00455807050779
0.23226289152
0.00493853717943
0.229532788158
0.0052962851242
0.226629942715
0.00563225695916
0.223565081652
0.00594738703562
0.220348453906
0.00624259387839
0.216989847436
0.00651878057747
0.213498591994
0.00677682879158
0.209883577664
0.007017600302
0.206153259553
0.00724193218668
0.202315677297
0.00745063917735
0.198378460839
0.0076445097018
0.194348850176
0.00782430876681
0.19023370164
0.0079907746365
0.1860395074
0.00814462202755
0.18177240186
0.00828653924975
0.17743818059
0.0084171915523
0.173042306609
0.0085372185975
0.168589928549
0.00864723783828
0.164085886699
0.00874784223281
0.159534730294
0.00883960356625
0.154940723275
0.00892307034169
0.150307860665
0.00899877098416
0.145639874039
0.00906721186558
0.140940247002
0.00912888034851
0.136212220406
0.00918424291866
0.131458806955
0.00923374804025
0.126682796237
0.00927782438234
0.121886768505
0.00931688346847
0.117073099583
0.00935131799129
0.112243973893
0.00938150424693
0.107401389301
0.00940780053883
0.102547169451
0.00943054939261
0.0976829686259
0.00945007605378
0.0928102834449
0.00946669048164
0.0879304578054
0.00948068594793
0.0830446940015
0.0094923408092
0.0781540578114
0.00950191721186
0.0732594890901
0.00950966263958
0.0683618070648
0.00951580872317
0.0634617204596
0.00952057254442
0.0585598330714
0.00952415552117
0.0536566535009
0.00952674439426
0.048752601101
0.00952851005054
0.0438480153685
0.00952960790513
0.0389431621459
0.00953017610266
0.0340382417494
0.00953033419689
0.0291333914777
0.00953017873792
0.0242286775811
0.00952977709032
0.0193240423841
0.00952915873293
0.0144190901825
0.00952829648601
0.00951273519618
0.00952685064586
0.00460768284604
0.0095098381595
0.00898288658285
0.012755763718
-0.0373161948818
0.0262518149912
-0.0394271519174
0.0396671757788
-0.0392030972219
0.0529211185329
-0.0387421247358
0.0659615518704
-0.0381281859821
0.0787398688686
-0.0373719230843
0.0912104538302
-0.0364825416432
0.103331211701
-0.0354704340152
0.115063988425
-0.0343469982287
0.126374848728
-0.033124349786
0.137234237862
-0.031815040905
0.147617036928
-0.0304317979992
0.157502532524
-0.0289872790355
0.166874305666
-0.0274938603537
0.17572006076
-0.0259634526611
0.18403139891
-0.0244073527184
0.19180355666
-0.0228361263147
0.199035112778
-0.0212595259851
0.205727682965
-0.0196864361164
0.211885602233
-0.0181248472125
0.21751561263
-0.0165818505219
0.222626552827
-0.0150636543903
0.227229064819
-0.0135756132618
0.231335311291
-0.0121222711222
0.234958716798
-0.0107074107265
0.238113723901
-0.00933411124332
0.240815575814
-0.00800480636569
0.243080114964
-0.00672134643428
0.244923607845
-0.00548505733761
0.24636258428
-0.0042968004456
0.24741370055
-0.00315702667031
0.248093614161
-0.00206582871371
0.248418883159
-0.00102298215104
0.248405940386
-2.79831958434e-05
0.248070904461
0.000919894219475
0.24742956804
0.0018214346763
0.24649740888
0.00267769449381
0.245289496934
0.00348984210107
0.243820460221
0.00425912887113
0.242104462121
0.00498687567537
0.240155189173
0.00567445752486
0.237985838204
0.00632328586593
0.235609112898
0.00693479545411
0.233037219023
0.00751043056457
0.230281868051
0.00805163580578
0.227354278546
0.00855984604535
0.224265184828
0.00903648052867
0.22102484262
0.00948293573515
0.217643041044
0.00990058198863
0.214129111005
0.0102907585444
0.21049193917
0.0106547720302
0.206739977965
0.0109938931655
0.20288126057
0.0113093565184
0.198923411708
0.0116023583948
0.194873662968
0.0118740575031
0.19073886383
0.0121255736596
0.186525496851
0.0123579890484
0.18223968856
0.0125723474761
0.177887224207
0.0127696559903
0.173473558302
0.012950884485
0.169003828757
0.0131169675066
0.164482866951
0.0132688040655
0.159915211174
0.0134072595029
0.155305116173
0.0135331654101
0.150656565881
0.013647321469
0.145973282443
0.0137504954096
0.141258738248
0.0138434247667
0.136516164477
0.0139268168315
0.13174856248
0.014001350289
0.126958711899
0.0140676751387
0.122149181456
0.0141264141897
0.117322336715
0.0141781629403
0.112480350342
0.0142234909219
0.107625209585
0.0142629415343
0.102758726065
0.0142970332359
0.0978825430462
0.0143262593395
0.092998144819
0.0143510890515
0.0881068638236
0.0143719672348
0.0832098896895
0.0143893153014
0.0783082762635
0.0144035309499
0.0734029503586
0.0144149889131
0.0684947187387
0.0144240406709
0.0635842766142
0.0144310150439
0.0586722146141
0.0144362178619
0.0537590270279
0.014439932361
0.0488451186999
0.014442418735
0.0439308127829
0.014443914214
0.0390163569241
0.0144446323417
0.0341019289172
0.0144447626108
0.0291876382849
0.0144444697663
0.024273520886
0.014443894904
0.0193595179655
0.0144431620343
0.0144454325408
0.0144423822767
0.00953115027344
0.0144411333696
0.00462405149406
0.014416937421
0.0136069382902
0.0129136023133
-0.0502297996869
0.0265633980333
-0.0530769502995
0.0401323572277
-0.052772059001
0.0535354866659
-0.0521452567462
0.0667180586358
-0.0513107604509
0.0796295996588
-0.0502834665824
0.0922231160841
-0.0490760604676
0.104455488766
-0.0477028090686
0.116287841586
-0.0461793533348
0.127685797721
-0.0445223081772
0.138619621908
-0.0427488672568
0.14906425504
-0.0408764332662
0.15899925554
-0.0389222815723
0.168408658892
-0.0369032657146
0.177280772335
-0.0348355680116
0.185607916557
-0.0327344988223
0.193386130984
-0.0306143425189
0.200614852615
-0.0284882493697
0.207296582669
-0.0263681678208
0.213436547837
-0.0242648140087
0.219042367208
-0.022187671417
0.224123728287
-0.0201450169746
0.228692080095
-0.018143966472
0.232760343737
-0.0161905361498
0.236342645955
-0.0142897142296
0.239454073762
-0.0124455403207
0.242110453862
-0.0106611876364
0.244328153415
-0.0089390471461
0.246123904699
-0.0072808096831
0.247514649319
-0.00568754611898
0.248517404076
-0.00415978238458
0.24914914466
-0.00269757024763
0.249426709433
-0.0013005477776
0.249366761759
3.19636340004e-05
0.248985612709
0.00130104251774
0.248299202046
0.00250784459364
0.247323105703
0.00365379017714
0.246072479249
0.00474046789786
0.244562020879
0.00576958666699
0.24280594841
0.00674294757061
0.240817985856
0.00766241958429
0.238611354073
0.00852991715319
0.236198767482
0.00934738162618
0.233592433001
0.0101167646234
0.230804053642
0.0108400148161
0.227844833178
0.011519066157
0.224725484446
0.012155828979
0.221456237856
0.0127521820384
0.218046852711
0.013309966915
0.214506628104
0.0138309829263
0.210844416001
0.0143169839733
0.207068633455
0.0147696755452
0.203187276533
0.0151907133359
0.199207933083
0.0155817017331
0.195137796888
0.0159441936447
0.190983680462
0.0162796900264
0.186752028997
0.0165896405083
0.182448932867
0.0168754435939
0.178080141109
0.0171384477878
0.173651073425
0.017379952201
0.169166833058
0.0176012079551
0.164632218193
0.0178034190039
0.160051734162
0.0179877436531
0.15542960422
0.0181552954649
0.150769781062
0.0183071447808
0.146075957
0.0184443196195
0.141351574824
0.0185678071298
0.136599837413
0.0186785544235
0.131823718008
0.0187774699123
0.127025969316
0.0188654240435
0.122209133256
0.0189432504961
0.117375549635
0.0190117468027
0.112527365435
0.0190716753953
0.107666543129
0.01912376411
0.10279486958
0.0191687070823
0.0979139640741
0.0192071651399
0.0930252868923
0.0192397665532
0.0881301471174
0.0192671073257
0.0832297109472
0.0192897518096
0.0783250093269
0.0193082329037
0.0734169460479
0.0193230525433
0.0685063052514
0.0193346818138
0.0635937593375
0.0193435613181
0.05867987635
0.0193501012056
0.053765127662
0.0193546814179
0.0488498951334
0.0193576516326
0.0439344783258
0.0193593314055
0.0390191009069
0.019360010149
0.0341039163921
0.0193599475299
0.029189012097
0.019359374471
0.0242744111507
0.019358496238
0.0193600740037
0.0193574995631
0.0144459140813
0.0193565426283
0.00953209623026
0.0193549516406
0.00462666377023
0.0193223703222
0.018233602306
0.0131210175202
-0.06335081972
0.0269842991485
-0.0669402345359
0.0407626174921
-0.0665503799662
0.0543676482822
-0.0657502901016
0.067742036279
-0.06468515097
0.0808330684624
-0.0633745012388
0.0935919401249
-0.0618349345483
0.105974145891
-0.0600850172014
0.117939834319
-0.0581450440686
0.129454045973
-0.0560365220807
0.140486829613
-0.05378165308
0.151013243578
-0.0514028493557
0.161013256278
-0.0489222963289
0.17047156114
-0.0463615725726
0.179377323696
-0.0437413324944
0.187723876959
-0.0410810539518
0.195508381628
-0.038398848985
0.202731464636
-0.0357113341156
0.209396849132
-0.0330335539857
0.21551098539
-0.0303789518774
0.22108269169
-0.02775937926
0.226122810634
-0.0251851374066
0.230643886299
-0.0226650435566
0.234659864413
-0.0202065156317
0.238185818198
-0.0178156693173
0.241237699714
-0.0154974230887
0.243832117508
-0.0132556066187
0.245986138963
-0.0110930697414
0.247717117098
-0.00901178889741
0.249042539476
-0.00701296952967
0.249979898636
-0.00509714251929
0.250546581926
-0.0032642544677
0.25075977882
-0.00151374554058
0.250636408064
0.000155333568001
0.25019302672
0.00174442309796
0.249445802152
0.00325506843861
0.248410471926
0.00468911973328
0.247102314378
0.00604862481122
0.245536120875
0.00733577958465
0.243726177466
0.00855289042838
0.24168625414
0.00970234240476
0.239429599023
0.0107865717964
0.236968937307
0.0118080429124
0.23431647329
0.0127692282401
0.231483895702
0.013672592045
0.228482384959
0.0145205765684
0.225322622686
0.0153155909606
0.222014802307
0.0160600021504
0.218568641163
0.0167561278299
0.214993393062
0.0174062308218
0.211297861812
0.0180125150535
0.20749041474
0.0185771224691
0.203578996814
0.0191021311472
0.199571144454
0.0195895539993
0.195473999652
0.0200413383847
0.191294323615
0.0204593660193
0.187038510548
0.020845453562
0.182712600822
0.0212013533226
0.178322294197
0.0215287544442
0.173872962369
0.0218292840759
0.16936966151
0.0221045088864
0.164817144133
0.0223559364685
0.16021987091
0.0225850169875
0.155582021842
0.0227931446573
0.150907507381
0.02298165939
0.146199978926
0.0231518482329
0.141462839304
0.0233049469333
0.136699252652
0.0234421412672
0.13191215431
0.0235645684657
0.127104260178
0.0236733183974
0.122278076088
0.0237694348269
0.117435906708
0.0238539164337
0.112579864477
0.0239277178939
0.107711878133
0.0239917507318
0.102833701282
0.0240468842269
0.0979469206176
0.0240939461056
0.0930529642023
0.0241337232842
0.0881531094361
0.0241669624144
0.0832484911077
0.0241943704723
0.0783401091704
0.0242166151803
0.0734288366036
0.0242343254583
0.0685154270408
0.0242480917278
0.0636005224638
0.0242584662529
0.0586846606827
0.024265963347
0.0537682828433
0.0242710596244
0.0488517406866
0.0242741941616
0.043935303721
0.0242757687536
0.0390191660353
0.024276148228
0.0341034528532
0.0242756611126
0.0291882268138
0.0242746009124
0.0242734948666
0.0242732286021
0.0193592185784
0.0242717762386
0.0144453409805
0.0242704205841
0.00953206127223
0.02426823181
0.00462740567923
0.0242270264019
0.0228610081944
0.0133834914921
-0.0767343137352
0.0275208569639
-0.0810776027007
0.0415671418669
-0.0805966674865
0.0554298721573
-0.0796130229833
0.0690485449891
-0.0783038263332
0.0823677125786
-0.0766936713154
0.0953363122322
-0.0748035366315
0.107908099454
-0.0726568068011
0.120042010903
-0.070278957832
0.131702387628
-0.0676969010638
0.142859058551
-0.0649383261934
0.153487295659
-0.0620310885952
0.163567658402
-0.0590026611339
0.173085747034
-0.0558796632053
0.182031885887
-0.0526874732782
0.190400756409
-0.049449926343
0.198190998567
-0.0461890929426
0.205404796433
-0.0429251337211
0.212047461671
-0.0396762208936
0.218127025457
-0.0364585172752
0.223653847392
-0.0332862027384
0.228640247085
-0.0301715385865
0.233100162701
-0.0271249605936
0.237048838483
-0.0241551927808
0.240502542534
-0.0212693746711
0.24347831447
-0.0184731962746
0.245993742405
-0.0157710357416
0.248066767547
-0.0131660960206
0.249715514935
-0.0106605373639
0.250958148066
-0.00825560369102
0.25181274561
-0.00595174103721
0.252297197903
-0.00374870768675
0.2524291189
-0.00164566740438
0.252225758153
0.000358693500514
0.251703980129
0.00226620036241
0.250880202182
0.00407884567068
0.249770357778
0.00579896347218
0.248389874759
0.00742910720485
0.246753655997
0.00897199776537
0.244876067037
0.0104304788458
0.242770929852
0.0118074790893
0.240451521234
0.0131059799483
0.237930575181
0.0143289885396
0.235220288283
0.0154795147456
0.232332327751
0.0165605522221
0.229277841306
0.0175750626886
0.226067468745
0.0185259632332
0.22271135455
0.0194161160864
0.219219161486
0.0202483206675
0.215600084675
0.0210253074345
0.211862866156
0.0217497334051
0.208015809531
0.0224241789528
0.204066794764
0.0230511458016
0.20002329279
0.023633055886
0.195892380078
0.0241722510362
0.19168075282
0.0246709932392
0.187394740944
0.0251314654262
0.18304032167
0.0255557726049
0.178623132811
0.0259459433358
0.174148485577
0.0263039313615
0.169621377095
0.0266316174429
0.16504650243
0.0269308112256
0.16042826632
0.0272032532095
0.155770794439
0.0274506166676
0.151077944381
0.0276745095958
0.146353316218
0.0278764765594
0.141600262807
0.0280580005252
0.136821899711
0.0282205045589
0.132021114909
0.0283653534795
0.127200578167
0.0284938553652
0.122362750234
0.0286072630013
0.117509891745
0.0287067751766
0.112644071991
0.0287935379155
0.107767177439
0.0288686455648
0.102880920147
0.028933141812
0.0979868459763
0.0289880205802
0.0930863427295
0.0290342268468
0.0881806481169
0.0290726573518
0.0832708576729
0.0291041612505
0.0783579325381
0.0291295406564
0.0734427072011
0.0291495511434
0.0685258971274
0.0291649021545
0.0636081063588
0.0291762573794
0.0586898350057
0.0291842350619
0.0537714866992
0.029189408298
0.0488533759278
0.0291923053065
0.0439357353121
0.0291934097524
0.0390187227779
0.0291931611543
0.0341024287783
0.0291919555169
0.029186883815
0.0291901462894
0.0242720670468
0.029188045754
0.0193579178756
0.029185925793
0.0144443592168
0.0291839796837
0.00953154661736
0.0291810448249
0.00462739749256
0.0291311759618
0.0274884059361
0.0137055548946
-0.0904398711845
0.0281803482498
-0.095552398694
0.0425562968776
-0.0949726187777
0.0567355545205
-0.0937922832229
0.070653688469
-0.0922219628393
0.0842518892561
-0.0902918746025
0.0974763356242
-0.0880279854481
0.110278679006
-0.0854591525718
0.122616420716
-0.0826167018723
0.13445311683
-0.0795335994433
0.145758417569
-0.0762436291369
0.156507959601
-0.0727806327626
0.166683134912
-0.0691778385177
0.176270762163
-0.0654672924588
0.185262686475
-0.0616793995291
0.193655331912
-0.05784257365
0.201449228215
-0.0539829910519
0.208648529958
-0.0501244372013
0.215260542801
-0.0462882354119
0.221295268046
-0.042493244129
0.22676497361
-0.0387559098504
0.231683796739
-0.0350903631982
0.236067381619
-0.0315085468979
0.23993255312
-0.0280203656433
0.243297026588
-0.0246338494442
0.246179152528
-0.0213553234597
0.248597694352
-0.018189578755
0.250571636861
-0.0151400396619
0.252120022963
-0.0122089245453
0.253261815948
-0.00939739770027
0.254015784737
-0.0067057108009
0.254400409401
-0.00413333327009
0.254433801753
-0.00167906062045
0.254133592885
0.000658901562544
0.253517011492
0.00288278100049
0.252600754687
0.00499510177128
0.251400975493
0.00699874200602
0.249933269794
0.00889681228783
0.248212664221
0.0106926027633
0.246253610317
0.0123895322152
0.244069983837
0.0139911050738
0.241675088092
0.0155008752369
0.239081660623
0.0169224155871
0.236301882478
0.0182592925066
0.233347389546
0.0195150448036
0.230229285445
0.0206931664734
0.226958155583
0.0217970928102
0.223544082027
0.0228301893902
0.219996658931
0.0237957435424
0.216325008257
0.0246969579156
0.212537795655
0.0255369458444
0.20864324627
0.0263187282014
0.204649160451
0.0270452315127
0.200562929164
0.0277192870899
0.196391549138
0.028343631005
0.192141637595
0.0289209047495
0.187819446607
0.0294536564056
0.183430876988
0.0299443422366
0.178981491772
0.0303953285873
0.174476529202
0.030808893988
0.169920915304
0.0311872314168
0.165319275997
0.0315324506285
0.160675948793
0.0318465805279
0.155994994074
0.032131571519
0.151280205998
0.0323892978221
0.146535123016
0.0326215597077
0.141763038073
0.032830085651
0.136967008462
0.0330165343683
0.132149865407
0.0331824967472
0.12731422336
0.0333294976411
0.122462489055
0.0334589975478
0.117596870347
0.0335723941406
0.112719384835
0.0336710236974
0.10783186831
0.0337561623714
0.102935983051
0.0338290273661
0.0980332259606
0.0338907779758
0.0931249365973
0.0339425165267
0.0882123050735
0.0339852892017
0.0832963798798
0.0340200867793
0.078378075608
0.0340478452706
0.0734581806152
0.034069446485
0.0685373646106
0.0340857185129
0.0636161861951
0.0340974361533
0.0586951003371
0.0341053212823
0.0537744658096
0.0341100431932
0.0488545525758
0.0341122189144
0.043935549163
0.0341124135482
0.0390175700581
0.0341111406547
0.0341006632503
0.0341088627255
0.0291848181662
0.034105991775
0.024269974443
0.0341028898993
0.0193560322739
0.0340998683515
0.0144428711115
0.0340971411952
0.00953058589644
0.0340933305059
0.00462700203161
0.0340347603186
0.032115408173
0.0140919382859
-0.104531812041
0.0289718003728
-0.110432263531
0.0437432286817
-0.109744049749
0.0583016365359
-0.108350693714
0.072577727942
-0.106498056817
0.0865085959144
-0.1042227451
0.100037101654
-0.101556493652
0.113112411142
-0.0985344644679
0.125690383616
-0.0951946766887
0.137733747018
-0.0915769651273
0.149212075186
-0.0877219595179
0.160101594202
-0.0836701539279
0.170384850526
-0.0794610969185
0.180050274864
-0.0751327188107
0.189091674622
-0.0707208012278
0.197507684457
-0.0662585853619
0.205301200344
-0.0617765087446
0.212478817598
-0.0573020561983
0.219050288706
-0.0528597081934
0.225028012263
-0.0484709692978
0.230426560591
-0.0441544597227
0.235262250317
-0.0399260544102
0.239552757717
-0.0357990557175
0.243316778601
-0.0317843878905
0.246573731257
-0.0278908034007
0.249343499844
-0.024125093292
0.25164621522
-0.0204922953146
0.25350206973
-0.0169958953034
0.254931162572
-0.0136380184608
0.255953372283
-0.0104196084346
0.256588253328
-0.00734059281462
0.256854953576
-0.00440003443534
0.256772148979
-0.00159625687877
0.256357891807
0.00107315793387
0.255629822046
0.00361085001679
0.254604940605
0.00601998251459
0.253299637159
0.00830404480214
0.251729686998
0.0104667618392
0.249910246361
0.0125120428344
0.247855853713
0.0144439243357
0.245580435446
0.0162665228547
0.243097314901
0.0179839953313
0.24041922406
0.0196005060158
0.237558317223
0.021120198965
0.234526186202
0.0225471754817
0.231333876551
0.0238854758144
0.227991904517
0.0251390645669
0.224510274393
0.0263118192665
0.220898496065
0.0274075216554
0.217165602525
0.028429851269
0.21332016725
0.0293823809618
0.20937032128
0.03026857404
0.205323769946
0.0310917827436
0.201187809144
0.0318552478144
0.196969341136
0.0325620989606
0.192674889842
0.0332153560151
0.18831061559
0.0338179306523
0.183882329332
0.0343726285119
0.179395506325
0.0348821516332
0.174855299284
0.0353491010889
0.170266551026
0.0357759797547
0.165633806621
0.0361651951327
0.160961325077
0.0365190621894
0.156253090581
0.0368398061502
0.151512823327
0.0371295652287
0.146743989953
0.0373903932508
0.141949813625
0.0376242621646
0.137133283784
0.0378330644097
0.132297165599
0.0380186151474
0.127444009142
0.038182654328
0.12257615831
0.0383268486235
0.117695759529
0.0384527931801
0.11280477026
0.0385620132375
0.107904967324
0.0386559655901
0.102997955078
0.0387360399086
0.0980851734387
0.0388035599218
0.0931679058102
0.0388597844728
0.0882472868881
0.0389059084512
0.083324310388
0.0389430636154
0.0783998366921
0.0389723193099
0.0734746004352
0.0389946830916
0.0685492180325
0.0390111012704
0.0636241951649
0.03902245938
0.0586999342232
0.0390295825873
0.0537767417297
0.0390332360548
0.0488548357402
0.0390341252788
0.043934353267
0.0390328964055
0.0390153577584
0.0390301365561
0.0340978467334
0.0390263741567
0.0291817596925
0.0390220792319
0.0242669864617
0.0390176635102
0.0193533763562
0.0390134788401
0.0144407539479
0.0390097640547
0.0095291500841
0.0390049347807
0.00462631442613
0.0389375964058
0.0367417228519
0.0145482059759
-0.119080020632
0.0299063263476
-0.125790386592
0.0451442605811
-0.124981986706
0.0601491432314
-0.123355579012
0.0748457386113
-0.121194654805
0.0891661997629
-0.118543208796
0.103049451756
-0.115439748135
0.116441780698
-0.111926795836
0.12929722446
-0.108050122814
0.141577699597
-0.103857442558
0.153252889325
-0.0993971514761
0.164299932285
-0.0947171990445
0.174702956668
-0.0898641233923
0.184452504499
-0.0848822686576
0.193544887499
-0.0798131861797
0.201981510694
-0.0746952104338
0.209768193289
-0.0695631931533
0.216914509808
-0.0644483744581
0.223433167972
-0.0593783680348
0.229339434387
-0.0543772373209
0.234650614302
-0.0494656411858
0.239385588126
-0.0446610297143
0.243564404485
-0.0399778734976
0.247207927736
-0.0354279124995
0.250337536414
-0.0310204133794
0.252974868387
-0.0267624265036
0.255141608051
-0.0226590361619
0.256859310875
-0.0187135992519
0.258149260702
-0.0149279693602
0.259032355608
-0.0113027043574
0.25952901884
-0.00783725701257
0.259659131194
-0.00453014769743
0.259441992042
-0.00137911857747
0.258896109372
0.00161903981547
0.258039563786
0.00446739486613
0.256889673935
0.0071698716787
0.255463075949
0.00973064214496
0.253775728519
0.0121541086715
0.25184291629
0.0144448545051
0.249679259231
0.0166075808771
0.247298725541
0.0186470560651
0.2447146471
0.0205680733312
0.241939736792
0.022375415919
0.238986107126
0.0240738282612
0.235865289708
0.0256679925632
0.232588255182
0.027162510038
0.229165433358
0.0285618861205
0.225606733288
0.0298705190966
0.221921563117
0.0310926916166
0.21811884955
0.0322325646564
0.214207056845
0.0332941735149
0.210194205248
0.0342814255125
0.206087888815
0.035198099078
0.201895292587
0.0360478439706
0.197623209098
0.0368341824017
0.193278054218
0.0375605108712
0.188865882327
0.0382301025431
0.184392400834
0.0388461100264
0.179862984074
0.039411568436
0.175282686589
0.039929398638
0.170656255836
0.0404024105913
0.165988144349
0.0408333067218
0.161282521391
0.0412246852681
0.156543284123
0.0415790435576
0.151774068332
0.0418987811753
0.146978258756
0.0421862029988
0.142158999028
0.0424435220795
0.137319201286
0.0426728623551
0.132461555467
0.0428762611845
0.127588538327
0.0430556717008
0.122702422217
0.0432129649795
0.117805283632
0.0433499320247
0.112899011565
0.043468285577
0.107985315693
0.0435696617482
0.103065734407
0.0436556214912
0.0981416427253
0.0437276519124
0.0932142600802
0.043787167437
0.0882846580234
0.0438355108365
0.0833537678463
0.0438739541297
0.0784223881343
0.0439036993663
0.0734911922698
0.0439258793067
0.0685607358885
0.0439415580074
0.0636314643041
0.0439517313243
0.0587037199092
0.0439573273461
0.0537777495622
0.0439592067708
0.0488537119819
0.0439581632345
0.0439316851652
0.0439549236062
0.0390116738685
0.0439501482496
0.0340936171887
0.0439444312377
0.0291773963201
0.043938300501
0.0242628425149
0.0439322177425
0.0193497452668
0.0439265764792
0.014437866783
0.0439216428785
0.00952717170174
0.0439156303324
0.0046253389916
0.0438394296129
0.0413670620449
0.0150810789094
-0.134161102179
0.0309975139828
-0.141706824494
0.0467794049169
-0.140763880366
0.0623038268169
-0.138880003613
0.0774883560617
-0.136379186679
0.0922592435149
-0.133314098828
0.106550797765
-0.129731304897
0.120306026032
-0.125682026555
0.133477011423
-0.121221110585
0.146024961804
-0.116405395253
0.157919969788
-0.1112921617
0.169140540484
-0.105937771913
0.179672947984
-0.100396532988
0.189510479244
-0.0947198019469
0.1986526178
-0.0889553266887
0.207104210925
-0.0831468054441
0.214874654497
-0.0773336385373
0.221977120472
-0.0715508421795
0.228427843681
-0.0658290929182
0.234245477637
-0.0601948728878
0.239450523599
-0.0546706886904
0.24406483291
-0.0492753405074
0.248111179775
-0.0440242217779
0.251612899645
-0.0389296337266
0.25459358735
-0.0340011023784
0.257076848514
-0.0292456889051
0.2590860978
-0.0246682866242
0.260644397667
-0.0202719002405
0.261774331793
-0.0160579045505
0.262497907737
-0.0120262813151
0.2628364848
-0.00817583503268
0.262810719833
-0.00450438363413
0.262440590684
-0.00100899026739
0.261745111092
0.00231451862762
0.260742786194
0.00546971904022
0.259451256688
0.00846140050706
0.257887409028
0.0112944891743
0.256067381416
0.0139741356929
0.254006577949
0.0165056574257
0.251719687518
0.0188944707989
0.249220704905
0.0211460382098
0.246522953377
0.0232658244258
0.24363910825
0.0252592606506
0.240581220896
0.0271317152526
0.237360742879
0.0288884702537
0.233988549887
0.0305347027347
0.230474965289
0.0320754704564
0.226829783109
0.033515701044
0.223062290329
0.0348601841945
0.21918128841
0.0361135664012
0.215195113993
0.037280347787
0.211111658729
0.0383648806575
0.206938388247
0.0393713694686
0.202682360234
0.0403038719171
0.198350241665
0.041166300928
0.193948325195
0.0419624273233
0.189482544733
0.0426958830094
0.18495849026
0.0433701645258
0.180381421902
0.043988636842
0.175756283317
0.0445545372901