/*--------------------------------*- C++ -*----------------------------------*\
| =========                 |                                                 |
| \\      /  F ield         | OpenFOAM: The Open Source CFD Toolbox           |
|  \\    /   O peration     | Version:  v1906                                 |
|   \\  /    A nd           | Web:      www.OpenFOAM.com                      |
|    \\/     M anipulation  |                                                 |
\*---------------------------------------------------------------------------*/
FoamFile
{
    version     2.0;
    format      ascii;
    class       volVectorField;
    location    "300";
    object      Ua;
}
// * * * * * * * * * * * * * * * * * * * * * * * * * * * * * * * * * * * * * //

dimensions      [0 1 -1 0 0 0 0];


internalField   nonuniform List<vector> 
9216
(
(-0.00702542467327 0.00703821723642 0)
(-0.00691865792883 0.0211748047815 2.427060786e-27)
(-0.00694033260258 0.0357276084835 -4.74547524805e-31)
(-0.00690589685503 0.0501724956591 0)
(-0.00684444078132 0.0644974296124 0)
(-0.00676192791899 0.0786486526672 0)
(-0.00666337462863 0.0925836494714 0)
(-0.00654793925042 0.106265707906 0)
(-0.00641934927349 0.119659155185 0)
(-0.00627561106088 0.132732645548 0)
(-0.00612087229539 0.145455362412 0)
(-0.00595251441748 0.157800764106 0)
(-0.0057752620558 0.169742807342 0)
(-0.00558587557714 0.181259683239 0)
(-0.00538960667876 0.192329960278 0)
(-0.00518252325535 0.202936244963 0)
(-0.00497033696092 0.21306125324 0)
(-0.00474837023215 0.222691339518 0)
(-0.0045227215438 0.231812584586 0)
(-0.00428793171869 0.240414188455 0)
(-0.00405044291311 0.248484641496 0)
(-0.00380403163023 0.256014932731 0)
(-0.00355545151102 0.26299493189 0)
(-0.00329776376884 0.269416407301 0)
(-0.00303803706209 0.275269699367 0)
(-0.00276872265857 0.28054648229 0)
(-0.00249721024826 0.285236862397 0)
(-0.00221546975998 0.289331858354 0)
(-0.00193124303233 0.292820995579 0)
(-0.00163619686199 0.295694405847 0)
(-0.00133844262753 0.29794111234 0)
(-0.00102950601447 0.299550593778 0)
(-0.000717912099062 0.30051178321 0)
(-0.000395311203861 0.300814270597 0)
(-7.06563984929e-05 0.300447967497 0)
(0.000264076381918 0.299403809593 0)
(0.000599484251171 0.297674220448 0)
(0.000943033385542 0.295253202674 0)
(0.00128489208593 0.292137645973 0)
(0.00163177621151 0.288326772876 0)
(0.00197347326886 0.283824234626 0)
(0.00231578689651 0.278636851173 0)
(0.00264822342794 0.272777459969 0)
(0.00297557230154 0.266262971174 0)
(0.003287184151 0.259117831934 0)
(0.00358679179728 0.251371421753 0)
(0.00386377802211 0.243061964005 0)
(0.00412091441331 0.234233334622 0)
(0.00434791984319 0.224939060075 0)
(0.00454694217831 0.21523851649 0)
(0.00470859118516 0.205200503692 0)
(0.00483509921773 0.194898758853 0)
(0.00491879637987 0.184414479373 0)
(0.00496298780402 0.173831136786 0)
(0.0049625859517 0.16323563786 0)
(0.00492279673796 0.152712853726 0)
(0.00484143690872 0.142345802254 0)
(0.00472565949423 0.13221076555 0)
(0.00457560549596 0.122377520584 0)
(0.00439957430244 0.1129058394 0)
(0.0041989419954 0.10384647381 0)
(0.0039822067536 0.095238959049 0)
(0.00375111045388 0.0871132407606 0)
(0.00351367881939 0.0794883456939 0)
(0.00327136475592 0.0723744688933 0)
(0.00303117700463 0.0657723303878 0)
(0.00279379394867 0.0596756447631 0)
(0.00256487796978 0.054070891891 0)
(0.00234413473907 0.0489399432916 0)
(0.00213582005779 0.0442598916258 0)
(0.00193872722027 0.0400056294124 0)
(0.00175585400126 0.0361495081764 0)
(0.00158530743627 0.0326636820758 0)
(0.00142910600794 0.029519476789 0)
(0.00128497039994 0.0266893922992 0)
(0.00115424211364 0.0241462085248 0)
(0.00103450910388 0.0218646498174 0)
(0.000926657301307 0.0198203411056 0)
(0.000828251106292 0.0179912360219 0)
(0.000739680887343 0.0163566882228 0)
(0.000657952823281 0.0148991857011 0)
(0.000581315822827 0.013604342332 0)
(0.000498374567769 0.0124820425581 0)
(0.000386112318381 0.0113470466535 0)
(0.000372596400991 0.0107568405962 0)
(0.000397517871528 0.00993987672998 0)
(0.000359207371733 0.00910580717424 0)
(0.000312086604692 0.00844033269712 0)
(0.000333089482396 0.00787379923604 0)
(0.000386826803019 0.0071471257266 0)
(0.000402521217134 0.00638605833845 0)
(0.000423638778012 0.00553424290282 0)
(0.000499807300954 0.0045707726374 0)
(0.000577723145421 0.00348539292914 0)
(0.000652279032014 0.00214661085119 0)
(0.000696814741479 0.000680951951565 0)
(-0.0211751753626 0.00696868292551 0)
(-0.0223071946968 0.0224386835172 0)
(-0.0222828240977 0.0379050449211 -2.49476958337e-27)
(-0.0221136381501 0.0533209807196 0)
(-0.0218712101315 0.0685659273506 0)
(-0.0215623178702 0.0836150774996 0)
(-0.0211953706403 0.0984298876279 0)
(-0.0207709985756 0.112972850955 0)
(-0.0202967841248 0.127207325959 0)
(-0.019772154844 0.141099624376 0)
(-0.0192055411402 0.154617709563 0)
(-0.018595596262 0.167732843106 0)
(-0.0179516130491 0.180418068025 0)
(-0.0172712828058 0.192649737108 0)
(-0.0165645078886 0.204405875493 0)
(-0.0158277406833 0.215667602798 0)
(-0.0150712270664 0.226417408237 0)
(-0.0142899542617 0.236640468982 0)
(-0.013494290459 0.246322883673 0)
(-0.0126776202965 0.255452893776 0)
(-0.0118503097528 0.264019134313 0)
(-0.0110041388101 0.272011774167 0)
(-0.0101494418989 0.279420855334 0)
(-0.00927651643521 0.286237364628 0)
(-0.00839574136856 0.292451728086 0)
(-0.00749618232724 0.298054819969 0)
(-0.00658840240184 0.303036678115 0)
(-0.00566057141979 0.307387444337 0)
(-0.00472363578634 0.311096350216 0)
(-0.00376529345159 0.314152576529 0)
(-0.00279710485869 0.316544534996 0)
(-0.00180674678255 0.3182607405 0)
(-0.000806632724752 0.319289383647 0)
(0.000215004466358 0.319619007199 0)
(0.00124463876415 0.319238597788 0)
(0.00229296432455 0.318138101431 0)
(0.00334511533327 0.316308930273 0)
(0.00441019694449 0.313744306322 0)
(0.0054718678692 0.310440180868 0)
(0.00653723138311 0.306395363577 0)
(0.00758844629804 0.301612810108 0)
(0.00863031945189 0.29609948937 0)
(0.00964361928394 0.289867990992 0)
(0.0106307068736 0.282936109986 0)
(0.0115711763263 0.275328697701 0)
(0.0124649544579 0.26707695777 0)
(0.0132908566044 0.258220439399 0)
(0.0140467318085 0.248806023177 0)
(0.0147114261249 0.238889826328 0)
(0.0152817829231 0.228535732257 0)
(0.0157383376204 0.217816781575 0)
(0.0160791361399 0.206812941534 0)
(0.0162890899073 0.195611419213 0)
(0.0163705735987 0.184303392751 0)
(0.0163158130301 0.172982971787 0)
(0.0161340860867 0.161743139357 0)
(0.0158261797971 0.150673908892 0)
(0.0154082419751 0.139858532244 0)
(0.0148877882712 0.129372129474 0)
(0.01428498528 0.119279301419 0)
(0.0136105175048 0.109634007083 0)
(0.0128854559202 0.100478493916 0)
(0.0121210043538 0.091843977825 0)
(0.0113370616956 0.0837502991313 0)
(0.0105434218497 0.0762071835779 0)
(0.00975706105999 0.0692145694497 0)
(0.00898487323705 0.0627643759979 0)
(0.00823986232788 0.0568412434101 0)
(0.00752542746786 0.0514244771177 0)
(0.00685046057963 0.046488831022 0)
(0.00621506701247 0.0420063705943 0)
(0.00562453317339 0.0379470631078 0)
(0.0050764116392 0.0342803666505 0)
(0.00457329765379 0.0309754780107 0)
(0.00411117918093 0.0280025412342 0)
(0.00369092523052 0.0253325622513 0)
(0.00330780657287 0.0229382755805 0)
(0.00296169527304 0.0207938155619 0)
(0.00264764171536 0.0188752892465 0)
(0.00236475309512 0.0171602024223 0)
(0.00210739397456 0.0156275430816 0)
(0.00187196339267 0.0142557035319 0)
(0.00164649652547 0.013024585449 0)
(0.00140118455045 0.011837927305 0)
(0.00126325508744 0.0106115915702 0)
(0.0012436934308 0.00983944051797 0)
(0.00107503659825 0.00891101333735 0)
(0.000938202789503 0.00829997570705 0)
(0.000974451433424 0.00760028907736 0)
(0.00111272789062 0.00704090297096 0)
(0.00120202595048 0.00641115471083 0)
(0.0013181266047 0.00550825932544 0)
(0.0014984562386 0.00451779488152 0)
(0.00189225007591 0.00361254652007 0)
(0.0023296838574 0.00231391656531 0)
(0.00208544493313 0.000625740621151 0)
(-0.0358655796128 0.0070581427566 0)
(-0.0378322865572 0.0226660518315 0)
(-0.0376845292389 0.0381759146997 -2.49819916887e-27)
(-0.037371391532 0.0536988985251 0)
(-0.0369536997387 0.0690517060337 0)
(-0.0364340329323 0.0842057815704 0)
(-0.0358180203104 0.0991211675267 0)
(-0.0351093574082 0.113759687259 0)
(-0.0343152334406 0.128084685741 0)
(-0.0334398027873 0.142062010799 0)
(-0.0324911450131 0.155659727531 0)
(-0.0314733982025 0.168848767325 0)
(-0.0303950852766 0.18160245125 0)
(-0.0292598451841 0.193896989819 0)
(-0.0280761493035 0.205710879316 0)
(-0.0268466472604 0.217025286073 0)
(-0.0255792949865 0.227823337546 0)
(-0.0242753427936 0.238090402769 0)
(-0.02294187554 0.247813320165 0)
(-0.0215784861366 0.256980606273 0)
(-0.0201912037934 0.265581659676 0)
(-0.0187779069423 0.273606927256 0)
(-0.0173435813825 0.281047148866 0)
(-0.0158845431427 0.28789352359 0)
(-0.0144049350667 0.294137037742 0)
(-0.0128998455556 0.299768651654 0)
(-0.0113729182259 0.304778763933 0)
(-0.00981848392863 0.30915744014 0)
(-0.00824013527609 0.312894034158 0)
(-0.00663201689035 0.315977449192 0)
(-0.00499821630795 0.318395985661 0)
(-0.00333335346381 0.320137631257 0)
(-0.00164256480624 0.321190100623 0)
(7.83158538861e-05 0.3215412193 0)
(0.00182245170272 0.321179193265 0)
(0.00359205679604 0.320093048129 0)
(0.00537800434934 0.318273136587 0)
(0.00717988597821 0.315711608328 0)
(0.00898582580574 0.312403142189 0)
(0.0107922935628 0.308345410345 0)
(0.0125844088404 0.303539974603 0)
(0.0143552414058 0.297992689594 0)
(0.0160868752942 0.291714721768 0)
(0.0177689201561 0.284722862588 0)
(0.019380585346 0.277040619161 0)
(0.0209081827617 0.26869842693 0)
(0.0223284861491 0.259734782227 0)
(0.0236251422741 0.250196332542 0)
(0.0247736428308 0.240138904625 0)
(0.0257567486063 0.229627276177 0)
(0.0265513804236 0.218735714544 0)
(0.0271431917953 0.207546948591 0)
(0.0275153434952 0.196151553773 0)
(0.027661993808 0.184645546892 0)
(0.0275781691684 0.173128153078 0)
(0.0272713209506 0.161698123489 0)
(0.0267509997299 0.150450517997 0)
(0.0260378168155 0.139473119404 0)
(0.0251525249913 0.128844058545 0)
(0.0241231996454 0.118630003072 0)
(0.0229751641112 0.108885747773 0)
(0.0217382399382 0.0996538045268 0)
(0.0204379987295 0.0909647873808 0)
(0.0191026663699 0.0828374917612 0)
(0.017754885525 0.0752798020237 0)
(0.0164181882701 0.0682895767661 0)
(0.015109641552 0.0618561453035 0)
(0.0138462337444 0.0559616448525 0)
(0.0126385040657 0.0505826861288 0)
(0.0114967272739 0.0456916374121 0)
(0.0104253292909 0.0412582057639 0)
(0.0094287852343 0.0372504679563 0)
(0.00850673788322 0.0336361416785 0)
(0.00765950843308 0.0303832068692 0)
(0.00688372922255 0.0274607186193 0)
(0.00617726823976 0.0248390525268 0)
(0.00553525284425 0.0224903590743 0)
(0.00495439045447 0.0203885333864 0)
(0.00442936644409 0.0185093868269 0)
(0.00395663259944 0.0168302995301 0)
(0.00353119580386 0.0153299229589 0)
(0.00315012984502 0.0139865660111 0)
(0.00281067665185 0.0127825161425 0)
(0.00252247136731 0.0116252208662 0)
(0.00228013406383 0.0104884057353 0)
(0.00210417700287 0.00967767369615 0)
(0.00190418631674 0.00898186888446 0)
(0.00167552357738 0.00799926855502 0)
(0.0015687046529 0.00713247799307 0)
(0.00170326339768 0.00664579350322 0)
(0.00206880326268 0.00627300177193 0)
(0.00219971349789 0.00503767190592 0)
(0.00258212684029 0.00420468639447 0)
(0.00308476561519 0.00309598212302 0)
(0.00351154601665 0.00187406041989 0)
(0.00340352788233 0.000574201799113 0)
(-0.0506507022402 0.00712747519675 0)
(-0.0535191880067 0.0228806519151 0)
(-0.0533068106931 0.0384996016507 2.49786880899e-27)
(-0.0528570355092 0.0541472386244 0)
(-0.0522587796617 0.0696234212343 0)
(-0.0515178425272 0.0848972006495 0)
(-0.0506404185478 0.0999269843549 0)
(-0.0496329397205 0.114673580458 0)
(-0.0485037402641 0.12909982182 0)
(-0.0472605982917 0.143171069004 0)
(-0.0459129554941 0.156855244316 0)
(-0.0444690559875 0.170123113161 0)
(-0.0429386519743 0.182948168748 0)
(-0.0413296753205 0.195306771168 0)
(-0.0396514254256 0.207177894602 0)
(-0.0379107867817 0.21854313837 0)
(-0.0361159217034 0.22938635881 0)
(-0.0342720583477 0.23969357591 0)
(-0.0323857048017 0.24945252019 0)
(-0.0304600422629 0.258652466357 0)
(-0.0284996673383 0.267283743151 0)
(-0.0265056153374 0.275337544249 0)
(-0.0244806109264 0.282805455972 0)
(-0.022423745171 0.289679291279 0)
(-0.0203361942666 0.295950686576 0)
(-0.0182155632934 0.301610998677 0)
(-0.0160620122901 0.306651005118 0)
(-0.0138722976807 0.31106088111 0)
(-0.0116462461951 0.314830025576 0)
(-0.00938053549384 0.317947114705 0)
(-0.00707547527658 0.320400121933 0)
(-0.00472854170521 0.322176427894 0)
(-0.00234139121032 0.32326298512 0)
(8.66927296388e-05 0.323646618338 0)
(0.00255171155038 0.323314341825 0)
(0.00505157317834 0.322253795174 0)
(0.00757900103732 0.320453752084 0)
(0.0101281871802 0.317904675035 0)
(0.0126878303631 0.314599385369 0)
(0.0152477572929 0.310533687805 0)
(0.0177922015186 0.305707142262 0)
(0.0203063088948 0.300123696171 0)
(0.022769739154 0.293792500224 0)
(0.0251629372923 0.286728508001 0)
(0.0274611202124 0.278953315914 0)
(0.0296402382495 0.270495748839 0)
(0.0316714822013 0.26139275945 0)
(0.0335270149481 0.251690030404 0)
(0.0351753116431 0.241442890222 0)
(0.0365869937445 0.230716764602 0)
(0.0377314557393 0.219587712993 0)
(0.0385831621776 0.208142082925 0)
(0.039119663684 0.1964757365 0)
(0.039328070283 0.184691877087 0)
(0.0392033414614 0.172898070113 0)
(0.0387533145799 0.161201986335 0)
(0.0379951826296 0.149706956046 0)
(0.0369574629385 0.138507581167 0)
(0.035674079744 0.127686577769 0)
(0.0341842686541 0.117313232561 0)
(0.0325274142094 0.107443345151 0)
(0.0307445994912 0.0981194865321 0)
(0.0288750677742 0.089371331244 0)
(0.0269577275151 0.0812158267206 0)
(0.0250273485619 0.0736580222074 0)
(0.0231158980718 0.0666922819011 0)
(0.0212495480369 0.0603039679885 0)
(0.0194505917049 0.0544711677294 0)
(0.017735386228 0.0491664374816 0)
(0.0161165300933 0.0443583748788 0)
(0.014601317414 0.0400131972889 0)
(0.0131940598601 0.0360960368982 0)
(0.0118950161016 0.0325721445052 0)
(0.0107027601311 0.0294076527472 0)
(0.00961325725622 0.0265702001409 0)
(0.0086219004404 0.0240292368744 0)
(0.00772256243265 0.0217562890535 0)
(0.00690931164219 0.0197250036789 0)
(0.00617551483306 0.0179111904577 0)
(0.00551539467223 0.0162926379874 0)
(0.00492341258257 0.0148489207482 0)
(0.00439609636854 0.0135605919609 0)
(0.00393380069874 0.0124186529197 0)
(0.00354862601365 0.01127871811 0)
(0.00324122183182 0.0103274771098 0)
(0.00296796617062 0.00951545130795 0)
(0.00272004275573 0.00865785007513 0)
(0.00246814451401 0.0076543060461 0)
(0.00240580350748 0.00700414700048 0)
(0.00238829710849 0.0060558985277 0)
(0.00267632717461 0.00526596743877 0)
(0.00330062637232 0.00475063378149 0)
(0.00354186696116 0.00347479145351 0)
(0.00408801699561 0.00245433435375 0)
(0.00463770485063 0.00150914464353 0)
(0.00462030033009 0.000493295174667 0)
(-0.0656041139824 0.00720414037967 0)
(-0.0693403299704 0.0231512974664 0)
(-0.069064788556 0.0389347444704 0)
(-0.0684773449483 0.0547521513049 0)
(-0.0676953267025 0.0703940062621 0)
(-0.066727818788 0.0858278574063 0)
(-0.0655827461614 0.101010484124 0)
(-0.0642690773571 0.115901487947 0)
(-0.0627972279631 0.130462863021 0)
(-0.0611780658467 0.144659346109 0)
(-0.0594234059823 0.158458532732 0)
(-0.0575448952188 0.171831039364 0)
(-0.0555546646789 0.184750495384 0)
(-0.0534640760675 0.19719355976 0)
(-0.0512845372141 0.209139772632 0)
(-0.0490261268294 0.220571433766 0)
(-0.0466985982908 0.231473324269 0)
(-0.0443099154842 0.241832464684 0)
(-0.0418674767269 0.25163773858 0)
(-0.0393765961893 0.260879572107 0)
(-0.0368419687008 0.269549508603 0)
(-0.0342661188683 0.277639865635 0)
(-0.0316511053334 0.285143326584 0)
(-0.028996937264 0.292052638131 0)
(-0.0263034875189 0.298360272058 0)
(-0.0235688596344 0.304058204194 0)
(-0.0207914682113 0.309137681348 0)
(-0.0179683447041 0.313589101878 0)
(-0.0150973508526 0.317401898274 0)
(-0.012175431848 0.320564500419 0)
(-0.00920096890135 0.323064416736 0)
(-0.0061719454252 0.324888257138 0)
(-0.00308841961635 0.326021940405 0)
(4.92736955121e-05 0.326450951741 0)
(0.00323805507714 0.326160688128 0)
(0.00647391009839 0.325136897321 0)
(0.00974944875185 0.323366215826 0)
(0.0130557684191 0.320836769112 0)
(0.0163801287739 0.31753887056 0)
(0.0197078889837 0.313465727952 0)
(0.0230203596604 0.30861422244 0)
(0.0262967918781 0.302985636108 0)
(0.029512408881 0.296586435183 0)
(0.0326403638978 0.289428970131 0)
(0.0356499137792 0.281532254575 0)
(0.0385082785045 0.272922700257 0)
(0.0411790122986 0.26363501772 0)
(0.043623908121 0.25371314156 0)
(0.0458019416448 0.243211358967 0)
(0.0476717771338 0.232195369727 0)
(0.0491920207411 0.220743286134 0)
(0.0503251155761 0.20894599603 0)
(0.0510393653487 0.196906722767 0)
(0.0513139921029 0.184738895976 0)
(0.0511415088198 0.172562472399 0)
(0.0505312260507 0.160498442775 0)
(0.0495082936814 0.148662553201 0)
(0.0481127039056 0.137159324924 0)
(0.0463934589599 0.126077613158 0)
(0.0444040872526 0.115489551049 0)
(0.0421984391303 0.105451783717 0)
(0.0398306838281 0.0960066835156 0)
(0.0373540450776 0.0871826902758 0)
(0.034820154642 0.0789941263267 0)
(0.0322761932713 0.0714419345091 0)
(0.029763989458 0.0645153754256 0)
(0.0273183631449 0.0581941038491 0)
(0.0249675958983 0.052450441484 0)
(0.0227329740823 0.047251303168 0)
(0.0206297185884 0.0425599929062 0)
(0.0186668708027 0.0383379293062 0)
(0.0168485302454 0.0345461519643 0)
(0.0151743296237 0.0311466389964 0)
(0.0136409879278 0.0281030752265 0)
(0.0122427545292 0.0253813330432 0)
(0.0109725608177 0.022949694009 0)
(0.00982217836002 0.0207789826615 0)
(0.00878309152374 0.0188425868882 0)
(0.0078465537798 0.0171164711267 0)
(0.00700438983698 0.015579108972 0)
(0.00624925182105 0.0142114519107 0)
(0.00557556646121 0.0129975727731 0)
(0.00498510043961 0.0119313170407 0)
(0.00445167229838 0.0107960340134 0)
(0.0041610329509 0.0101252129605 0)
(0.003894644245 0.00932315893194 0)
(0.00371380948961 0.00849558784049 0)
(0.00345920493832 0.00748630773507 0)
(0.00317611854791 0.00627029610906 0)
(0.00324569377185 0.00552233419583 0)
(0.00339220698251 0.00451366865496 0)
(0.00406587910091 0.0039366106144 0)
(0.00481725894867 0.00315018964151 0)
(0.00504569456677 0.00201555333712 0)
(0.00539027990388 0.00118220012043 0)
(0.00537955119523 0.000391622793416 0)
(-0.0807548085776 0.00729590125457 0)
(-0.0853590007103 0.0234875550154 0)
(-0.0850177917347 0.0394852678533 0)
(-0.0842886053755 0.0555198733868 0)
(-0.0833170284893 0.071372356104 0)
(-0.0821152838463 0.0870089663843 0)
(-0.0806935493245 0.102384822757 0)
(-0.0790634310954 0.117458139168 0)
(-0.0772379769182 0.132189845094 0)
(-0.075231145967 0.146543899346 0)
(-0.07305770281 0.160487442235 0)
(-0.0707326294295 0.173990919264 0)
(-0.0682710581338 0.187028104976 0)
(-0.0656876423207 0.199576078821 0)
(-0.0629965485553 0.211615094471 0)
(-0.0602108133313 0.223128402449 0)
(-0.057342430326 0.234101971315 0)
(-0.0544017344685 0.24452417387 0)
(-0.0513976285868 0.254385388731 0)
(-0.0483370409527 0.263677592764 0)
(-0.0452253280631 0.272393903425 0)
(-0.0420658310373 0.280528149895 0)
(-0.038860458224 0.288074433566 0)
(-0.035609330798 0.295026752883 0)
(-0.0323115115545 0.301378649769 0)
(-0.0289646987868 0.307122939216 0)
(-0.0255660502516 0.312251470865 0)
(-0.022111891945 0.316754972866 0)
(-0.0185986087384 0.320622930854 0)
(-0.0150223650989 0.323843512968 0)
(-0.0113800901472 0.326403656214 0)
(-0.00766916511685 0.328289034097 0)
(-0.00388851570087 0.329484264305 0)
(-3.83902901202e-05 0.329973152374 0)
(0.00387856975231 0.329739033447 0)
(0.00785753769636 0.328765237228 0)
(0.011890464999 0.327035649738 0)
(0.0159663678822 0.324535383927 0)
(0.020070421558 0.321251523465 0)
(0.0241843946167 0.317173924839 0)
(0.0282859329879 0.312296040405 0)
(0.0323491464633 0.306615731054 0)
(0.036344046403 0.300136050136 0)
(0.0402371740482 0.292865985653 0)
(0.0439910596215 0.284821201213 0)
(0.0475647488369 0.276024819735 0)
(0.0509132387597 0.266508367005 0)
(0.0539880251013 0.25631294719 0)
(0.056736948263 0.245490759299 0)
(0.0591055626507 0.234106858262 0)
(0.0610386606615 0.222241080086 0)
(0.0624838815993 0.209989467305 0)
(0.0633961535097 0.19746465812 0)
(0.063743880713 0.184794063279 0)
(0.0635145113883 0.172115336026 0)
(0.0627191010876 0.159568785348 0)
(0.0613924884002 0.14728842594 0)
(0.0595909623976 0.135392716306 0)
(0.057383184745 0.123977912786 0)
(0.0548405283788 0.11311815276 0)
(0.0520320705588 0.10286987668 0)
(0.0490261066775 0.0932750273659 0)
(0.0458910738307 0.0843607398418 0)
(0.0426935416642 0.0761379170508 0)
(0.0394944497293 0.0686018040518 0)
(0.0363466630048 0.0617344038833 0)
(0.0332936188821 0.0555075316812 0)
(0.0303696687537 0.0498857412264 0)
(0.0276004309725 0.0448285283489 0)
(0.0250035138099 0.0402922458265 0)
(0.0225887958519 0.0362319895462 0)
(0.0203594483965 0.0326034826769 0)
(0.018313250276 0.0293645950407 0)
(0.0164443710633 0.0264760756187 0)
(0.0147444315272 0.0239017751965 0)
(0.0132034964053 0.0216086661896 0)
(0.0118105735873 0.0195668277802 0)
(0.0105542711909 0.0177493889973 0)
(0.00942311165858 0.0161324999874 0)
(0.00840607378536 0.0146953475866 0)
(0.00749306729476 0.0134200930566 0)
(0.0066756269745 0.0122959582797 0)
(0.00595936893426 0.0112805736514 0)
(0.00531491520975 0.0102365315009 0)
(0.00496484432427 0.00950460349671 0)
(0.00473416964724 0.0087164978182 0)
(0.00445005674196 0.00769260863271 0)
(0.00436658038993 0.00693940075031 0)
(0.00431981243445 0.00609474043491 0)
(0.00440908862359 0.00524561329529 0)
(0.0042423480171 0.00395506927559 0)
(0.00463629759173 0.00309999577936 0)
(0.00558842041515 0.00259134351061 0)
(0.0059835715442 0.00177544508713 0)
(0.00611847698731 0.00100030489278 0)
(0.0061235969757 0.000331402350971 0)
(-0.0961451887114 0.00740585665927 0)
(-0.101625856137 0.0238952520255 0)
(-0.101214572457 0.0401560685315 2.51611283671e-27)
(-0.100337340315 0.056456679128 0)
(-0.0991681133298 0.0725664196388 0)
(-0.0977221673718 0.0884501182084 0)
(-0.0960122112537 0.104060977772 0)
(-0.0940527019084 0.119355602476 0)
(-0.091859728234 0.134293628173 0)
(-0.0894505761132 0.148838071643 0)
(-0.0868434028484 0.162955501418 0)
(-0.0840567491198 0.176616161312 0)
(-0.081109205579 0.18979400416 0)
(-0.0780189072799 0.202466649631 0)
(-0.0748032237974 0.214615250173 0)
(-0.0714782720057 0.226224274393 0)
(-0.0680586746989 0.237281201634 0)
(-0.0645571473988 0.247776140609 0)
(-0.0609843880142 0.257701379541 0)
(-0.0573488007318 0.267050889426 0)
(-0.0536565707953 0.275819799755 0)
(-0.049911563067 0.284003875563 0)
(-0.046115592345 0.291599019774 0)
(-0.0422684771597 0.298600824381 0)
(-0.0383684560358 0.30500418395 0)
(-0.0344123300161 0.310802979332 0)
(-0.0303959522103 0.31598982969 0)
(-0.0263144006669 0.320555906406 0)
(-0.0221625058103 0.324490804049 0)
(-0.0179350522966 0.327782421555 0)
(-0.0136273962395 0.330417051113 0)
(-0.00923565567761 0.332379271881 0)
(-0.00475745922716 0.333652156358 0)
(-0.000192274017567 0.334217475659 0)
(0.00445785930858 0.334056049081 0)
(0.00918795824923 0.333148217977 0)
(0.0139893995931 0.331474462564 0)
(0.0188496485803 0.329016132951 0)
(0.023751729185 0.325756295699 0)
(0.02867416922 0.321680630213 0)
(0.0335907292529 0.316778359641 0)
(0.0384705885226 0.311043132385 0)
(0.0432782718326 0.304473846897 0)
(0.0479739090542 0.297075373396 0)
(0.05251310159 0.288859230747 0)
(0.0568469494263 0.27984429833 0)
(0.0609216229444 0.270057737144 0)
(0.0646781159461 0.25953632521 0)
(0.068051965829 0.248328407603 0)
(0.0709738135411 0.23649663428 0)
(0.0733711774527 0.224121199274 0)
(0.075172403651 0.211303121941 0)
(0.0763132269419 0.198166386139 0)
(0.0767457859545 0.184856938083 0)
(0.076448481733 0.171537384318 0)
(0.0754336699429 0.158376107439 0)
(0.07374880667 0.145534091001 0)
(0.071474492997 0.133149686009 0)
(0.0687079228684 0.121326838644 0)
(0.0655428568651 0.110138101825 0)
(0.0620629608343 0.0996370424438 0)
(0.0583504090722 0.0898653891218 0)
(0.0544908246246 0.0808498521016 0)
(0.0505690854335 0.0725972535774 0)
(0.0466623216291 0.065094830528 0)
(0.0428356210148 0.0583143410367 0)
(0.039140920527 0.0522169262791 0)
(0.0356181838437 0.0467570891811 0)
(0.0322967197063 0.0418850019245 0)
(0.0291960972486 0.0375482292284 0)
(0.0263260866732 0.0336937528424 0)
(0.0236876534886 0.0302705121788 0)
(0.0212751148194 0.0272314829225 0)
(0.0190789335065 0.0245341913185 0)
(0.0170871708646 0.0221404047932 0)
(0.0152864159803 0.0200157921795 0)
(0.0136623215157 0.018129721636 0)
(0.0122002150595 0.0164550958495 0)
(0.0108853746859 0.0149682500814 0)
(0.00970338640167 0.0136490428733 0)
(0.00864033179311 0.0124809019691 0)
(0.00768285354935 0.0114610913556 0)
(0.0068312643276 0.0104840381842 0)
(0.00625489393406 0.00969600169149 0)
(0.00584344584592 0.00887836239288 0)
(0.00560080003515 0.00806421182157 0)
(0.00536828610788 0.00719760457184 0)
(0.00514616800707 0.00625108394059 0)
(0.0052100089944 0.00548992188432 0)
(0.00520036038669 0.00447133416184 0)
(0.00547311181084 0.00370429365419 0)
(0.00543027139318 0.00262519994164 0)
(0.00593985570548 0.00199102907184 0)
(0.0066583430829 0.00150655599735 0)
(0.00673536459545 0.000849537691242 0)
(0.00674860190823 0.000281748664383 0)
(-0.11182204466 0.00753564076348 0)
(-0.118192181937 0.024379264319 0)
(-0.117705568954 0.0409534520639 -2.51572664937e-27)
(-0.116672255603 0.0575707505069 0)
(-0.115295069731 0.0739863675724 0)
(-0.113592444901 0.0901633272824 0)
(-0.111579879748 0.106052573126 0)
(-0.109274984786 0.121608786822 0)
(-0.106697280509 0.136790062082 0)
(-0.103867749199 0.151558284903 0)
(-0.10080837706 0.165879335081 0)
(-0.0975416482143 0.179723218225 0)
(-0.0940900595404 0.193064107753 0)
(-0.0904755956244 0.205880297684 0)
(-0.0867192511536 0.218154054003 0)
(-0.0828405276825 0.229871368964 0)
(-0.0788570191526 0.241021608376 0)
(-0.0747840019593 0.251597066728 0)
(-0.0706341685726 0.261592431625 0)
(-0.0664174016012 0.271004190948 0)
(-0.0621407369959 0.279830000401 0)
(-0.0578083795126 0.288068058946 0)
(-0.053421913206 0.295716513942 0)
(-0.0489805300622 0.302772939941 0)
(-0.0444814133071 0.309233896312 0)
(-0.0399200732961 0.31509458351 0)
(-0.0352907892466 0.320348574279 0)
(-0.0305869607393 0.324987619642 0)
(-0.0258015595437 0.329001499282 0)
(-0.0209275034677 0.332377871331 0)
(-0.0159582018321 0.335102338409 0)
(-0.0108879374214 0.337158262346 0)
(-0.00571259297905 0.338526937743 0)
(-0.000430226321656 0.33918775904 0)
(0.00495818734321 0.339118546789 0)
(0.0104481008883 0.338296049019 0)
(0.0160306793516 0.336696600437 0)
(0.0216922640424 0.334296962198 0)
(0.0274138738882 0.331075281558 0)
(0.0331709769541 0.327012152632 0)
(0.0389333565256 0.322091680193 0)
(0.0446652593062 0.31630249038 0)
(0.0503255583223 0.309638588182 0)
(0.0558680377416 0.302100039292 0)
(0.06124142125 0.293693478564 0)
(0.0663892205814 0.28443259908 0)
(0.0712490097142 0.274338821427 0)
(0.0757514596365 0.263442617295 0)
(0.0798191067863 0.251785832288 0)
(0.0833657939316 0.239425500159 0)
(0.0862977217107 0.226439157844 0)
(0.0885174398704 0.212931058149 0)
(0.089932817171 0.199037624698 0)
(0.0904704428742 0.184928928398 0)
(0.0900925621449 0.17080283691 0)
(0.088811654032 0.156868716083 0)
(0.0866906939602 0.143328831123 0)
(0.0838500984362 0.13035138965 0)
(0.0804324532299 0.118045820938 0)
(0.0765602757609 0.106472741992 0)
(0.0723255796976 0.0956770045435 0)
(0.0678208461256 0.0857025009222 0)
(0.063152713585 0.0765790625634 0)
(0.0584303879501 0.068309095354 0)
(0.0537512613025 0.0608680529264 0)
(0.0491938179779 0.0542127450618 0)
(0.0448175504256 0.0482898629326 0)
(0.0406667410877 0.0430413325313 0)
(0.0367735968494 0.0384062560588 0)
(0.0331592451862 0.0343214489552 0)
(0.0298326354263 0.0307234041142 0)
(0.0267903226583 0.0275523910375 0)
(0.0240208041033 0.0247557755289 0)
(0.0215091244499 0.0222880497337 0)
(0.0192389191158 0.0201091904754 0)
(0.0171926555456 0.0181837618405 0)
(0.0153520682576 0.0164805819269 0)
(0.0136988489686 0.0149724055421 0)
(0.0122147389312 0.0136356413454 0)
(0.0108817831955 0.0124502724592 0)
(0.00968229514103 0.0113992684417 0)
(0.00859923824098 0.0104778057821 0)
(0.00762318998502 0.00955385533118 0)
(0.00701963163903 0.0088105322868 0)
(0.00668550630065 0.00812344191698 0)
(0.0063864310516 0.00729935319061 0)
(0.00628678281776 0.0066117728524 0)
(0.00613935244368 0.00573426932338 0)
(0.00609185576866 0.00485229665498 0)
(0.00600606365807 0.00388038809945 0)
(0.00612095749132 0.00308355398203 0)
(0.00644484264827 0.00241093183606 0)
(0.0064609260195 0.00163533487603 0)
(0.00723113259953 0.00123331022582 0)
(0.00726084356855 0.00073237236568 0)
(0.0072522977581 0.000234715992829 0)
(-0.127835738085 0.00768666047304 0)
(-0.135111489075 0.0249446643006 0)
(-0.134543410875 0.0418849235347 0)
(-0.133344242146 0.0588722258605 0)
(-0.131746477124 0.0756447663071 0)
(-0.129771941323 0.0921633888821 0)
(-0.127439253483 0.108376308742 0)
(-0.124769552567 0.124235930632 0)
(-0.121786239424 0.139698509901 0)
(-0.118514447259 0.15472459148 0)
(-0.114980494469 0.169279234292 0)
(-0.111211294526 0.183332162796 0)
(-0.107233769848 0.19685782055 0)
(-0.103074235684 0.209835321089 0)
(-0.0987578045104 0.222248292498 0)
(-0.094307783567 0.234084597909 0)
(-0.0897451321785 0.245335936874 0)
(-0.085087964017 0.255997315844 0)
(-0.0803511744257 0.26606641418 0)
(-0.0755461777471 0.275542857649 0)
(-0.0706808281313 0.284427452532 0)
(-0.0657594830248 0.292721415194 0)
(-0.0607832513767 0.300425661093 0)
(-0.0557503433139 0.307540183016 0)
(-0.0506565319296 0.314063557239 0)
(-0.0454956214821 0.319992568768 0)
(-0.0402599407921 0.325321947731 0)
(-0.0349407820197 0.330044173209 0)
(-0.0295288544265 0.334149322333 0)
(-0.0240147188598 0.33762487523 0)
(-0.0183893370284 0.340455755542 0)
(-0.012644542403 0.342624024512 0)
(-0.00677384963112 0.344109011623 0)
(-0.000773194562457 0.344887395582 0)
(0.00535818145842 0.344933507254 0)
(0.0116168488779 0.344219829265 0)