/*--------------------------------*- C++ -*----------------------------------*\
| =========                 |                                                 |
| \\      /  F ield         | OpenFOAM: The Open Source CFD Toolbox           |
|  \\    /   O peration     | Version:  v1906                                 |
|   \\  /    A nd           | Web:      www.OpenFOAM.com                      |
|    \\/     M anipulation  |                                                 |
\*---------------------------------------------------------------------------*/
FoamFile
{
    version     2.0;
    format      ascii;
    class       volVectorField;
    location    "431";
    object      U;
}
// * * * * * * * * * * * * * * * * * * * * * * * * * * * * * * * * * * * * * //

dimensions      [0 1 -1 0 0 0 0];


internalField   nonuniform List<vector> 
9216
(
(0.00155840688651 -0.0015597217305 0)
(0.00159813446755 -0.00486059560401 6.53887028688e-28)
(0.00158671952143 -0.00816932770762 1.08217519062e-31)
(0.0015634729551 -0.0114577603353 0)
(0.00153222743547 -0.0146872831577 0)
(0.00149377435874 -0.0178438401296 0)
(0.00144898066765 -0.0209133189819 0)
(0.00139862381398 -0.0238833322247 0)
(0.00134351605094 -0.0267431217745 0)
(0.00128442719949 -0.0294835960892 0)
(0.00122214588294 -0.0320972814783 0)
(0.00115737647985 -0.0345782791276 0)
(0.00109081602433 -0.0369221436156 0)
(0.00102304452386 -0.0391257757515 0)
(0.000954623387915 -0.0411872565146 0)
(0.000885981243766 -0.04310571024 0)
(0.00081753180732 -0.0448811283956 0)
(0.000749554003917 -0.0465142324684 0)
(0.000682325070226 -0.0480063129177 0)
(0.000615993811874 -0.0493591097766 0)
(0.00055072459726 -0.050574680232 0)
(0.000486563516023 -0.0516553038142 0)
(0.000423589150229 -0.052603383289 0)
(0.000361773040869 -0.0534213741602 0)
(0.000301133585623 -0.0541117180653 0)
(0.000241593530839 -0.0546767926201 0)
(0.000183133331318 -0.0551188751504 0)
(0.000125649755384 -0.0554401085899 0)
(6.91049430951e-05 -0.0556424939085 0)
(1.33914325728e-05 -0.0557278668931 0)
(-4.15309604342e-05 -0.0556979285015 0)
(-9.57578660637e-05 -0.0555542113704 0)
(-0.000149310996275 -0.0552981470701 0)
(-0.000202247712258 -0.0549310631769 0)
(-0.000254556664833 -0.0544542602845 0)
(-0.000306240981097 -0.0538690197709 0)
(-0.000357241566941 -0.053176709934 0)
(-0.000407491437462 -0.0523787969891 0)
(-0.000456875080858 -0.051476973334 0)
(-0.000505247545643 -0.0504731635882 0)
(-0.000552437610492 -0.0493696653459 0)
(-0.000598224458838 -0.0481691399612 0)
(-0.000642390908878 -0.046874755703 0)
(-0.000684649059815 -0.045490155863 0)
(-0.000724748156937 -0.0440196011758 0)
(-0.000762338967325 -0.0424679194425 0)
(-0.000797139357873 -0.0408406565795 0)
(-0.000828728808209 -0.0391440255161 0)
(-0.000856777744853 -0.0373850847132 0)
(-0.000880770293074 -0.0355717059796 0)
(-0.000900310241385 -0.0337127812882 0)
(-0.000914782367735 -0.0318181940138 0)
(-0.000923754035367 -0.0298989976329 0)
(-0.000926590291228 -0.0279673097314 0)
(-0.00092295692694 -0.0260363396501 0)
(-0.000912388484098 -0.0241200946613 0)
(-0.000894864030395 -0.0222331580242 0)
(-0.000870306580096 -0.0203901870101 0)
(-0.000839191050226 -0.0186054665131 0)
(-0.000801971221217 -0.0168922880813 0)
(-0.00075967899096 -0.0152624007705 0)
(-0.000713264649969 -0.0137254563498 0)
(-0.00066412722457 -0.0122886207449 0)
(-0.000613378011975 -0.0109564107848 0)
(-0.000562344552361 -0.00973074887657 0)
(-0.000511886738361 -0.00861127343049 0)
(-0.000462968288062 -0.00759569249208 0)
(-0.000416083383337 -0.00668021536754 0)
(-0.000371861966169 -0.00585987053729 0)
(-0.000330520157322 -0.00512882149599 0)
(-0.000292428271857 -0.00448061981717 0)
(-0.00025755124417 -0.0039084800354 0)
(-0.000226012208175 -0.00340553314467 0)
(-0.000197560972199 -0.0029650609567 0)
(-0.000172158210884 -0.00258065499481 0)
(-0.000149459575541 -0.00224632281419 0)
(-0.000129382485788 -0.00195651058529 0)
(-0.000111576714816 -0.00170612904018 0)
(-9.59586777498e-05 -0.00149052260951 0)
(-8.21850703439e-05 -0.00130549435758 0)
(-7.01511225654e-05 -0.00114728139799 0)
(-5.94473249619e-05 -0.00101263666759 0)
(-4.96465580358e-05 -0.000899419970615 0)
(-3.92733819036e-05 -0.000800837971683 0)
(-3.27206237664e-05 -0.000724936455563 0)
(-3.12515481717e-05 -0.000666021522306 0)
(-2.84673202711e-05 -0.000601393963451 0)
(-2.44777909542e-05 -0.000548990227539 0)
(-2.46850782768e-05 -0.00050488614264 0)
(-2.69088597157e-05 -0.000453499218242 0)
(-2.71974127924e-05 -0.000401664758458 0)
(-2.79025052503e-05 -0.00034586661865 0)
(-3.20246913478e-05 -0.000284579768214 0)
(-3.66526598808e-05 -0.000217047462155 0)
(-4.15695471004e-05 -0.000134715562509 0)
(-4.46510014668e-05 -4.35200840085e-05 0)
(0.00487299397905 -0.00161597599465 0)
(0.00513390538888 -0.00517331971555 0)
(0.00509438910293 -0.00869925748428 -6.7237101386e-28)
(0.00501809409559 -0.012205929921 0)
(0.00491662710668 -0.0156464387217 0)
(0.00479251306788 -0.0190075725189 0)
(0.0046481563446 -0.0222746355086 0)
(0.00448600475848 -0.0254345355233 0)
(0.00430862395525 -0.0284758753994 0)
(0.00411852881996 -0.0313890418975 0)
(0.00391822603508 -0.0341661812872 0)
(0.00371002815512 -0.0368011382245 0)
(0.00349613628139 -0.0392893327972 0)
(0.0032784620449 -0.0416276251551 0)
(0.00305875811101 -0.0438141429018 0)
(0.00283844913532 -0.0458481166067 0)
(0.00261880331944 -0.0477296976106 0)
(0.00240076582145 -0.0494597977915 0)
(0.00218515996917 -0.0510399246658 0)
(0.00197251611936 -0.0524720446704 0)
(0.00176329145076 -0.0537584487933 0)
(0.0015576900444 -0.0549016463729 0)
(0.00135589223666 -0.0559042645237 0)
(0.0011578657292 -0.056768971667 0)
(0.000963597810197 -0.0574984084812 0)
(0.00077290082532 -0.058095136901 0)
(0.000585641865391 -0.0585615988976 0)
(0.00040154877308 -0.0589000865279 0)
(0.000220432284122 -0.0591127253797 0)
(4.20006677995e-05 -0.059201463781 0)
(-0.000133933960586 -0.0591680728648 0)
(-0.000307623612737 -0.0590141714296 0)
(-0.00047919386376 -0.0587412431595 0)
(-0.000648789616923 -0.0583506607433 0)
(-0.000816418480846 -0.0578437449354 0)
(-0.000982061080752 -0.0572218033962 0)
(-0.00114555676581 -0.0564862117677 0)
(-0.00130667424 -0.0556384643272 0)
(-0.00146505323615 -0.0546802720371 0)
(-0.00162022818542 -0.0536136158766 0)
(-0.00177163826781 -0.0524408508284 0)
(-0.00191859414613 -0.0511647492839 0)
(-0.00206036443135 -0.0497885988258 0)
(-0.0021960700756 -0.0483162260068 0)
(-0.00232484887171 -0.0467520828903 0)
(-0.00244565644549 -0.0451012539869 0)
(-0.00255750640258 -0.0433695433372 0)
(-0.00265915985262 -0.0415634866089 0)
(-0.00274944798413 -0.0396904658613 0)
(-0.00282685310961 -0.0377587549475 0)
(-0.00288994737958 -0.0357776758943 0)
(-0.00293690621952 -0.0337576677713 0)
(-0.00296612430453 -0.0317104298798 0)
(-0.00297571705646 -0.0296489145965 0)
(-0.00296434252095 -0.027587309599 0)
(-0.00293068093461 -0.0255408007473 0)
(-0.00287437672446 -0.0235252666319 0)
(-0.0027953980926 -0.0215567776444 0)
(-0.00269499029943 -0.0196510477952 0)
(-0.00257488176623 -0.0178227644731 0)
(-0.00243815610426 -0.0160849157018 0)
(-0.00228821983095 -0.0144481269586 0)
(-0.00212939728976 -0.0129201689915 0)
(-0.00196563155534 -0.0115057552628 0)
(-0.00180098626598 -0.0102066561878 0)
(-0.00163851136175 -0.00902209906565 0)
(-0.00148102981426 -0.00794926098671 0)
(-0.00133035527381 -0.00698376227351 0)
(-0.00118823807918 -0.00612003044082 0)
(-0.00105560993028 -0.00535159539538 0)
(-0.000933407321858 -0.00467134913544 0)
(-0.000821750628051 -0.0040718314886 0)
(-0.000720766109834 -0.00354553009643 0)
(-0.000629860108837 -0.00308514899101 0)
(-0.000548632875989 -0.00268379456486 0)
(-0.000476197393488 -0.00233506803794 0)
(-0.000412041668977 -0.00203307603441 0)
(-0.000355275483077 -0.00177242230837 0)
(-0.000305407384106 -0.00154817900272 0)
(-0.000261585086867 -0.00135587375823 0)
(-0.000223319432245 -0.00119144132463 0)
(-0.000189706789088 -0.001051165323 0)
(-0.00016000191997 -0.000931512149555 0)
(-0.000132119019613 -0.00082835503599 0)
(-0.000110400308491 -0.000728460791118 0)
(-9.98888699808e-05 -0.000655022837136 0)
(-8.57032922493e-05 -0.00058644753106 0)
(-7.3727564641e-05 -0.000536496701715 0)
(-7.24733542723e-05 -0.000484666145852 0)
(-7.79204366623e-05 -0.000443370510121 0)
(-8.11407306441e-05 -0.000399290246843 0)
(-8.62373960744e-05 -0.000340794174732 0)
(-9.55370609736e-05 -0.000278126635381 0)
(-0.000118465451844 -0.000221465211834 0)
(-0.000145057937512 -0.00014225341431 0)
(-0.000131193755191 -3.93498934098e-05 0)
(0.00824684719494 -0.00163728051639 0)
(0.00869283273699 -0.00523861408178 0)
(0.00861844001813 -0.00880139146431 -6.7142510029e-28)
(0.00848609452263 -0.0123473842354 0)
(0.00831219889458 -0.0158250378528 0)
(0.00810030742987 -0.0192204813203 0)
(0.00785423421447 -0.0225185711784 0)
(0.00757812686712 -0.0257059833843 0)
(0.00727633439348 -0.0287712253514 0)
(0.00695320387922 -0.0317047010059 0)
(0.00661298924822 -0.0344986765308 0)
(0.0062596854414 -0.037147194492 0)
(0.00589699688663 -0.0396459368216 0)
(0.00552821761176 -0.041992063029 0)
(0.00515626083431 -0.0441840246798 0)
(0.00478357933052 -0.0462213790009 0)
(0.00441224353415 -0.0481045990303 0)
(0.00404388694996 -0.0498348984606 0)
(0.00367981490399 -0.0514140648319 0)
(0.00332095916026 -0.0528443144442 0)
(0.00296800148861 -0.0541281600902 0)
(0.00262132619688 -0.055268301273 0)
(0.00228114777427 -0.056267527374 0)
(0.00194745612317 -0.057128640568 0)
(0.00162014264566 -0.0578543900132 0)
(0.00129893804767 -0.0584474219533 0)
(0.000983534742172 -0.0589102397637 0)
(0.000673520525305 -0.0592451763053 0)
(0.000368496839691 -0.0594543761132 0)
(6.80128877825e-05 -0.0595397872381 0)
(-0.000228319316272 -0.059503165873 0)
(-0.000520885553259 -0.059346084461 0)
(-0.000809963045303 -0.0590699595938 0)
(-0.00109577042065 -0.0586760833694 0)
(-0.0013783718383 -0.0581656718409 0)
(-0.00165771768473 -0.0575399174491 0)
(-0.00193356839149 -0.0568000602854 0)
(-0.00220552628749 -0.055947457653 0)
(-0.00247298906199 -0.0549836714008 0)
(-0.00273517458422 -0.0539105447774 0)
(-0.00299111267114 -0.0527302929232 0)
(-0.00323966014846 -0.051445571642 0)
(-0.00347953221759 -0.0500595549413 0)
(-0.00370929464785 -0.0485759813634 0)
(-0.0039274236606 -0.0469992096025 0)
(-0.0041322502088 -0.0453342427663 0)
(-0.00432202894514 -0.0435867750967 0)
(-0.00449481043253 -0.041763222201 0)
(-0.00464851426593 -0.0398708000728 0)
(-0.00478073967178 -0.0379176091298 0)
(-0.00488889158701 -0.0359127845271 0)
(-0.0049700107939 -0.0338666449969 0)
(-0.00502106768703 -0.0317908694225 0)
(-0.0050389298449 -0.0296985920864 0)
(-0.00502089896261 -0.0276044090859 0)
(-0.00496479761477 -0.0255241875745 0)
(-0.00486959630055 -0.0234747090406 0)
(-0.00473538184563 -0.0214731477282 0)
(-0.00456390443575 -0.0195364423694 0)
(-0.00435838413397 -0.0176805548909 0)
(-0.00412388635191 -0.0159196483836 0)
(-0.00386677079196 -0.0142652191799 0)
(-0.00359445561785 -0.0127254172379 0)
(-0.00331428376755 -0.0113047780391 0)
(-0.00303309264712 -0.0100044469706 0)
(-0.00275639683411 -0.00882279325869 0)
(-0.00248862277127 -0.00775614002962 0)
(-0.0022329961504 -0.00679938136198 0)
(-0.00199212645319 -0.00594634887959 0)
(-0.00176783332037 -0.0051900235022 0)
(-0.00156143537671 -0.00452274010934 0)
(-0.00137337323234 -0.00393647726823 0)
(-0.00120351759559 -0.00342322300315 0)
(-0.00105100827821 -0.00297531456542 0)
(-0.000914791960579 -0.00258565267078 0)
(-0.000793550254952 -0.00224776128785 0)
(-0.000686129466963 -0.0019557401798 0)
(-0.000591271745733 -0.00170420557463 0)
(-0.000507908681637 -0.00148825213437 0)
(-0.000434875643254 -0.00130342480359 0)
(-0.000371200471615 -0.00114567533941 0)
(-0.000315839607044 -0.00101129546043 0)
(-0.000267985315768 -0.000896775807072 0)
(-0.000227004808222 -0.000799165781383 0)
(-0.000193305920546 -0.00070315490365 0)
(-0.000171237682673 -0.0006354573738 0)
(-0.000150466682446 -0.000581212977209 0)
(-0.000128920121383 -0.000510603012939 0)
(-0.000116515193751 -0.000450013690673 0)
(-0.000120823634689 -0.000414087874665 0)
(-0.000139049292996 -0.000385561641099 0)
(-0.00014333172464 -0.0003086553138 0)
(-0.000164178081742 -0.000255738798427 0)
(-0.000192484068208 -0.000187424728054 0)
(-0.000216903949749 -0.000113224696158 0)
(-0.000211562159876 -3.5299863506e-05 0)
(0.0116860840088 -0.00166366351237 0)
(0.0123229490225 -0.0053212296549 0)
(0.0122156129804 -0.00893668846292 6.71336325681e-28)
(0.0120251482779 -0.0125341412235 0)
(0.0117751939024 -0.0160598076875 0)
(0.0114710518564 -0.019499025746 0)
(0.0111182798148 -0.0228360584545 0)
(0.0107229350489 -0.0260572426855 0)
(0.0102913360209 -0.0291509612258 0)
(0.00982980761592 -0.0321076788704 0)
(0.00934448866649 -0.0349198801535 0)
(0.00884114799783 -0.0375819483214 0)
(0.00832507701381 -0.0400899962946 0)
(0.00780098762692 -0.0424416698648 0)
(0.00727298818031 -0.0446359346034 0)
(0.00674455037478 -0.0466728624959 0)
(0.00621854735932 -0.0485534244611 0)
(0.00569726412703 -0.0502792990982 0)
(0.00518247081651 -0.0518526983786 0)
(0.00467545140989 -0.0532762157856 0)
(0.00417708990349 -0.0545526938696 0)
(0.00368789962476 -0.0556851137064 0)
(0.00320810855159 -0.0566765015208 0)
(0.00273768057549 -0.0575298535658 0)
(0.00227639433501 -0.0582480744481 0)
(0.00182385483751 -0.0588339296552 0)
(0.00137956567518 -0.0592900084525 0)
(0.000942933845852 -0.0596186979665 0)
(0.000513338000752 -0.0598221662104 0)
(9.0130973903e-05 -0.0599023543343 0)
(-0.000327292560258 -0.05986098194 0)
(-0.000739491712261 -0.0596995524924 0)
(-0.00114691223022 -0.0594193823946 0)
(-0.00154987847365 -0.0590216337046 0)
(-0.00194852855877 -0.0585073613248 0)
(-0.00234280588231 -0.057877571607 0)
(-0.00273240454639 -0.057133294647 0)
(-0.00311676736942 -0.0562756647453 0)
(-0.00349505254546 -0.0553060115189 0)
(-0.00386614669001 -0.0542259516992 0)
(-0.0042286623591 -0.053037483473 0)
(-0.00458096885418 -0.0517430696189 0)
(-0.00492121943089 -0.0503457125414 0)
(-0.0052473864312 -0.0488490066504 0)
(-0.00555729662678 -0.0472571771161 0)
(-0.00584863534116 -0.0455750959227 0)
(-0.00611895037367 -0.043808297045 0)
(-0.00636558378946 -0.0419629927086 0)
(-0.0065856204138 -0.0400461267856 0)
(-0.00677575390842 -0.0380654731697 0)
(-0.00693224180161 -0.0360298120282 0)
(-0.0070508346666 -0.0339491663464 0)
(-0.00712693258376 -0.0318350828845 0)
(-0.00715580130098 -0.0297008679859 0)
(-0.00713310249815 -0.0275616890904 0)
(-0.00705539432533 -0.0254344271185 0)
(-0.00692077220233 -0.0233372523254 0)
(-0.00672914084788 -0.0212890422958 0)
(-0.00648271282919 -0.019308671166 0)
(-0.00618610741552 -0.0174141664978 0)
(-0.00584670074219 -0.015621678098 0)
(-0.00547429992547 -0.0139442023058 0)
(-0.00508027540865 -0.0123905066119 0)
(-0.00467604210586 -0.010964732103 0)
(-0.00427177451886 -0.00966682438109 0)
(-0.00387550119776 -0.00849359888465 0)
(-0.00349316720367 -0.00743993934662 0)
(-0.00312911340954 -0.00649964173047 0)
(-0.00278675496622 -0.00566571796828 0)
(-0.00246873993586 -0.00493039590242 0)
(-0.00217689905304 -0.00428517627008 0)
(-0.00191191307923 -0.00372113812755 0)
(-0.00167333558573 -0.00322945545161 0)
(-0.00145974779606 -0.00280189567251 0)
(-0.00126929176828 -0.00243109509546 0)
(-0.00110001258302 -0.00211054341948 0)
(-0.000950138155995 -0.00183439753587 0)
(-0.000817967498711 -0.00159733701547 0)
(-0.000701913424143 -0.0013945186033 0)
(-0.000600423882556 -0.00122155835478 0)
(-0.000512082252241 -0.0010745050656 0)
(-0.000435578262885 -0.000949800234521 0)
(-0.000369893234379 -0.000844304634438 0)
(-0.000315078821029 -0.000754767290055 0)
(-0.000266849809257 -0.000663226803271 0)
(-0.000238149710069 -0.000609411779903 0)
(-0.00021085619751 -0.000546479837082 0)
(-0.000185456778004 -0.000477966527604 0)
(-0.000174658146271 -0.00043215836281 0)
(-0.000167662603058 -0.000370878337719 0)
(-0.00017980879433 -0.000319931953046 0)
(-0.000212888645898 -0.000285335048235 0)
(-0.000223943682508 -0.000208170686178 0)
(-0.000253837513424 -0.000146315640478 0)
(-0.00028411234891 -8.94863929717e-05 0)
(-0.000283870375389 -2.95643420393e-05 0)
(0.015187488231 -0.00169898428865 0)
(0.016015060024 -0.00543284700265 0)
(0.0158725434838 -0.00912142887136 0)
(0.0156203908036 -0.0127891113121 0)
(0.0152897564006 -0.0163799906871 0)
(0.0148879403804 -0.0198784121228 0)
(0.0144225318322 -0.02326787839 0)
(0.0139017586102 -0.0265342859577 0)
(0.0133341523178 -0.0296658734776 0)
(0.0127282153212 -0.032653223971 0)
(0.0120921431418 -0.0354891592727 0)
(0.0114335961682 -0.0381685690495 0)
(0.0107595421513 -0.0406881919188 0)
(0.0100761481788 -0.0430463702873 0)
(0.00938873709271 -0.0452427958522 0)
(0.00870177698546 -0.0472782609995 0)
(0.0080189180089 -0.0491544255039 0)
(0.00734304069799 -0.0508736061235 0)
(0.00667633410119 -0.0524385915104 0)
(0.00602036711282 -0.053852484218 0)
(0.00537617751961 -0.0551185678349 0)
(0.00474434255467 -0.0562401980221 0)
(0.0041250616443 -0.057220713754 0)
(0.00351821525918 -0.0580633666917 0)
(0.00292343552608 -0.0587712650332 0)
(0.00234015196341 -0.0593473302091 0)
(0.00176765150861 -0.0597942637474 0)
(0.0012051152318 -0.0601145235758 0)
(0.000651672946677 -0.0603103085056 0)
(0.000106437010793 -0.0603835502331 0)
(-0.000431442857312 -0.0603359191388 0)
(-0.000962743020286 -0.060168826341 0)
(-0.00148810810434 -0.0598834538927 0)
(-0.00200801080902 -0.0594807863161 0)
(-0.00252269233582 -0.0589616587721 0)
(-0.00303212325769 -0.0583268197617 0)
(-0.00353595166559 -0.0575770088715 0)
(-0.00403347671098 -0.0567130475825 0)
(-0.00452361954442 -0.0557359416321 0)
(-0.00500492484645 -0.0546469887433 0)
(-0.00547556927854 -0.0534478868677 0)
(-0.00593340000645 -0.0521408326626 0)
(-0.00637598134672 -0.0507286033508 0)
(-0.00680065620038 -0.0492146111992 0)
(-0.00720459999808 -0.0476029281207 0)
(-0.00758485399697 -0.0458982785258 0)
(-0.00793832013328 -0.0441060137103 0)
(-0.00826169257704 -0.0422320866606 0)
(-0.00855133406368 -0.040283065369 0)
(-0.00880308843282 -0.0382662234038 0)
(-0.00901210288415 -0.0361897533409 0)
(-0.00917270076688 -0.0340631170224 0)
(-0.0092784642014 -0.0318975091372 0)
(-0.00932257802598 -0.0297063262434 0)
(-0.00929854560904 -0.027505457595 0)
(-0.0092010955851 -0.0253132048719 0)
(-0.00902709303072 -0.0231496969859 0)
(-0.00877585436566 -0.0210362261475 0)
(-0.00844986464746 -0.0189944464655 0)
(-0.00805491951348 -0.0170454841564 0)
(-0.0076010124499 -0.0152086908309 0)
(-0.00710228175264 -0.0134995576718 0)
(-0.00657543898726 -0.0119278428495 0)
(-0.00603721048706 -0.0104968861365 0)
(-0.00550193873969 -0.00920444665552 0)
(-0.00498016206547 -0.00804466414799 0)
(-0.00447890986329 -0.0070101739286 0)
(-0.00400305911291 -0.00609333992695 0)
(-0.00355663329382 -0.00528630065644 0)
(-0.0031431627649 -0.00458045225345 0)
(-0.00276523536512 -0.00396616191504 0)
(-0.00242378464 -0.00343313065003 0)
(-0.00211786320988 -0.00297124657221 0)
(-0.00184504675191 -0.00257143505584 0)
(-0.00160230906204 -0.00222606033612 0)
(-0.0013868196577 -0.00192873191159 0)
(-0.0011962196751 -0.00167380317381 0)
(-0.00102836265776 -0.00145607496322 0)
(-0.00088117779131 -0.00127079062488 0)
(-0.000752668984227 -0.00111366543064 0)
(-0.000640951698749 -0.00098089264879 0)
(-0.000544264076909 -0.000869160093515 0)
(-0.000461042628949 -0.000776275017346 0)
(-0.000390978888279 -0.000694862386791 0)
(-0.000338898174767 -0.000626952090221 0)
(-0.000305333662758 -0.000574890234861 0)
(-0.000279516339211 -0.000516948852023 0)
(-0.000251192817296 -0.000451881622702 0)
(-0.00022422873097 -0.000376693798491 0)
(-0.000222679357575 -0.000328872882045 0)
(-0.000225997014989 -0.000267452527594 0)
(-0.000260909997179 -0.000231042077284 0)
(-0.000300525311294 -0.000183322424 0)
(-0.000310607561713 -0.000117254127464 0)
(-0.000328401536107 -6.86436140404e-05 0)
(-0.000328198170121 -2.29187025735e-05 0)
(0.0187724231287 -0.00174420584842 0)
(0.0197932033239 -0.00557644182109 0)
(0.0196121071566 -0.00935966592952 0)
(0.0192931453245 -0.0131177996078 0)
(0.018875361214 -0.0167923092518 0)
(0.0183683738972 -0.0203662820168 0)
(0.017782167021 -0.0238222764114 0)
(0.0171274941246 -0.0271456634065 0)
(0.0164154283768 -0.0303245505629 0)
(0.0156569275276 -0.0333497387233 0)
(0.0148624690415 -0.036214554391 0)
(0.0140417652771 -0.0389146085728 0)
(0.0132035666957 -0.0414475074851 0)
(0.0123555438222 -0.0438125418214 0)
(0.011504243119 -0.046010376147 0)
(0.0106550976739 -0.048042755134 0)
(0.00981248429915 -0.0499122372608 0)
(0.00897980643114 -0.0516219622292 0)
(0.00815959758741 -0.0531754536564 0)
(0.00735362787511 -0.0545764562889 0)
(0.00656301409096 -0.055828804345 0)
(0.0057883199188 -0.0569363172641 0)
(0.00502965221567 -0.0579027180406 0)
(0.00428674281409 -0.0587315702309 0)
(0.00355902572176 -0.0594262294009 0)
(0.00284570056909 -0.0599898062315 0)
(0.00214579457826 -0.0604251384429 0)
(0.00145821421599 -0.0607347702885 0)
(0.000781800012972 -0.0609209384841 0)
(0.000115375221866 -0.0609855636816 0)
(-0.000542198175059 -0.060930255839 0)
(-0.00119196523775 -0.0607563112615 0)
(-0.00183481589099 -0.0604647431911 0)
(-0.00247142391046 -0.0600563102318 0)
(-0.00310217848184 -0.0595315651607 0)
(-0.00372712233102 -0.058890921221 0)
(-0.00434588921407 -0.0581347370886 0)
(-0.00495765733196 -0.0572634201269 0)
(-0.0055611141306 -0.056277545484 0)
(-0.00615444895596 -0.0551779854067 0)
(-0.00673536915015 -0.0539660405698 0)
(-0.00730115071512 -0.0526435614125 0)
(-0.00784871329099 -0.0512130460787 0)
(-0.00837471702164 -0.0496777000989 0)
(-0.00887565811409 -0.0480414470052 0)
(-0.0093479408676 -0.0463088852966 0)
(-0.00978789060829 -0.0444852018712 0)
(-0.0101916750795 -0.0425760697679 0)
(-0.0105551113411 -0.0405875825467 0)
(-0.0108733603151 -0.0385262985872 0)
(-0.0111405588441 -0.0363994775924 0)
(-0.0113495111533 -0.0342155774922 0)
(-0.0114916220899 -0.0319850065579 0)
(-0.011557309283 -0.0297209923937 0)
(-0.0115370551084 -0.0274402462523 0)
(-0.0114229141293 -0.0251630107846 0)
(-0.0112101059549 -0.0229120441081 0)
(-0.0108967314999 -0.0207118438053 0)
(-0.0104852811567 -0.0185877632821 0)
(-0.00998202178076 -0.016565338498 0)
(-0.00939972806444 -0.0146690619469 0)
(-0.00875838062622 -0.0129186480886 0)
(-0.00808239250073 -0.0113254524673 0)
(-0.00739608266378 -0.00989124706327 0)
(-0.00671925662158 -0.0086097894452 0)
(-0.00606476397834 -0.00747058195629 0)
(-0.00543951631722 -0.00646284700463 0)
(-0.00484778401774 -0.00557737463225 0)
(-0.00429381362371 -0.00480583012199 0)
(-0.0037823757279 -0.00413900561729 0)
(-0.00331742998536 -0.0035658049887 0)
(-0.00290036557095 -0.00307377204794 0)
(-0.00252937619341 -0.00265072290875 0)
(-0.00220023553552 -0.00228634619553 0)
(-0.0019080175134 -0.00197287207205 0)
(-0.00164871852421 -0.00170445758039 0)
(-0.00141956083489 -0.00147594362941 0)
(-0.00121808620218 -0.00128229782999 0)
(-0.00104175893243 -0.00111882728646 0)
(-0.0008881070115 -0.000981334313818 0)
(-0.000754761273135 -0.000866101570987 0)
(-0.00063942156521 -0.000769879486318 0)
(-0.000539878325358 -0.000690578652518 0)
(-0.000454663417659 -0.000617712061187 0)
(-0.000398576297008 -0.000561411269594 0)
(-0.000362590720006 -0.000511787875126 0)
(-0.000326840152076 -0.000448315662199 0)
(-0.000307946146893 -0.000401449148951 0)
(-0.000295549449571 -0.000350325579618 0)
(-0.000293623858394 -0.000299520220969 0)
(-0.000276904764493 -0.000225769519495 0)
(-0.000295191444155 -0.000176265406877 0)
(-0.000345687491096 -0.000146269725317 0)
(-0.000364200927461 -0.000100176514339 0)
(-0.000369876226533 -5.65515612395e-05 0)
(-0.000370599917593 -1.8878385835e-05 0)
(0.0224626873005 -0.00180049660138 0)
(0.0236803152545 -0.00575531943727 0)
(0.0234560292262 -0.00965645818411 6.66597242971e-28)
(0.0230633974793 -0.0135269101924 0)
(0.0225498815899 -0.0173047946193 0)
(0.0219278608176 -0.02097160821 0)
(0.021210193215 -0.024508759208 0)
(0.0204106301127 -0.0279010256853 0)
(0.0195432168898 -0.0311364412226 0)
(0.0186217294029 -0.0342061845241 0)
(0.0176592106438 -0.0371043228184 0)
(0.0166676230086 -0.0398274727751 0)
(0.0156576189567 -0.0423744148444 0)
(0.0146384196845 -0.0447456954293 0)
(0.0136177866032 -0.0469432436623 0)
(0.0126020640906 -0.0489700215763 0)
(0.0115962742172 -0.0508297185963 0)
(0.0106042426582 -0.0525264947732 0)
(0.00962874135666 -0.0540647720882 0)
(0.0086716335516 -0.0554490698145 0)
(0.00773401431144 -0.056683877965 0)
(0.00681633892468 -0.0577735621401 0)
(0.00591853861437 -0.0587222931669 0)
(0.00504012053039 -0.0595339955561 0)
(0.0041802553898 -0.0602123097093 0)
(0.00333785205997 -0.0607605638431 0)
(0.0025116244305 -0.0611817526507 0)
(0.00170015074292 -0.0614785207513 0)
(0.000901931506786 -0.0616531501522 0)
(0.000115446069075 -0.0617075503402 0)
(-0.000660786595424 -0.0616432619709 0)
(-0.00142814140117 -0.061461446311 0)
(-0.0021878157683 -0.0611629147336 0)
(-0.00294075070051 -0.0607481509737 0)
(-0.00368754630659 -0.0602173591413 0)
(-0.004428377126 -0.0595705323078 0)
(-0.00516290987003 -0.0588075455348 0)
(-0.00589023403651 -0.0579282739936 0)
(-0.00660881158667 -0.0569327345671 0)
(-0.00731645837227 -0.0558212448752 0)
(-0.00801036394597 -0.0545945895257 0)
(-0.00868715847975 -0.0532541774742 0)
(-0.0093430248976 -0.0518021700845 0)
(-0.00997384881732 -0.0502415561893 0)
(-0.0105753823444 -0.0485761518551 0)
(-0.0111433847683 -0.0468105106103 0)
(-0.0116736879099 -0.044949747195 0)
(-0.0121621233428 -0.0429993063327 0)
(-0.0126042599766 -0.0409647492018 0)
(-0.0129949153433 -0.0388516691669 0)
(-0.013327499363 -0.0366659021225 0)
(-0.0135933132972 -0.0344141779313 0)
(-0.0137811571275 -0.0321053046892 0)
(-0.0138776625027 -0.0297517564603 0)
(-0.0138688583835 -0.0273710594113 0)
(-0.013742792861 -0.0249862524146 0)
(-0.0134928595216 -0.0226235108952 0)
(-0.0131148941801 -0.0203113977795 0)
(-0.0126113896364 -0.0180797332218 0)
(-0.0119869369566 -0.0159599275725 0)
(-0.0112567125578 -0.0139850462446 0)
(-0.0104490680602 -0.0121822188622 0)
(-0.00960036075504 -0.0105655419304 0)
(-0.00874658278727 -0.00913374760097 0)
(-0.00791527441209 -0.00787312555236 0)
(-0.00712067874447 -0.00676492163405 0)
(-0.00636675797208 -0.00579319202381 0)
(-0.00565480814437 -0.0049476356656 0)
(-0.00498871374033 -0.00422089126378 0)
(-0.00437557685777 -0.00360406796558 0)
(-0.00382226073313 -0.00308415144791 0)
(-0.00333122516083 -0.00264507673799 0)
(-0.00289910337978 -0.00227111648853 0)
(-0.00251833346343 -0.00195007633775 0)
(-0.002180624974 -0.00167454328908 0)
(-0.00188044174942 -0.001440275211 0)
(-0.00161523997789 -0.00124317084145 0)
(-0.00138266710204 -0.00107827305456 0)
(-0.00117966000943 -0.000940811429403 0)
(-0.0010032345074 -0.000826667746835 0)
(-0.000850565971611 -0.000732206502554 0)
(-0.000718853374309 -0.000654254474627 0)
(-0.000605530139182 -0.000590775682595 0)
(-0.000508678779096 -0.000528983439945 0)
(-0.000454810886205 -0.000488413984844 0)
(-0.000415304309075 -0.000441749828204 0)
(-0.000381774033044 -0.00039346567394 0)
(-0.000353926048272 -0.000341325481252 0)
(-0.000347189941152 -0.000298754889798 0)
(-0.000337513626841 -0.000243681451946 0)
(-0.00034724232737 -0.000201575806769 0)
(-0.000339874353354 -0.000143108906378 0)
(-0.000364905516304 -0.000108688972864 0)
(-0.00040173231891 -8.23405034207e-05 0)
(-0.000404084288515 -4.66956429076e-05 0)
(-0.00040535897763 -1.56202392952e-05 0)
(0.0262826683103 -0.00186921168354 0)
(0.0277016506173 -0.00597363630196 0)
(0.0274281708638 -0.01001842633 -6.66494892481e-28)
(0.0269529374511 -0.0140252064077 0)
(0.0263325673917 -0.0179278839423 0)
(0.025582813757 -0.0217059715871 0)
(0.0247200541801 -0.025339507094 0)
(0.023761662192 -0.0288126395644 0)
(0.0227252136741 -0.0321134510049 0)
(0.0216277630017 -0.0352337446214 0)
(0.020485265869 -0.0381686603795 0)
(0.0193121657827 -0.0409161998173 0)
(0.0181211414068 -0.0434767103484 0)
(0.0169229970097 -0.0458523737103 0)
(0.0157266699316 -0.0480467312831 0)
(0.0145393248968 -0.0500642670755 0)
(0.0133665062059 -0.0519100582663 0)
(0.0122123217072 -0.0535894946826 0)
(0.0110796382312 -0.0551080623768 0)
(0.00997027293135 -0.0564711829695 0)
(0.00888517106552 -0.05768409863 0)
(0.00782456423787 -0.0587517926431 0)
(0.0067881076141 -0.0596789361432 0)
(0.00577499597778 -0.0604698531931 0)
(0.00478406136707 -0.0611284976425 0)
(0.00381385478921 -0.0616584370006 0)
(0.00286271652157 -0.0620628396147 0)
(0.00192883844247 -0.0623444631183 0)
(0.00101032351859 -0.0625056430992 0)
(0.000105245937903 -0.0625482807898 0)
(-0.000788283954856 -0.0624738428262 0)
(-0.00167204357325 -0.0622833398334 0)
(-0.00254761602802 -0.0619773518161 0)
(-0.00341629318468 -0.061556040012 0)
(-0.00427897008624 -0.0610191907327 0)
(-0.00513603357664 -0.0603662838241 0)
(-0.00598725138389 -0.0595965929208 0)
(-0.00683167246968 -0.0587093206367 0)
(-0.00766755054066 -0.0577037684751 0)
(-0.00849230678794 -0.0565795362753 0)
(-0.00930254642798 -0.0553367390332 0)
(-0.0100941434282 -0.0539762205595 0)
(-0.0108623986317 -0.0524997344423 0)
(-0.0116022665712 -0.0509100553912 0)
(-0.0123086238126 -0.0492109806056 0)
(-0.0129765309981 -0.0474071882956 0)
(-0.0136014067868 -0.0455039376407 0)
(-0.0141790164426 -0.0435066387691 0)
(-0.0147051517162 -0.0414203712076 0)
(-0.0151749275878 -0.0392495343622 0)
(-0.0155816486014 -0.0369978716945 0)
(-0.0159154469701 -0.0346692312266 0)
(-0.0161620962664 -0.032269351629 0)
(-0.0163029128855 -0.0298086894373 0)
(-0.0163170035919 -0.0273053722826 0)
(-0.0161858959483 -0.0247870072432 0)
(-0.0159024785486 -0.0222841406922 0)
(-0.0154578897064 -0.0198303690846 0)
(-0.0148567313155 -0.0174598015095 0)
(-0.0140954636002 -0.0152106569457 0)
(-0.0131897009521 -0.0131311886592 0)
(-0.0121807735441 -0.0112622922648 0)
(-0.0111246871262 -0.00962296374001 0)
(-0.0100767045254 -0.00820615772801 0)
(-0.0090763531062 -0.00698388255524 0)
(-0.00813658225954 -0.0059220626509 0)
(-0.00725181958576 -0.00499697366172 0)
(-0.00641567115211 -0.00419932807307 0)
(-0.00563089591473 -0.00352659719902 0)
(-0.00490975359947 -0.00297255171524 0)
(-0.00426573539423 -0.00252145293158 0)