/*--------------------------------*- C++ -*----------------------------------*\
| =========                 |                                                 |
| \\      /  F ield         | OpenFOAM: The Open Source CFD Toolbox           |
|  \\    /   O peration     | Version:  v1906                                 |
|   \\  /    A nd           | Web:      www.OpenFOAM.com                      |
|    \\/     M anipulation  |                                                 |
\*---------------------------------------------------------------------------*/
FoamFile
{
    version     2.0;
    format      ascii;
    class       volScalarField;
    location    "50";
    object      p;
}
// * * * * * * * * * * * * * * * * * * * * * * * * * * * * * * * * * * * * * //

dimensions      [0 2 -2 0 0 0 0];


internalField   nonuniform List<scalar> 
9216
(
18667.1829977
18662.0932683
18651.7160303
18636.0164556
18615.0636467
18588.9404999
18557.7501513
18521.6141427
18480.6711127
18435.0747974
18384.992717
18330.6039918
18272.0980279
18209.6722639
18143.5309733
18073.8830631
18000.9410896
17924.9191961
17846.032401
17764.4947274
17680.5187864
17594.3141183
17506.0870654
17416.0393217
17324.3680716
17231.2647269
17136.9152969
17041.4992862
16945.1902557
16848.1548507
16750.5535133
16652.5396082
16554.2602411
16455.855397
16357.4592084
16259.1990031
16161.1959697
16063.5647907
15966.4146333
15869.8484536
15773.9640196
15678.8532592
15584.6032923
15491.2957965
15399.0080328
15307.8122233
15217.776561
15128.9645983
15041.4362343
14955.2471135
14870.4495848
14787.0921129
14705.2202041
14624.8758313
14546.0983244
14468.9238112
14393.3860689
14319.5159839
14247.3423622
14176.8914099
14108.1875022
14041.2526858
13976.1074051
13912.7700295
13851.2575356
13791.5850603
13733.7665396
13677.8142886
13623.739596
13571.552333
13521.2615027
13472.8748792
13426.3995119
13381.8413954
13339.2059284
13298.4976156
13259.720481
13222.8778018
13187.9724772
13155.0067937
13123.9827494
13094.9018516
13067.765397
13042.5743001
13019.3293306
12998.0309727
12978.6796186
12961.2754588
12945.8186319
12932.3091421
12920.7469607
12911.1319552
12903.4639112
12897.742281
12893.9687933
12892.116814
18672.1939865
18667.0852087
18656.6818221
18640.9266724
18619.8970628
18593.6784509
18562.3755588
18526.1114467
18485.0261813
18439.2750919
18389.0272085
18334.4633158
18275.7743302
18213.1593226
18146.8239786
18076.9787162
18003.8373308
17927.6152957
17848.5286535
17766.7925462
17682.6203797
17596.2225966
17507.8061114
17417.5733168
17325.7217665
17232.4433911
17137.9243946
17042.3446486
16945.8777655
16848.6906369
16750.9436475
16652.7903282
16554.3776854
16455.8460063
16357.3289425
16258.9535276
16160.8408867
16063.1057723
15965.8570834
15869.1977465
15773.225225
15678.031397
15583.7030688
15490.3218616
15397.9647232
15306.7038183
15216.6070327
15127.737864
15040.1559132
14953.9167743
14869.07251
14785.6715399
14703.759097
14623.3771147
14544.5646638
14467.3578379
14391.7901696
14317.8925161
14245.6934533
14175.2191627
14106.4938035
14039.5394019
13974.3762006
13911.0225515
13849.4952432
13789.8093982
13731.9787777
13676.0156845
13621.9312458
13569.7353219
13519.4367675
13471.0433469
13424.5619737
13379.9986334
13337.3586014
13296.6463737
13257.8658633
13221.0203389
13186.1126006
13153.1449266
13122.1192278
13093.0370031
13065.8994738
13040.7075462
13017.4619261
12996.1630895
12976.8113773
12959.4069733
12943.949979
12930.4404005
12918.8782051
12909.2633207
12901.5957123
12895.8753872
12892.1068205
12890.2548626
18682.4402424
18677.2800936
18666.7974358
18650.9232867
18629.7360781
18603.3230212
18571.7911872
18535.2663563
18493.8915132
18447.8251281
18397.2394294
18342.3185024
18283.2564893
18220.2556822
18153.5248032
18083.2772239
18009.7294332
17933.0994684
17853.6056336
17771.465187
17686.8933334
17600.1021764
17511.2999798
17420.6903705
17328.4718439
17234.8371878
17139.9731977
17044.0602855
16947.2723669
16849.776619
16751.7335026
16653.2966357
16554.6129184
16455.8225104
16357.0588997
16258.4490531
16160.1137313
16062.1674234
15964.7186488
15867.870045
15771.7186658
15676.3560757
15581.8686561
15488.3377052
15395.8397439
15304.4466156
15214.2257868
15125.2404425
15037.5497783
14951.2090896
14866.2700514
14782.7808008
14700.7862033
14620.327928
14541.4446994
14464.1723647
14388.544132
14314.5906299
14242.3401312
14171.818606
14103.0499314
14036.0559384
13970.8566077
13907.4701112
13845.9129949
13786.2002156
13728.3453104
13672.3604297
13618.2564942
13566.0432243
13515.7292851
13467.3223129
13420.8290479
13376.2553585
13333.6063628
13292.88645
13254.0993909
13217.248358
13182.3360238
13149.3645801
13118.3358248
13089.2511802
13062.1117686
13036.9184294
13013.6717838
12992.3722508
12973.020101
12955.615472
12940.1584119
12926.6488947
12915.0868571
12905.4722164
12897.8049283
12892.084897
12888.3164163
12886.4595909
18698.0331
18692.8103557
18682.2056556
18666.1483244
18644.7189758
18618.007605
18586.1248408
18549.200578
18507.382306
18460.8333019
18409.730756
18354.2638037
18294.6315878
18231.04131
18163.7063921
18092.8446851
18018.6768396
17941.4247578
17861.3102358
17778.553697
17693.3731256
17605.9830846
17516.5939286
17425.4110865
17332.6345228
17238.4582498
17143.0699999
17046.6509262
16949.3754452
16851.411087
16752.9184699
16654.0512636
16554.9562609
16455.7734441
16356.6360217
16257.6706617
16158.9976886
16060.7311453
15962.9790375
15865.843497
15769.4210148
15673.8026144
15579.074092
15485.3161923
15392.6048482
15301.0113536
15210.6025979
15121.4412321
15033.5858945
14947.0913691
14862.0087994
14778.3858377
14696.2668475
14615.6930415
14536.7026728
14459.3311621
14383.6112765
14309.5732477
14237.2449377
14166.651948
14097.8177743
14030.763906
13965.5099704
13902.0738238
13840.4716851
13780.71822
13722.8266638
13666.8088987
13612.6755674
13560.4361442
13510.0990391
13461.6716624
13415.1605212
13370.5712779
13327.9088382
13287.1774043
13248.3805548
13211.5212935
13176.6021204
13143.6250762
13112.5918058
13083.5035976
13056.3614399
13031.1660556
13007.9179504
12986.617444
12967.2647108
12949.8598065
12934.4027028
12920.8933102
12909.331508
12899.7171643
12892.0501787
12886.3303454
12882.5618351
12880.7038357
18719.028493
18713.7239612
18702.9534333
18686.6468341
18664.8881071
18637.7712218
18605.4117236
18567.9451547
18525.5251994
18478.321724
18426.5187309
18370.3122564
18309.9082846
18245.5206963
18177.3693156
18105.6780548
18030.6732081
17952.5818777
17871.6305717
17788.0439455
17702.0437153
17613.847708
17523.6690717
17431.7156041
17338.1892221
17243.2855262
17147.1934851
17050.095191
16952.1657135
16853.573003
16754.4778735
16655.0340158
16555.388071
16455.6797631
16356.0418958
16256.6006634
16157.4758269
16058.7808036
15960.6229153
15863.1035863
15766.3185623
15670.3581154
15575.3072691
15481.2460031
15388.2494755
15296.3882231
15205.728376
15116.3318503
15028.2565531
14941.5565643
14856.2823315
14772.4808401
14690.1957962
14609.4677856
14530.3344446
14452.8306076
14376.9884659
14302.8377047
14230.4056504
14159.7173969
14090.7959426
14023.6623067
13958.3356558
13894.8334114
13833.1713667
13773.3637856
13715.4235107
13659.3620543
13605.1896977
13552.9155748
13502.5477638
13454.0933637
13407.5585778
13362.9487843
13320.2686122
13279.5220057
13240.7122933
13203.8422457
13168.9141382
13135.9298033
13104.8906859
13075.7978905
13048.6522299
13023.4542664
13000.2043549
12978.9026781
12959.5492834
12942.1441133
12926.687036
12913.1778716
12901.6164176
12892.0024669
12884.3358445
12878.6162499
12874.8477812
12872.9895281
18745.5107037
18740.1026945
18729.1207323
18712.4959301
18690.3167339
18662.6824078
18629.7149357
18591.5572071
18548.3709488
18500.3345538
18447.640826
18390.4946877
18329.1109145
18263.7119376
18194.5257589
18121.7840005
18045.7201185
17966.5677832
17884.5594424
17799.9250563
17712.891011
17623.6791908
17532.5062105
17439.5827833
17345.1132237
17249.2950607
17152.3187585
17054.3675227
16955.6171891
16856.2361751
16756.3854935
16656.2188083
16555.8825345
16455.5160248
16355.2515445
16255.2146466
16155.5243579
16056.293284
15957.6278747
15859.6286432
15762.3903906
15666.0024281
15570.5488046
15476.1085257
15382.7557759
15290.5601307
15199.5867691
15109.8966758
15021.5468434
14934.5904619
14849.0771092
14765.0529285
14682.560806
14601.6405363
14522.3289869
14444.6602527
14368.6658079
14294.3746488
14221.8134349
14151.0066204
14081.976585
14014.743755
13949.3267242
13885.7423657
13824.0059434
13764.1312149
13706.1305344
13650.0149476
13595.7942863
13543.4772557
13493.0715213
13444.5837888
13398.0198843
13353.384827
13310.6829024
13269.9177288
13231.0923233
13194.2091628
13159.2702431
13126.2771336
13095.2310308
13066.1328063
13038.9830548
13013.7821361
12990.5302165
12969.2273059
12949.8732928
12932.4679759
12917.0110936
12903.5023501
12891.9414394
12882.3280625
12874.6619607
12868.9427504
12865.1744904
12863.3163399
18777.5861648
18772.0511438
18760.8093814
18743.7934508
18721.0975164
18692.8275869
18659.1137864
18620.1082541
18575.9828088
18526.9265099
18473.1431365
18414.8486527
18352.2687214
18285.6363206
18215.1895019
18141.1693217
18063.8179657
17983.377073
17900.0862678
17814.1818883
17725.8959096
17635.455045
17543.0800133
17448.9849551
17353.3769853
17256.4558614
17158.4137582
17059.4351296
16959.6966487
16859.3672115
16758.6079949
16657.5725585
16556.4069831
16455.2501106
16354.2335148
16253.48192
16153.1134249
16053.2396228
15953.9658854
15855.391602
15757.6104157
15660.7104614
15564.7746006
15469.8806524
15376.1016209
15283.5059144
15192.1575624
15102.1164226
15013.4383842
14926.1755628
14840.3764891
14756.086291
14673.3468688
14592.1970638
14512.6728211
14434.8073449
14358.6312493
14284.1727016
14211.457562
14140.5095151
14071.3501992
14003.9993279
13938.4748085
13874.7928548
13812.9680966
13753.0136827
13694.9413823
13638.7616801
13584.4838695
13532.1161397
13481.665662
13433.1386694
13386.5405356
13341.8758482
13299.1484806
13258.3616592
13219.5180281
13182.6197103
13147.6683664
13114.6652495
13083.6112576
13054.5069827
13027.3527571
13002.148697
12978.8947423
12957.5906946
12938.2362513
12920.8310378
12905.3746361
12891.8666108
12880.3065326
12870.6939942
12863.0286451
12857.3100208
12853.5421451
12851.6842726
18815.3854095
18809.6979947
18798.1445945
18780.6595199
18757.3440014
18728.3124275
18693.7049931
18653.6852423
18608.4373953
18558.1635693
18503.0809289
18443.4188475
18379.4161535
18311.3185189
18239.376035
18163.8410043
18084.9659663
18003.0019623
17918.1970381
17830.7949741
17741.0342292
17649.1470815
17555.3589474
17459.8878589
17362.9440802
17264.7298454
17165.4392006
17065.2579328
16964.3635737
16862.9254637
16761.104866
16659.0551197
16556.921827
16454.8431447
16352.949779
16251.3654106
16150.2069933
16049.5848875
15949.6031632
15850.3598585
15751.9472328
15654.4520183
15557.9556678
15462.5345946
15368.2604079
15275.20014
15183.416467
15092.9679216
15003.9090985
14916.2908522
14830.1604879
14745.561944
14662.5359687
14581.1202885
14501.349771
14423.2565803
14346.8703268
14272.2182106
14199.3251594
14128.2139604
14058.9053875
13991.4183231
13925.7698746
13861.9754873
13800.0490518
13740.0030072
13681.848441
13625.5951839
13571.2519016
13518.8261821
13468.3246202
13419.7528977
13373.115861
13328.4175941
13285.6614903
13244.8503182
13205.986287
13169.0711069
13134.1060473
13101.0919921
13070.029491
13040.9188093
13013.7599736
12988.552815
12965.2970092
12943.9921144
12924.6376049
12907.2329034
12891.7774093
12878.2705246
12866.7116767
12857.1003355
12849.4360475
12843.7182601
12839.9509585
12838.0934886
18859.0648558
18853.1975289
18841.2763805
18823.2378294
18799.1917262
18769.2627263
18733.6033224
18692.3909402
18645.8248365
18594.1228943
18537.5183655
18476.2566607
18410.5922716
18340.7858912
18267.101777
18189.8053866
18109.1612988
18025.4314196
17938.8734643
17849.7397005
17758.2759286
17664.7206797
17569.3046031
17472.2500228
17373.7706359
17274.0713354
17173.3481341
17071.7881748
16969.5698093
16866.8627341
16763.8281696
16660.6190728
16557.380383
16454.249355
16351.3556251
16248.821581
16146.7627895
16045.2881362
15944.5001456
15844.4952618
15745.3641194
15647.1918116
15550.0581495
15454.0379137
15359.2010979
15265.6131436
15173.3351657
15082.4241706
14992.9332644
14904.9118532
14818.4058359
14733.4577877
14650.1071371
14568.3903349
14488.3410164
14409.9901567
14333.3662197
14258.4953004
14185.4012621
14114.1058673
14044.6289038
13976.9883051
13911.2002665
13847.2793559
13785.2386209
13725.0896909
13666.8428758
13610.50726
13556.0907931
13503.6003768
13453.0419484
13404.4205603
13357.740457
13313.0051479
13270.2174776
13229.3796925
13190.4935049
13153.5601534
13118.5804608
13085.5548886
13054.4835892
13025.3664542
12998.2031606
12972.9932138
12949.7359877
12928.4307617
12909.0767553
12891.6731593
12876.2191645
12862.7139874
12851.1568932
12841.5472117
12833.8843744
12828.1677328
12824.4012221
12822.5442724
18908.8089239
18902.7316065
18890.3813844
18871.6972928
18846.799631
18815.8255405
18778.9424202
18736.3444594
18688.2489963
18634.8927792
18576.5282068
18513.4196675
18445.840076
18374.0676797
18298.383183
18219.0672126
18136.3981321
18050.6501968
17962.0920306
17870.9853991
17777.5842499
17682.1339883
17584.8709578
17486.0220953
17385.8047332
17284.4265245
17182.0854664
17078.9700056
16975.2592064
16871.1229681
16766.722281
16662.2095054
16557.7286914
16453.4159271
16349.3995388
16245.8003363
16142.7322304
16040.3023661
15938.6114576
15837.7540933
15737.8190277
15638.8894645
15541.0433305
15444.3535379
15348.8882369
15254.7110576
15161.8813421
15070.4543656
14980.4815489
14892.0106609
14805.0860123
14719.7486407
14636.0364876
14553.9845671
14473.625128
14394.9878083
14318.0997829
14242.9859054
14169.6688436
14098.1692095
14028.5056836
13960.6951346
13894.7527337
13830.6920646
13768.5252287
13708.2629469
13649.9146561
13593.4886031
13538.991934
13486.43078
13435.8103402
13387.1349604
13340.4082092
13295.6329504
13252.8114126
13211.9452553
13173.0356326
13136.0832529
13101.0884371
13068.0511723
13036.9711636
13007.8478826
12980.6806132
12955.4684946
12932.2105607
12910.9057778
12891.5530784
12874.1513926
12858.6996768
12845.1969392
12833.6422624
12824.0348209
12816.3739171
12810.658794
12806.8933295
12805.0370307
18964.8325748
18958.5120901
18945.6651345
18926.2340388
18900.3517388
18868.170509
18829.8757483
18785.6818062
18735.8276568
18680.5724955
18620.191362
18554.9709356
18485.2056176
18411.1939789
18333.2356187
18251.6284534
18166.6664304
18078.6376481
17987.8228508
17894.4942592
17798.9146989
17701.3369839
17602.0035165
17501.1460688
17398.9857112
17295.7328611
17191.587425
17086.7390148
16981.3672184
16875.6419115
16769.7235986
16663.7637675
16557.9053119
16452.2828511
16347.0230807
16242.2449286
16138.0603532
16034.5744653
15931.885881
15830.0870526
15729.2645819
15629.4995202
15530.8676555
15433.4397871
15337.2819863
15242.4558465
15149.0187196
15057.0239423
14966.5210511
14877.5559871
14790.1712904
14704.4062861
14620.2972614
14537.8776336
14457.1781113
14378.2268481
14301.0495891
14225.669811
14152.1088564
14080.386062
14010.5188818
13942.5230046
13876.4124674
13812.1997634
13749.8959465
13689.5107305
13631.0525861
13574.5288318
13519.9457236
13467.3085388
13416.6216586
13367.8886456
13321.1123191
13276.2948273
13233.4377154
13192.5419921
13153.6081921
13116.6364361
13081.6264877
13048.5778072
13017.4896036
12988.360882
12961.1904901
12935.9771598
12912.7195481
12891.4162731
12872.0659486
12854.6672154
12839.2187693
12825.7193874
12814.1679504
12804.5634594
12796.9050742
12791.1919196
12787.4278037
12785.5723064
19027.3843739
19020.783795
19007.3647613
18987.073806
18960.0591452
18926.4913837
18886.5776347
18840.5564515
18788.6926352
18731.2720019
18668.5962494
18600.9781006
18528.7368567
18452.1944399
18371.6719686
18287.4868708
18199.9505151
18109.3663243
18016.0283218
17920.220059
17822.2138682
17722.2703913
17620.638334
17517.5544031
17413.2433899
17307.9183655
17201.7809625
17095.0217186
16987.8204646
16880.3467413
16772.7602344
16665.2112003
16557.841122
16450.7827852
16344.1607651
16238.0918622
16132.6857465
16028.0451671
15924.2663291
15821.4392481
15719.6480839
15618.971458
15519.4827546
15421.250406
15324.3381627
15228.8053495
15134.7071078
15042.094625
14951.0153525
14861.5132115
14773.6287888
14687.3995226
14602.8598784
14520.0415175
14438.9734558
14359.6822168
14282.1919758
14206.5246991
14132.7002758
14060.7366445
13990.6499144
13922.4544813
13856.1631392
13791.7871863
13729.3365283
13668.8197759
13610.2443402
13553.6165229
13498.9416036
13446.2239239
13395.4669678
13346.6734391
13299.8453351
13254.9840186
13212.0902854
13171.1644296
13132.206306
13095.2153897
13060.1908324
13027.131516
12996.0361041
12966.9030896
12939.7308401
12914.5176408
12891.2617336
12869.961354
12850.6147657
12833.2202909
12817.7763395
12804.2814343
12792.7342338
12783.1335497
12775.4783844
12769.7677314
12766.0053215
12764.1508036
19096.750189
19089.8280413
19075.7522668
19054.4747932
19026.1623521
18991.0077832
18949.2444203
18901.1398827
18846.9897822
18787.1114536
18721.8378961
18651.512142
18576.4821988
18497.0966473
18413.7009246
18326.6342779
18236.2273468
18142.8003138
18046.6615525
17948.106701
17847.4180901
17744.8644616
17640.7009177
17535.169051
17428.4972131
17320.9008836
17212.5831124
17103.7350097
16994.5362652
16885.1556817
16775.7517112
16666.4729461
16557.4591669
16448.8408533
16340.7399223
16233.2708
16126.5404875
16020.6490121
15915.6898299
15811.7501976
15708.9115272
15607.2497194
15506.8354783
15407.7346068
15310.0082853
15213.7133337
15118.9024584
15025.6244845
14933.9245758
14843.8444415
14755.4225318
14668.6942236
14583.6919954
14500.4455937
14418.9821912
14339.3265368
14261.5010985
14185.5261999
14111.4201504
14039.1993694
13968.8785052
13900.4705492
13833.986945
13769.4376934
13706.8314526
13646.1756354
13587.4765019
13530.7392486
13475.9680949
13423.166365
13372.336568
13323.4804735
13276.5991855
13231.6932124
13188.7625343
13147.806668
13108.8247284
13071.8154876
13036.7774311
13003.7088108
12972.6076962
12943.4720221
12916.2996333
12891.0883275
12867.8358945
12846.5401529
12827.1989841
12809.8103637
12794.3723893
12780.8833067
12769.3415325
12759.7456708
12752.0945527
12746.3870303
12742.6267453
12740.7734133
19173.2576535
19165.9669439
19151.1384422
19128.7310432
19098.9339893
19061.9671756
19018.0956794
18967.622086
18910.8787902
18848.2204276
18780.0166887
18706.6457706
18628.4886284
18545.9240977
18459.3248947
18369.0544484
18275.4644896
18178.8933039
18079.6645486
17978.08654
17874.4519174
17769.0376068
17662.1050146
17553.9003909
17444.6553185
17334.5872837
17223.9003027
17112.7855759
17001.4221543
16889.9776019
16778.6086442
16667.4617758
16556.6743822
16446.3743319
16336.6805369
16227.7044698
16119.5500874
16012.3143221
15906.0875207
15800.9538407
15696.9916238
15594.2737462
15492.8679448
15392.8371228
15294.2396354
15197.1295567
15101.5569306
15007.5680053
14915.2054535
14824.5085798
14735.5135159
14648.2534041
14562.7585713
14479.0566931
14397.1729497
14317.1301733
14238.9489891
14162.6479484
14088.2436566
14015.750895
13945.182737
13876.5506603
13809.8646531
13745.1333172
13682.3639669
13621.5627231
13562.7346051
13505.8836181
13451.0128374
13398.1244902
13347.2200334
13298.3002288
13251.3652156
13206.4145799
13163.447421
13122.4624159
13083.4578799
13046.4318253
13011.3820173
12978.3060268
12947.2012807
12918.0651097
12890.8947933
12865.6876016
12842.440835
12821.1518607
12801.8181466
12784.4372925
12769.0070582
12755.5253894
12743.9904404
12734.4005915
12726.7544875
12721.0508261
12717.2931526
12715.4412476
19257.2815583
19249.5685751
19233.8775631
19210.176447
19178.6819684
19139.6470902
19093.3754697
19040.2118815
18980.5327095
18914.736751
18843.2366578
18766.4513176
18684.7993397
18598.6936927
18508.5374594
18414.7206164
18317.6177152
18217.5863301
18114.9661362
18010.0784938
17903.2264258
17794.6948931
17684.7512873
17573.6460756
17461.6135457
17348.8726102
17235.6276395
17122.0692994
17008.3753769
16894.7115843
16781.2323271
16668.0814694
16555.3933781
16443.2928482
16331.8952513
16221.3086301
16111.6334678
16002.9631939
15895.3846614
15788.9785675
15683.8198463
15579.9780329
15477.5176008
15376.498276
15276.975328
15178.9998413
15082.6189678
14987.8761627
14894.8114046
14803.461402
14713.8597867
14626.0372952
14540.0219404
14455.8391731
14373.5120344
14293.0613006
14214.5056205
14137.8616465
14063.1441585
13990.3661832
13919.5391077
13850.6727885
13783.7756556
13718.8548133
13655.9161362
13594.964362
13536.0031808
13479.0353213
13424.0626333
13371.0861678
13320.1062537
13271.122572
13224.1342271
13179.1398153
13136.1374907
13095.1250284
13056.099885
13019.059257
12984.0001354
12950.919359
12919.8136642
12890.6797322
12863.5142341
12838.3138728
12815.075422
12793.7957633
12774.4719195
12757.1010859
12741.6806587
12728.2082604
12716.6817635
12707.0993059
12699.4593326
12693.7603767
12690.0058751
12688.1556731
19349.250377
19341.0532116
19324.3730226
19299.1894833
19265.7531194
19224.3575441
19175.3535433
19119.1369973
19056.1370323
18986.804777
18911.6031446
18830.9979829
18745.4507398
18655.4126441
18561.3202962
18463.5925083
18362.6282043
18258.8051892
18152.4796072
18043.9859308
17933.6373426
17821.7264003
17708.5258913
17594.2898093
17479.2543958
17363.6392071
17247.6481775
17131.4706559
17015.2824036
16899.2465452
16783.5144509
16668.2267814
16553.5143896
16439.4980599
16326.2892277
16213.9920103
16102.7029413
15992.5115089
15883.5006641
15775.7472654
15669.322487
15564.2921957
15460.7172977
15358.6540582
15258.1543973
15159.2661632
15062.0333858
14966.4965116
14872.6926231
14780.6556426
14690.416523
14602.0034265
14515.4418926
14430.7549959
14347.9634952
14267.0859745
14188.1389768
14111.137131
14036.0932733
13963.0185623
13891.9225899
13822.813487
13755.698025
13690.5817139
13627.4688954
13566.3628344
13507.2658055
13450.1791773
13395.1034936
13342.0385519
13290.9834784
13241.9368013
13194.896521
13149.8601775
13106.8249156
13065.7875476
13026.7446129
12989.6924357
12954.6271801
12921.5449018
12890.4415988
12861.3132577
12834.1558986
12808.9656173
12785.7386239
12764.4712799
12745.1601315
12727.8019411
12712.3937152
12698.9327305
12687.4165566
12677.8430732
12670.2105103
12664.5172232
12660.7665336
12658.9183512
19449.654184
19440.9008933
19423.0841066
19396.1988253
19360.537361
19316.4436493
19264.3264056
19204.6437189
19137.8881479
19064.5729058
18985.2196536
18900.3482675
18810.4686763
18716.074671
18617.6394794
18515.6128409
18410.4193047
18302.4574907
18192.1000798
18079.6943375
17965.5630094
17850.0054617
17733.2989688
17615.7000727
17497.4459618
17378.7558304
17259.8321916
17140.8621278
17022.0184668
16903.4608767
16785.3367836
16667.7835336
16550.9273177
16434.8836483
16319.760122
16205.6563028
16092.6642271
15980.8689695
15870.3491486
15761.1773881
15653.4207382
15547.1410614
15442.395386
15339.2362296
15237.7118966
15137.8667523
15039.7414745
14943.3732872
14848.7961768
14756.0410921
14665.1361316
14576.106718
14488.9757615
14403.7638134
14320.4892104
14239.1682119
14159.8151286
14082.4424458
14007.0609408
13933.6797939
13862.306696
13792.9479509
13725.6085737
13660.2923855
13597.002105
13535.7394362
13476.5051537
13419.2991845
13364.1206877
13310.9681307
13259.839364
13210.7316921
13163.6419429
13118.5665347
13075.5015398
13034.4427468
12995.38572
12958.3258561
12923.2584388
12890.178691
12859.0818241
12829.963085
12802.8178006
12777.6414198
12754.4295522
12733.1780047
12713.8828158
12696.5402858
12681.1470061
12667.6998841
12656.1961672
12646.6334582
12639.0097581
12633.3232353
12629.5770833
12627.7312775
19559.0542819
19549.6606317
19530.5341735
19501.6899843
19463.472449
19416.2883215
19360.6180484
19296.9958678
19225.9908932
19148.1900718
19064.1836339
18974.5533703
18879.8637119
18780.6553553
18677.4410616
18570.7032233
18460.8928084
18348.429333
18233.7015727
18117.0687761
17998.8621968
17879.3868064
17758.923085
17637.7288189
17516.0408535
17394.0767713
17272.0364724
17150.1036506
17028.4471585
16907.2222614
16786.5717579
16666.6281553
16547.512523
16429.3349346
16312.1979758
16196.1961475
16081.4164836
15967.9391613
15855.8380229
15745.1810501
15636.0307961
15528.4447774
15422.4758301
15318.1724356
15215.5790166
15114.7362096
15015.6811132
14918.4475179
14823.0661174
14729.5647041
14637.9683509
14548.2995801
14460.5785214
14374.8230601
14291.048976
14209.2700754
14129.498315
14051.7439204
13976.0154984
13902.3201447
13830.6635468
13761.0500831
13693.4829172
13627.9640905
13564.4946099
13503.0745335
13443.7030533
13386.3785748
13331.0987952
13277.8607776
13226.661024
13177.4955458
13130.3599314
13085.249412
13042.1589254
13001.0831765
12962.0166967
12924.9539001
12889.8891376
12856.816749
12825.7311118
12796.6266882
12769.4980697
12744.3400183
12721.1475062
12699.9157518
12680.640254
12663.3168227
12647.9416079
12634.5111249
12623.022278
12613.4723772
12605.8591795
12600.1806524
12596.4398548
12594.5968292
19678.0949275
19667.9616589
19647.3205784
19616.2131931
19575.0493319
19524.3149511
19464.5800793
19396.4727565
19320.6548161
19237.8008299
19148.5808679
19053.647281
18953.6252395
18849.1065068
18740.6458386
18628.7594086
18513.9247265
18396.5816033
18277.1338098
18155.9511578
18033.3718047
17909.7046375
17785.2316398
17660.210175
17534.8751472
17409.4410166
17284.1036601
17159.0420754
17034.4199355
16910.3869853
16787.0804897
16664.627321
16543.1422687
16422.7293297
16303.4853727
16185.4992382
16068.852409
15953.6196604
15839.8695999
15727.6651511
15617.0639913
15508.1189456
15400.8783437
15295.3863425
15191.6832196
15089.8056402
14989.7869006
14891.6571514
14795.4436029
14701.1707132
14608.8603639
14518.5320219
14430.2028907
14343.8880524
14259.6006003
14177.3517644
14097.1510305
14019.0062525
13942.9237603
13868.9084622
13796.9639441
13727.0925636
13659.2955418
13593.5730514
13529.9243022
13468.3476233
13408.8405438
13351.3998702
13296.0217619
13242.7018047
13191.4350817
13142.2162421
13095.0395686
13049.8990418
13006.7884026
12965.7012133
12926.6309151
12889.5708849
12854.5144886
12821.4551328
12790.3863138
12761.3016644
12734.1949982
12709.0603511
12685.8920206
12664.6846024
12645.4330243
12628.1325769
12612.7789429
12599.3682226
12587.8969571
12578.3621448
12570.7612849
12565.0921348
12561.3576056
12559.5178099
19807.5176041
19796.5272866
19774.1267945
19740.3927848
19695.8181044
19640.9897804
19576.5908189
19503.3655958
19422.088617
19333.5385501
19238.4780504
19137.6392498
19031.7142073
18921.349386
18807.1432103
18689.6458536
18569.360556
18446.7459222
18322.2187903
18196.1573764
18068.9044915
17940.7706948
17812.0373009
17682.9591899
17553.767399
17424.6714865
17295.8616728
17167.5107671
17039.775891
16912.7998848
16786.7144011
16661.6389658
16537.6801394
16414.9362098
16293.4974794
16173.4464153
16054.8583622
15937.8021715
15822.340747
15708.5315323
15596.426948
15486.0747836
15377.5185498
15270.7977954
15165.948394
15063.002803
14961.9902996
14862.9371953
14765.8670322
14670.8007641
14577.7569221
14486.7517695
14397.7994448
14310.912096
14226.1000061
14143.3717121
14062.7341168
13984.1925964
13907.7511014
13833.4122551
13761.177447
13691.0469232
13623.0198739
13557.0945181
13493.2681854
13431.5373958
13371.8979374
13314.3449416
13258.8729568
13205.4760197
13154.1477249
13104.8812925
13057.669634
13012.5054158
12969.3811217
12928.2891117
12889.2216809
12852.1711142
12817.1297406
12784.0899839
12753.0444121
12723.9857836
12696.9070919
12671.8016072
12648.6629154
12627.4849551
12608.2620512
12590.9889465
12575.6608302
12562.2733641
12550.8227055
12541.3055252
12533.7190493
12528.0608109
12524.3335668
12522.497503
19948.1783044
19936.1921025
19911.7373481
19874.9383781
19826.3944707
19766.8235427
19697.0526875
19617.971589
19530.4920251
19435.5160774
19333.9130526
19226.5042606
19114.0542063
18997.2666412
18876.7840727
18753.1895825
18627.0100707
18498.7202849
18368.7471882
18237.4743686
18105.2463021
17972.3723615
17839.1305126
17705.7706779
17572.517766
17439.5743836
17307.1232498
17175.3293394
17044.3417761
16914.295477
16785.3146343
16657.5103067
16530.9806388
16405.8169017
16282.1021406
16159.911811
16039.3145333
15920.3727109
15803.1430746
15687.6771671
15574.0217749
15462.2193124
15352.3081652
15244.3229974
15138.2950278
15034.2522783
14932.2197986
14832.2198701
14734.272192
14638.394051
14544.6004779
14452.904392
14363.3167355
14275.846599
14190.5013386
14107.2866874
14026.2068604
13947.2646545
13870.4615449
13795.7977763
13723.272452
13652.8836197
13584.6283542
13518.5028387
13454.502443
13392.6218002
13332.8548819
13275.1950709
13219.6352324
13166.1677842
13114.7847642
13065.4778973
13018.2386593
12973.0583406
12929.9281068
12888.839058
12849.7822864
12812.7489312
12777.7302326
12744.717582
12713.7025719
12684.6770417
12657.6331227
12632.5632794
12609.4603492
12588.317579
12569.1286593
12551.8877558
12536.5895382
12523.2292064
12511.8025142
12502.3057852
12494.7359588
12489.0903347
12485.3715012
12483.5397228
20101.0681462
20087.9235879
20061.0564268
20020.6582548
19967.466459
19902.3715904
19826.3868223
19740.5845881
19646.0440867
19543.8130215
19434.8822509
19320.1710976
19200.5206822
19076.6928509
18949.3727249
18819.1733938
18686.6417111
18552.264493
18416.4746795
18279.6571972
18142.1543807
18004.2708964
17866.2781528
17728.4182186
17590.9072801
17453.9386807
17317.6855841
17182.3033082
17047.9313151
16914.6955978
16782.7115771
16652.0798376
16522.8899487
16395.2250286
16269.1601427
16144.7630897
16022.0951784
15901.2118406
15782.1631687
15664.9943906
15549.7462895
15436.4555746
15325.1552109
15215.8747123
15108.6404032
15003.4756531
14900.4010874
14799.4347779
14700.5924158
14603.8874692
14509.3313278
14416.9334365
14326.7014188
14238.6411928
14152.7570789
14069.0519032
13987.5270939
13908.1827749
13831.0178542
13756.0301105
13683.216276
13612.572117
13544.0925126
13477.7715318
13413.6025078
13351.5781124
13291.6904271
13233.9310143
13178.2909866
13124.7610742
13073.3316919
13023.9930038
12976.7349872
12931.5474944
12888.4203134
12847.3432264
12808.3060667
12771.2987745
12736.3114488
12703.3343999
12672.3581971