/*--------------------------------*- C++ -*----------------------------------*\
| =========                 |                                                 |
| \\      /  F ield         | OpenFOAM: The Open Source CFD Toolbox           |
|  \\    /   O peration     | Version:  v1906                                 |
|   \\  /    A nd           | Web:      www.OpenFOAM.com                      |
|    \\/     M anipulation  |                                                 |
\*---------------------------------------------------------------------------*/
FoamFile
{
    version     2.0;
    format      ascii;
    class       volVectorField;
    location    "50";
    object      Ua;
}
// * * * * * * * * * * * * * * * * * * * * * * * * * * * * * * * * * * * * * //

dimensions      [0 1 -1 0 0 0 0];


internalField   nonuniform List<vector> 
9216
(
(-0.0101876227523 0.0104936800885 0)
(-0.00697941050723 0.0235798647224 2.43159493566e-27)
(-0.007343213058 0.0405891981411 -5.83407246128e-31)
(-0.00741220212186 0.0564128305213 0)
(-0.00737413256854 0.0723057498557 0)
(-0.0072565659398 0.0879642196704 0)
(-0.00714105189398 0.103368594805 0)
(-0.00697144009358 0.11842532892 0)
(-0.00683469656416 0.133101416981 0)
(-0.00664807025379 0.147352831553 0)
(-0.0065029912834 0.161151293218 0)
(-0.00622826957924 0.174579685168 0)
(-0.00598278791646 0.187114398087 0)
(-0.00571946350928 0.19941911822 0)
(-0.00549105652186 0.210837306894 0)
(-0.00516599523403 0.221889223455 0)
(-0.00488432042728 0.23208225761 0)
(-0.00460987275207 0.241673192894 0)
(-0.00442698942542 0.250748125017 0)
(-0.00421838513035 0.259252374382 0)
(-0.00407688784309 0.26697735654 0)
(-0.00368227808568 0.274545173306 0)
(-0.00329600268744 0.280834346914 0)
(-0.00295539263696 0.286489092395 0)
(-0.00280788920139 0.29160196857 0)
(-0.0026346436481 0.296021529883 0)
(-0.00250354260283 0.300344459599 0)
(-0.00217985870472 0.3038133804 0)
(-0.00190502715135 0.306663169666 0)
(-0.00152365264497 0.309076354769 0)
(-0.00141849782463 0.310160621722 0)
(-0.000966944584642 0.311836999791 0)
(-0.000272737768091 0.311573443598 0)
(0.000117583698533 0.310102085546 0)
(0.000287559074055 0.30905220284 0)
(0.000567180608119 0.306502210339 0)
(0.000742687110542 0.303959930071 0)
(0.00100643958084 0.300672439544 0)
(0.00121041480583 0.296890237395 0)
(0.00147275293272 0.292609576439 0)
(0.00157587452056 0.287775113458 0)
(0.00178523793413 0.282606221598 0)
(0.00215659254443 0.277047458051 0)
(0.00260445567999 0.270609784057 0)
(0.00278833741422 0.263410416115 0)
(0.00296825755895 0.256202655985 0)
(0.00316571939374 0.248440185844 0)
(0.00340333968431 0.240268538462 0)
(0.00363019200523 0.231652053155 0)
(0.00385958071623 0.222656366414 0)
(0.00402411929687 0.213284403901 0)
(0.00417702978494 0.203698105259 0)
(0.00432456403934 0.193865173267 0)
(0.00440407616343 0.183804298041 0)
(0.00438332028783 0.17373176819 0)
(0.00437159095059 0.163642584061 0)
(0.00441536944999 0.153623759332 0)
(0.00450085223141 0.143453171966 0)
(0.00452804518384 0.133209205362 0)
(0.00442072342299 0.123058487345 0)
(0.00427704989739 0.11311732211 0)
(0.00408081761764 0.103602738513 0)
(0.00386092694556 0.0945477976647 0)
(0.00363991061609 0.0859974062389 0)
(0.003515016586 0.0779051537478 0)
(0.00336248533753 0.0701865708442 0)
(0.00313766503349 0.0629168404697 0)
(0.00279955112014 0.0560179355693 0)
(0.00255548940311 0.0500492475821 0)
(0.00241238531571 0.0445641362245 0)
(0.0022953242515 0.0394353189386 0)
(0.00210485295113 0.0348717589527 0)
(0.00189224008421 0.0307162890444 0)
(0.001631188411 0.0269858151081 0)
(0.00145615041533 0.0237361381623 0)
(0.00125613190228 0.0209050990114 0)
(0.00105554957718 0.0184426685237 0)
(0.000880233932238 0.0163417304917 0)
(0.000801475277664 0.0145896581667 0)
(0.000759837444614 0.0130681883341 0)
(0.000704459035816 0.0115758428703 0)
(0.000597453663013 0.0102067419895 0)
(0.000478795971833 0.0090176989614 0)
(0.00042469424928 0.00814055465786 0)
(0.000419971626933 0.00734409433167 0)
(0.000380051015113 0.0064457352987 0)
(0.000307018279362 0.00565367187603 0)
(0.000231632341118 0.0051224077343 0)
(0.000250337746087 0.00475691843385 0)
(0.000300495856894 0.00417946132051 0)
(0.000293382741973 0.00360056611269 0)
(0.000265685594596 0.00295517331401 0)
(0.000288533489131 0.00229789493347 0)
(0.000295578700657 0.00163897280916 0)
(0.000276401050291 0.00091491169598 0)
(0.000242653449647 0.000272701758421 0)
(-0.0229841657597 0.00728503309362 0)
(-0.0236309700348 0.0244727851344 0)
(-0.0240458019095 0.0425057213687 -2.4952983261e-27)
(-0.0239242648001 0.0598518624886 0)
(-0.0236515160421 0.0769034312915 0)
(-0.0232359505627 0.0936887662896 0)
(-0.0227730936685 0.110122039352 0)
(-0.0221913762278 0.1262540236 0)
(-0.0215867823183 0.141881099603 0)
(-0.0208691052792 0.157045185066 0)
(-0.0201887583644 0.171675425704 0)
(-0.0193414902144 0.185726072076 0)
(-0.0185305503347 0.199373133489 0)
(-0.0175052428509 0.212407599447 0)
(-0.0165833180332 0.224621732636 0)
(-0.0155977762692 0.236409418412 0)
(-0.0145825903269 0.247468185261 0)
(-0.0136151176502 0.25794073621 0)
(-0.0127693837293 0.267571748331 0)
(-0.011792063768 0.276790216134 0)
(-0.0109760405264 0.284483348504 0)
(-0.00996283827297 0.292160377073 0)
(-0.00882222744159 0.299040457309 0)
(-0.00771471194147 0.305384018265 0)
(-0.00686317436032 0.310894557184 0)
(-0.00597142226435 0.315599048542 0)
(-0.00526007392568 0.319586138626 0)
(-0.00437615013981 0.323035100563 0)
(-0.00367018638791 0.325817241899 0)
(-0.00263440199233 0.328504186606 0)
(-0.00176226385717 0.330288489429 0)
(-0.000355536840461 0.330892378448 0)
(0.00120449931172 0.331124518201 0)
(0.00221838994181 0.330857230629 0)
(0.00299683011321 0.329892006048 0)
(0.00391095315281 0.328131384532 0)
(0.00455685344282 0.325494671852 0)
(0.00537745136113 0.322680034487 0)
(0.00611411672384 0.318655081725 0)
(0.0069683024761 0.314545070047 0)
(0.00764047450444 0.309290332075 0)
(0.00840875915433 0.303468680932 0)
(0.00917406396434 0.296912706379 0)
(0.0101980856877 0.29067044868 0)
(0.0109166619309 0.28336197605 0)
(0.0115026348147 0.275651662443 0)
(0.0120891087645 0.267407270916 0)
(0.0127186240373 0.258649920199 0)
(0.0133888818704 0.249405885611 0)
(0.0138567158232 0.239681595666 0)
(0.0141592900399 0.229685420934 0)
(0.0144773473321 0.219516513768 0)
(0.0147146656621 0.209034112778 0)
(0.0148639542108 0.198695693827 0)
(0.0149338161263 0.188116978472 0)
(0.0148933663443 0.177220578547 0)
(0.0148489426273 0.166555233369 0)
(0.0148011997741 0.155787923814 0)
(0.0148462495175 0.14565073376 0)
(0.0147366684036 0.135146533375 0)
(0.0143699717151 0.124661576823 0)
(0.0137840016398 0.11444906217 0)
(0.0131291301825 0.104766181956 0)
(0.0123749619769 0.095305501397 0)
(0.0117126426745 0.0864810351805 0)
(0.0111021762252 0.0783275698649 0)
(0.0104946655123 0.0706823295506 0)
(0.00968442890984 0.0630714915049 0)
(0.0088789552642 0.0557909611141 0)
(0.00803478114057 0.0488580173021 0)
(0.00713790147718 0.0428704372559 0)
(0.00642468479331 0.0379490294317 0)
(0.00576334262045 0.0337081455012 0)
(0.00512595093043 0.0298613837023 0)
(0.00471709415821 0.0264018136409 0)
(0.00413180908919 0.0232109903243 0)
(0.00357137664989 0.0203420691368 0)
(0.00302626007295 0.0175411053454 0)
(0.00252736336352 0.0149985630303 0)
(0.002222876536 0.0132775523025 0)
(0.00206009606857 0.0117653314929 0)
(0.00187892056349 0.0104911644592 0)
(0.00156858065848 0.00905808102903 0)
(0.00135611794902 0.00793547552153 0)
(0.00125710623761 0.006976952758 0)
(0.00114966172882 0.00614556124734 0)
(0.000886250828731 0.005266951559 0)
(0.000683806852555 0.00482700557962 0)
(0.000683920953609 0.0042934673068 0)
(0.000811157318752 0.00399705753995 0)
(0.000859959268342 0.00368272175563 0)
(0.000834376521422 0.00298356399604 0)
(0.000856542449428 0.00234792148512 0)
(0.00099624769112 0.00189066843202 0)
(0.00104658555155 0.00113162494087 0)
(0.00075442176639 0.000281775885494 0)
(-0.0397859067828 0.00771939418131 0)
(-0.041340293242 0.0252143177876 0)
(-0.0411091725624 0.0428695269955 -2.49955671939e-27)
(-0.0406489413919 0.0603207356149 0)
(-0.0401248216864 0.0776017078822 0)
(-0.0394096251504 0.0945347268351 0)
(-0.0385829812146 0.111126494449 0)
(-0.0375976600476 0.127300830356 0)
(-0.0365240935705 0.143048586762 0)
(-0.0353560156337 0.15830249742 0)
(-0.0341497205993 0.173146540057 0)
(-0.0328144568297 0.187282826442 0)
(-0.0314141117994 0.200845383542 0)
(-0.029884717558 0.213618833449 0)
(-0.0284435911369 0.226719279826 0)
(-0.0267336317148 0.238177377382 0)
(-0.0251034492011 0.249474541677 0)
(-0.0234824820235 0.259953321208 0)
(-0.0218938855623 0.269686189821 0)
(-0.020166666493 0.278716393573 0)
(-0.0185483964412 0.28699022965 0)
(-0.0170163412448 0.294491159715 0)
(-0.0153931333112 0.301063951188 0)
(-0.013680547102 0.307609384232 0)
(-0.0121564487688 0.312918339257 0)
(-0.0107163185025 0.318331342838 0)
(-0.00938425458557 0.322946571043 0)
(-0.00788016095269 0.327053442553 0)
(-0.00651155964921 0.329976948536 0)
(-0.00508147873329 0.332096831551 0)
(-0.00334464140189 0.334080467609 0)
(-0.00135790292488 0.334726292211 0)
(0.000576120819845 0.335755233134 0)
(0.00234873222707 0.335359110082 0)
(0.00399632475784 0.334402342204 0)
(0.00571754344165 0.332531058649 0)
(0.00708053113825 0.32980962245 0)
(0.00843259290553 0.326354902995 0)
(0.00983217754493 0.322301757635 0)
(0.0114308796441 0.317615215541 0)
(0.0128452169431 0.312395084828 0)
(0.0139315384614 0.306426712184 0)
(0.0148885916686 0.300875749993 0)
(0.0159959489004 0.293860930526 0)
(0.0173526487571 0.287786122804 0)
(0.0184831954848 0.279926191675 0)
(0.0196695511781 0.272775900973 0)
(0.0207598562743 0.264003492938 0)
(0.0218457859859 0.255512332532 0)
(0.0230612662754 0.24667206406 0)
(0.0238958637651 0.236432978446 0)
(0.0244715408303 0.225938157862 0)
(0.0249375148637 0.215013753455 0)
(0.0251939696603 0.203796759844 0)
(0.0254440355609 0.192457512707 0)
(0.0254741819134 0.181044420181 0)
(0.0252556858909 0.169582528124 0)
(0.0248739556505 0.158290230026 0)
(0.0246694049961 0.14722119038 0)
(0.0246354633527 0.136606752922 0)
(0.0241816506523 0.126004602905 0)
(0.0232945081969 0.115693055408 0)
(0.0221276987584 0.105965603333 0)
(0.0208292620946 0.0969079926537 0)
(0.0195816078812 0.0885473379505 0)
(0.0184957433417 0.0807670524777 0)
(0.0175035921702 0.0735296816058 0)
(0.0164494072102 0.066703635015 0)
(0.0154475846126 0.0604730719581 0)
(0.0144356950636 0.0548472762888 0)
(0.0133441236264 0.0497256732079 0)
(0.0119142605376 0.0435329477788 0)
(0.0108762565419 0.0392741346422 0)
(0.00934164786115 0.0331079477859 0)
(0.00843742887101 0.0294464360383 0)
(0.00744483982326 0.0260722718518 0)
(0.00652247934201 0.0229442501984 0)
(0.00577551697667 0.020217496066 0)
(0.005081942474 0.0178466222853 0)
(0.00438877992443 0.0152650943387 0)
(0.0037807327549 0.0127616260331 0)
(0.00326459875834 0.0108587165913 0)
(0.00275091779358 0.00924248556944 0)
(0.0023822577907 0.00796012866851 0)
(0.00215097418649 0.00691815748514 0)
(0.00192203771134 0.00597110900684 0)
(0.00165208878476 0.00538029397013 0)
(0.00125899604391 0.00439791012849 0)
(0.0010443271834 0.0036942857957 0)
(0.00110360170637 0.0034245268681 0)
(0.00145156515051 0.00356784622746 0)
(0.00131006833192 0.002550118385 0)
(0.00142989431868 0.00219267153186 0)
(0.00156200549428 0.00163958606845 0)
(0.00157631231226 0.000966905490155 0)
(0.00127936906848 0.00027728216352 0)
(-0.0557019427083 0.00794441974151 0)
(-0.058674368602 0.0256644504699 0)
(-0.058298524651 0.0433288809679 2.49768868827e-27)
(-0.0576546194415 0.0609597660852 0)
(-0.0568706552764 0.0784137752266 0)
(-0.0558164382506 0.0955013861735 0)
(-0.0545895968194 0.112248204857 0)
(-0.053198813715 0.128567517954 0)
(-0.0517115429905 0.144552882779 0)
(-0.0500388998828 0.15993280708 0)
(-0.0482266635079 0.174768251682 0)
(-0.0462565809272 0.189001518151 0)
(-0.044315128797 0.202570746121 0)
(-0.0424834493978 0.21598209495 0)
(-0.0402518690746 0.228344264491 0)
(-0.0378524649334 0.240211628339 0)
(-0.035560674997 0.251445703794 0)
(-0.0332439036832 0.261950474688 0)
(-0.0308826893569 0.27171496632 0)
(-0.0285177138662 0.280798917706 0)
(-0.0262275961273 0.28908237626 0)
(-0.0239231390724 0.297028499886 0)
(-0.0217069808046 0.303684540623 0)
(-0.0195692049675 0.31023695554 0)
(-0.0176666371579 0.316266758559 0)
(-0.0157455353901 0.321651369323 0)
(-0.0136514302685 0.326469280695 0)
(-0.0114525951614 0.330016133575 0)
(-0.00918524838953 0.333784712538 0)
(-0.00691811943656 0.335913000882 0)
(-0.00451303267612 0.337434413172 0)
(-0.00194071065455 0.338144994684 0)
(0.000586028935939 0.33821520733 0)
(0.00301867263284 0.337716166243 0)
(0.00539065790702 0.336702133859 0)
(0.00771232870377 0.334708511008 0)
(0.00993873203335 0.33288709917 0)
(0.0122228150708 0.32945891147 0)
(0.0141045936366 0.325703208868 0)
(0.0154600911385 0.321093789439 0)
(0.0170345902189 0.318208967782 0)
(0.0187438699634 0.313332564985 0)
(0.0206692840422 0.308380127495 0)
(0.0226791704756 0.301390651208 0)
(0.0244921868032 0.293940717503 0)
(0.0260119421678 0.285830604486 0)
(0.027661546437 0.277302131579 0)
(0.0292324982044 0.268182213098 0)
(0.0305153990835 0.25866317939 0)
(0.0320123460408 0.248528108224 0)
(0.0336278988935 0.239260669535 0)
(0.0349703829041 0.228429846379 0)
(0.0358558642047 0.217288221898 0)
(0.0362336739624 0.205768391446 0)
(0.0366142811189 0.194154212875 0)
(0.0367419412624 0.182358264212 0)
(0.036524401381 0.170467672987 0)
(0.0360037021791 0.158554617671 0)
(0.0353820515443 0.146560583871 0)
(0.0348959081717 0.13532861849 0)
(0.0341487833645 0.124458039485 0)
(0.0328208766894 0.114031830024 0)
(0.0309299525011 0.104424788621 0)
(0.0288480928858 0.0953520817847 0)
(0.0269014999322 0.086978481227 0)
(0.0251576344229 0.0792520528357 0)
(0.0236234175183 0.0721699912245 0)
(0.0221225278072 0.0655754876874 0)
(0.0206270718421 0.0593343114939 0)
(0.0192234648229 0.0537613796128 0)
(0.0181179243404 0.0487099470422 0)
(0.0171450838603 0.044266692174 0)
(0.0162019679691 0.040221457913 0)
(0.0142780538709 0.034702607965 0)
(0.012551584913 0.0310682459808 0)
(0.0108630294693 0.0275457316943 0)
(0.00958694689174 0.0244203604425 0)
(0.00859295744832 0.0216392162328 0)
(0.00770570146019 0.0190838288275 0)
(0.00697023741765 0.0166527257251 0)
(0.00630440106176 0.0145443283062 0)
(0.00560152456936 0.0126448189024 0)
(0.00459016353657 0.0103169054482 0)
(0.00382815265035 0.00863106584091 0)
(0.00323338910006 0.00710998932814 0)
(0.00281991468078 0.00601954386185 0)
(0.00238399868927 0.00502558356291 0)
(0.00190563116985 0.00396833530852 0)
(0.0017035440911 0.00347093827839 0)
(0.00146992019232 0.00271220743652 0)
(0.00152885803959 0.00228747528185 0)
(0.00191434214748 0.00230316287392 0)
(0.00173000159196 0.00157171812176 0)
(0.00187124709728 0.00115352664502 0)
(0.00210234348446 0.000765048757604 0)
(0.00185067276442 0.00025117315697 0)
(-0.0721095585043 0.00810326299262 0)
(-0.0761458803359 0.0261296287182 0)
(-0.0756725094901 0.0439803433961 0)
(-0.0748655131414 0.0618747232805 0)
(-0.0737888054255 0.0795273243067 0)
(-0.0723935250321 0.0968286696898 0)
(-0.0707792202711 0.113767696942 0)
(-0.0690302874973 0.130387127526 0)
(-0.0670015026967 0.146435176444 0)
(-0.0647696448459 0.161973495052 0)
(-0.06237840334 0.176955174311 0)
(-0.0598937399422 0.191250499509 0)
(-0.0575385133604 0.205385939287 0)
(-0.0548856382968 0.218454957319 0)
(-0.0520135624555 0.230960162715 0)
(-0.0490481164406 0.242872495076 0)
(-0.0460222591413 0.254109803353 0)
(-0.0430170977433 0.264678152814 0)
(-0.0400482001817 0.274481134093 0)
(-0.0370566781295 0.283984503869 0)
(-0.0339837452965 0.292303471208 0)
(-0.0309917823434 0.29979248903 0)
(-0.0283117624233 0.307055461306 0)
(-0.0258291960135 0.313579999532 0)
(-0.0233989786881 0.320138032472 0)
(-0.0207317390682 0.325006143398 0)
(-0.0178395742265 0.330165481723 0)
(-0.0148749323961 0.333694301127 0)
(-0.0118556971775 0.336665799897 0)
(-0.00861663892662 0.338844570548 0)
(-0.00552953146733 0.340431178434 0)
(-0.00254621705891 0.341179126265 0)
(0.000590370668301 0.342218394537 0)
(0.00373361604498 0.341673545839 0)
(0.00689922469324 0.340604105503 0)
(0.00987557360163 0.338599612637 0)
(0.0121865388076 0.335975374964 0)
(0.0145370546554 0.333644245047 0)
(0.0169027782359 0.331992117133 0)
(0.0188237435797 0.328723237055 0)
(0.0210820875613 0.323695508657 0)
(0.0238479955995 0.317908498063 0)
(0.0265988630291 0.311513496216 0)
(0.0291668701055 0.304277236746 0)
(0.0317764526341 0.297987495171 0)
(0.0340798458335 0.289756869012 0)
(0.0364884424509 0.281211301446 0)
(0.0385237708195 0.271884679906 0)
(0.0401664181656 0.262023440951 0)
(0.04179693401 0.251710036994 0)
(0.0434416179058 0.241170874759 0)
(0.0452574611254 0.230103755407 0)
(0.0467496827439 0.219753642719 0)
(0.0474339359639 0.207897167081 0)
(0.0481721761815 0.196110355843 0)
(0.0483400797462 0.183956440713 0)
(0.0481986333587 0.171625594416 0)
(0.0475247179167 0.159323434052 0)
(0.0465170134224 0.146768703703 0)
(0.0458041478715 0.135520629954 0)
(0.0439626528952 0.124152488306 0)
(0.0415824074603 0.113699110659 0)
(0.0387610628319 0.104299239699 0)
(0.0361045820021 0.0953276376915 0)
(0.0336278726 0.0867684509947 0)
(0.0317169774912 0.079309097909 0)
(0.0295843149965 0.0717633249239 0)
(0.0274002099105 0.0644776468495 0)
(0.0256665270446 0.0583747378699 0)
(0.0240254884909 0.0528512000463 0)
(0.0227198719844 0.0477410078191 0)
(0.0210755581303 0.0425542916609 0)
(0.0198778136438 0.0384767753477 0)
(0.0181661602554 0.0342986876576 0)
(0.0161603604027 0.0306374286619 0)
(0.0143220708785 0.0273817664091 0)
(0.0124508679264 0.0235438585057 0)
(0.0110474374328 0.020782704667 0)
(0.00988811769221 0.0181789652407 0)
(0.0090259935788 0.0157483411103 0)
(0.00824716378831 0.0137103405322 0)
(0.00745359447967 0.0119264414062 0)
(0.00613070557054 0.00971325706288 0)
(0.00529546909461 0.0085063100574 0)
(0.00465890994861 0.00729812650078 0)
(0.0041288308653 0.00618439844669 0)
(0.00364512694717 0.00510984287446 0)
(0.00291246825108 0.00390337481616 0)
(0.00221434829962 0.00273125739567 0)
(0.00200591540927 0.00214355732737 0)
(0.00177786139763 0.00152039734632 0)
(0.00200126294764 0.00142841128826 0)
(0.00235635395424 0.00131986482143 0)
(0.00217219628723 0.00079511677987 0)
(0.00225167935181 0.000476351329247 0)
(0.00205543942731 0.000172183179734 0)
(-0.0888415950215 0.00825729793184 0)
(-0.0938805357289 0.0266592917243 0)
(-0.0933108705243 0.0448087726731 0)
(-0.0923428616804 0.0630329859093 0)
(-0.0909352202993 0.0809428132624 0)
(-0.089194499846 0.0985268314423 0)
(-0.0872570977358 0.115815197126 0)
(-0.084987410892 0.132563183252 0)
(-0.082446356221 0.148829211219 0)
(-0.0796730801334 0.164564452796 0)
(-0.0767071672191 0.179664612608 0)
(-0.073771226557 0.19427987791 0)
(-0.0707217236857 0.208377497307 0)
(-0.0672997637308 0.221561244018 0)
(-0.0637995589872 0.234190046149 0)
(-0.0602517057012 0.24622390455 0)
(-0.056619700292 0.25751919317 0)
(-0.0530224581128 0.268487306974 0)
(-0.0493480077413 0.278343847993 0)
(-0.0455689904293 0.287546480079 0)
(-0.0416785330618 0.295791845732 0)
(-0.0382340638719 0.303760199102 0)
(-0.0352433387944 0.310996433466 0)
(-0.0323566083947 0.318024156954 0)
(-0.0290705180435 0.324312315986 0)
(-0.0254874632905 0.32931835825 0)
(-0.0217865307412 0.333683566589 0)
(-0.0178934126668 0.337217815071 0)
(-0.0142397634002 0.340205844636 0)
(-0.0106765179711 0.342404101626 0)
(-0.0070079880018 0.344913298781 0)
(-0.0033475824334 0.345714339304 0)
(0.000567361466846 0.345903493278 0)
(0.00444730163719 0.345467644463 0)
(0.00812738087721 0.344341027932 0)
(0.0113610590713 0.343066158761 0)
(0.0138464663911 0.342736241238 0)
(0.016248201244 0.339277316957 0)
(0.0193163582936 0.33687433478 0)
(0.0229586408284 0.332160595624 0)
(0.0264150219643 0.327200225523 0)
(0.0294665950214 0.321197935203 0)
(0.0328626186705 0.316156397245 0)
(0.0360863890102 0.308782179057 0)
(0.0390722853893 0.301015854808 0)
(0.041904818644 0.292827348004 0)
(0.0446425496351 0.283981408064 0)
(0.0475122495745 0.27598765692 0)
(0.0500183195485 0.265960045727 0)
(0.0521400108898 0.255634315974 0)
(0.0539222395601 0.244854514367 0)
(0.0556465088799 0.233434852491 0)
(0.0574888155726 0.2228952024 0)
(0.0587181808568 0.210830229465 0)
(0.0594369923486 0.198609412971 0)
(0.0599869821969 0.187391894344 0)
(0.0599056183155 0.174492764456 0)
(0.059945920414 0.162983514225 0)
(0.0580738235967 0.150060912173 0)
(0.054394421987 0.137782783026 0)
(0.0519390225276 0.129153839213 0)
(0.049289922791 0.120067245717 0)
(0.046227019151 0.111122718942 0)
(0.0442352768253 0.102249059148 0)
(0.0413568137382 0.0928945300618 0)
(0.0385019452187 0.0833412670948 0)
(0.0368890027279 0.0760987804198 0)
(0.0346345903261 0.0674244053822 0)
(0.0317926569761 0.0603438500468 0)
(0.0294996382137 0.0543910748016 0)
(0.0284081828002 0.0491418859344 0)
(0.0270577684103 0.0446597454313 0)
(0.0255494001454 0.0402584949556 0)
(0.024082435771 0.0360066468805 0)
(0.0213073158875 0.0311749261038 0)
(0.0179355108646 0.0263704163697 0)
(0.0159192608664 0.0234075653391 0)
(0.0144373334999 0.0212407025544 0)
(0.0131569683634 0.0183845073537 0)
(0.0116901818179 0.0151248052959 0)
(0.0100842929237 0.0125794190743 0)
(0.00934101882467 0.0110490347278 0)
(0.00801553118603 0.00937660726753 0)
(0.00636727587085 0.00757998130012 0)
(0.00565627647545 0.00640549525207 0)
(0.00515858517362 0.00536901172589 0)
(0.00428387887015 0.0039997505109 0)
(0.00380827927556 0.00325145849875 0)
(0.00330462571232 0.00243997753705 0)
(0.00286837433361 0.00175028056019 0)
(0.00211774440402 0.000970728520814 0)
(0.00196533545187 0.0006362444678 0)
(0.0023825040092 0.000673376493273 0)
(0.0025083263141 0.000523916422475 0)
(0.00240984350062 0.00027070037754 0)
(0.00224452265056 0.000102272164193 0)
(-0.105945784708 0.00842736063132 0)
(-0.111981703509 0.0272780166068 0)
(-0.111307591648 0.0458217332499 2.5172880049e-27)
(-0.110122128049 0.0644275215126 0)
(-0.108430426152 0.0826938586615 0)
(-0.106422732638 0.100709219864 0)
(-0.10394355387 0.118191137824 0)
(-0.101174410193 0.135212960856 0)
(-0.0981155491385 0.151752189289 0)
(-0.0947547586138 0.167719540413 0)
(-0.0912460285173 0.182988047647 0)
(-0.0878322937298 0.198048843027 0)
(-0.0839714062185 0.212042244084 0)
(-0.0799081127775 0.22542286962 0)
(-0.0758917140296 0.238507581256 0)
(-0.0716339028716 0.250590453499 0)
(-0.067350038726 0.26200378618 0)
(-0.0629589433088 0.272629692845 0)
(-0.0584750737204 0.282511319259 0)
(-0.0539616092152 0.291706670907 0)
(-0.0496394914367 0.299870078865 0)
(-0.0458827191787 0.308353764536 0)
(-0.0424106087873 0.315869276295 0)
(-0.0387328333467 0.322786342724 0)
(-0.0343999299744 0.32841520406 0)
(-0.0299337349482 0.333486546581 0)
(-0.0254845389225 0.337854985039 0)
(-0.0211883375794 0.341375823337 0)
(-0.0170914353132 0.345254675291 0)
(-0.0128846829497 0.347522891766 0)
(-0.00844666998254 0.349198912037 0)
(-0.00381855550191 0.350121455417 0)
(0.000557493984273 0.350211152381 0)
(0.00490228528108 0.350840275964 0)
(0.00862033414315 0.349341151207 0)
(0.0115982010767 0.349490035809 0)
(0.0152449022763 0.348016426021 0)
(0.0193295798778 0.34479370571 0)
(0.023191418692 0.341042950608 0)
(0.0271454800461 0.336287826848 0)
(0.0312812781861 0.332610305077 0)
(0.0350067770713 0.326534042267 0)
(0.0390273275815 0.320186807625 0)
(0.0429483561561 0.31273888105 0)
(0.0466796647595 0.306290446414 0)
(0.0501692607895 0.297760872613 0)
(0.0533623726117 0.28884415484 0)
(0.0563932353156 0.279264862091 0)
(0.0591810928108 0.268950447966 0)
(0.0622339919702 0.259907369996 0)
(0.0644983156738 0.248889612017 0)
(0.0662016363646 0.237217682649 0)
(0.0683646153658 0.226688030909 0)
(0.0698306449402 0.213997961257 0)
(0.0709969626983 0.20287645262 0)
(0.0712386866293 0.189665426765 0)
(0.0723984982836 0.178500325281 0)
(0.0686458536079 0.16470029265 0)
(0.0647234794368 0.154892210708 0)
(0.0623471607191 0.150013230078 0)
(0.0583940041139 0.138030508506 0)
(0.0574154235607 0.131024428562 0)
(0.0545891767143 0.119318804074 0)
(0.0518474125841 0.107997283487 0)
(0.0502639192438 0.0991889103654 0)
(0.0469075047214 0.0879993887385 0)
(0.044013685039 0.0781194738918 0)
(0.0404404665816 0.068010181144 0)
(0.0373744674845 0.0608812859914 0)
(0.0342134654842 0.0538482385152 0)
(0.0322725594462 0.0480639450326 0)
(0.0303340389494 0.0429545379239 0)
(0.0286010711193 0.0384561278383 0)
(0.027180743502 0.0336171823478 0)
(0.024778511371 0.0292261050135 0)
(0.0204908765539 0.0246775906513 0)
(0.0175737584406 0.022410460196 0)
(0.0159936861486 0.020803526736 0)
(0.0158139653305 0.0181471176988 0)
(0.0149966197517 0.0148524854629 0)
(0.0133485714415 0.012388258699 0)
(0.011319269784 0.0100042713308 0)
(0.0100555575085 0.00868279914387 0)
(0.00842851814708 0.00728932051668 0)
(0.00724847252231 0.00594875312714 0)
(0.00649715309852 0.0047081816523 0)
(0.00551816167585 0.00342069739669 0)
(0.00445831995982 0.00221566846782 0)
(0.00398105362364 0.00153660867697 0)
(0.00320543759696 0.000896483842495 0)
(0.00278238042746 0.000511395754557 0)
(0.00213812846823 9.66836716218e-05 0)
(0.00207737420364 1.90703839278e-05 0)
(0.00250889476571 9.11930953687e-05 0)
(0.00241032755373 4.86395501243e-05 0)
(0.00228605563773 3.12167647779e-05 0)
(-0.123492340079 0.00861590067766 0)
(-0.130537821914 0.0279960431865 0)
(-0.129752548156 0.0470303836439 -2.51682116453e-27)
(-0.12834545953 0.0660738386098 0)
(-0.126327351665 0.084758258973 0)
(-0.123814271922 0.103096552813 0)
(-0.120869823765 0.120922410662 0)
(-0.117701031546 0.138393673037 0)
(-0.114073020329 0.155251786758 0)
(-0.110117671206 0.171462048577 0)
(-0.106150192002 0.187208437215 0)
(-0.101908453878 0.202207295554 0)
(-0.0973728842753 0.216372014156 0)
(-0.0928718951644 0.230276394714 0)
(-0.0880021945645 0.24312546969 0)
(-0.0829710897253 0.255297820468 0)
(-0.0779158139947 0.266732485103 0)
(-0.0728125112586 0.277405505376 0)
(-0.0676500938019 0.287365671236 0)
(-0.0624754308045 0.296435102358 0)
(-0.0579077300941 0.305095572514 0)
(-0.0538046839514 0.313387847821 0)
(-0.0494831767134 0.321231143983 0)
(-0.0446277362284 0.327439206054 0)
(-0.0395102039234 0.333210887033 0)
(-0.0343918950143 0.338284664418 0)
(-0.0294935436435 0.342530633382 0)
(-0.0248934161431 0.347052057864 0)
(-0.0199459281855 0.34998543186 0)
(-0.0147763208003 0.352416154885 0)
(-0.00955617387493 0.354085587854 0)
(-0.0046306493299 0.354872460636 0)
(0.000128380506568 0.356192617775 0)
(0.00469557521435 0.355353223879 0)
(0.00839021620692 0.356270721553 0)
(0.0123677215119 0.355397881725 0)
(0.0174899772768 0.352897071591 0)
(0.0223326911154 0.349602108448 0)
(0.0268738423941 0.347212849558 0)
(0.0314032005957 0.34248760029 0)
(0.0363308900418 0.337234005457 0)
(0.0410006555835 0.331252118672 0)
(0.0451670539737 0.324400525084 0)
(0.0495878709805 0.318596112925 0)
(0.0541412891703 0.310343080537 0)
(0.0583843282166 0.301938316826 0)
(0.0618812476817 0.292561028777 0)
(0.0659043550491 0.284367991173 0)
(0.068875218129 0.273894877762 0)
(0.0715824110035 0.262988272799 0)
(0.0747590126147 0.253557088656 0)
(0.0767843241738 0.241300142234 0)
(0.0792649387513 0.230812086684 0)
(0.0810220583565 0.217470567777 0)
(0.0829564866251 0.20609733695 0)
(0.0823068068701 0.1931308256 0)
(0.0778084444255 0.178990198333 0)
(0.0754394785097 0.176704874838 0)
(0.0703652556389 0.165624234104 0)
(0.0680749805624 0.157156259913 0)
(0.0651514460437 0.143744645507 0)
(0.0649397102578 0.135874858576 0)
(0.0629402602327 0.123189124032 0)
(0.0621136997078 0.115461627271 0)
(0.0573380364722 0.102891063702 0)
(0.0570784398764 0.0963693309512 0)
(0.0532521155875 0.0847440548424 0)
(0.0508741315863 0.0770487286202 0)
(0.0453775186066 0.0681742516596 0)
(0.0391897863305 0.0618855654828 0)
(0.0393391526106 0.058224757877 0)
(0.0363668914794 0.0511779601759 0)
(0.0333458809312 0.0457238124696 0)
(0.0312146470864 0.0397907068618 0)
(0.0275967385502 0.0338547834631 0)
(0.0235672169811 0.0291632842567 0)
(0.0172474058602 0.0254761523424 0)
(0.0158953738896 0.0249468016663 0)
(0.0180906112508 0.0211343303286 0)
(0.0166461698101 0.0152877462001 0)
(0.0134961300539 0.0110111349109 0)
(0.0118792024802 0.00931342975297 0)
(0.010598821244 0.00721922429113 0)
(0.00888721246675 0.00603654170519 0)
(0.00870843474288 0.00509381153061 0)
(0.00804457724164 0.00358039444653 0)
(0.00733434711361 0.00249407703736 0)
(0.00594256607373 0.00135754215964 0)
(0.00468275030306 0.000613797650614 0)
(0.00356815360515 3.90226804926e-05 0)
(0.00288625952312 -0.000276055126199 0)
(0.00246469163341 -0.000454622402859 0)
(0.00199093924728 -0.000472274247617 0)
(0.00238876919691 -0.000413027158539 0)
(0.00226320062273 -0.000202360270832 0)
(0.00212978962202 -5.25891824386e-05 0)
(-0.141516880408 0.00883085192463 0)
(-0.149634465258 0.0288263796608 0)
(-0.148707866256 0.0484272200487 0)
(-0.146908135206 0.0679502342679 0)
(-0.144645770018 0.0871820612813 0)
(-0.141731552656 0.106012935983 0)
(-0.138303481246 0.124306642157 0)
(-0.134598399454 0.142169713174 0)
(-0.130350026104 0.159349480068 0)
(-0.125806646446 0.175857043445 0)
(-0.121169591279 0.191866013424 0)
(-0.116237740359 0.207024961023 0)
(-0.11117655108 0.221736245074 0)
(-0.105759910529 0.235461186933 0)
(-0.100117240439 0.2484548192 0)
(-0.0943737989142 0.260698501375 0)
(-0.0885704948252 0.272183130534 0)
(-0.0827176226825 0.28290123587 0)
(-0.0767886591759 0.292863346034 0)
(-0.071106453339 0.30172835162 0)
(-0.0662784984414 0.310930334647 0)
(-0.0616043536327 0.319075298194 0)
(-0.0562665738284 0.326580659444 0)
(-0.0504263504986 0.332863033983 0)
(-0.0446245831266 0.338667794772 0)
(-0.0390579263843 0.343605512739 0)
(-0.0338529140223 0.348830768265 0)
(-0.0282850159753 0.352398172034 0)
(-0.0225304849513 0.355479173647 0)
(-0.0166882719545 0.357970845508 0)
(-0.0109192289441 0.359461944869 0)
(-0.00574903160659 0.361469861178 0)
(-0.00075018304402 0.361366055309 0)
(0.00377837728855 0.363027789312 0)
(0.00839224038653 0.362835315881 0)