/*--------------------------------*- C++ -*----------------------------------*\
| =========                 |                                                 |
| \\      /  F ield         | OpenFOAM: The Open Source CFD Toolbox           |
|  \\    /   O peration     | Version:  v1906                                 |
|   \\  /    A nd           | Web:      www.OpenFOAM.com                      |
|    \\/     M anipulation  |                                                 |
\*---------------------------------------------------------------------------*/
FoamFile
{
    version     2.0;
    format      ascii;
    class       surfaceScalarField;
    location    "238";
    object      phi;
}
// * * * * * * * * * * * * * * * * * * * * * * * * * * * * * * * * * * * * * //

dimensions      [0 3 -1 0 0 0 0];
oriented        oriented;


internalField   nonuniform List<scalar> 
18240
(
-0.000352920164725
0.000352899929297
-0.000739343675824
0.000386412898615
-0.00112544692923
0.000386077218076
-0.00150658954729
0.000381134847403
-0.00188073198523
0.000374112328229
-0.00224610496376
0.000365368225221
-0.00260123554747
0.000355096630977
-0.00294472834752
0.000343490912263
-0.00327547358052
0.00033070734826
-0.00359241098561
0.000316938171338
-0.00389478531625
0.000302332290501
-0.00418185901267
0.000287076909467
-0.00445320784466
0.000271302522374
-0.00470838230429
0.000255179899663
-0.00494724508292
0.000238811996548
-0.00516958450948
0.000222346851281
-0.00537549634652
0.00020585650443
-0.00556495258029
0.000189465365767
-0.00573822865089
0.000173216001693
-0.00589543020578
0.000157212091068
-0.00603696585841
0.000141470813143
-0.00616303388058
0.00012607962972
-0.00627413904851
0.000111035409177
-0.0063705408716
9.64141557164e-05
-0.00645281259289
8.21970700264e-05
-0.00652125248541
6.84525857797e-05
-0.00657648213616
5.51500079205e-05
-0.00661882251938
4.23530729073e-05
-0.00664892886135
3.00217957971e-05
-0.00666713358685
1.82170403714e-05
-0.0066741148957
6.89180510637e-06
-0.00667020800249
-3.89531609219e-06
-0.00665610159907
-1.42007272915e-05
-0.00663212287566
-2.39682586985e-05
-0.00659896483878
-3.32572044751e-05
-0.00655694377022
-4.20120792147e-05
-0.00650674909728
-5.02985118349e-05
-0.006448679153
-5.80627958575e-05
-0.00638341225347
-6.53754042935e-05
-0.00631122336182
-7.21839376067e-05
-0.00623277334248
-7.85629846431e-05
-0.00614830973619
-8.44612080453e-05
-0.00605847070464
-8.99564234731e-05
-0.00596347327621
-9.49979404843e-05
-0.00586392889861
-9.96659584772e-05
-0.0057600225807
-0.000103910106443
-0.00565233630744
-0.000107811972288
-0.00554102265104
-0.000111321079016
-0.00542663265052
-0.000114519537456
-0.00530928754864
-0.000117356521774
-0.00518950705434
-0.00011991374387
-0.00506738302911
-0.000122139785434
-0.00494340439881
-0.000124115254127
-0.00481763668004
-0.000125788152856
-0.00469053917448
-0.000127237305505
-0.00456215436362
-0.000128410214917
-0.00443291341907
-0.00012938351296
-0.00430283949814
-0.000130104563862
-0.0041723370911
-0.000130647463944
-0.00404141331728
-0.000130959871323
-0.00391044712403
-0.000131113264228
-0.0037794325942
-0.000131056257301
-0.00364872366728
-0.000130857658366
-0.0035183034407
-0.000130467698709
-0.00338850067804
-0.000129952634552
-0.00325928888895
-0.000129265076481
-0.00313097071838
-0.000128468782318
-0.00300351045148
-0.000127519381039
-0.00287718304061
-0.000126478230343
-0.00275194337149
-0.000125304577479
-0.00262803665516
-0.000124057321765
-0.002505407549
-0.000122699712889
-0.00238426931388
-0.00012128809106
-0.002264555488
-0.000119789973063
-0.00214644526838
-0.000118258858804
-0.00202986013482
-0.00011666657207
-0.00191494353011
-0.00011506343441
-0.00180160441949
-0.000113425497643
-0.00168994943866
-0.000111799424072
-0.00157987508872
-0.000110165234564
-0.00147145105585
-0.00010856539854
-0.00136456238503
-0.00010698350665
-0.00125924288501
-0.000105457104275
-0.00115536847226
-0.000103972585225
-0.00105294034988
-0.000102561301891
-0.000951830890559
-0.000101210475086
-0.000852017854241
-9.994145937e-05
-0.000753386816781
-9.87345394505e-05
-0.000655926199884
-9.75838186573e-05
-0.000559608821498
-9.64216389888e-05
-0.000464609957325
-9.51147486025e-05
-0.000371423153432
-9.32889884401e-05
-0.000281691912663
-8.98337362148e-05
-0.000200532905142
-8.12570990804e-05
-0.000115622969646
-8.50441400997e-05
-0.000115704233319
-0.000390087824614
0.000742968654899
-0.000825594974766
0.000821904212811
-0.00125865051966
0.000819111264852
-0.00168541407445
0.000807882097403
-0.00210397957002
0.000792655142866
-0.00251255682858
0.000773929509777
-0.00290951275724
0.000752028640951
-0.00329334117935
0.000727303677023
-0.00366276659509
0.000700107361658
-0.00401665796528
0.000670814006958
-0.00435412969611
0.000639776945836
-0.00467442430688
0.000607355908445
-0.00497702189989
0.000573871150181
-0.00526149816039
0.00053964026314
-0.00552764705114
0.000504929867542
-0.00577531852217
0.000470001925025
-0.00600455787186
0.000435062559717
-0.00621542651199
0.000400316871111
-0.00640816009346
0.00036591384413
-0.00658297451974
0.000332008401507
-0.00674024355461
0.000298701441603
-0.00688029123452
0.000266107954902
-0.00700358855461
0.00023429149697
-0.00711053278543
0.000203337540634
-0.00720166211754
0.000173282139682
-0.0072774220686
0.000144189943359
-0.00733839658259
0.000116077098886
-0.00738506173054
8.89936380842e-05
-0.00741803165551
6.29409637218e-05
-0.00743779980957
3.79583814255e-05
-0.00744499768044
1.4035486663e-05
-0.00744012517816
-8.79708238355e-06
-0.00742382416764
-3.05595034192e-05
-0.00739659593156
-5.12284353159e-05
-0.00735908129418
-7.0833257028e-05
-0.00731177067522
-8.93575222351e-05
-0.00725529578112
-0.000106838592148
-0.00719013028658
-0.000123266203674
-0.00711688964852
-0.000138685048809
-0.00703602448917
-0.000153090288116
-0.00694812756908
-0.000166532830202
-0.00685362120883
-0.00017901222833
-0.00675307020251
-0.000190584305169
-0.00664686462676
-0.000201251822921
-0.00653553745243
-0.000211074036882
-0.00641944407338
-0.000220055619878
-0.0062990832366
-0.000228257752864
-0.0061747746836
-0.000235685758979
-0.00604698199209
-0.000242401261405
-0.00591598972229
-0.000248409071478
-0.00578222661314
-0.000253769949904
-0.00564594369534
-0.000258487269365
-0.00550753627064
-0.000262619837529
-0.00536722445409
-0.000266168936318
-0.00522537223027
-0.000269190667539
-0.0050821719474
-0.000271683939071
-0.00493795877183
-0.000273701728826
-0.00479290064434
-0.00027524064789
-0.00464730636607
-0.000276350525672
-0.00450132256842
-0.00027702613067
-0.00435523375861
-0.000277314435668
-0.00420916782279
-0.000277209109858
-0.00406338633879
-0.000276754843321
-0.00391800014685
-0.000275945160822
-0.0037732484026
-0.000274823172798
-0.00362922568955
-0.000273383274201
-0.00348614832498
-0.000271667731483
-0.00334409446038
-0.000269672762742
-0.00320325636483
-0.000267440395082
-0.00306369485523
-0.000264969422575
-0.00292557635159
-0.000262302031097
-0.00278894289636
-0.000259440064552
-0.00265393299723
-0.000256425967129
-0.00252056834541
-0.000253264775655
-0.00238895753144
-0.000249998997544
-0.00225910044824
-0.000246636680607
-0.0021310741668
-0.000243219905529
-0.0020048558433
-0.000239759257521
-0.00188049009543
-0.000236295663128
-0.00175793110467
-0.000232841517179
-0.00163719101689
-0.000229435637823
-0.00151820179183
-0.000226091238514
-0.00140094423647
-0.000222843770865
-0.00128533007723
-0.000219705776503
-0.00117131151809
-0.000216707273145
-0.00105878391541
-0.000213857123036
-0.000947675793745
-0.000211174969848
-0.000837871772076
-0.000208657306798
-0.000729281108153
-0.00020629736088
-0.000621771545403
-0.000204048491006
-0.00051518425539
-0.000201819414965
-0.000409171965404
-0.000199413514525
-0.000302640555469
-0.000196474939956
-0.000191584200699
-0.000192415756633
-8.46437526508e-05
-0.000192089757902
-0.000200403584687
-0.000397040403842
0.00113999075019
-0.000838184949122
0.00126302965327
-0.00127748682314
0.00125839385159
-0.00171043076089
0.0012408072769
-0.00213489708082
0.0012171013293
-0.00254901886208
0.00118803245239
-0.00295110473154
0.0011540936742
-0.0033396365532
0.0011158163536
-0.00371330843899
0.00107375759317
-0.00407100426102
0.00102849015604
-0.00441182551429
0.000980575517276
-0.00473505043249
0.00093056042406
-0.00504015722063
0.000878954056133
-0.00532677093948
0.000826232646524
-0.00559468741759
0.000772821043096
-0.00584381274685
0.000719104778152
-0.0060741919094
0.000665414815433
-0.00628594427448
0.000612045393485
-0.00647929930427
0.000559240120734
-0.00665452993636
0.000507213596545
-0.00681199634655
0.000456137060179
-0.0069520778525
0.000406162191159
-0.00707522452142
0.000357405089724
-0.00718188746291
0.000309971152709
-0.00727257755075
0.000263936687696
-0.00734779359841
0.000219374372881
-0.00740808710612
0.000176332372866
-0.0074539878023
0.000134860219345
-0.00748607347686
9.49855576137e-05
-0.00750489250729
5.67405928476e-05
-0.00751103794305
2.01367883926e-05
-0.00750506698564
-1.48077438262e-05
-0.00748757869389
-4.80951055874e-05
-0.00745913039708
-7.97195058169e-05
-0.00742031854745
-0.000109695778488
-0.00737169229833
-0.000138029774456
-0.00731383729094
-0.000164747732876
-0.00724728692931
-0.000189865959744
-0.00717260871309
-0.000213421021898
-0.00709031353654
-0.000235438389747
-0.00700094438097
-0.000255963444614
-0.00690498405057
-0.000275029160971
-0.00680294585489
-0.000292687807203
-0.00669528022388
-0.000308977859933
-0.00658246712078
-0.000323956357472
-0.00646492192327
-0.000337665162295
-0.00634308909488
-0.000350163839073
-0.00621734775307
-0.000361495495279
-0.00608810623803
-0.000371720116896
-0.00595570773508
-0.000380880129923
-0.00582052517071
-0.000389034033955
-0.00568286729858
-0.000396221932771
-0.00554307347177
-0.000402499362642
-0.00540142054874
-0.000407902948305
-0.00525821689803
-0.00041248423236
-0.00511371052702
-0.000416275707878
-0.00496818181106
-0.00041932450561
-0.00482185319835
-0.000421658952815
-0.00467497999739
-0.000423321888115
-0.00452776206768
-0.000424337972759
-0.00438043216426
-0.000424746447545
-0.00423316998603
-0.000424569315261
-0.00408618746721
-0.000423843279622
-0.00393964562242
-0.000422588983374
-0.00379373636692
-0.000420841919615
-0.00364860256544
-0.000418622813367
-0.00350441589518
-0.000415967249061
-0.00336130056549
-0.000412897350839
-0.00321940693079
-0.00040944993559
-0.00307883930124
-0.000405649572515
-0.00293972495891
-0.000401535055339
-0.0028021465093
-0.00039713399073
-0.00266620611793
-0.000392487456054
-0.00253196277688
-0.000387626207368
-0.00239949152082
-0.000382593389224
-0.00226882597774
-0.000377422510264
-0.00214001244521
-0.00037215813052
-0.00201305799974
-0.0003668356959
-0.00188797925149
-0.000361500124564
-0.00176475626389
-0.000356187620036
-0.0016433758908
-0.000350942102962
-0.0015237916632
-0.000345799046649
-0.00140596155518
-0.000340799660944
-0.00128981393468
-0.000335976741133
-0.00117527960134
-0.000331366426434
-0.0010622635071
-0.000326995824287
-0.000950670106925
-0.000322891912414
-0.000840378669025
-0.000319070407299
-0.000731256535384
-0.000315541233339
-0.000623125092333
-0.000312299295701
-0.000515730516373
-0.00030933217157
-0.000408625725378
-0.0003066325152
-0.000300927887565
-0.000304281696532
-0.000190846736802
-0.000302603725222
-8.04250166921e-05
-0.000302614326261
-0.000280877664145
-0.000403229396813
0.00154320165973
-0.00085047324778
0.00171025595628
-0.0012958585444
0.00170375976695
-0.00173464363203
0.00167957352867
-0.00216457079108
0.00164700885801
-0.00258368553927
0.00160712785159
-0.00299023540002
0.00156062349899
-0.00338267429849
0.00150823540929
-0.00375967915668
0.00145074177123
-0.00412014448254
0.00138893497023
-0.00446318509312
0.00132359460538
-0.00478811630534
0.00125547026349
-0.0050944479433
0.0011852631178
-0.00538185625775
0.0011136185276
-0.00565017526555
0.00104111623118
-0.00589936579873
0.000968271609968
-0.00612950867043
0.000895532394608
-0.00634077440173
0.000823285931805
-0.00653342076001
0.000751859503443
-0.00670776484216
0.00068153076568
-0.00686418579663
0.000612529110168
-0.00700309950902
0.000545047035209
-0.00712496620855
0.000479240742963
-0.00723026719312
0.000415241085799
-0.00731951641761
0.00035315248484
-0.00739323835816
0.000293062854375
-0.00745198256428
0.000235040575356
-0.00749630181078
0.000179143390696
-0.00752676870351
0.000125413654945
-0.00754395349177
7.38864873169e-05
-0.00754844213935
2.45836795382e-05
-0.00754081335262
-2.24784211532e-05
-0.00752165759698
-6.7295764403e-05
-0.00749155346907
-0.000109868696791
-0.00745108777687
-0.00015020966127
-0.00740083107622
-0.000188334865551
-0.00734135842707
-0.000224272021976
-0.0072732244556
-0.000258051797086
-0.00719698496915
-0.00028971571292
-0.00711317166567
-0.000319307166227
-0.0070223145892
-0.000346879432268
-0.00692491664877
-0.000372486311784
-0.00682147690841
-0.00039619026664
-0.00671246507806
-0.000418052757004
-0.00659834557624
-0.000438142516731
-0.00647955210064
-0.000456525680415
-0.00635651237727
-0.000473274248114
-0.00622962291635
-0.000488456079451
-0.00609927430721
-0.000502143551077
-0.0059658262185
-0.000514403519708
-0.00582963307729
-0.000525306201354
-0.00569101937822
-0.00053491518092
-0.00555030554152
-0.00054329649347
-0.00540778355572
-0.000550508778737
-0.00526374279301
-0.00055661256243
-0.00511844602203
-0.000561660625036
-0.00497215493254
-0.000565707428932
-0.0048251065273
-0.000568799775691
-0.00467753810889
-0.000570986330518
-0.00452966408851
-0.000572308601038
-0.00438170019664
-0.000572810454231
-0.00423384074397
-0.000572529443237
-0.00408628184804
-0.000571506213967
-0.00393919923377
-0.000569776167158
-0.00379277031331
-0.000567378611376
-0.00364715263045
-0.000564348750462
-0.00350250467883
-0.000560726458937
-0.00335896515054
-0.000556548568512
-0.00321667243328
-0.000551857134655
-0.00307574483228
-0.000546692020305
-0.0029362987212
-0.000541098563469
-0.00279842993651
-0.000535120463157
-0.00266223059303
-0.000528806775636
-0.00252777182934
-0.000522205139745
-0.0023951193009
-0.000515368073232
-0.00226431744908
-0.000508346583879
-0.00213540369468
-0.000501195754702
-0.00200839435628
-0.000493968804091
-0.00188329754093
-0.000486721971222
-0.00176010080693
-0.000479509079928
-0.00163878273717
-0.000472385733374
-0.00151930237733
-0.000465404421643
-0.00140160941154
-0.000458618022362
-0.00128563530706
-0.000452075452121
-0.00117130187656
-0.000445824446454
-0.00105851366127
-0.000439907739413
-0.000947163904616
-0.0004343651602
-0.000837126220894
-0.000429230628197
-0.000728254654482
-0.00042453474573
-0.00062036905356
-0.000420305417357
-0.000513240281094
-0.000416578483302
-0.000406566342382
-0.000413421246986
-0.000299976814877
-0.000410983837977
-0.000193192386047
-0.000409494806194
-8.8170745799e-05
-0.000407739498962
-0.000369099738188
-0.000411206920095
0.00195439068839
-0.000866917088408
0.00216594648398
-0.00132054181962
0.00215736601895
-0.00176714993102
0.00212616242146
-0.00220434704312
0.00208418677335
-0.00263007457756
0.00203283594879
-0.00304250586047
0.00197303506852
-0.00344005420776
0.00190576385871
-0.00382138126779
0.00183204850651
-0.00418539350208
0.00175292663475
-0.00453123452173
0.00166941450093
-0.00485826718759
0.00158248148735
-0.00516605596111
0.0014930297823
-0.00545434205845
0.00140188211032
-0.00572302292029
0.00130977378673
-0.00597212671584
0.00121735160426
-0.00620179400958
0.00112517497506
-0.00641225540819
0.00103372201603
-0.00660381792372
0.000943395658291
-0.00677684719083
0.000854532968095
-0.0069317590296
0.000767412713737
-0.00706900604807
0.000682264999434
-0.00718907367285
0.000599278009994
-0.00729247012559
0.000518606257535
-0.00737972571736
0.00044037537586
-0.00745138495413
0.000364688354804
-0.00750800783517
0.000291628179494
-0.00755016298906
0.000221262136608
-0.0075784300156
0.000153642631456
-0.00759339289028
8.88100783363e-05
-0.00759564271992
2.67924781395e-05
-0.00758577086987
-3.23926137426e-05
-0.0075643720493
-8.8738759248e-05
-0.00753203719317
-0.000142249124683
-0.00748935656462
-0.000192937784727
-0.00743691253932
-0.000240827844739
-0.00737528281807
-0.000285952692382
-0.00730503317236
-0.000328353917562
-0.00722672099369
-0.000368082441833
-0.00714088812547
-0.000405196158177
-0.00704806487867
-0.000439760940878
-0.00694876306546
-0.000471848020399
-0.00684348052747
-0.000501534910071
-0.00673269446317
-0.000528902607186
-0.00661686651162
-0.00055403651891
-0.00649643642107
-0.000577023563818
-0.00637182763881
-0.000597953149801
-0.00624344134575
-0.000616914280859
-0.00611166251427
-0.000633996658474
-0.00597685429448
-0.000649287860366
-0.00583936442503
-0.000662874600812
-0.00569951994153
-0.000674840072461
-0.00555763384741
-0.000685265419087
-0.00541400007869
-0.000694227289936
-0.0052689002716
-0.000701799542176
-0.00512259890915
-0.000708051072802
-0.00497535005444
-0.000713047772866
-0.00482739257862
-0.000716850646752
-0.00467895667887
-0.000719517989377
-0.00453025910388
-0.000721103798582
-0.00438150933389
-0.000721660135809
-0.00423290472589
-0.000721235771783
-0.00408463622181
-0.000719878637637
-0.00393688338631
-0.000717634642215
-0.00378981959823
-0.000714550117415
-0.0036436069866
-0.000710670701333
-0.0034984010734
-0.00070604365769
-0.00335434567711
-0.000700716744773
-0.00321157706304
-0.000694740319176
-0.00307021890802
-0.00068816610637
-0.00293038601604
-0.000681049010491
-0.00279217947673
-0.000673445756848
-0.00265569005625
-0.000665416381085
-0.00252099367219
-0.000657022729581
-0.00238815453825
-0.000648329624869
-0.00225722107849
-0.000639403262159
-0.00212822891569
-0.000630312086927
-0.00200119730547
-0.000621125130357
-0.00187613200221
-0.000611912641338
-0.00175302226778
-0.000602744428187
-0.00163184362704
-0.000593690296524
-0.00151255544278
-0.000584818448041
-0.00139510348353
-0.00057619576645
-0.0012794179735
-0.000567886337642
-0.00116541578289
-0.00055995165123
-0.00105299857139
-0.000552449366019
-0.000942053956731
-0.000545433689685
-0.000832452860931
-0.000538955009345
-0.000724048307624
-0.000533061584818
-0.00061667163908
-0.000527802779001
-0.000510132485061
-0.000523236946418
-0.00040422566459
-0.000519443617057
-0.000298778652644
-0.000516540993214
-0.000193813552694
-0.000514569435465
-9.05241891549e-05
-0.000511135724822
-0.000459674356362
-0.000421351729554
0.00237572405897
-0.000888058075971
0.00263263562156
-0.00135233219067
0.00262162101427
-0.00180900020558
0.00258281172725
-0.00225550524594
0.00253067256913
-0.00268966064863
0.00246697207296
-0.00310955095817
0.00239290581388
-0.00351354058508
0.00230973370608
-0.00390027852667
0.00221876633512
-0.00426869132853
0.00212131899864
-0.00461796796703
0.00201867027611
-0.00494753712025
0.00191202935515
-0.00525704131716
0.0018025121605
-0.00554630811105
0.00169112657046
-0.00581532246427
0.00157876516124
-0.00606419931679
0.00146620485898
-0.00629315997333
0.00135411126118
-0.00650251004434
0.00124304699224
-0.00669262220668
0.00113348182453
-0.00686392051347
0.00102580444021
-0.0070168694674
0.000920333792339
-0.00715196388195
0.000817330590891
-0.00726972296929
0.000717007100981
-0.00737068416971
0.00061953640109
-0.00745540055463
0.000525059393543
-0.00752443695474
0.000433691225209
-0.00757836913484
0.000345525395525
-0.00761778086614
0.000260637639689
-0.00764326373667
0.000179087717286
-0.00765541430907
0.000100921508419
-0.00765483393521
2.61713002695e-05
-0.00764212540116
-4.51433920931e-05
-0.00761789296446
-0.000113015202028
-0.00758273855298
-0.000177449059503
-0.00753726133949
-0.000238462362711
-0.00748205406427
-0.000296084075295
-0.00741770250949
-0.000350355118964
-0.00734478184925
-0.00040132710169
-0.00726385633534
-0.00044906245523
-0.00717547585891
-0.000493632849246
-0.00708017599275
-0.000535119060367
-0.00697847489596
-0.000573609140306
-0.00687087381953
-0.000609198103065
-0.00675785443321
-0.000641985939635
-0.00663987983339
-0.000672077221646
-0.00651739231494
-0.000699579067276
-0.0063908148876
-0.000724600774152
-0.00626054948221
-0.000747251820387
-0.00612697893314
-0.000767641612463
-0.00599046557386
-0.000785877604431
-0.00585135362477
-0.000802065248387
-0.00570996811361
-0.000816306299246
-0.00556661756824
-0.000828699029862
-0.00542159316614
-0.00083933679165
-0.00527517161406
-0.000848308554341
-0.00512761441441
-0.000855697769809
-0.00497917078063
-0.000861583258564
-0.00483007688902
-0.000866038404212
-0.00468055867796
-0.000869132383145
-0.00453083096099
-0.000870929669445
-0.00438109996244
-0.000871491545571
-0.00423156218607
-0.000870875860079
-0.00408240657925
-0.000869138721944
-0.0039338131014
-0.000866334408736
-0.00378595445585
-0.000862517104903
-0.00363899435652
-0.000857740841178
-0.00349308883095
-0.000852061138414
-0.00334838424599
-0.000845534856537
-0.00320501824084
-0.000838221611316
-0.00306311761702
-0.000830183443981
-0.00292279900257
-0.000821485922144
-0.00278416674393
-0.000812197578791
-0.00264731342154
-0.000802390653162
-0.00251231788061
-0.000792140299446
-0.0023792457143
-0.000781524976603
-0.00224814755544
-0.00077062546611
-0.00211905962288
-0.000759524954737
-0.00199200235702
-0.000748307930283
-0.00186698108563
-0.000737060028851
-0.00174398504288
-0.000725866885803
-0.00162298816693
-0.000714813825268
-0.00150394848694
-0.000703984747401
-0.00138680899976
-0.000693461746847
-0.00127149734217
-0.000683324126312
-0.00115792662532
-0.000673648068888
-0.00104599517099
-0.000664505960711
-0.000935587054678
-0.000655966408644
-0.000826571575885
-0.000648094353776
-0.00071880378308
-0.000640952449945
-0.000612125357693
-0.000634603020694
-0.000506368676945
-0.000629112114452
-0.000401372482786
-0.000624555758463
-0.000297015480001
-0.000621012306941
-0.00019330190234
-0.000618391361088
-9.09659524925e-05
-0.000613577394209
-0.000550692734787
-0.000433926258151
0.00280963273279
-0.000914329911984
0.00311301958491
-0.00139184005514
0.00309911301811
-0.00186096971208
0.00305192232968
-0.00231895337418
0.00298863734985
-0.00276344750752
0.00291144700121
-0.0031924307172
0.00282186966893
-0.0036042135917
0.00272149697007
-0.00399743877859
0.00261197162335
-0.00437106769482
0.00249492769255
-0.00472435669321
0.00237193865731
-0.00505682579125
0.00224447742
-0.00536822379118
0.00211388863297
-0.0056584921005
0.00198137282982
-0.00592773015788
0.00184798056615
-0.00617616343233
0.00171461484188
-0.00640411564767
0.00158203946998
-0.00661198502491
0.00145089159454
-0.00680022523971
0.00132169642753
-0.00696933020064
0.0011948828872
-0.00711982282909
0.00107079894962
-0.00725224669246
0.000949725941255
-0.00736716046827
0.000831891282942
-0.00746513412476
0.000717479284917
-0.00754674675695
0.000606640057072
-0.00761258514763
0.000499496331102
-0.00766324301911
0.000396148673778
-0.0076993203337
0.000296678918251
-0.00772142265668
0.000201152595041
-0.00773016024855
0.000109620086512
-0.0077261469346
2.21174681147e-05
-0.00770999829703
-6.13342171322e-05
-0.00768233057336
-0.000140726695783
-0.0076437582495
-0.000216066918398
-0.0075948919973
-0.000287375808841
-0.0075363365123
-0.000354688590514
-0.00746868820207
-0.000418054182435
-0.00739253305816
-0.000477534896022
-0.00730844451647
-0.000533205434825
-0.00721698157343
-0.000585152176713
-0.00711868703636
-0.000633471826863
-0.00701408603279
-0.000678270372177
-0.00690368476517
-0.000719661505652
-0.00678796949756
-0.00075776539319
-0.00666740586227
-0.000792707006429
-0.00654243835376
-0.000824614836579
-0.00641349016518
-0.000853619246585
-0.00628096318087
-0.000879851257731
-0.00614523829836
-0.000903441021301
-0.00600667587865
-0.000924516777726
-0.00586561647196
-0.000943203527225
-0.00572238165665
-0.000959622258373
-0.00557727507515
-0.000973888901101
-0.0054305835578
-0.000986113902776
-0.00528257833501
-0.000996401529847
-0.00513351631042
-0.00100484985863
-0.00498364130317
-0.0010115504763
-0.00483318530846
-0.00101658890674
-0.00468236960027
-0.00102004471171
-0.00453140581579
-0.00102199232603
-0.00438049677353
-0.00102250150975
-0.00422983723884
-0.00102163849753
-0.00407961434096
-0.00101946668759
-0.00393000793239
-0.0010160479641
-0.00378119056273
-0.0010114434758
-0.00363332740781
-0.00100571495254
-0.00348657582212
-0.000998925407215
-0.00334108488972
-0.000991140278638
-0.00319699465508
-0.00098242791514
-0.00305443540315
-0.000972860405817
-0.00291352670444
-0.000962513748317
-0.00277437656954
-0.000951468292236
-0.00263708047305
-0.000939808561039
-0.00250172052831
-0.000927623292233
-0.00236836463585
-0.000915004937741
-0.00223706580612
-0.000902049349731
-0.00210786155139
-0.000888855033483
-0.0019807734417
-0.000875522559546
-0.00185580680463
-0.000862153666179
-0.00173295055495
-0.000848850502427
-0.00161217721621
-0.000835714684895
-0.00149344301675
-0.000822846479261
-0.00137668818719
-0.000810343916732
-0.00126183727659
-0.000798302038947
-0.00114879966869
-0.000786812207343
-0.00103747001454
-0.000775961584509
-0.000927728911803
-0.000765832871772
-0.000819443641045
-0.000756504389683
-0.000712469244782
-0.000748050496698
-0.000606651300466
-0.000740542946096
-0.000501831980815
-0.000734052239208
-0.000397858609261
-0.000728646046444
-0.000294603548885
-0.00072437846033
-0.000192015669879
-0.000721090480503
-9.06116612696e-05
-0.000715090141485
-0.00064135540858
-0.000449211051563
0.0032588255447
-0.000946267534177
0.00361005932576
-0.00143983903206
0.00359266557561
-0.0019240326337
0.00353609753064
-0.00239582242175
0.00346040818419
-0.00285267196704
0.00336827759443
-0.00329243714381
0.00326161565668
-0.00371337332439
0.00314241376485
-0.00411412946759
0.00301270811774
-0.00449372495532
0.00287450321925
-0.00485151398031
0.00272970737186
-0.00518714222794
0.00258008494418
-0.00550050034824
0.00242722557557
-0.00579167789428
0.00227252868247
-0.00606092047376
0.00211720088121
-0.00630859181355
0.00196226328844
-0.00653514175417
0.0018085658145
-0.00674108023741
0.00165680573301
-0.00692695725637
0.00150754825921
-0.00709334788611
0.00136124745459
-0.00724084202456
0.00121826603522
-0.00737003756111
0.00107889342352
-0.0074815367079
0.000943361236722
-0.00757594407071
0.000811856326572
-0.00765386650754
0.000684530884285
-0.00771591331934
0.000561510285245
-0.00776269723324
0.000442898299664
-0.00779483473857
0.000328780772887
-0.00781294668532
0.000219227326681
-0.00781765774307
0.000114292456185
-0.0078095961906
1.40155430012e-05
-0.00778939171406
-8.15806249056e-05
-0.00775767489109
-0.000172487233686
-0.00771507437882
-0.000258712787123
-0.00766221508622
-0.00034028231877
-0.00759971536478
-0.000417237238974
-0.00752818496233
-0.000489635433541
-0.00744822222444
-0.000557550248784
-0.00736041221821
-0.000621070025187
-0.0072653242414
-0.000680296557315
-0.00716351035421
-0.00073534413509
-0.00705550337849
-0.000786337639495
-0.00694181597673
-0.000833411266376
-0.00682293922029
-0.000876706434846
-0.0066993422625
-0.000916370376672
-0.00657147148186
-0.000952554012247
-0.00643975074432
-0.000985410568967
-0.00630458108586
-0.00101509354187
-0.00616634151913
-0.00104175546878
-0.00602538919484
-0.00106554607504
-0.0058820606881
-0.00108661131844
-0.00573667255605
-0.00110509180995
-0.00558952300382
-0.00112112222962
-0.00544089272344
-0.00113483011945
-0.00529104680511
-0.00114633576457
-0.00514023570679
-0.00115575143915
-0.00498869723362
-0.00116318181223
-0.00483665745673
-0.00116872369188
-0.00468433256503
-0.00117246696201
-0.00453192954711
-0.00117449480255
-0.00437964772283
-0.00117488508403
-0.00422767903075
-0.00117371096564
-0.0040762090957
-0.00117104259894
-0.00392541702525
-0.00116694793854
-0.00377547594089
-0.00116149454634
-0.00362655227392
-0.00115475041113
-0.0034788057798
-0.00114678563044
-0.00333238841283
-0.00113767303937
-0.003187443923
-0.00112748957063
-0.00304410645852
-0.00111631654142
-0.00290249990445
-0.00110424055759
-0.00276273640062
-0.00109135337911
-0.00262491560229
-0.00107775231531
-0.00248912330017
-0.00106353967471
-0.00235543076948
-0.00104882267898
-0.00222389364739
-0.00103371257019
-0.00209455149683
-0.00101832413315
-0.00196742704121
-0.00100277457588
-0.00184252601578
-0.000987182784621
-0.00171983680078
-0.000971668108626
-0.00159933057793
-0.000956349480088
-0.00148096135378
-0.000941344232605
-0.00136466639561
-0.000926767220137
-0.0012503666081
-0.000912729794299
-0.00113796723266
-0.000899339062423
-0.0010273585358
-0.000886697171758
-0.000918416835477
-0.000874900862967
-0.000811005546036
-0.000864041176303
-0.000704977127031
-0.00085420360068
-0.000600175700854
-0.000845467796056
-0.000496440389187
-0.000837907362211
-0.000393614163357
-0.000831589678741
-0.000291551826621
-0.000826556948096
-0.00019014870425
-0.000822603208063
-8.98236003866e-05
-0.000815522180194
-0.000731232181951
-0.00046754324983
0.00372635157237
-0.000984556263868
0.00412705269887
-0.00149731881759
0.00410541037717
-0.0019994337437
0.00403819369014
-0.00248754763105
0.00394850357608
-0.00295889263737
0.00383960379402
-0.00341118526094
0.00371388938208
-0.00384263066337
0.00357384005752
-0.0042519060958
0.00342196420721
-0.00463812344222
0.0032607009522
-0.00500077710517
0.00309234108256
-0.00533968408863
0.00291897161057
-0.00565492238219
0.00274244310949
-0.00594677209537
0.00256435715818
-0.00621566273744
0.00238606972949
-0.00646212824298
0.00220870639359
-0.00668677059076
0.00203318508232
-0.00689023168473
0.00186024299775
-0.00707317286423
0.00169046479755
-0.00723626094742
0.0015243099961
-0.00738015964177
0.00136213824038
-0.00750552522311
0.00120423145765
-0.00761300525661
0.00105081263733
-0.00770323957414
0.000902060793482
-0.00777686235222
0.000758122592596
-0.00783450492752
0.000619120412951
-0.00787679828744
0.000485157865092
-0.00790437539308
0.000356322554734
-0.0079178723623
0.000232687508983
-0.00791792917545
0.000114310803696
-0.00790518953606
1.23587241786e-06
-0.00788029949966
-0.000106512484342
-0.00784390531406
-0.000208924885833
-0.00779665247105
-0.000306010986435
-0.00773918219143
-0.000397799665691
-0.00767212923909
-0.000484339210742
-0.00759611875965