/*--------------------------------*- C++ -*----------------------------------*\
| =========                 |                                                 |
| \\      /  F ield         | OpenFOAM: The Open Source CFD Toolbox           |
|  \\    /   O peration     | Version:  v1906                                 |
|   \\  /    A nd           | Web:      www.OpenFOAM.com                      |
|    \\/     M anipulation  |                                                 |
\*---------------------------------------------------------------------------*/
FoamFile
{
    version     2.0;
    format      ascii;
    class       volScalarField;
    location    "404";
    object      pa;
}
// * * * * * * * * * * * * * * * * * * * * * * * * * * * * * * * * * * * * * //

dimensions      [0 2 -2 0 0 0 0];


internalField   nonuniform List<scalar> 
9216
(
979.741167929
979.379143353
978.6435526
977.531276527
976.045957523
974.19192246
971.974520082
969.400194847
966.476239111
963.210935084
959.613265242
955.693088613
951.460811626
946.927599063
942.105013014
937.005260613
931.640809196
926.024672367
920.170008999
914.090447366
907.799674062
901.311794143
894.640914498
887.801535511
880.808131397
873.675567159
866.4186771
859.052699036
851.59285091
844.054773273
836.454104162
828.806919365
821.1293028
813.437776142
805.748864633
798.079503605
790.44659841
782.867398436
775.359051517
767.938936591
760.624214429
753.432112388
746.379475049
739.482996266
732.758773537
726.222483849
719.888944344
713.772229231
707.885237655
702.239753152
696.846022832
691.7127734
686.846819251
682.253072827
677.934221459
673.890793612
670.12095692
666.620699311
663.383779631
660.402041357
657.665502058
655.162770176
652.881230811
650.807512594
648.927700417
647.227767453
645.693731015
644.311984962
643.069362364
641.953361366
640.952128053
640.054603689
639.250457282
638.530184558
637.885010802
637.306959149
636.788732851
636.323763568
635.906080823
635.530347629
635.191720555
634.885863633
634.608773954
634.356172513
634.128504965
633.931888645
633.767723282
633.634382518
633.530968287
633.454049929
633.399414726
633.361836714
633.336586854
633.321200245
633.313421681
633.310692889
980.102634062
979.739454532
979.002598551
977.887252378
976.397625533
974.538169959
972.314345635
969.732636798
966.800434158
963.526052743
959.918582477
955.987912055
951.744561502
947.199717968
942.365057601
937.25279795
931.875515712
926.246219452
920.378168766
914.284969479
907.980398205
901.478520256
894.793521603
887.93984753
880.932042023
873.784903289
866.513328958
859.132483074
851.657644402
844.104378604
836.488386003
828.825671342
821.132388039
813.42499841
805.720108468
798.034611051
790.385507909
782.790028098
775.265434274
767.829110634
760.498352293
753.290419214
746.222309553
739.310777885
732.572094188
726.022025213
719.675579691
713.546950944
707.649247254
701.994395245
696.592857622
691.453507263
686.583350111
681.987404473
677.668475012
673.627100707
669.861444982
666.367376659
663.138516878
660.166469522
657.441008829
654.950422722
652.68179815
650.621428278
648.755123405
647.068583207
645.547633707
644.178491101
642.94788839
641.843229489
640.852627545
639.964984311
639.169976515
638.458093449
637.82059387
637.249516369
636.737614807
636.278350187
635.865813793
635.494711007
635.160283976
634.858304371
634.585036618
634.337290779
634.112807407
633.91713814
633.755214068
633.62503392
633.522906422
633.446610831
633.393447329
633.356994662
633.332134598
633.317562453
633.310565374
633.307720936
980.83943512
980.473089253
979.73199203
978.610278842
977.112203261
975.242268478
973.006039938
970.410097519
967.461962617
964.170060165
960.543625164
956.592660912
952.327836576
947.760448213
942.902314482
937.765746291
932.363446752
926.708494365
920.814252184
914.694367841
908.362695102
901.833312064
895.120456142
888.238559382
881.202195673
874.02613016
866.725275789
859.314752251
851.809847819
844.226082458
836.579170591
828.885081606
821.159998171
813.420368922
805.682855794
797.964371314
790.282009811
782.653062775
775.094929302
767.625104703
760.261067747
753.020240387
745.91985198
738.976870187
732.207843614
725.628804169
719.255088004
713.101206874
707.180643587
701.505687745
696.087202627
690.934428309
686.054733557
681.453418121
677.133501316
673.095598702
669.337833224
665.855870423
662.643008969
659.690392043
656.987251567
654.52123901
652.278780322
650.245495447
648.406587298
646.747217152
645.252787965
643.909182145
642.702905253
641.6211995
640.652089987
639.78442503
639.007875092
638.312940025
637.690924382
637.133921256
636.634765154
636.186998091
635.784810362
635.423000616
635.096918718
634.80243909
634.535943349
634.294353674
634.074757634
633.884099896
633.730112964
633.606247838
633.506602706
633.432538642
633.382218701
633.347018688
633.323751308
633.31035708
633.303240327
633.299690767
981.959041698
981.589022999
980.841394697
979.709884013
978.198831754
976.312841518
974.057620502
971.439906169
968.467403023
965.148722721
961.493304851
957.51135056
953.213737466
948.611953388
943.718012449
938.544395432
933.103973409
927.40996031
921.47584917
915.315380915
908.942496451
902.37132341
895.616144779
888.691402786
881.611682282
874.391728654
867.046442301
859.590906025
852.040385955
844.410363124
836.716536249
828.97485071
821.201496858
813.412932087
805.62586739
797.85727435
790.124353834
782.444521072
774.835350738
767.314535247
759.899803233
752.608849558
745.459227734
738.46825333
731.652872923
725.029542787
718.614074477
712.421485436
706.465813823
700.759929749
695.315306792
690.141785133
685.247302931
680.63763712
676.316152825
672.283616567
668.538086491
665.07492382
661.886907317
658.964466852
656.295970675
653.868072532
651.666131202
649.674702022
647.878017207
646.260408723
644.806626646
643.502064888
642.332894145
641.286138134
640.349699264
639.512365545
638.763800171
638.094532028
637.495933949
636.960193516
636.480266433
636.049827517
635.66321216
635.315361445
635.001763377
634.71840369
634.461730211
634.228459417
634.016642971
633.836358288
633.691940806
633.574710695
633.482232953
633.413153317
633.364170239
633.331001632
633.309595923
633.296714048
633.28947453
633.285907296
983.464452458
983.089714355
982.333253098
981.18846408
979.659826644
977.752094769
975.471167203
972.824000957
969.818546586
966.463676633
962.769105899
958.745312732
954.403454468
949.755288243
944.813089027
939.589577032
934.09784515
928.351299249
922.363600651
916.14862397
909.720418145
903.093183936
896.281254165
889.29908988
882.161277465
874.882539905
867.477746376
859.961933607
852.350322768
844.6583455
836.901663554
829.096192391
821.258116735
813.403908085
805.550328127
797.714430886
789.913546966
782.165262493
774.487377227
766.897854682
759.414750605
752.056133182
744.839983476
737.784089496
730.905923683
724.222515472
717.750307688
711.505003867
705.501392047
699.753146406
694.272591257
689.070428456
684.155424626
679.534075132
675.210274523
671.185043519
667.456366125
664.019183411
660.865531163
657.984838271
655.364262075
652.98903773
650.842977857
648.909100692
647.17025276
645.609617546
644.211066501
642.959366654
641.840275363
640.840567269
639.948014071
639.151351434
638.440246642
637.805278847
637.237919387
636.730495249
636.27613299
635.8686973
635.502724202
635.173354179
634.876261749
634.607581918
634.363833308
634.14123693
633.941358977
633.774914851
633.641652821
633.533667276
633.447362216
633.383354825
633.338601489
633.307953321
633.287672949
633.275321053
633.268178529
633.264621357
985.360311919
984.979655989
984.211990244
983.050331847
981.499349096
979.563999811
977.250432079
974.565889358
971.518639515
968.117894235
964.373722666
960.296963249
955.899132828
951.192338155
946.189188404
940.902714131
935.346290735
929.533571978
923.478430853
917.194913127
910.697199779
903.999583059
897.116451152
890.062285459
882.851664472
875.499277821
868.019943995
860.428635358
852.740503967
844.970911882
837.135460744
829.250020008
821.330753253
813.394141375
805.456996576
797.536469828
789.650044321
781.815517663
774.050966056
766.374694222
758.805165965
751.360920951
744.060474714
736.922209126
729.9642512
723.204346909
716.659724929
710.346951826
704.281765841
698.478881901
692.951747127
687.712236153
682.770272641
678.133392902
673.806283187
669.790374218
666.083582456
662.68029146
659.571514951
656.745349896
654.187375897
651.880911137
649.807610809
647.94835324
646.284098411
644.796529633
643.468428299
642.283831004
641.228051528
640.287627955
639.450232726
638.704579525
638.040361568
637.448231007
636.919793976
636.447570865
636.024921372
635.645965511
635.305508117
634.998959725
634.722258012
634.471789029
634.244319258
634.036277931
633.852057795
633.701001987
633.578069375
633.478305403
633.400840001
633.345279679
633.304266904
633.275902059
633.257391313
633.244709225
633.237453054
633.233788286
987.652438239
987.264568025
986.483217029
985.300940831
983.72264944
981.753559569
979.40013371
976.669975054
973.571748626
970.115090512
966.310512271
962.169302143
957.703425005
952.925423506
947.84832229
942.485537616
936.850794308
930.958052054
924.82144267
918.455219687
911.873721023
905.091344949
898.122538898
890.98180005
883.683686215
876.242835243
868.673991175
860.992035481
853.212021942
845.349213844
837.419123778
829.437549387
821.42061121
813.384784995
805.346927402
797.324292342
789.334534694
781.395698599
773.526187824
765.744716629
758.070240825
750.521870137
743.118764781
735.880020363
728.824546043
721.970940179
715.337364991
708.941417296
702.799984817
696.929069029
691.343547674
686.056841702
681.080465083
676.42343971
672.091635219
668.087134892
664.40781099
661.047320288
657.995248496
655.237978687
652.75919394
650.539691682
648.558129887
646.792420877
645.221008921
643.823696822
642.582006555
641.479211906
640.500225547
639.631433793
638.8604953
638.176164161
637.568184698
637.02729467
636.545273161
636.11490534
635.729862237
635.384596066
635.07425876
634.794609626
634.541925648
634.312916632
634.104582754
633.91408459
633.747977971
633.612396818
633.501544051
633.413084285
633.345860232
633.296112948
633.258882677
633.23281743
633.216080299
633.203838419
633.196725543
633.193189748
990.347924002
989.95145676
989.153799883
987.94695757
986.336135203
984.326869813
981.926010374
979.141601945
975.982795959
972.459747947
968.583509855
964.365919235
959.819487066
954.957287293
949.792849621
944.340058862
938.613062261
932.626188182
926.393877147
919.93062807
913.250959543
906.369387632
899.300418316
892.058554403
884.658313561
877.114256434
869.441021264
861.653364381
853.766203854
845.794666373
837.75413716
829.660306388
821.529219271
813.377321524
805.221498152
797.079103163
788.967974912
780.906434387
772.913261732
765.007649911
757.209133495
749.537495419
742.01265448
734.654541674
727.482972177
720.517523238
713.77742151
707.281441929
701.047803096
695.094037832
689.436789302
684.091481292
679.071786622
674.388858375
670.050351202
666.059386165
662.413837895
659.106413636
656.124571217
653.452516105
651.072014185
648.960602353
647.092651012
645.441900087
643.983458154
642.69487087
641.556341512
640.550471501
639.661935043
638.877149129
638.183933199
637.571181118
637.028698584
636.547281181
636.118910141
635.736744038
635.394870083
635.088158548
634.812199023
634.563189553
634.337833282
634.133253084
633.946759048
633.776578856
633.630923058
633.511531544
633.414452496
633.33772592
633.279357607
633.234657963
633.202548032
633.178823885
633.162868132
633.152694842
633.145754717
633.142524005
993.455215086
993.048669075
992.231919625
990.996315615
989.347421213
987.291161588
984.834854439
981.987079177
978.75757466
975.157122563
971.197425509
966.890981541
962.250957842
957.291065852
952.025440789
946.468527701
940.634977564
934.539555512
928.197064822
921.622287923
914.829946929
907.834682979
900.651054645
893.293552209
885.776626082
878.114724903
870.322341464
862.414062987
854.404625526
846.308970611
838.142307319
829.920170072
821.658484188
813.373626636
805.0824823
796.802490148
788.551674886
780.348657721
772.212642219
764.16337044
756.221048836
748.406244296
740.739757136
733.242479658
725.935255181
718.838751787
711.973365408
705.359156884
699.015815571
692.962617221
687.218316204
681.800872961
676.726882633
672.010584714
667.662366339
663.687071633
660.082547645
656.840430072
653.944457304
651.37606513
649.116192984
647.138114603
645.409693331
643.898591929
642.575518629
641.415489466
640.397581296
639.504036539
638.719599609
638.031061781
637.426698652
636.895706583
636.42790271
636.013987365
635.646147501
635.318118454
635.02455656
634.760830613
634.523069421
634.308014574
634.112885291
633.935314217
633.772947522
633.625899053
633.501662576
633.399111755
633.316304118
633.25128148
633.201205646
633.163112524
633.13470709
633.114359089
633.099819448
633.091534006
633.084818532
633.08201483
996.984200588
996.565981341
995.727148459
994.458288473
992.76539358
990.654856342
988.134556654
985.213714213
981.902770052
978.213253174
974.157641396
969.749218975
965.001933182
959.930253049
954.5490322
948.8733796
942.918540668
936.699793372
930.232361905
923.531352158
916.61171002
909.488204272
902.175431756
894.687843039
887.039783161
879.245543874
871.319421951
863.27578181
855.129120197
846.894134082
838.585794398
830.219417656
821.810748413
813.376039869
804.932131106
796.49651589
788.087394931
779.723705035
771.425116812
763.211995841
755.10532282
747.126574514
739.29757119
731.640305389
724.176771868
716.928826467
709.918098261
703.165977489
696.693676748
690.522341926
684.673135574
679.167142828
674.024895816
669.265124778
664.902613189
660.945037131
657.390060539
654.228668497
651.436830367
648.992071246
646.879371332
645.065983837
643.508845932
642.166434223
641.003719434
639.993308655
639.113919035
638.348057723
637.681052454
637.100580226
636.595915982
636.156820239
635.772912582
635.434332621
635.133377754
634.864862667
634.624243604
634.407400978
634.211119429
634.032816497
633.87031421
633.721891451
633.585735874
633.463415234
633.360100992
633.27470475
633.206884738
633.15423767
633.113416373
633.081901673
633.05696176
633.038926848
633.027283103
633.020200263
633.0144124
633.011885422
1000.94631965
1000.51469372
999.650545895
998.343575494
996.600286946
994.427630914
991.834158425
988.829851129
985.425983924
981.634971146
977.470207522
972.945905846
968.076934312
962.878655557
957.366770521
951.557169721
945.465796695
939.108527417
932.501071678
925.658899846
918.597199513
911.330861907
903.874497876
896.242477829
888.448990605
880.50811274
872.433883182
864.24037831
855.941787856
847.552492282
839.087148655
830.560776146
821.988858829
813.387449385
804.773274074
796.163830126
787.577466959
779.033439904
770.551926621
762.153995397
753.861519586
745.697035356
737.683550967
729.844323807
722.202637568
714.781618992
707.60414413
700.692875147
694.07045274
687.759840052
681.784732242
676.1699048
670.94104629
666.123602023
661.739525372
657.80171443
654.306122058
651.247182411
648.581085466
646.278361662
644.345114858
642.737641833
641.392320589
640.25333114
639.278529292
638.439373603
637.716193346
637.092840948
636.555739219
636.094242551
635.699568791
635.362593565
635.072191581
634.816642538
634.588007497
634.383585283
634.199969943
634.033277578
633.88108724
633.741716845
633.613608937
633.495867353
633.387429382
633.290347478
633.208097053
633.141186203
633.088616353
633.047277551
633.014651177
632.989354603
632.969695497
632.954765964
632.944804544
632.939061496
632.934911706
632.932632022
1005.35468736
1004.90775884
1004.01477212
1002.66440709
1000.86377564
998.620494694
995.943912899
992.844915324
989.335762225
985.429911402
981.141835723
976.486838595
971.480869037
966.140338974
960.481944099
954.522492543
948.278745059
941.767273962
935.004346676
928.005841846
920.787202016
913.363426361
905.74910034
897.958457341
890.005461269
881.903900108
873.667479515
865.309912205
856.845002223
848.286730386
839.64934854
830.947480127
822.196245051
813.411392235
804.609439038
795.807807335
787.024943068
778.280406016
769.594913318
760.990322443
752.489539754
744.116348937
735.895162745
727.850719691
720.007765879
712.390786124
705.023861594
697.930735403
691.135152543
684.661501253
678.535771036
672.786637521
667.446357761
662.550224872
658.13281593
654.21720699
650.791056528
647.871121863
645.35696963
643.200770869
641.48802925
640.145494851
639.066334724
638.172856218
637.415175972
636.767783333
636.217334958
635.750216851
635.354008533
635.020697705
634.745389805
634.52145206
634.335762617
634.171290259
634.018489709
633.881537469
633.758532598
633.644523473
633.538160352
633.439229752
633.34649334
633.26022085
633.180082279
633.108412419
633.048068123
632.999872869
632.96122817
632.930247751
632.905676653
632.887049593
632.872686069
632.862306763
632.854477406
632.849666696
632.847590104
632.845935555
1010.22424732
1009.75992034
1008.83422578
1007.4346676
1005.56908221
1003.24587968
1000.47535605
997.269464684
993.641626584
989.606524123
985.179892187
980.378308661
975.218985779
969.719562643
963.897900515
957.77188322
951.359229036
944.677321239
937.743068463
930.572803951
923.182233522
915.586435181
907.79990984
899.836672729
891.710371688
883.434412982
875.022080196
866.486636677
857.841414793
849.099901946
840.275839015
831.38333312
822.437007887
813.452170529
804.444996184
795.432714051
786.433780201
777.468017719
768.55670317
759.722575365
750.989744816
742.383486468
733.92991388
725.655552428
717.586866038
709.749824495
702.169636203
694.870782349
687.877464612
681.214594858
674.909412264
668.993887491
663.507640691
658.500206516
654.029452873
650.141159522
646.784532713
644.081970713
641.75821429
639.701099279
638.276118898
637.295804997
636.558229762
635.95952111
635.443105844
634.998967415
634.634415093
634.337664662
634.092516722
633.893450642
633.743842434
633.644192474
633.577248527
633.512662994
633.433709238
633.365699706
633.307435061
633.247991602
633.187871042
633.130326593
633.07293539
633.018173995
632.966208598
632.919752546
632.881139103
632.84966601
632.824327826
632.804294481
632.788981055
632.777450221
632.768457605
632.762119574
632.757711114
632.754228326
632.754278833
632.753286803
1015.57195132
1015.08789383
1014.12520535
1012.67004272
1010.73110367
1008.31774515
1005.44138789
1002.11524752
998.354109149
994.174087418
989.592387817
984.62707103
979.296819205
973.620702966
967.617947168
961.307698421
954.708799557
947.839583219
940.71769784
933.359983267
925.782408736
918.000082783
910.027332522
901.877840717
893.564815579
885.101164929
876.499646934
867.772985034
858.93395132
849.995441458
840.970565671
831.872770467
822.716015641
813.514985267
804.285328793
795.043913818
785.809070146
776.600802496
767.440941846
758.35320229
749.363105503
740.497740501
731.785337492
723.254666665
714.934318762
706.851991266
699.033964552
691.504981902
684.288706373
677.408918547
670.891807806
664.769928409
659.088807186
653.916334996
649.356641447
645.520614831
642.182487047
639.897863587
637.785656657
635.318241565
634.263376396
633.870071064
633.62839883
633.41822676
633.226366813
633.056680051
632.904991232
632.768062878
632.654176964
632.583523151
632.579498442
632.64985057
632.765816713
632.852718378
632.841355638
632.842674702
632.856297205
632.852127474
632.835436852
632.820570884
632.797010664
632.773077622
632.748115889
632.725936508
632.707029889
632.69190345
632.679868491
632.671685459
632.666010191
632.661719377
632.658578233
632.656665073
632.655404816
632.654504417
632.655982574
632.655806418
1021.41697765
1020.91056703
1019.9061032
1018.38819098
1016.36655958
1013.85169779
1010.85636439
1007.39526673
1003.48479061
999.142720257
994.387967135
989.240308063
983.720128426
977.848163635
971.645233942
965.131971671
958.328548619
951.254417301
943.928088517
936.366968673
928.58728155
920.60408875
912.431411595
904.082435373
895.569759934
886.905645818
878.102210545
869.171549999
860.125797699
850.977163469
841.73799854
832.420917507
823.039006023
813.606086915
804.137035278
794.648117196
785.157329469
775.684713119
766.252603917
756.8857723
747.611395319
738.458799228
729.45892178
720.643473865
712.043853621
703.689971897
695.609263809
687.826247133
680.362774106
673.239106239
666.476288726
660.101056715
654.157250528
648.725649856
643.996609086
640.245932837
636.133989936
635.075829012
633.972441993
633.560829149
633.488293221
633.491829327
633.455769035
633.376672124
633.270015266
633.148855638
633.024790421
632.907124004
632.805831466
632.735697365
632.705185565
632.689040366
632.606814109
632.369852483
632.181706695
632.248045622
632.386937923
632.463844343
632.483783412
632.517435569
632.522590774
632.528412066
632.52805583
632.527906668
632.527673264
632.528967072
632.530921609
632.534596531
632.537917677
632.540667875
632.543903095
632.546964791
632.549685369
632.551674222
632.55366337
632.554772503
1027.78098889
1027.24925406
1026.1976334
1024.6089475
1022.4941628
1019.86512828
1016.73619935
1013.12384902
1009.04633986
1004.5233956
999.575895593
994.225590563
988.494828175
982.406274193
975.98261532
969.246240115
962.218903656
954.921396991
947.373251134
939.592515292
931.595646601
923.397541941
915.01171888
906.450624266
897.726011245
888.849301624
879.831848411
870.685053957
861.420366649
852.049239548
842.583135083
833.033635504
823.41268734
813.732941619
804.008164707
794.253686876
784.486865385
774.727536057
764.998410076
755.325353715
745.7374654
736.26684987
726.947979475
717.816563031
708.907930275
700.255131911
691.887166771
683.828039222
676.096597035
668.706922295
661.669296705
654.992961462
648.691682289
642.759715653
637.207415518
634.559105595
634.301762354
634.360488646
634.234097944
634.106580263
634.041875108
633.997775257
633.93700562
633.850773515
633.737225048
633.602227549
633.454500108
633.301299619
633.15270286
633.020953068
632.911415116
632.808067312
632.681611094
632.542356738
632.463761568
632.457510539
632.380912894
632.133589395
632.082365402
632.218424705
632.250390851
632.288149975
632.308702577
632.327878646
632.346111603
632.363213917
632.37901516
632.393509856
632.405300765
632.416156442
632.426357797
632.434742634
632.44163573
632.446548346
632.449687534
632.452011297
1034.68844675
1034.12798517
1033.02310497
1031.35456119
1029.13481704
1026.37736451
1023.09847443
1019.31671644
1015.05255317
1010.32795231
1005.16604688
999.590838023
993.626917265
987.299178321
980.632492907
973.651337066
966.379374812
958.839024141
951.05105182
943.034254328
934.805289809
926.378713309
917.767241431
908.982220288
900.034209429
890.933536887
881.690669452
872.316304855
862.821233937
853.216136166
843.511467384
833.717541822
823.844830587
813.904407783
803.908487339
793.871005814
783.808237755
773.739428652
763.687401578
753.679059862
743.745669387
733.922765183
724.249482413
714.767105603
705.516720641
696.536182317
687.856994841
679.502828952
671.489105415
663.822571194
656.50050809
649.50444794
642.750569295
635.696717261
635.078075374
634.905705741
634.89969378
634.960575357
634.923843624
634.851025345
634.764608782
634.68057732
634.593729896
634.492381746
634.367612287
634.221091463
634.057805239
633.88329158
633.707452855
633.540312332
633.384616073
633.226878052
633.046903442
632.853765463
632.690740403
632.566814341
632.443133953
632.352355187
632.323642637
632.203955859
631.960436021
632.037228747
632.090278592
632.128417737
632.16495268
632.198293728
632.225316411
632.250478497
632.27220784
632.29138558
632.308251158
632.322150399
632.33296097
632.341250893
632.346186346
632.349542285
1042.1669871
1041.57386858
1040.40874521
1038.64997547
1036.31184321
1033.40984051
1029.96255328
1025.9910543
1021.51838771
1016.5691043
1011.16889155
1005.34428417
999.12241036
992.530719118
985.596639656
978.347147951
970.808242158
963.004362498
954.95781842
946.688312881
938.212665056
929.544829271
920.696269267
911.676672949
902.494878484
893.159766026
883.680815688
874.068131111
864.332022791
854.482488659
844.528889286
834.479986483
824.344338826
814.130914658
803.849796132
793.512914131
783.134836221
772.733625465
762.331736195
751.956855883
741.642548087
731.428483572
721.359927435
711.486046551
701.856597444
692.517113631
683.503151973
674.838659679
666.536324892
658.598397305
651.013186213
643.711986635
636.176785054
635.238107097
635.522111698
635.662960249
635.719894171
635.736810532
635.702998217
635.640375986
635.557610005
635.466974647
635.367432859
635.251269408
635.111956599
634.951235119
634.771815123
634.577415934
634.376195075
634.175483401
633.977121487
633.773183579
633.553138167
633.323232618
633.107526724
632.9119296
632.720115314
632.546712353
632.407194184
632.28622991
632.222317671
632.130196241
631.887566014
631.909742372
631.985396644
632.03764452
632.072008859
632.110010179
632.141422277
632.167852978
632.190902567
632.210424338
632.225826267
632.237429538
632.24466024
632.249066838
1050.24788217
1049.61751678
1048.38408889
1046.52315769
1044.05123865
1040.98627865
1037.34969142
1033.16556516
1028.45998071
1023.26044292
1017.59549083
1011.49445637
1004.98728707
998.104332895
990.87601478
983.332326707
975.502170278
967.412563978
959.087817557
950.548799697
941.812462092
932.891787649
923.796297235
914.533138775
905.10858995
895.529558403
885.804498375
875.943279788
865.956200823
855.852868898
845.641508897
835.328960456
824.921277172
814.424628652
803.846228299
793.195211436
782.483586314
771.727354636
760.947788184
750.172757021
739.437953791
728.787776634
718.275382869
707.961105445
697.908028052
688.174398262
678.801722578
669.814298098
661.223198031
653.026123215
645.166864477
637.151383914
636.136167753
636.313618332
636.544087095
636.584575254
636.609909086
636.61246618
636.583164842
636.526284619
636.4466347
636.350326898
636.236786135
636.101936023
635.942985631
635.762515946
635.561953167
635.343962627
635.114846069
634.879797792
634.64043613
634.39345266
634.135425741
633.871621081
633.614647927
633.368661516
633.128252285
632.898457735
632.687061161
632.490678486
632.324872036
632.182583751
632.103053369
632.017448668
631.830798405
631.878868322
631.915039487
631.973629372
632.012224518
632.044782468
632.074784256
632.10055321
632.121459376
632.136540766
632.146584146
632.151910257
1058.96659694
1058.2935766
1056.98244426
1055.00549067
1052.3819746
1049.13288002
1045.28312733
1040.86048903
1035.89463781
1030.4164258
1024.45749991
1018.05018592
1011.22748024
1004.02297599
996.470584757
988.603977548
980.455733405
972.056251405
963.432543241
954.607089354
945.597002038
936.413784113
927.063957404
917.550703148
907.876339975
898.044961538
888.064095681
877.944247187
867.696722529
857.331377595
846.855315747
836.272907796
825.586846112
814.799588113
803.914583247
792.937204053
781.875781169
770.742996428
759.557641926
748.346594461
737.146888902
726.007746655
714.992000773
704.175635911
693.642570771
683.473531416
673.717426543
664.397475851
655.519117499
647.03185356
638.439186081
637.412191983
637.615758616
637.736510565
637.728688766
637.681805225
637.656973107
637.627650863
637.581274205
637.513197775
637.42258947
637.310192155
637.174608542
637.013841703
636.828850715
636.621562074
636.392808696
636.146184209
635.886437584
635.617472277
635.340913312
635.056012065
634.762581284
634.464683974
634.169146009
633.879393481
633.595699278
633.321773768
633.06154153
632.813861385
632.583328594
632.373726824
632.202094364
632.066162346
632.002061249
631.907440414
631.728548845
631.84212487
631.884600582
631.92174738
631.960246412
631.993492654
632.020417815
632.039849885
632.052759697
632.059095343
1068.36347596
1067.64138248
1066.24145491
1064.13224181
1061.33634142
1057.87851576
1053.78812783
1049.09755489
1043.84076047
1038.0523386
1031.76718972
1025.02067536
1017.84894318
1010.28912422
1002.37918475
994.157314863
985.660837884
976.924706154
967.97973222
958.850791758
949.555350622
940.102781095
930.495003261
920.72887947
910.800330774
900.709157995
890.462354644
880.072972248
869.555392239
858.920943487
848.175632611
837.320419506
826.35329155
815.271784545
804.074592638
792.762246461
781.338001119
769.809482861
758.191053219
746.506560947
734.792470715
723.101659812
711.507582834
700.107385837
689.017880251
678.364136866
668.201667166
658.541590227
649.331845441
640.062198779
639.001403488
639.28551752
639.379713718
639.219474234
639.052377963
638.927366471
638.841050964
638.765255187
638.684327875
638.587930452
638.470270522
638.328158247
638.159202472
637.962722965
637.742276657
637.499868256
637.236430871
636.956287252
636.663383237
636.360852836
636.050224077
635.73176492
635.406204134
635.076326147
634.746090984
634.418347981
634.095198562
633.779989235
633.475880878
633.184518155
632.909177542
632.652950767
632.42162922
632.221634782
632.067150308
631.943133623
631.871757492
631.785869848
631.758266533
631.796755107
631.848424206
631.890606777
631.924006704
631.948558271
631.964294154
631.971941043
1078.48456019
1077.70580071
1076.20376622
1073.94313436
1070.95036681
1067.25490979
1062.8919416
1057.89979875
1052.31765891
1046.18420715
1039.53749976
1032.41566782
1024.85785824
1016.90491544
1008.59947808
999.985336067
991.106033299
982.002799762
972.711978258
963.262226179
953.67194973
943.947678833
934.084356887
924.068605881
913.885522316
903.527752759
893.002755296
882.330238543
871.531704808
860.622126399
849.606261036
838.479818821
827.233783478
815.85917011
804.349067134
792.698174889
780.903023691
768.96386466
756.887880981
744.692733133
732.410604507
720.09420038
707.825499021
695.727601456
683.967785824
672.772731664
662.186695738
652.135669436
642.08007048
640.910654327
641.253777887
641.360480543
641.089925822
640.74482109
640.471837465
640.272633984
640.124301543
639.996999928
639.871175954
639.733024124
639.573801639
639.388194018
639.173425727
638.930070911
638.663698832
638.377313468
638.072339093
637.753737661
637.425171268
637.089203989
636.746943631
636.398592815
636.044563724
635.686337924
635.326153202
634.96620381
634.608802648
634.256906005
633.913546584
633.581630568
633.26485589