/*--------------------------------*- C++ -*----------------------------------*\
| =========                 |                                                 |
| \\      /  F ield         | OpenFOAM: The Open Source CFD Toolbox           |
|  \\    /   O peration     | Version:  v1906                                 |
|   \\  /    A nd           | Web:      www.OpenFOAM.com                      |
|    \\/     M anipulation  |                                                 |
\*---------------------------------------------------------------------------*/
FoamFile
{
    version     2.0;
    format      ascii;
    class       volScalarField;
    location    "773";
    object      pa;
}
// * * * * * * * * * * * * * * * * * * * * * * * * * * * * * * * * * * * * * //

dimensions      [0 2 -2 0 0 0 0];


internalField   nonuniform List<scalar> 
9216
(
976.295137522
975.930651217
975.190062576
974.070190565
972.574686229
970.707836703
968.474993469
965.882545556
962.937784001
959.648918818
956.024925862
952.075574868
947.811259755
943.243039465
938.382457936
933.241601555
927.832915388
922.169280555
916.263832527
910.130060217
903.781630555
897.232509337
890.49679444
883.588856311
876.523180185
869.314522298
861.977759855
854.528057477
846.980722274
839.351374
831.655802059
823.910131978
816.1306786
808.334101346
800.537250418
792.757301792
785.011590356
777.317717645
769.69336863
762.15638669
754.724572934
747.415726387
740.247428106
733.237048002
726.401518257
719.757309976
713.320199587
707.105216774
701.126402758
695.396727379
689.927833704
684.729923985
679.811490575
675.179188833
670.837578141
666.789034176
663.033550444
659.568757405
656.389818386
653.489578602
650.858545063
648.485171172
646.355961435
644.455965009
642.769090031
641.278784219
639.968309182
638.821193623
637.821249028
636.952885382
636.201151553
635.552055199
634.992579389
634.510906907
634.096368901
633.739562257
633.43222081
633.167209288
632.938332282
632.740282427
632.568469568
632.418973412
632.2883903
632.173779183
632.072130829
631.984260834
631.912087758
631.855039404
631.811814084
631.780328728
631.75838795
631.743588047
631.733844079
631.728012535
631.72511042
631.72410621
976.659132508
976.293495291
975.551651213
974.428723302
972.928921699
971.056672957
968.817424767
966.217623728
963.264640064
959.966738031
956.332977941
952.373184029
948.097837113
943.51804641
938.645439706
933.492144483
928.070681621
922.393960262
916.475179978
910.327842331
903.965664809
897.402610156
890.65281335
883.730627652
876.650563865
869.427350141
862.075881035
854.611286613
847.048887568
839.404268176
831.693232705
823.931875389
816.136533123
808.323846271
800.510700361
792.714269715
784.951942962
777.241342633
769.600229284
762.046492365
754.598030841
747.272714116
740.088240819
733.062072416
726.211274802
719.55242914
713.101460466
706.873527875
700.882839109
695.142516275
689.664389165
684.458831082
679.534528224
674.898297285
670.554857049
666.506680293
662.753833989
659.293941442
656.122139685
653.231161682
650.611381858
648.250997974
646.13620726
644.251598829
642.580634097
641.106331208
639.811699674
638.680062489
637.695092329
636.841001381
636.102693245
635.466018734
634.917884373
634.446400299
634.040900957
633.692003731
633.391536579
633.132459662
632.908700738
632.715048607
632.547021779
632.400792796
632.273079283
632.16110172
632.062439985
631.976374417
631.905265105
631.849951269
631.807698048
631.776825633
631.755705046
631.741521218
631.732062876
631.726614271
631.724036536
631.72300637
977.401074281
977.032272216
976.28620129
975.156931651
973.648712606
971.766028116
969.514425285
966.900454174
963.931608034
960.616270204
956.963636633
952.983656431
948.686948259
944.084741347
939.188792758
934.011335005
928.565000192
922.862779378
916.917958422
910.744092707
904.354957721
897.764540763
890.987007125
884.03670808
876.928161295
869.676072402
862.295326497
854.801019084
847.208454313
839.533180112
831.790988177
823.997946931
816.170396895
808.324975554
800.478601161
792.648481221
784.852077883
777.107093082
769.431409413
761.843046893
754.36007639
747.000547035
739.782373943
732.723240125
725.840464461
719.150884803
712.670712341
706.415399545
700.399480111
694.63641559
689.138408841
683.916214929
678.978915561
674.333694851
669.985597957
665.937331293
662.189098016
658.738534297
655.580700312
652.708140275
650.110946274
647.776843231
645.691363963
643.83813597
642.199572468
640.757806587
639.495314583
638.395101271
637.440542406
636.61546901
635.904430826
635.292981981
634.767838014
634.316987055
633.929738078
633.596775403
633.310111963
633.062940029
632.849430088
632.664581201
632.504109607
632.364369213
632.242244792
632.135091517
632.040521552
631.957999822
631.89138488
631.839677531
631.799338525
631.770106782
631.750614464
631.737279868
631.728680023
631.723826192
631.721298663
631.72005362
978.528464039
978.155996872
977.403417617
976.264386342
974.743238814
972.84456181
970.574042888
967.938392838
964.945286102
961.603296142
957.921820696
953.911010043
949.581687353
944.94527655
940.013724869
934.799436988
929.315206134
923.57416018
917.589706426
911.375493785
904.94537445
898.31338407
891.493721021
884.500743915
877.348966711
870.053070624
862.627911432
855.088541392
847.450224035
839.728460876
831.939008645
824.097904448
816.221478391
808.326371472
800.429536439
792.548239235
784.700040039
776.902770404
769.174487051
761.533418667
753.997888578
746.586230006
739.316679719
732.207267185
725.27568762
718.539175219
712.014365563
705.717159828
699.662577044
693.864600634
688.336000805
683.088134382
678.13070556
673.471497619
669.11608344
665.067555566
661.326326691
657.890049606
654.753660917
651.909446263
649.34712197
647.053753639
645.013888997
643.209515481
641.621154889
640.229454541
639.016164552
637.964041345
637.056069629
636.275455479
635.606137421
635.033205023
634.543079483
634.123568657
633.763919425
633.454925901
633.188926056
632.95952898
632.761300911
632.589564208
632.440320712
632.310203225
632.19633406
632.096250584
632.00755719
631.931076202
631.870498266
631.8231167
631.786922614
631.760652439
631.742560056
631.730565139
631.723025557
631.718614905
631.716182474
631.714990909
980.044286553
979.667111634
978.90572932
977.753466482
976.214797599
974.294461532
971.998337837
969.333358749
966.307445006
962.929432661
959.208994231
955.156558295
950.78322623
946.100691409
941.121159008
935.857271972
930.322040767
924.528782474
918.491066158
912.222669807
905.737544909
899.049793438
892.173652341
885.123489735
877.913807085
870.559251179
863.074629736
855.474934319
847.775364277
839.991355265
832.138606573
824.233108827
816.291167264
808.32942312
800.364865248
792.414834744
784.497015483
776.62941258
768.83031252
761.118227626
753.511820389
746.029811998
738.690873327
731.513504889
724.515906615
717.715844896
711.130517689
704.776421906
698.669218562
692.823590603
687.253078492
681.969878778
676.984584223
672.305861179
667.940068772
663.890881049
660.158996928
656.742058754
653.634819957
650.82924486
648.314707964
646.077518194
644.101107919
642.364809936
640.84583102
639.522443953
638.375726848
637.388747414
636.544098475
635.823939397
635.211213939
634.69035853
634.247428899
633.869996125
633.547164178
633.269854052
633.030964118
632.824810429
632.646557088
632.491941871
632.357316518
632.23971467
632.136582386
632.045703027
631.964776417
631.896447484
631.843342448
631.801733916
631.769657243
631.7466816
631.731251134
631.721035339
631.714419879
631.710530396
631.708344281
631.707259321
981.953172441
981.570093758
980.797544004
979.628468678
978.067532815
976.119680615
973.791042501
971.088838964
968.021309366
964.597630349
960.827829356
956.722695587
952.293689279
947.552852565
942.512722544
937.186249893
931.586723325
925.727703105
919.622963396
913.286446189
906.73222575
899.974485536
893.027505494
885.90566081
878.623429187
871.195407162
863.636332206
855.961111045
848.184851023
840.322894961
832.390857127
824.404658248
816.380558534
808.335187769
800.285567154
792.249122451
784.243683512
776.287468795
768.399050512
760.59729989
752.901310023
745.3302983
737.903489281
730.639983828
723.55861916
716.677828415
710.015505108
703.588878247
697.414395307
691.507606482
685.883027583
680.553955315
675.532193386
670.827658941
666.447863458
662.39733071
658.677123753
655.284755787
652.214679418
649.45844027
647.005381387
644.841076427
642.948507514
641.302559492
639.874375555
638.638312217
637.575481279
636.671138305
635.907497874
635.264725931
634.724116358
634.269281583
633.885962328
633.56146415
633.284527865
633.046108268
632.840108543
632.662080353
632.508061089
632.374212434
632.257211691
632.154695219
632.064531838
631.984775088
631.913927465
631.855596867
631.809892276
631.77414124
631.747415522
631.729158886
631.716316936
631.707972809
631.702722028
631.699179387
631.697243436
631.696269158
984.260922404
983.87064598
983.084453453
981.894826379
980.306673033
978.325198745
975.956850473
973.209210803
970.090918281
966.611575801
962.781654371
958.612393667
954.115701619
949.304055217
944.190404709
938.788083285
933.110724392
927.172188506
920.986501167
914.567803476
907.930315993
901.088316103
894.056128604
886.848128337
879.478753592
871.962528438
864.314092435
856.548235987
848.679940162
840.724419559
832.697168205
824.614003938
816.491113129
808.345092312
800.192982834
792.052295802
783.941023382
775.877632266
767.881035654
759.97054041
752.165767728
744.486547214
736.952787283
729.584327503
722.400782021
715.421385172
708.664851847
702.149260992
695.89196761
689.909530043
684.217632915
678.830951455
673.762893697
669.025135386
664.626891351
660.573959462
656.867852574
653.505556772
650.481028309
647.784993125
645.407763452
643.334044095
641.549856981
640.021998941
638.709621783
637.580090021
636.617027937
635.813206651
635.149961189
634.603031655
634.150904856
633.776401558
633.465374064
633.204934336
632.982868833
632.789661016
632.621183681
632.475300203
632.349295271
632.239485231
632.142571669
632.057281874
631.981984714
631.914952542
631.855844208
631.808029579
631.770543121
631.742039018
631.721531765
631.707311149
631.697258187
631.690806215
631.687121354
631.684374496
631.682869873
631.682131029
986.974608888
986.575752978
985.773302086
984.55918223
982.938599989
980.917083632
978.501469716
975.699785761
972.521159619
968.975716094
965.074468414
960.829206581
956.252384674
951.357009891
946.156535258
940.664758863
934.895731536
928.863675809
922.582917727
916.067833747
909.332813211
902.392237256
895.260472958
887.951881946
880.480840889
872.861772206
865.109182248
857.237705727
849.262154525
841.197570442
833.059281784
824.862959507
816.624675383
808.360958709
800.088846577
791.825925078
783.590355734
775.400882265
767.276811843
759.237966487
751.304600728
743.497285156
735.836757899
728.343751997
721.038810454
713.942107401
707.073294107
700.451391578
694.094736847
688.020986442
682.247138871
676.78952136
671.663619681
666.883586889
662.461232062
658.404423436
654.715206558
651.389017161
648.41896466
645.79348759
643.506756755
641.540276174
639.896350494
638.52482192
637.359416815
636.353549693
635.500491071
634.815561573
634.275633352
633.845599482
633.499276263
633.219519541
632.993752515
632.809302424
632.651416129
632.508184754
632.379764024
632.268795485
632.174266513
632.091580144
632.016337117
631.949876004
631.891023625
631.838050342
631.791957945
631.755116178
631.726763418
631.705710434
631.691035025
631.680726489
631.674292864
631.669980015
631.667600023
631.666337788
631.665400233
631.665005858
990.102655359
989.693739201
988.872245795
987.629442829
985.970898644
983.902533507
981.431656691
978.566834238
975.317785302
971.695264225
967.710937497
963.377257252
958.707334183
953.714812155
948.413747354
942.818494317
936.943602066
930.803722771
924.413536114
917.787691109
910.940767361
903.887255597
896.641557221
889.218000327
881.630869942
873.894448748
866.023065987
858.031151811
849.933296502
841.744313473
833.479308118
825.153746811
816.783531467
808.385074193
799.975367793
791.572047689
783.193439199
774.858582486
766.587228143
758.399795604
750.317288973
742.361166729
734.553167348
726.915098693
719.468608446
712.234960057
705.234848845
698.488289056
692.014607408
685.832543403
679.960447008
674.416498239
669.218780811
664.384937726
659.930910657
655.868244198
652.199923759
648.916850508
646.011637059
643.464847038
641.283390705
639.430569104
637.973005728
636.818139462
635.843296551
634.969962929
634.221081421
633.677863683
633.293541032
633.005911315
632.782719755
632.610582865
632.482329257
632.387110224
632.303686555
632.211673254
632.121329448
632.046241675
631.987181982
631.935412473
631.881635101
631.834948145
631.793904442
631.755567325
631.722996965
631.697352635
631.678486941
631.665157948
631.656338023
631.650667898
631.647412415
631.645931293
631.645238783
631.64549499
631.645270088
631.64529596
993.654927431
993.23435549
992.390830037
991.114851678
989.412421608
987.289932232
984.755260492
981.817618164
978.487431775
974.776207522
970.696390696
966.261222014
961.484593292
956.380905402
950.964930773
945.251683856
939.256302389
932.993943614
926.479698479
919.728527508
912.755219911
905.574377132
898.200419136
890.647611147
882.930106093
875.061998734
867.057386808
858.930437092
850.695454902
842.366958076
833.95975798
825.48904307
816.970471816
808.420269578
799.855323879
791.293273784
782.752584605
774.25259896
765.813553292
757.456549422
749.203470776
741.076836766
733.099593388
725.294848677
717.685572232
710.294296238
703.142864975
696.252296127
689.642804628
683.334032235
677.345497876
671.697199719
666.4102636
661.507148606
657.010561296
652.939429234
649.299356527
646.068217004
643.242640674
640.775910375
638.721552284
636.948293685
635.760231718
634.930639708
634.210482044
633.418896465
632.647784508
632.260802313
632.099522676
632.003881793
631.932400072
631.888842228
631.88472388
631.916872212
631.945053563
631.909984854
631.849431899
631.810049561
631.793493581
631.779134556
631.741170302
631.714529491
631.693352895
631.668563147
631.649701061
631.634981466
631.625874764
631.620604807
631.61829902
631.617738446
631.617848179
631.618869139
631.620535788
631.622238488
631.623027312
631.623475897
997.642840329
997.208877542
996.340086093
995.026076144
993.273366531
991.08891439
988.481274827
985.460428798
982.037643496
978.22531646
974.036814704
969.486310879
964.588619399
959.359034676
953.8131744
947.966830639
941.835833191
935.435929287
928.782685159
921.891413345
914.777129638
907.45454018
899.938057855
892.241843153
884.379863853
876.365965886
868.213949931
859.937649527
851.551011005
843.068176763
834.503578322
825.872034269
817.188864472
808.470012818
799.732173924
790.992917324
782.270799438
773.585450607
764.957623639
756.409187548
747.963051144
739.643002273
731.473455621
723.47911249
715.684555449
708.113823381
700.790041232
693.73519637
686.970161387
680.515051102
674.389958097
668.616174642
663.217792427
658.223473774
653.666981943
649.583492996
645.988108387
642.819041711
640.104700296
637.694251271
635.796476146
633.684636836
632.924136371
632.720537734
632.511243736
632.159359678
631.968163705
631.927489965
631.933499131
631.932058775
631.920786249
631.915324586
631.92347333
631.921992194
631.838298211
631.647471237
631.529066313
631.518550888
631.573809202
631.631422455
631.593897117
631.58968105
631.594443163
631.577765258
631.573708188
631.569358962
631.570346737
631.57262663
631.576877739
631.581647723
631.586160914
631.5901437
631.593838315
631.597167056
631.599253345
631.60016038
1002.07948686
1001.63023272
1000.73264607
999.37531303
997.565367898
995.310442465
992.619898845
989.504630785
985.976899716
982.050154444
977.738846489
973.05824365
968.024243767
962.653190938
956.961695904
950.966464336
944.684137144
938.131149458
931.32361459
924.277240293
917.00728185
909.528534839
901.855365084
894.001770294
885.981463077
877.807964956
869.49470123
861.055092225
852.502640923
843.851022896
835.114188133
826.30647304
817.442737387
808.538518136
799.610194398
790.675156768
781.751968106
772.860501147
764.022034015
755.259282041
746.596341216
738.058519403
729.672035518
721.463581296
713.459763113
705.686480987
698.168345172
690.928273769
683.987436152
677.36565199
671.082423829
665.158760208
659.620276983
654.501927013
649.854240572
645.749746195
642.243213296
639.134328115
636.580096095
633.852925614
632.705857188
632.404758858
632.410868573
632.459091801
632.428664812
632.332102925
632.231941063
632.163761317
632.118069452
632.07617899
632.035266471
631.99830256
631.963604123
631.916657705
631.837593176
631.743340085
631.67974462
631.673587332
631.705591011
631.646383415
631.41070201
631.434319669
631.503849488
631.47991909
631.497138574
631.500472945
631.512436728
631.521476156
631.53298867
631.543614671
631.552702173
631.560381338
631.566430047
631.571279735
631.574805056
631.576321491
1006.97979117
1006.51314356
1005.58288163
1004.17641292
1002.30160594
999.966897018
997.182607797
993.960712522
990.314644815
986.259088106
981.8097641
976.983221061
971.796623572
966.267543999
960.413757141
954.253040493
947.802986116
941.080831554
934.103320359
926.886601739
919.446178443
911.7969064
903.95304489
895.92834756
887.736179937
879.389644923
870.901701467
862.285267807
853.553312442
844.718943065
835.795511809
826.796737722
817.736868523
808.630870189
799.494639518
790.345229986
781.201077007
772.082204106
763.010387603
754.00924993
745.104246708
736.322507161
727.692489375
719.243422613
711.004540081
703.004159691
695.268749936
687.822195812
680.685519357
673.877203806
667.414227179
661.314239095
655.599862687
650.308020703
645.50675942
641.348938424
638.01957418
634.58524451
632.815513225
632.690168692
632.688799713
632.684113295
632.708160769
632.72407401
632.699029019
632.634383335
632.548285251
632.460931902
632.382540463
632.31385977
632.253466272
632.198355635
632.143760058
632.07818085
631.989545719
631.88736032
631.79821002
631.74034644
631.699129041
631.627512043
631.57589245
631.591460819
631.532462336
631.340834581
631.417964376
631.424640415
631.453389044
631.466839687
631.48814422
631.505388269
631.519147705
631.530330065
631.539213243
631.545804055
631.550739393
631.552905712
1012.36069196
1011.87430803
1010.90706781
1009.44502857
1007.49693379
1005.07218142
1002.18223375
998.840343065
995.06132172
990.861298184
986.257475113
981.267891136
975.911185426
970.206363511
964.172562614
957.828818989
951.193842801
944.285812001
937.12219892
929.719646012
922.093903962
914.259840971
906.231521235
898.022340471
889.645194139
881.112649681
872.437095747
863.630855945
854.706272215
845.675779909
836.552004358
827.347888507
818.076879776
808.753162322
799.391927134
790.00966901
780.624493815
771.256416951
761.927625985
752.662670982
743.488533584
734.434514077
725.531866123
716.813112821
708.311007864
700.057182278
692.08065336
684.406514418
677.055297162
670.043000745
663.381708632
657.0808984
651.150757656
645.607637056
640.463190293
635.754460574
633.303985871
633.144478679
633.096529243
633.096622717
633.120790275
633.119336134
633.110880135
633.098420017
633.065865796
633.002931096
632.915718359
632.818454315
632.722943838
632.635677296
632.555446253
632.478012934
632.399260696
632.310901104
632.205796016
632.089900694
631.980945016
631.89105737
631.812615679
631.725296359
631.648808526
631.596789985
631.537455603
631.517384803
631.485098581
631.328812961
631.39384974
631.405250497
631.444143057
631.468729534
631.486844714
631.501437086
631.513088458
631.52170885
631.52789437
631.530772573
1018.24136313
1017.73260563
1016.72357909
1015.19878851
1013.16802626
1010.64184199
1007.63305678
1004.15643492
1000.22840808
995.866790317
991.090503108
985.919310606
980.373560983
974.47392683
968.241139608
961.695717158
954.857691632
947.74635165
940.380020495
932.775894067
924.949962446
916.91702976
908.690834364
900.284250866
891.709537561
882.978579266
874.10308001
865.094681303
855.965018768
846.725757685
837.388661299
827.965712862
818.469329437
808.912644744
799.309850235
789.676578267
780.030311972
770.390802774
760.780468494
751.224728966
741.752217888
732.394783673
723.187165455
714.166210016
705.369512219
696.833448829
688.59081487
680.668545035
673.086644582
665.857971718
658.988206382
652.475882028
646.308619279
640.421544556
634.41181534
633.771348677
633.600116791
633.625864441
633.661367473
633.660657345
633.637456407
633.610782837
633.585322864
633.556845272
633.512521607
633.443632901
633.352034241
633.246768398
633.138916797
633.033883233
632.930411293
632.826624224
632.719422831
632.603876995
632.476982336
632.343308812
632.213772438
632.096036424
631.987115218
631.878523496
631.776835258
631.690146802
631.608340373
631.545340814
631.483792718
631.46480322
631.436755928
631.316812563
631.403711676
631.436247876
631.456772493
631.474438653
631.489104968
631.499892652
631.507171736
631.510803592
1024.64347761
1024.10935337
1023.05312101
1021.45750257
1019.33355172
1016.69320449
1013.55090575
1009.92321151
1005.82845361
1001.28640546
996.317972132
990.94490297
985.18951532
979.07441472
972.622197851
965.855133998
958.794831017
951.461906024
943.875690858
936.054011039
928.013075809
919.767508864
911.330527256
902.714246383
893.930052514
884.988959728
875.901866817
866.679669735
857.333252905
847.873440508
838.311001117
828.656750082
818.921793512
809.117876323
799.257809938
789.355958292
779.428769295
769.495340646
759.577996306
749.702830758
739.900150146
730.204699629
720.655506923
711.2951048
702.167854488
693.317148373
684.781675433
676.591319204
668.765888819
661.315301275
654.240409125
647.530285801
641.124928731
634.576810011
633.819402165
634.066383764
634.206739231
634.271344899
634.265687957
634.246594581
634.21474101
634.179429619
634.1417118
634.097289238
634.037929247
633.958110832
633.857997002
633.742994205
633.622094153
633.498345081
633.370874697
633.239613616
633.102951612
632.958672702
632.806285405
632.649509145
632.495137825
632.348153332
632.208308691
632.073316697
631.946627807
631.832187177
631.726660603
631.63349372
631.551432908
631.492987515
631.439829014
631.421917626
631.412133693
631.416297786
631.429597587
631.449804911
631.468122008
631.481201433
631.48965837
631.493931129
1031.59152704
1031.02860319
1029.91900735
1028.2434022
1026.01437068
1023.24552693
1019.95326684
1016.15627618
1011.87511617
1007.1318284
1001.94959046
996.352415332
990.364871998
984.011796692
977.317969175
970.307740456
963.004618328
955.430835754
947.606947719
939.551513947
931.280931322
922.809468363
914.14952695
905.312105621
896.307376935
887.14523488
877.835656915
868.3887879
858.814793984
849.123646228
839.325004092
829.42827915
819.442923365
809.378868258
799.247061926
789.060070582
778.832745827
768.582963209
758.332422492
748.107473
737.939898599
727.867541646
717.93454534
708.190838218
698.690304395
689.486954249
680.629018774
672.150770525
664.071933232
656.400395035
649.131897866
642.215041713
635.215732325
634.362932891
634.554615519
634.807743226
634.890315746
634.930804185
634.922743602
634.898291359
634.862333173
634.819953268
634.770854024
634.711800335
634.637748543
634.545017672
634.43314723
634.306311491
634.170442547
634.026628752
633.874976856
633.716289151
633.550327421
633.376707229
633.196256042
633.012112391
632.828929235
632.650442379
632.477990778
632.312194967
632.15574323
632.011117589
631.878287602
631.759112375
631.654420417
631.567318169
631.496501919
631.453428695
631.439752927
631.416942349
631.39370118
631.425408118
631.451138788
631.466754975
631.476312599
631.481039159
1039.1132076
1038.51751018
1037.34748946
1035.58142427
1033.23376309
1030.32016763
1026.85939514
1022.87267678
1018.38319131
1013.41559268
1007.99563493
1002.14987968
995.905441031
989.289712737
982.330028938
975.053232853
967.485155402
959.650038482
951.569965768
943.264389776
934.749856228
926.040022279
917.146027561
908.077202632
898.841986186
889.448806136
879.906626423
870.22495996
860.413441195
850.481291111
840.436982625
830.288250262
820.042461813
809.707203968
799.290960068
788.803830911
778.258334885
767.670332321
757.060086198
746.453440165
735.883075128
725.389759851
715.023370616
704.843170257
694.916404604
685.313483913
676.099010924
667.312878912
658.97412261
651.085278402
643.598532549
636.071416287
635.18861304
635.384966923
635.57286347
635.654967657
635.675209071
635.679996001
635.65829718
635.623907009
635.580132094
635.529045813
635.468921948
635.396635469
635.308493997
635.201597417
635.075489846
634.934704848
634.78172778
634.616312715
634.440139978
634.254317401
634.059509257
633.856386728
633.646407896
633.432328859
633.217745757
633.005909092
632.79906768
632.599205437
632.408976887
632.230779729
632.066143017
631.917055518
631.785108049
631.672295642
631.57935808
631.50939804
631.463920478
631.428030204
631.405238347
631.404023056
631.442133935
631.458213174
631.467906847
631.472772232
1047.23989243
1046.60676969
1045.36815259
1043.49954427
1041.01768835
1037.94076534
1034.290421
1030.09095481
1025.36862616
1020.15107737
1014.46693927
1008.34558729
1001.81696332
994.911363269
987.659107631
980.090047099
972.232901498
964.114474465
955.758833157
947.186580955
938.414384485
929.454922288
920.317387904
911.00857094
901.534347586
891.901165967
882.116948215
872.190946754
862.132745604
851.951123939
841.653349259
831.245134501
820.731198493
810.116113581
799.405172633
788.605203156
777.725463584
766.778741108
755.78269223
744.76141678
733.747289281
722.783086606
711.924317943
701.24127894
690.819560671
680.7553093
671.144204078
662.031866367
653.429048871
645.287931733
637.145226236
636.222908398
636.47455796
636.642451653
636.63339053
636.596680137
636.556992312
636.517947814
636.471542697
636.421716858
636.366875937
636.305069606
636.232808859
636.146540565
636.042944136
635.919543653
635.776353569
635.618022342
635.445151783
635.257100867
635.056152329
634.843750978
634.62106622
634.389257558
634.14997291
633.905635438
633.659231678
633.413754815
633.171896338
632.936312154
632.709902267
632.495439921
632.295384864
632.112255473
631.948361741
631.805921185
631.68627029
631.590623196
631.518212652
631.462544745
631.424419302
631.41622708
631.452508716
631.457708801
631.464710458
631.469385113
1056.00720829
1055.33116269
1054.01439129
1052.02917212
1049.39508184
1046.13342594
1042.26943518
1037.83115901
1032.84850063
1027.35248904
1021.37489088
1014.94809285
1008.10509361
1000.87943133
993.304908626
985.415038156
977.242197634
968.816549414
960.164841373
951.309270736
942.266653097
933.048183379
923.660060906
914.10511961
904.385288819
894.504209981
884.468875535
874.28915848
863.975628352
853.537284078
842.980234074
832.30766642
821.520846926
810.620480284
799.607834444
788.485546699
777.258508203
765.935091907
754.528769021
743.060061373
731.558935384
720.067947602
708.646463288
697.375934476
686.365565676
675.751528091
665.69809999
656.244832627
647.335612605
638.476328434
637.474107343
637.777144614
637.95825187
637.875667228
637.728165067
637.604972603
637.506042234
637.425130582
637.352941429
637.28538771
637.216306026
637.140401449
637.052671724
636.949020863
636.826131179
636.682024006
636.517921816
636.337847642
636.141557906
635.929180588
635.703181603
635.465185048
635.216477049
634.958245411
634.691957204
634.419586947
634.143571062
633.86657523
633.591350413
633.320807186
633.058077571
632.806354073
632.568796592
632.348587256
632.148774467
631.972136114
631.820703201
631.695679103
631.596391966
631.519705432
631.46508086
631.435382123
631.424243493
631.45364136
631.463474615
631.470294627
1065.45574609
1064.73022706
1063.32398334
1061.20562409
1058.39819773
1054.92690693
1050.82152588
1046.11478761
1040.84094593
1035.03481501
1028.73144458
1021.96627456
1014.7754613
1007.19607706
999.265965781
991.023138036
982.504688808
973.745304049
964.775503635
955.619856681
946.295518816
936.811554519
927.16957648
917.366127206
907.396771177
897.260883144
886.964932092
876.521333219
865.943722588
855.24256889
844.422888202
833.484462772
822.423843108
811.236758931
799.919587453
788.469843897
776.886811287
765.172833682
753.335222336
741.388472597
729.356945832
717.278795263
705.212199946
693.245262997
681.512407774
670.207001497
659.661350141
649.821220679
640.118721852
638.96281094
639.27796002
639.471082593
639.334886821
639.080842263
638.839955565
638.648813967
638.501392759
638.385976628
638.289368399
638.201776603
638.113973329
638.018604648
637.909745383
637.782939253
637.634892824
637.464413688
637.274850863
637.068164569
636.844121991
636.605410834
636.354254205
636.092212052
635.820324002
635.539401758
635.250377184
634.954551862
634.653670615
634.349866578
634.045609364
633.743719322
633.447366522
633.159989432
632.885226242
632.626865423
632.388690442
632.174245043
631.986430985
631.827173954
631.696856162
631.594324015
631.518588799
631.467443969
631.434311135
631.430638845
631.463611929
631.477425083
1075.63192085
1074.84913471
1073.33977003
1071.06869644
1068.06301946
1064.35278894
1059.97371938
1054.9645944
1049.36494633
1043.21372524
1036.5491662
1029.40949522
1021.83387203
1013.86307431
1005.53959901
996.907026921
988.00863631
978.885349278
969.57317549
960.100432497
950.485197526
940.73369524
930.840589644
920.79223437
910.573432151
900.17645755
889.608267631
878.88793152
868.036202957
857.067215381
845.98478867
834.783538611
823.453110395
811.982804084
800.363447201
788.586707119
776.644962699
764.532659192
752.248692869
739.798707578
727.197332167
714.471821891
701.668970938
688.868555862
676.215978762
663.948861404
652.831994683
642.122887385
640.700023372
640.952237845
641.142452031
640.960940412
640.615833265
640.257589729
639.952083116
639.713778286
639.530687118
639.385966349
639.263574798
639.150934408
639.037548577
638.915299482
638.777969757
638.621007189
638.44131903
638.238464358
638.016714322
637.777898157
637.523136778
637.256483916
636.980438643
636.696419093
636.404960755
636.106152736
635.800061158
635.487052734
635.167966371
634.844164974
634.517540383
634.190515853