/*--------------------------------*- C++ -*----------------------------------*\
| =========                 |                                                 |
| \\      /  F ield         | OpenFOAM: The Open Source CFD Toolbox           |
|  \\    /   O peration     | Version:  v1906                                 |
|   \\  /    A nd           | Web:      www.OpenFOAM.com                      |
|    \\/     M anipulation  |                                                 |
\*---------------------------------------------------------------------------*/
FoamFile
{
    version     2.0;
    format      ascii;
    class       volVectorField;
    location    "992";
    object      U;
}
// * * * * * * * * * * * * * * * * * * * * * * * * * * * * * * * * * * * * * //

dimensions      [0 1 -1 0 0 0 0];


internalField   nonuniform List<vector> 
9216
(
(0.00156682735017 -0.00156852928834 0)
(0.0016068264875 -0.00488819097956 6.54939605751e-28)
(0.00159551820485 -0.00821602615467 1.08838553861e-31)
(0.00157236816265 -0.0115238816547 0)
(0.00154127929148 -0.0147730637926 0)
(0.00150298291306 -0.0179496276624 0)
(0.00145841789838 -0.0210395003343 0)
(0.00140828039238 -0.0240303974457 0)
(0.00135347364353 -0.0269115991922 0)
(0.0012946652592 -0.029674116294 0)
(0.00123275525265 -0.032310509422 0)
(0.00116832414293 -0.0348149801416 0)
(0.00110220170515 -0.0371831122955 0)
(0.00103482177088 -0.0394119033928 0)
(0.000966900355676 -0.0414994564706 0)
(0.000898696391847 -0.0434449872861 0)
(0.000830800946092 -0.045248500284 0)
(0.000763298963148 -0.0469107999362 0)
(0.000696668106947 -0.0484331771235 0)
(0.000630837607184 -0.0498174432153 0)
(0.000566196063242 -0.0510656397292 0)
(0.000502543687144 -0.0521801004243 0)
(0.000440207133435 -0.0531631905477 0)
(0.00037888453976 -0.0540173970521 0)
(0.000318866768948 -0.0547450963304 0)
(0.000259775320819 -0.0553486664971 0)
(0.000201887394909 -0.0558302839612 0)
(0.00014477008594 -0.0561920538553 0)
(8.87072817349e-05 -0.0564358340472 0)
(3.32341171666e-05 -0.0565633773173 0)
(-2.13407546932e-05 -0.0565761904298 0)
(-7.54960126577e-05 -0.0564756828169 0)
(-0.000128879329302 -0.0562630478583 0)
(-0.000181952903954 -0.0559394407345 0)
(-0.000234300085022 -0.0555058973495 0)
(-0.000286346951939 -0.0549635049803 0)
(-0.000337596151258 -0.0543133674906 0)
(-0.00038841618604 -0.0535567714893 0)
(-0.000438220449406 -0.0526951879887 0)
(-0.000487311230829 -0.0517304215807 0)
(-0.000535020098967 -0.0506646327152 0)
(-0.000581593513843 -0.049500443625 0)
(-0.000626313537483 -0.0482409616338 0)
(-0.000669406161582 -0.0468898138149 0)
(-0.000710158708335 -0.0454511478948 0)
(-0.000748827343407 -0.0439295730234 0)
(-0.000784765421481 -0.0423301369713 0)
(-0.000818297222829 -0.0406581846062 0)
(-0.000848865815958 -0.0389193489455 0)
(-0.000876836124858 -0.0371193913541 0)
(-0.000901672849544 -0.0352643074224 0)
(-0.000923638992529 -0.0333602728209 0)
(-0.000942029612624 -0.0314139953683 0)
(-0.000956764466613 -0.0294328794097 0)
(-0.000966750929284 -0.0274256618268 0)
(-0.00097143430164 -0.0254027015043 0)
(-0.000969417945543 -0.0233765686846 0)
(-0.000960060565763 -0.0213619140691 0)
(-0.00094236439317 -0.0193752962438 0)
(-0.000916427575932 -0.0174341013906 0)
(-0.000882105591126 -0.015555866016 0)
(-0.000840167746568 -0.0137572995785 0)
(-0.000790805076551 -0.012054209429 0)
(-0.000735051993682 -0.0104610536788 0)
(-0.000673553631144 -0.00899055427014 0)
(-0.000607714317747 -0.00765333239436 0)
(-0.000539487964296 -0.00645672930796 0)
(-0.000471921270139 -0.0054026307706 0)
(-0.000407624529866 -0.00448688027847 0)
(-0.000348759601926 -0.00370005836546 0)
(-0.000295858133934 -0.00302992778605 0)
(-0.000248594773546 -0.00246411576991 0)
(-0.00020607646681 -0.00199182501202 0)
(-0.000168241554055 -0.00160332132359 0)
(-0.000135343064105 -0.0012886319924 0)
(-0.000107894699693 -0.00103678517767 0)
(-8.56933089949e-05 -0.000836479255704 0)
(-6.8173211108e-05 -0.00067719345218 0)
(-5.41533349641e-05 -0.00055038835997 0)
(-4.26414003715e-05 -0.000449894596646 0)
(-3.29395593671e-05 -0.000371407294339 0)
(-2.49903024577e-05 -0.000311258761103 0)
(-1.85277387239e-05 -0.000266052622932 0)
(-1.32936903766e-05 -0.000233089006419 0)
(-8.657541831e-06 -0.000207127753502 0)
(-6.43558937436e-06 -0.000193184224637 0)
(-5.55693818485e-06 -0.000180357877447 0)
(-4.43651504714e-06 -0.000169791698874 0)
(-4.70328330805e-06 -0.000161383609873 0)
(-5.80646034351e-06 -0.000150066976378 0)
(-6.40487906469e-06 -0.00013758545378 0)
(-7.37087718356e-06 -0.000122421622205 0)
(-9.55592153513e-06 -0.000103554563215 0)
(-1.1865560079e-05 -8.05724218658e-05 0)
(-1.42782698232e-05 -5.05859365405e-05 0)
(-1.62171759136e-05 -1.61765549108e-05 0)
(0.00489931768637 -0.00162503612193 0)
(0.00516190291958 -0.00520245643461 0)
(0.0051226957745 -0.00874859941438 -6.73452851479e-28)
(0.00504672504902 -0.0122758250833 0)
(0.00494573004469 -0.0157371330767 0)
(0.00482214949135 -0.0191194212195 0)
(0.00467849148275 -0.0224080591461 0)
(0.00451708496452 -0.0255900441799 0)
(0.0043406267676 -0.0286540416193 0)
(0.00415148233738 -0.0315905254636 0)
(0.0039523185999 -0.0343917010572 0)
(0.00374526697575 -0.037051497275 0)
(0.00353271897872 -0.0395653885938 0)
(0.00331637209089 -0.0419303149043 0)
(0.00309820024632 -0.0441444518117 0)
(0.00287937911728 -0.0462071030971 0)
(0.00266142984274 -0.0481184592906 0)
(0.00244501210786 -0.049879496157 0)
(0.00223123411295 -0.0514917484455 0)
(0.00202030211193 -0.052957233368 0)
(0.00181299044244 -0.0542782528304 0)
(0.00160913865461 -0.0554573487446 0)
(0.0014092762289 -0.0564971372285 0)
(0.00121296380079 -0.0574002945597 0)
(0.00102056981895 -0.0581694213454 0)
(0.000831455873863 -0.058807054661 0)
(0.000645902065245 -0.0593155591391 0)
(0.000463141249721 -0.0596971606144 0)
(0.000283430305091 -0.059953861889 0)
(0.000105940238222 -0.0600874953254 0)
(-6.90335125849e-05 -0.0600996611778 0)
(-0.00024231691598 -0.0599918031638 0)
(-0.000413511558096 -0.0597651836775 0)
(-0.000583362902497 -0.0594209598831 0)
(-0.000751301578005 -0.0589601906001 0)
(-0.0009179220851 -0.0583839428064 0)
(-0.0010824231022 -0.0576933244608 0)
(-0.00124518611323 -0.0568896046564 0)
(-0.00140514166082 -0.0559742714391 0)
(-0.00156243401087 -0.0549491510425 0)
(-0.0017157416037 -0.0538164737731 0)
(-0.0018650120193 -0.0525789672339 0)
(-0.0020087663862 -0.0512399035873 0)
(-0.00214687847928 -0.0498031343186 0)
(-0.00227788451319 -0.0482730889824 0)
(-0.00240176445809 -0.0466547250037 0)
(-0.00251726465012 -0.0449534667315 0)
(-0.00262461520365 -0.0431750765415 0)
(-0.00272285401249 -0.0413255697571 0)
(-0.00281239810178 -0.0394110768161 0)
(-0.00289235487425 -0.0374378446959 0)
(-0.00296287734456 -0.0354122379514 0)
(-0.00302249577358 -0.0333410007416 0)
(-0.00307028295362 -0.0312315672313 0)
(-0.00310339683216 -0.0290926938608 0)
(-0.00311930761447 -0.0269350384586 0)
(-0.00311397744724 -0.0247718382754 0)
(-0.00308453577464 -0.0226190534797 0)
(-0.00302820048612 -0.0204950293414 0)
(-0.00294482492483 -0.0184191127482 0)
(-0.00283449759336 -0.0164106150035 0)
(-0.00269946983391 -0.014487620156 0)
(-0.00254060035725 -0.0126671790881 0)
(-0.00236090843766 -0.0109651035137 0)
(-0.00216261436905 -0.0093952838522 0)
(-0.00194937907952 -0.00797036230232 0)
(-0.00172806285217 -0.00669985908736 0)
(-0.00150873454467 -0.00558647586393 0)
(-0.00130080418433 -0.00462487242976 0)
(-0.00111133473364 -0.00380285703445 0)
(-0.000942186015812 -0.00310481881262 0)
(-0.000791267235767 -0.00251612270794 0)
(-0.00065528052167 -0.00202558290141 0)
(-0.000533716261871 -0.00162407166028 0)
(-0.000428080247589 -0.00130161123419 0)
(-0.000340249879602 -0.00104607871861 0)
(-0.000269873655816 -0.000844345955842 0)
(-0.000214772150528 -0.000684222637452 0)
(-0.000170955675047 -0.000556211518283 0)
(-0.000134678031072 -0.00045429087413 0)
(-0.000103863820787 -0.000374887612414 0)
(-7.85800010456e-05 -0.000314572545363 0)
(-5.8250040599e-05 -0.000269577807777 0)
(-4.22382559652e-05 -0.000236551819868 0)
(-2.96085435537e-05 -0.000211427646507 0)
(-2.15620428993e-05 -0.000189007901608 0)
(-1.66311961469e-05 -0.000176911254207 0)
(-1.31280804374e-05 -0.000167624936424 0)
(-1.35714283255e-05 -0.000157435633365 0)
(-1.64620500785e-05 -0.000149308001977 0)
(-1.90713031081e-05 -0.000139397572354 0)
(-2.31385797814e-05 -0.000123336064465 0)
(-2.89479731794e-05 -0.000103598577824 0)
(-3.93798866757e-05 -8.38610453662e-05 0)
(-5.16730887907e-05 -5.43148846454e-05 0)
(-4.8936315795e-05 -1.48455718628e-05 0)
(0.00829115804107 -0.00164630587845 0)
(0.00874000661459 -0.00526760675296 0)
(0.00866607470245 -0.00885045155525 -6.72501689245e-28)
(0.00853428779179 -0.0124168801892 0)
(0.00836115562211 -0.0159152225338 0)
(0.00815019616633 -0.0193317078161 0)
(0.0079052642312 -0.0226512664853 0)
(0.00763045719946 -0.0258606559062 0)
(0.00733017536982 -0.0289484555331 0)
(0.0070087025961 -0.0319051481522 0)
(0.00667035470938 -0.0347230689977 0)
(0.00631904964718 -0.0373963363192 0)
(0.00595856436551 -0.0399206970396 0)
(0.00559210114058 -0.0422933817006 0)
(0.00522265612371 -0.04451290106 0)
(0.00485257435938 -0.0465788769005 0)
(0.00448401917494 -0.0484918334836 0)
(0.00411849886057 -0.050253039786 0)
(0.00375742077887 -0.0518643234002 0)
(0.00340157217354 -0.0533279431407 0)
(0.00305174485748 -0.0546464365643 0)
(0.00270815724829 -0.0558225277937 0)
(0.00237114039993 -0.0568590098786 0)
(0.00204049481227 -0.0577586853591 0)
(0.00171623356575 -0.0585242787442 0)
(0.00139787280333 -0.0591584039325 0)
(0.00108523095055 -0.0596635022766 0)
(0.000777655861039 -0.0600418323189 0)
(0.000474880619741 -0.060295429763 0)
(0.000176192201709 -0.0604261166507 0)
(-0.000118655374929 -0.0604354847902 0)
(-0.000410324549053 -0.0603249246637 0)
(-0.000698927696985 -0.0600956315286 0)
(-0.000984958984628 -0.0597486604874 0)
(-0.00126827791519 -0.0592849604423 0)
(-0.00154908588185 -0.0587054528385 0)
(-0.00182687458802 -0.0580110962838 0)
(-0.00210144912768 -0.0572029877415 0)
(-0.00237185815389 -0.0562824513233 0)
(-0.00263746827928 -0.0552511503823 0)
(-0.00289689816306 -0.0541111818029 0)
(-0.00314914806156 -0.0528651726725 0)
(-0.00339255746341 -0.0515163487251 0)
(-0.00362598237328 -0.0500685774824 0)
(-0.00384778038547 -0.0485263701514 0)
(-0.0040570029807 -0.0468948331823 0)
(-0.00425238137157 -0.0451795779155 0)
(-0.00443346261049 -0.0433865739127 0)
(-0.00459953199481 -0.0415219901906 0)
(-0.0047505871474 -0.039592015586 0)
(-0.00488611512294 -0.037602751011 0)
(-0.00500581005616 -0.0355601759308 0)
(-0.00510818574006 -0.0334703279267 0)
(-0.00519108874774 -0.0313396932206 0)
(-0.00525039941041 -0.029175940277 0)
(-0.0052808300322 -0.0269888712429 0)
(-0.00527554084666 -0.0247914936138 0)
(-0.00522821219373 -0.0226006297097 0)
(-0.00513413773985 -0.0204365997251 0)
(-0.0049929072723 -0.018320753449 0)
(-0.00480529958824 -0.0162741240073 0)
(-0.00457591598643 -0.0143152359771 0)
(-0.00430549054862 -0.0124616503258 0)
(-0.00399958222775 -0.0107300901479 0)
(-0.00366117317254 -0.00913470758484 0)
(-0.00329390589672 -0.00769143321116 0)
(-0.00291065753819 -0.0064144909476 0)
(-0.00253076184895 -0.00530844603428 0)
(-0.00217316340957 -0.00436587281542 0)
(-0.0018513433869 -0.00356919755364 0)
(-0.00156817503811 -0.00289624192561 0)
(-0.00131652501768 -0.00232868827541 0)
(-0.00108815717141 -0.00185664704234 0)
(-0.000881751897812 -0.00147458818031 0)
(-0.000702232159466 -0.00117430400405 0)
(-0.000554420345069 -0.000942272731808 0)
(-0.000438319044628 -0.000762419991019 0)
(-0.000349358427728 -0.000619924832037 0)
(-0.000279504892429 -0.000504151346304 0)
(-0.000220520784583 -0.000410473713099 0)
(-0.000169078806286 -0.000338148500683 0)
(-0.000126975618148 -0.000284786141555 0)
(-9.35816640264e-05 -0.000246075385425 0)
(-6.76400588461e-05 -0.000218761609528 0)
(-4.90353488282e-05 -0.000198681088786 0)
(-3.61637756571e-05 -0.000181393018733 0)
(-2.79560129174e-05 -0.000175656841201 0)
(-2.25831811022e-05 -0.000162536199905 0)
(-2.09668974988e-05 -0.000150809557144 0)
(-2.40995784431e-05 -0.000145121484271 0)
(-3.2625044508e-05 -0.000140224171048 0)
(-3.91471879955e-05 -0.000117243004848 0)
(-5.06099507469e-05 -0.000100216880519 0)
(-6.5801504322e-05 -7.50750816143e-05 0)
(-7.96092254024e-05 -4.57466497935e-05 0)
(-8.06876130673e-05 -1.40920423514e-05 0)
(0.0117483219202 -0.00167259194898 0)
(0.0123892513188 -0.00534989819945 0)
(0.0122825583879 -0.00898519006438 6.72412354826e-28)
(0.0120928896354 -0.0126028475353 0)
(0.0118440025634 -0.0161489758631 0)
(0.0115411881983 -0.0196090096727 0)
(0.0111900154898 -0.0229672891036 0)
(0.0107965230612 -0.0262102299748 0)
(0.0103670430123 -0.0293262907038 0)
(0.00990787635902 -0.032306012795 0)
(0.00942517751653 -0.0351419538118 0)
(0.00892468549183 -0.0378285706645 0)
(0.00841170871706 -0.0403620455982 0)
(0.0078909224664 -0.0427400937846 0)
(0.00736645272524 -0.044961744963 0)
(0.00684172650054 -0.0470271343926 0)
(0.0063196340984 -0.0489372898438 0)
(0.00580240618352 -0.050693944654 0)
(0.00529182790161 -0.0522993574977 0)
(0.00478911714365 -0.0537561645893 0)
(0.00429516870103 -0.0550672409069 0)
(0.00381041551896 -0.0562355935011 0)
(0.00333508953187 -0.0572642612152 0)
(0.00286905710042 -0.0581562429189 0)
(0.00241209146835 -0.05891442836 0)
(0.00196368058847 -0.0595415536453 0)
(0.0015233115323 -0.0600401560652 0)
(0.00109025397933 -0.0604125506341 0)
(0.000663860024383 -0.0606608047701 0)
(0.000243328351231 -0.0607867331226 0)
(-0.000171976395053 -0.0607918938207 0)
(-0.000582773807532 -0.0606776019054 0)
(-0.000989527362421 -0.0604449458186 0)
(-0.00139270635168 -0.0600948319408 0)
(-0.00179242720764 -0.0596280282289 0)
(-0.00218872865264 -0.0590452358869 0)
(-0.00258120514557 -0.0583471685795 0)
(-0.00296930585374 -0.0575346547716 0)
(-0.00335197788443 -0.0566087466898 0)
(-0.00372800574396 -0.055570843993 0)
(-0.00409568851938 -0.0544228145574 0)
(-0.00445323876207 -0.053167111798 0)
(-0.00479851483934 -0.0518068693035 0)
(-0.00512948524884 -0.050345963564 0)
(-0.00544401464857 -0.0487890272191 0)
(-0.00574036442532 -0.0471414000821 0)
(-0.00601698393422 -0.0454090113484 0)
(-0.00627295913437 -0.0435981876415 0)
(-0.00650769550428 -0.0417154051898 0)
(-0.00672116514242 -0.0397670071137 0)
(-0.00691332317531 -0.03775894785 0)
(-0.00708398876885 -0.0356966303332 0)
(-0.00723188256932 -0.0335849633549 0)
(-0.00735413726691 -0.0314287614927 0)
(-0.00744520417571 -0.0292336628713 0)
(-0.00749669619161 -0.0270076246452 0)
(-0.00749755560179 -0.0247628753444 0)
(-0.00743644655578 -0.0225175362459 0)
(-0.00730512127923 -0.0202958930251 0)
(-0.00710446964189 -0.0181228110296 0)
(-0.0068352951539 -0.0160226457688 0)
(-0.00650892390144 -0.0140134687278 0)
(-0.00612134523006 -0.0121133175833 0)
(-0.00568497961915 -0.0103402798469 0)
(-0.00520029584655 -0.00870635251564 0)
(-0.00466508307517 -0.00723409246502 0)
(-0.00410038803102 -0.00594872544385 0)
(-0.00354054295394 -0.00485902452985 0)
(-0.00301931471556 -0.0039537890975 0)
(-0.00256105440572 -0.00320473822693 0)
(-0.00216864671659 -0.00257562342798 0)
(-0.001822316821 -0.00204067718157 0)
(-0.00150225231847 -0.00159450690751 0)
(-0.00120627181838 -0.00124112522226 0)
(-0.000948074700652 -0.000976676891001 0)
(-0.000739709084836 -0.000784097644213 0)
(-0.000581835951535 -0.000640845710068 0)
(-0.000466104074999 -0.000526674936072 0)
(-0.000377448918736 -0.00042840455076 0)
(-0.000298917891683 -0.000344708116104 0)
(-0.000225899592456 -0.000282039259962 0)
(-0.000167252531815 -0.000239659846291 0)
(-0.000121696660936 -0.000210741354969 0)
(-8.6088450721e-05 -0.000192416606335 0)
(-6.15130063495e-05 -0.000179513462652 0)
(-4.58490099677e-05 -0.000171995796482 0)
(-3.60642442466e-05 -0.000167339410578 0)
(-3.07513089278e-05 -0.00015728306378 0)
(-3.04015555706e-05 -0.000151694546695 0)
(-3.30083232346e-05 -0.000138813463254 0)
(-4.2736381849e-05 -0.000126258012618 0)
(-5.96978811108e-05 -0.000116981222813 0)
(-7.19398968911e-05 -8.93995834579e-05 0)
(-9.02182513104e-05 -6.48361999505e-05 0)
(-0.000107652327624 -4.00286829083e-05 0)
(-0.000111227775818 -1.30535240425e-05 0)
(0.0152673963721 -0.00170777628166 0)
(0.0161002001898 -0.00546107044911 0)
(0.0159585133975 -0.0091691756734 0)
(0.015707392789 -0.0128567530124 0)
(0.0153781357307 -0.0164677871151 0)
(0.0149780405916 -0.0199867195991 0)
(0.0145146974619 -0.0233971314169 0)
(0.0139963258117 -0.0266849979615 0)
(0.0134314575933 -0.0298386351648 0)
(0.012828583841 -0.0328487029449 0)
(0.0121958992725 -0.0357080981613 0)
(0.0115410492628 -0.0384117846986 0)
(0.0108709987942 -0.0409565730115 0)
(0.0101918952348 -0.0433408759036 0)
(0.00950905557857 -0.0455644523476 0)
(0.00882692212087 -0.0476281597477 0)
(0.00814913450024 -0.0495337187646 0)
(0.00747853943665 -0.0512835035678 0)
(0.00681730862247 -0.0528803546511 0)
(0.00616696655391 -0.054327421272 0)
(0.00552852391003 -0.0556280260989 0)
(0.00490249961363 -0.0567855562283 0)
(0.00428905266447 -0.0578033714736 0)
(0.00368798751466 -0.0586847331905 0)
(0.00309887871387 -0.0594327444692 0)
(0.00252105840245 -0.0600503055004 0)
(0.00195373581128 -0.0605400760653 0)
(0.00139597147587 -0.0609044497892 0)
(0.000846797456165 -0.0611455335001 0)
(0.000305185346354 -0.0612651366904 0)
(-0.000229825554687 -0.061264770557 0)
(-0.000759160439467 -0.0611456537959 0)
(-0.00128356839035 -0.0609087303946 0)
(-0.00180365099978 -0.0605547085873 0)
(-0.00231971096826 -0.0600841067611 0)
(-0.0028317808317 -0.0594973244566 0)
(-0.0033394710585 -0.0587947307738 0)
(-0.00384201439573 -0.057976775411 0)
(-0.00433813526542 -0.0570441178787 0)
(-0.00482613635779 -0.0559977736316 0)
(-0.00530382200176 -0.0548392676896 0)
(-0.00576866001226 -0.053570786594 0)
(-0.00621779098028 -0.052195312161 0)
(-0.00664828606583 -0.0507167184388 0)
(-0.00705724701005 -0.0491398097106 0)
(-0.00744213499854 -0.0474702774208 0)
(-0.00780090043887 -0.0457145577149 0)
(-0.00813227150458 -0.0438795766225 0)
(-0.00843575442855 -0.0419723895635 0)
(-0.0087116700954 -0.0399997353962 0)
(-0.00896077278706 -0.037967562385 0)
(-0.00918375221924 -0.0358806159169 0)
(-0.00938019494932 -0.0337422474281 0)
(-0.00954735094973 -0.0315546742906 0)
(-0.00967849751078 -0.0293200456258 0)
(-0.00976166407215 -0.0270426551876 0)
(-0.00977942152517 -0.0247325622903 0)
(-0.00971197285527 -0.0224094000067 0)
(-0.00954365907603 -0.0201057146627 0)
(-0.00928175004647 -0.0178519094283 0)
(-0.00892284891514 -0.015679453421 0)
(-0.00849974039718 -0.0136020596608 0)
(-0.00798581365801 -0.0116383826737 0)
(-0.0074181969722 -0.00980962686477 0)
(-0.00678505012821 -0.0081153126455 0)
(-0.00606199781122 -0.0065919501421 0)
(-0.00528400974538 -0.00529030730031 0)
(-0.00451241152153 -0.00422766867212 0)
(-0.00380509820745 -0.00338662483387 0)
(-0.00320825019612 -0.00271871509361 0)
(-0.00272316929982 -0.00215764043656 0)
(-0.00229909967839 -0.00166239824693 0)
(-0.00188995322171 -0.00124069011267 0)
(-0.00149324576893 -0.000920488246308 0)
(-0.00114559225298 -0.000707806462883 0)
(-0.000875828106966 -0.000576087362925 0)
(-0.000684166574618 -0.000488858452769 0)
(-0.000555747775996 -0.000415573356163 0)
(-0.000463188783936 -0.000336994702249 0)
(-0.0003698914658 -0.00025894962983 0)
(-0.000269571864968 -0.000206504387733 0)
(-0.000194708741775 -0.000180601045757 0)
(-0.000139329535036 -0.000164924299974 0)
(-9.39983229427e-05 -0.000158515281153 0)
(-6.42960003043e-05 -0.000155990577845 0)
(-4.90701862817e-05 -0.000161410588514 0)
(-4.13235733469e-05 -0.00016241964509 0)
(-3.88073460582e-05 -0.000156779890024 0)
(-3.88725432016e-05 -0.000143150636513 0)
(-4.45174808149e-05 -0.000135580518438 0)
(-5.44108823965e-05 -0.00011905208511 0)
(-7.58199327923e-05 -0.000107858111476 0)
(-0.000100393592468 -8.91578380865e-05 0)
(-0.00011509579446 -6.0024308531e-05 0)
(-0.000129753205783 -3.6007709144e-05 0)
(-0.00013393979234 -1.1878100162e-05 0)
(0.018869676605 -0.0017528229357 0)
(0.019896831737 -0.00560410284411 0)
(0.0197167536948 -0.00940646351732 0)
(0.0193990607871 -0.0131841028606 0)
(0.0189829680813 -0.0168783810967 0)
(0.0184780962208 -0.0204724815966 0)
(0.017894426533 -0.0239490422153 0)
(0.0172427068619 -0.0272935133804 0)
(0.0165340062714 -0.0304940812307 0)
(0.0157792743188 -0.033541624463 0)
(0.0149889820387 -0.0364295462969 0)
(0.0141728302604 -0.03915353336 0)
(0.0133395597319 -0.0417112659057 0)
(0.012496824967 -0.0441021070791 0)
(0.0116511580732 -0.0463267916985 0)
(0.0108079700234 -0.0483871323666 0)
(0.00997161674589 -0.050285752439 0)
(0.00914547120643 -0.052025853191 0)
(0.00833203683431 -0.0536110155335 0)
(0.00753304176383 -0.0550450366882 0)
(0.00674955988757 -0.0563317972208 0)
(0.00598209727677 -0.057475155857 0)
(0.00523070041776 -0.0584788659249 0)
(0.00449502282527 -0.0593465107417 0)
(0.0037744154001 -0.0600814523798 0)
(0.00306797350327 -0.0606867922632 0)
(0.00237461369488 -0.0611653392986 0)
(0.00169310848942 -0.0615195856701 0)
(0.0010221584667 -0.0617516877426 0)
(0.000360424656289 -0.0618634528009 0)
(-0.00029339354657 -0.0618563365133 0)
(-0.000940519546158 -0.0617314417775 0)
(-0.00158200815631 -0.0614895332597 0)
(-0.00221869429136 -0.061131071067 0)
(-0.00285108812664 -0.0606562541026 0)
(-0.00347931520258 -0.0600650913417 0)
(-0.00410300885983 -0.059357496657 0)
(-0.00472126096911 -0.0585334124719 0)
(-0.00533253916299 -0.0575929609509 0)
(-0.00593468463804 -0.0565366216665 0)
(-0.00652489929234 -0.0553654276122 0)
(-0.00709984100958 -0.0540811684733 0)
(-0.00765573164503 -0.0526865811744 0)
(-0.00818859195734 -0.0511855033653 0)
(-0.0086944934464 -0.0495829577003 0)
(-0.0091699202734 -0.0478851326711 0)
(-0.00961210011361 -0.0460992244504 0)
(-0.0100193625188 -0.0442331155036 0)
(-0.0103913440174 -0.0422948747627 0)
(-0.0107290580142 -0.0402920934199 0)
(-0.0110346148096 -0.0382310947407 0)
(-0.0113105625665 -0.0361161139657 0)
(-0.011558601597 -0.0339486201559 0)
(-0.0117776032063 -0.0317271186799 0)
(-0.0119607824894 -0.0294480271904 0)
(-0.0120924662913 -0.0271085965346 0)
(-0.0121456591024 -0.0247132286422 0)
(-0.0120851843581 -0.0222818149627 0)
(-0.0118765900156 -0.0198657061004 0)
(-0.0115517935021 -0.0175020333565 0)
(-0.0110815484014 -0.0152406621536 0)
(-0.0105731607426 -0.0130764530962 0)
(-0.00990886592255 -0.0110317804382 0)
(-0.00922285067549 -0.0091394765872 0)
(-0.00845413185905 -0.00735004373077 0)
(-0.00751179300757 -0.00573289691231 0)
(-0.00646353517499 -0.00439894765191 0)
(-0.00542375230706 -0.00337986862098 0)
(-0.00448637242684 -0.00264924308352 0)
(-0.00375006090359 -0.00212204282755 0)
(-0.00321424327998 -0.00166530990188 0)
(-0.00275266760778 -0.00120630887625 0)
(-0.0022597162379 -0.000787850342548 0)
(-0.00173232397244 -0.000496350332995 0)
(-0.00126861755511 -0.000359004761434 0)
(-0.000935813030352 -0.00032248903738 0)
(-0.000724745231349 -0.000320625955761 0)
(-0.000609637522035 -0.000305592769776 0)
(-0.00054416465173 -0.000242482428659 0)
(-0.000442686437142 -0.000151074274465 0)
(-0.000292863306358 -0.000106852053576 0)
(-0.000203502962318 -0.00010941552755 0)
(-0.000145081037816 -0.000110026469739 0)
(-8.74548254127e-05 -0.000117251567771 0)
(-5.54197840869e-05 -0.000130574025074 0)
(-4.27531738757e-05 -0.000147121175371 0)
(-3.84926840868e-05 -0.000152005650765 0)
(-4.30077058137e-05 -0.000154591850984 0)
(-4.99298957368e-05 -0.000150028838355 0)
(-6.04069695141e-05 -0.000141077689374 0)
(-6.98591858085e-05 -0.000117095706276 0)
(-8.94595884171e-05 -9.90869017289e-05 0)
(-0.000121055833819 -8.55345086478e-05 0)
(-0.000141416941138 -6.09660451893e-05 0)
(-0.000153279158279 -3.58334447702e-05 0)
(-0.000158501647343 -1.19227834055e-05 0)
(0.0225768841303 -0.00180890244531 0)
(0.0238020039263 -0.00578230078963 0)
(0.0235789248532 -0.00970210980496 6.67648215476e-28)
(0.0231878003627 -0.0135915990375 0)
(0.0226762930601 -0.017388786145 0)
(0.0220567852198 -0.021075264989 0)
(0.0213421314634 -0.0246325239198 0)
(0.020546077875 -0.0280454215507 0)
(0.0196826641275 -0.0313020712354 0)
(0.0187656582543 -0.0343937308955 0)
(0.017808094705 -0.0373145461213 0)
(0.0168219245712 -0.0400612110809 0)
(0.0158177878409 -0.042632582545 0)
(0.0148048896301 -0.0450292819522 0)
(0.0137909734403 -0.0472533118159 0)
(0.0127823609993 -0.0493077057144 0)
(0.0117840488771 -0.0511962223163 0)
(0.0107998309511 -0.0529230882856 0)
(0.00983244300909 -0.05449278895 0)
(0.00888370369455 -0.0559099031003 0)
(0.00795465693842 -0.0571789754713 0)
(0.00704569558939 -0.0583044205634 0)
(0.00615667899153 -0.0592904507498 0)
(0.00528702756391 -0.0601410229702 0)
(0.00443581237361 -0.0608597984718 0)
(0.00360182391507 -0.0614501117846 0)
(0.00278364142553 -0.0619149455398 0)
(0.00197968665595 -0.0622569093417 0)
(0.00118828567371 -0.0624782215011 0)
(0.000407721516464 -0.0625806925443 0)
(-0.000363696956342 -0.0625657190496 0)
(-0.00112757079541 -0.0624342729659 0)
(-0.00188532363415 -0.0621869098963 0)
(-0.00263811603669 -0.0618237935171 0)
(-0.00338673663881 -0.0613447328432 0)
(-0.00413149781229 -0.0607492505804 0)
(-0.00487211587238 -0.0600366821571 0)
(-0.00560760952311 -0.059206311563 0)
(-0.00633620240148 -0.0582575476314 0)
(-0.00705527128547 -0.0571901400818 0)
(-0.00776133184573 -0.0560044306162 0)
(-0.00845010912992 -0.054701625731 0)
(-0.0091166855825 -0.0532840701094 0)
(-0.00975576952672 -0.0517554874395 0)
(-0.0103620612973 -0.0501211453955 0)
(-0.0109307329538 -0.0483878915907 0)
(-0.011457960209 -0.0465640075487 0)
(-0.0119414721423 -0.044658828148 0)
(-0.0123810004643 -0.0426820926536 0)
(-0.0127785426487 -0.040643013698 0)
(-0.0131382615737 -0.0385490743012 0)
(-0.013465866655 -0.0364046098684 0)
(-0.0137671580124 -0.0342092949847 0)
(-0.0140453523997 -0.0319568618559 0)
(-0.0142965704648 -0.0296349152564 0)
(-0.0145030713917 -0.0272275386272 0)
(-0.014624656699 -0.0247252875725 0)
(-0.0145977112434 -0.0221403394852 0)
(-0.0143316589112 -0.0195723261006 0)
(-0.013951091353 -0.0170568669082 0)
(-0.0133060278491 -0.0147007926218 0)
(-0.012775762784 -0.0124292247121 0)
(-0.0118713681556 -0.0102876640905 0)
(-0.0111111037129 -0.00835296235766 0)
(-0.0102504124709 -0.00640006281872 0)
(-0.0090341895517 -0.00459578962157 0)
(-0.007619775711 -0.00319556766448 0)
(-0.00623416197493 -0.00224208373735 0)
(-0.00500540577251 -0.00169972649025 0)
(-0.00417079564397 -0.00141917931047 0)
(-0.00371298870473 -0.00111907738808 0)
(-0.00330083953496 -0.000667162966604 0)
(-0.00269826340906 -0.000191756485813 0)
(-0.00192971733473 8.48225088722e-05 0)
(-0.0012765467477 9.73170577126e-05 0)
(-0.000881266654402 -2.60412843649e-05 0)
(-0.000677632790429 -0.00015797723924 0)
(-0.000622136956291 -0.000231459684417 0)
(-0.000653396329656 -0.000167790304628 0)
(-0.000550006779743 -7.0903781568e-06 0)
(-0.000272636667611 3.28480644161e-05 0)
(-0.000181325592349 -3.27372415594e-05 0)
(-0.000142642815501 -4.88443644086e-05 0)
(-5.91950522324e-05 -6.84477429196e-05 0)
(-3.13213377015e-05 -0.0001096590861 0)
(-2.74956285033e-05 -0.000138736539516 0)
(-3.06133730367e-05 -0.000154306150254 0)
(-4.29730202486e-05 -0.000158049670411 0)
(-5.85078742272e-05 -0.000154712529194 0)
(-7.31868788601e-05 -0.000138286989922 0)
(-9.26952013467e-05 -0.000125298894202 0)
(-0.000108574683955 -9.99822369542e-05 0)
(-0.000135015253989 -8.15773072111e-05 0)
(-0.00016453504963 -6.3206986183e-05 0)
(-0.000177067250483 -3.73108946627e-05 0)
(-0.000183392180973 -1.25051787186e-05 0)
(0.0264133305451 -0.00187736903232 0)
(0.0278408920207 -0.00599982063681 0)
(0.0275688083327 -0.0100627349305 -6.67545344689e-28)
(0.0270953223507 -0.0140880025022 0)
(0.0264772810242 -0.0180094364406 0)
(0.0257304413836 -0.0218066465127 0)
(0.0248711771929 -0.025459751805 0)
(0.0239168566809 -0.028952982955 0)
(0.0228850493406 -0.0322745031169 0)
(0.0217928015351 -0.0354161961841 0)
(0.020656059445 -0.0383732823192 0)
(0.0194892548609 -0.0411438426085 0)
(0.0183050526272 -0.0437283032787 0)
(0.0171142402089 -0.0461289239559 0)
(0.0159257351894 -0.0483493228431 0)
(0.0147466784666 -0.05039405947 0)
(0.0135825863344 -0.0522682850408 0)
(0.0124375330007 -0.0539774616102 0)
(0.0113143456431 -0.0555271453224 0)
(0.0102147938423 -0.0569228252555 0)
(0.00913976660113 -0.0581698077705 0)
(0.00808942811465 -0.0592731361798 0)
(0.00706335374971 -0.0602375362428 0)
(0.00606064304123 -0.0610673795537 0)
(0.00508001568283 -0.0617666581115 0)
(0.00411988975371 -0.0623389651702 0)
(0.00317845029761 -0.0627874783817 0)
(0.00225370834148 -0.0631149431003 0)
(0.00134355955309 -0.0633236544002 0)
(0.000445842687882 -0.063415436597 0)
(-0.000441592136043 -0.063391630657 0)
(-0.0013208076182 -0.0632530705348 0)
(-0.0021936848987 -0.0630000807857 0)
(-0.00306181540978 -0.0626324865759 0)
(-0.00392637249749 -0.0621496386177 0)
(-0.0047879705237 -0.0615504735649 0)
(-0.00564651102507 -0.0608336116219 0)
(-0.00650103098884 -0.0599975025328 0)
(-0.00734956143603 -0.0590406265344 0)
(-0.00818902213187 -0.0579617552316 0)
(-0.00901517130191 -0.0567602698848 0)
(-0.00982264730009 -0.0554365269498 0)
(-0.010605127808 -0.0539922466204 0)
(-0.0113556426808 -0.0524308844288 0)
(-0.0120670514823 -0.0507579267535 0)
(-0.0127326922455 -0.0489810374514 0)
(-0.0133471600777 -0.0471099697005 0)
(-0.013907152382 -0.0451561619539 0)
(-0.0144122661721 -0.0431319515301 0)
(-0.0148656133104 -0.0410493607882 0)
(-0.0152740915519 -0.0389184249336 0)
(-0.0156480894298 -0.036745016444 0)
(-0.0160002913789 -0.034528111704 0)
(-0.016342801255 -0.0322565366059 0)
(-0.0166811299783 -0.0299057513467 0)
(-0.0170024470199 -0.0274366884102 0)
(-0.0172532252538 -0.0248078739781 0)
(-0.0173214217442 -0.0219888251584 0)
(-0.0169311278676 -0.0192190482792 0)
(-0.0165558341871 -0.0164761910619 0)
(-0.0155096128544 -0.0140645111313 0)
(-0.0152179065038 -0.0116368252259 0)
(-0.0138096910269 -0.00935495192605 0)
(-0.0135040044354 -0.00745337502384 0)
(-0.0129023984288 -0.00513358702758 0)
(-0.011268085783 -0.00291843915516 0)
(-0.0091623088557 -0.00137795194 0)
(-0.00701253129413 -0.000487946214584 0)
(-0.00479596851817 -0.000147163208089 0)