/*--------------------------------*- C++ -*----------------------------------*\
| =========                 |                                                 |
| \\      /  F ield         | OpenFOAM: The Open Source CFD Toolbox           |
|  \\    /   O peration     | Version:  v1906                                 |
|   \\  /    A nd           | Web:      www.OpenFOAM.com                      |
|    \\/     M anipulation  |                                                 |
\*---------------------------------------------------------------------------*/
FoamFile
{
    version     2.0;
    format      ascii;
    class       volVectorField;
    location    "151";
    object      U;
}
// * * * * * * * * * * * * * * * * * * * * * * * * * * * * * * * * * * * * * //

dimensions      [0 1 -1 0 0 0 0];


internalField   nonuniform List<vector> 
9216
(
(0.00194042123751 -0.00193984180808 0)
(0.00157804817723 -0.00498711969353 6.80496130374e-28)
(0.00160898041812 -0.00848892325384 1.1694190915e-31)
(0.00159928051589 -0.0118294471567 0)
(0.00156861455487 -0.0151335441941 0)
(0.00152651055082 -0.0183592129727 0)
(0.00147572428097 -0.0214872304053 0)
(0.00141835736176 -0.0245019091443 0)
(0.00135525901238 -0.0273907033491 0)
(0.00128793667113 -0.0301431644551 0)
(0.00121688743067 -0.0327511673532 0)
(0.0011435111863 -0.0352083107277 0)
(0.00106807933263 -0.0375101729481 0)
(0.000991886943282 -0.0396537407176 0)
(0.000914963897258 -0.0416376012099 0)
(0.000838479534359 -0.04346137755 0)
(0.000762220711913 -0.0451258969067 0)
(0.000687236081911 -0.0466326509136 0)
(0.000613091124894 -0.0479839722015 0)
(0.000540738826669 -0.0491825287073 0)
(0.000469557393046 -0.0502315275424 0)
(0.000400436242203 -0.0511342642093 0)
(0.000332605546635 -0.0518943386898 0)
(0.000266927357836 -0.0525152640039 0)
(0.000202516829655 -0.0530007056639 0)
(0.00014023349072 -0.0533541253531 0)
(7.91095726863e-05 -0.0535790437465 0)
(2.00269051491e-05 -0.0536787193826 0)
(-3.80393529494e-05 -0.053656425261 0)
(-9.41733878212e-05 -0.0535151698486 0)
(-0.000149427631264 -0.0532579451921 0)
(-0.000202834056494 -0.0528875505276 0)
(-0.000255450212271 -0.052406773081 0)
(-0.000306244479001 -0.051818301482 0)
(-0.000356250975912 -0.0511248838892 0)
(-0.000404373675236 -0.0503292766367 0)
(-0.000451593844624 -0.0494343855735 0)
(-0.000496745683176 -0.0484433067054 0)
(-0.000540732292684 -0.0473593795556 0)
(-0.000582322096749 -0.0461863418828 0)
(-0.000622321179279 -0.0449282875776 0)
(-0.000659448423093 -0.0435899211329 0)
(-0.000694405447061 -0.0421764114575 0)
(-0.000725887643024 -0.0406937201648 0)
(-0.000754499258288 -0.0391483514773 0)
(-0.000778960288755 -0.0375477331403 0)
(-0.000799808830059 -0.0358998322723 0)
(-0.000815850077333 -0.0342135596449 0)
(-0.000827606686701 -0.0324982633704 0)
(-0.000834048407655 -0.0307641088196 0)
(-0.000835749497974 -0.0290214506483 0)
(-0.000831924227285 -0.0272811678716 0)
(-0.000823263549295 -0.0255539385182 0)
(-0.000809284314915 -0.0238505321714 0)
(-0.000790827951489 -0.0221810396042 0)
(-0.000767724577604 -0.0205551503066 0)
(-0.000740947810317 -0.0189814127595 0)
(-0.000710586024335 -0.0174675499083 0)
(-0.000677666718323 -0.0160198306177 0)
(-0.000642429010739 -0.014643461501 0)
(-0.000605850373155 -0.0133421164683 0)
(-0.000568207667964 -0.0121183942996 0)
(-0.000530346193733 -0.0109734972552 0)
(-0.000492502551488 -0.0099077000408 0)
(-0.000455352654094 -0.00892014234012 0)
(-0.000419051934489 -0.00800926285764 0)
(-0.000384100256638 -0.00717267415481 0)
(-0.000350558047738 -0.00640753556726 0)
(-0.000318766341857 -0.00571048217871 0)
(-0.000288697810211 -0.00507792127223 0)
(-0.000260564318947 -0.00450598853991 0)
(-0.000234269738512 -0.00399077419574 0)
(-0.000209932229595 -0.00352828547995 0)
(-0.000187409103252 -0.00311461130515 0)
(-0.000166754842131 -0.00274588817265 0)
(-0.000147798988689 -0.00241841509837 0)
(-0.000130555151465 -0.00212861935227 0)
(-0.000114837204056 -0.00187313702639 0)
(-0.000100619782075 -0.00164878810936 0)
(-8.76545653977e-05 -0.00145266765885 0)
(-7.56935002245e-05 -0.0012823858738 0)
(-6.36233420434e-05 -0.00113588767392 0)
(-5.08323638572e-05 -0.00100137472723 0)
(-4.59325119782e-05 -0.000914278853731 0)
(-4.56654726268e-05 -0.000824503675837 0)
(-4.18281433283e-05 -0.000731994483257 0)
(-3.5521991403e-05 -0.00064911160576 0)
(-2.93327955206e-05 -0.000585214157133 0)
(-2.90319896206e-05 -0.00053298778935 0)
(-3.12393682881e-05 -0.000471754241678 0)
(-3.06199092944e-05 -0.000411197348062 0)
(-3.00458306986e-05 -0.000347773753197 0)
(-3.3254767299e-05 -0.000280929920418 0)
(-3.63558580648e-05 -0.000209736100816 0)
(-3.90305847225e-05 -0.000126027526265 0)
(-4.03092848161e-05 -3.91531999588e-05 0)
(0.00500737852849 -0.00159662981482 0)
(0.00520497835157 -0.00524456086101 0)
(0.00521743279711 -0.00896623786228 -6.99733906532e-28)
(0.00514797188146 -0.0125862562951 0)
(0.00503888719231 -0.0161223340176 0)
(0.0048994934428 -0.0195639313544 0)
(0.00473481427984 -0.0228966166468 0)
(0.00454944901013 -0.0261059622368 0)
(0.00434635596237 -0.0291793121477 0)
(0.00412945295324 -0.0321059672278 0)
(0.00390112827391 -0.0348774315537 0)
(0.00366497336059 -0.0374871577619 0)
(0.00342280994251 -0.0399305771165 0)
(0.00317778753131 -0.0422047465684 0)
(0.00293106071143 -0.0443083073669 0)
(0.00268526485953 -0.046241117883 0)
(0.00244087119363 -0.0480041882 0)
(0.00220002371516 -0.0495993340842 0)
(0.00196257942705 -0.0510291315145 0)
(0.00173027602855 -0.0522966100373 0)
(0.00150246635776 -0.0534052352544 0)
(0.00128059471969 -0.0543586626061 0)
(0.00106362758497 -0.0551607439086 0)
(0.000852829441268 -0.055815322603 0)
(0.000646890704176 -0.0563262870247 0)
(0.000446986014198 -0.0566973950442 0)
(0.000251623286668 -0.0569323554179 0)
(6.19665611902e-05 -0.0570346867868 0)
(-0.000123580256042 -0.057007806313 0)
(-0.00030380684118 -0.0568549432841 0)
(-0.000480337475507 -0.0565792240565 0)
(-0.000651857079039 -0.0561836117257 0)
(-0.000819950036191 -0.0556710136591 0)
(-0.00098314786141 -0.0550442505604 0)
(-0.00114292440825 -0.0543061573066 0)
(-0.00129762466943 -0.0534596089872 0)
(-0.00144853710185 -0.0525076063348 0)
(-0.00159378631451 -0.0514533546312 0)
(-0.00173441758623 -0.0503003195582 0)
(-0.0018683226775 -0.049052365867 0)
(-0.00199626594038 -0.0477137759967 0)
(-0.00211592878279 -0.0462894278747 0)
(-0.00222779426347 -0.0447847762206 0)
(-0.00232939764298 -0.0432060462732 0)
(-0.00242098974364 -0.0415601512288 0)
(-0.00250008041495 -0.0398548956707 0)
(-0.00256680731004 -0.0380988172149 0)
(-0.00261883737424 -0.0363013485388 0)
(-0.00265637697434 -0.0344725733495 0)
(-0.00267748870296 -0.032623326283 0)
(-0.00268268082544 -0.0307648436205 0)
(-0.00267066659564 -0.0289087857973 0)
(-0.00264247643171 -0.0270667933517 0)
(-0.00259766175533 -0.0252504488399 0)
(-0.00253789432619 -0.0234707792123 0)
(-0.00246360033443 -0.0217382005886 0)
(-0.00237703266478 -0.0200620501849 0)
(-0.00227931985426 -0.0184505759281 0)
(-0.00217303305159 -0.0169105835079 0)
(-0.00205965333957 -0.0154475375958 0)
(-0.00194170878943 -0.0140653706427 0)
(-0.00182067310102 -0.0127666980393 0)
(-0.00169875149416 -0.01155274832 0)
(-0.00157717577963 -0.0104236312573 0)
(-0.00145769229423 -0.00937834649844 0)
(-0.00134118270994 -0.00841505190016 0)
(-0.00122889887252 -0.00753111200011 0)
(-0.00112134527481 -0.00672334487427 0)
(-0.00101931765817 -0.00598808727745 0)
(-0.000922985552718 -0.00532139529591 0)
(-0.000832775936805 -0.00471910009183 0)
(-0.000748602143816 -0.00417695701293 0)
(-0.000670623268352 -0.00369068250937 0)
(-0.000598575724645 -0.00325606235053 0)
(-0.000532440538942 -0.00286897069126 0)
(-0.000471846176752 -0.00252544110867 0)
(-0.000416668243544 -0.00222166880585 0)
(-0.000366485614864 -0.00195404469486 0)
(-0.000321111598486 -0.00171912853935 0)
(-0.00028005984496 -0.00151361574507 0)
(-0.000242927105205 -0.0013341783859 0)
(-0.000208520888379 -0.00117717480281 0)
(-0.000175195615526 -0.00103168752221 0)
(-0.000150718345608 -0.000900197693426 0)
(-0.000139310480797 -0.000802710194651 0)
(-0.000126753039009 -0.000712255949999 0)
(-0.000104704711476 -0.000625047148922 0)
(-8.74977601473e-05 -0.000566721794026 0)
(-8.44000022312e-05 -0.000505501962539 0)
(-8.97858897324e-05 -0.00045842809903 0)
(-9.13670583481e-05 -0.00040852600631 0)
(-9.34736074284e-05 -0.00034236480721 0)
(-9.97650108967e-05 -0.000275094079249 0)
(-0.000119823288851 -0.000216868497676 0)
(-0.00014115090159 -0.000136386119294 0)
(-0.000121561979926 -3.599553635e-05 0)
(0.00858833175427 -0.00166555588404 0)
(0.00896888101493 -0.00537868544767 0)
(0.00887812817388 -0.00908017986792 -6.9875649401e-28)
(0.00872729098952 -0.0127424750984 0)
(0.00852908018742 -0.0163215968452 0)
(0.008286505737 -0.0198031881821 0)
(0.0080040996196 -0.0231713689979 0)
(0.00768739227607 -0.0264115745138 0)
(0.0073415968148 -0.0295111711491 0)
(0.00697236947762 -0.0324596393458 0)
(0.00658459683427 -0.0352486772974 0)
(0.00618342544266 -0.0378720563137 0)
(0.00577294700736 -0.0403255263547 0)
(0.00535743888161 -0.0426065555016 0)
(0.00493995760761 -0.0447141674638 0)
(0.00452377573592 -0.0466486371795 0)
(0.00411088560347 -0.0484113460792 0)
(0.00370360901145 -0.0500044929293 0)
(0.00330299166252 -0.0514309605747 0)
(0.00291056444965 -0.0526940920988 0)
(0.0025266195611 -0.053797587482 0)
(0.0021520983589 -0.0547453324016 0)
(0.00178673983471 -0.0555413368791 0)
(0.00143108826924 -0.0561896121352 0)
(0.00108451546577 -0.0566941329537 0)
(0.000747332238613 -0.0570587669267 0)
(0.00041869201716 -0.0572872564591 0)
(9.88053421132e-05 -0.0573831727296 0)
(-0.000213264697208 -0.0573499310524 0)
(-0.000517295459822 -0.0571907623558 0)
(-0.000814206768821 -0.0569087503921 0)
(-0.00110366445046 -0.0565068161858 0)
(-0.00138646169201 -0.0559877888948 0)
(-0.00166205882338 -0.0553544011424 0)
(-0.00193102098387 -0.0546093771872 0)
(-0.00219251426354 -0.0537554685438 0)
(-0.00244677371464 -0.0527955344606 0)
(-0.00269259326626 -0.0517326224548 0)
(-0.00292980071622 -0.0505700467172 0)
(-0.0031567692622 -0.0493114948528 0)
(-0.0033728753998 -0.0479611049353 0)
(-0.00357607627062 -0.0465235879138 0)
(-0.00376532257868 -0.0450042921698 0)
(-0.00393823652222 -0.0434093118332 0)
(-0.00409344938282 -0.0417455382368 0)
(-0.00422842079154 -0.0400207298761 0)
(-0.00434168022625 -0.0382435177561 0)
(-0.00443081762363 -0.036423424322 0)
(-0.00449459461592 -0.0345707828398 0)
(-0.00453112828233 -0.0326966870456 0)
(-0.00453983378627 -0.0308127835188 0)
(-0.00451979293421 -0.0289311506489 0)
(-0.00447148322584 -0.0270639711263 0)
(-0.00439528802329 -0.0252233234575 0)
(-0.00429296933917 -0.0234208032324 0)
(-0.00416629006191 -0.021667281254 0)
(-0.00401819789937 -0.0199725418291 0)
(-0.00385154149549 -0.0183451050365 0)
(-0.00366997785551 -0.0167919837239 0)
(-0.00347681560923 -0.0153186621801 0)
(-0.0032757464787 -0.0139290327387 0)
(-0.00306990434259 -0.0126255281897 0)
(-0.00286251304121 -0.0114091833491 0)
(-0.00265615820923 -0.0102798269322 0)
(-0.00245335941904 -0.00923619387622 0)
(-0.00225600210025 -0.00827612857297 0)
(-0.00206583047323 -0.0073967173762 0)
(-0.00188400718754 -0.0065944841595 0)
(-0.00171155185841 -0.00586551821339 0)
(-0.00154899979169 -0.00520563530558 0)
(-0.00139679079755 -0.00461047492892 0)
(-0.00125498904484 -0.00407561357769 0)
(-0.00112362160562 -0.00359664085715 0)
(-0.00100242849787 -0.00316921633589 0)
(-0.000891164599855 -0.00278913828512 0)
(-0.000789373661416 -0.00245236688349 0)
(-0.000696659344913 -0.00215505745387 0)
(-0.000612489706738 -0.00189357571815 0)
(-0.000536447045776 -0.00166447758848 0)
(-0.000468075048653 -0.00146445623638 0)
(-0.000407169401549 -0.00129024314808 0)
(-0.000354105605718 -0.00113804949238 0)
(-0.000305721645463 -0.000995931450864 0)
(-0.00026474733354 -0.000875313520268 0)
(-0.000235192594163 -0.000776311468075 0)
(-0.000209719452006 -0.000685326631301 0)
(-0.000183296926571 -0.00061781031593 0)
(-0.00015276612269 -0.000530923481468 0)
(-0.000134195785494 -0.000458941946853 0)
(-0.000136766677841 -0.000417618495899 0)
(-0.000155593529832 -0.000388444968171 0)
(-0.000153321611814 -0.00030257133256 0)
(-0.000169676891665 -0.000248243988066 0)
(-0.000192398290133 -0.000180047048643 0)
(-0.000210670041055 -0.000107914979882 0)
(-0.000197975596319 -3.25776185303e-05 0)
(0.0121075115805 -0.00171335475719 0)
(0.0127360659591 -0.00549341878578 0)
(0.0126038353697 -0.00923961032275 6.98660213073e-28)
(0.012382024983 -0.0129579646741 0)
(0.0120932099408 -0.0165915161578 0)
(0.0117424859891 -0.0201233421159 0)
(0.0113361772132 -0.0235360198933 0)
(0.0108816648906 -0.0268143984818 0)
(0.010386545471 -0.029945673795 0)
(0.00985859596242 -0.0329194525066 0)
(0.00930512675643 -0.0357277332685 0)
(0.00873317635393 -0.038364752164 0)
(0.00814893946189 -0.0408268003023 0)
(0.00755812677168 -0.0431119688924 0)
(0.0069654405879 -0.0452198968636 0)
(0.00637507766684 -0.0471515081382 0)
(0.00579022824945 -0.0489087670054 0)
(0.00521367144186 -0.0504944368865 0)
(0.00464727347307 -0.0519118896294 0)
(0.00409265136264 -0.0531649133075 0)
(0.00355063706781 -0.0542575740069 0)
(0.00302198383636 -0.0551940805743 0)
(0.00250678583272 -0.0559786878973 0)
(0.00200521398998 -0.0566156198315 0)
(0.00151688387717 -0.0571090037233 0)
(0.0010416168292 -0.0574628209827 0)
(0.000578759523487 -0.0576808863837 0)
(0.000127973702091 -0.057766812835 0)
(-0.00031149034879 -0.0577240269093 0)
(-0.000739976169726 -0.0575557295745 0)
(-0.00115818092777 -0.0572649462131 0)
(-0.00156631214956 -0.0568545207336 0)
(-0.00196487099834 -0.056327157913 0)
(-0.00235378968394 -0.0556854549668 0)
(-0.00273323246727 -0.0549319573824 0)
(-0.00310271919906 -0.0540692157304 0)
(-0.00346193932613 -0.0530998681671 0)
(-0.0038098775741 -0.0520267073674 0)
(-0.00414563529847 -0.0508527940846 0)
(-0.00446757843437 -0.0495815440873 0)
(-0.00477416923697 -0.0482168455817 0)
(-0.00506314427399 -0.0467631417263 0)
(-0.00533235208331 -0.0452255683435 0)
(-0.00557899541358 -0.0436100322226 0)
(-0.00580046551257 -0.0419233092162 0)
(-0.00599366571556 -0.0401731120134 0)
(-0.00615584305595 -0.0383681237859 0)
(-0.00628400361868 -0.0365180257274 0)
(-0.00637573631491 -0.0346334458073 0)
(-0.00642872951837 -0.0327258925343 0)
(-0.00644155405796 -0.0308075899223 0)
(-0.00641323916028 -0.0288912711039 0)
(-0.00634396521724 -0.0269899033687 0)
(-0.00623463702112 -0.0251163719507 0)
(-0.00608741108862 -0.0232831046967 0)
(-0.00590521233415 -0.0215017218427 0)
(-0.0056920499578 -0.0197826603077 0)
(-0.00545244214325 -0.0181348916625 0)
(-0.0051915127934 -0.0165656916562 0)
(-0.00491438632341 -0.0150805764896 0)
(-0.00462622596104 -0.013683308578 0)
(-0.00433177669489 -0.0123760375326 0)
(-0.0040354870367 -0.0111594457618 0)
(-0.00374121824712 -0.0100329391076 0)
(-0.00345240331587 -0.00899481489499 0)
(-0.00317184159427 -0.00804245297821 0)
(-0.00290185705374 -0.00717249164805 0)
(-0.00264416639986 -0.00638101926096 0)
(-0.00240005729042 -0.00566373779489 0)
(-0.00217032282349 -0.00501611770229 0)
(-0.00195544154243 -0.00443351055847 0)
(-0.00175553208976 -0.00391125004947 0)
(-0.00157050723732 -0.00344472385634 0)
(-0.00140002738742 -0.00302943443466 0)
(-0.00124363730407 -0.00266105750415 0)
(-0.00110071936885 -0.00233546775686 0)
(-0.00097061656896 -0.00204877680374 0)
(-0.000852600763543 -0.00179734921079 0)
(-0.000745998033318 -0.00157781441674 0)
(-0.000650194775115 -0.00138707225576 0)
(-0.000564826404395 -0.00122264360855 0)
(-0.000490616444261 -0.00107831881065 0)
(-0.000430126845392 -0.000953846508623 0)
(-0.000377703429983 -0.00084719501648 0)
(-0.000330233337393 -0.000741206544564 0)
(-0.000293084813214 -0.000654552895306 0)
(-0.000257037695752 -0.000573727112655 0)
(-0.000220786895086 -0.000487507988753 0)
(-0.000203346775649 -0.000432321808936 0)
(-0.000188272220071 -0.000360074480567 0)
(-0.000195301864555 -0.000304457307748 0)
(-0.000226126740346 -0.000271186404364 0)
(-0.000226605050673 -0.000192258565326 0)
(-0.000249368759016 -0.000133242795453 0)
(-0.000274794772878 -8.16825950842e-05 0)
(-0.000267028787923 -2.65531634518e-05 0)
(0.0157305718904 -0.00175996390154 0)
(0.0165678358381 -0.00563152381244 0)
(0.0163947959933 -0.00945722468258 0)
(0.016100243929 -0.0132544482143 0)
(0.0157164415249 -0.0169620136117 0)
(0.0152514272832 -0.0205612612953 0)
(0.0147140712689 -0.0240334069268 0)
(0.0141142591637 -0.0273625943829 0)
(0.0134622549869 -0.0305357913296 0)
(0.012768347451 -0.0335427642891 0)
(0.0120423580234 -0.0363759491335 0)
(0.0112934897289 -0.0390302340784 0)
(0.0105299965267 -0.0415026988336 0)
(0.00975920769665 -0.0437922973275 0)
(0.00898733117962 -0.0458995650177 0)
(0.00821961710096 -0.0478263015729 0)
(0.00746023780407 -0.0495752970866 0)
(0.00671253953973 -0.0511500762669 0)
(0.0059789564699 -0.0525546841355 0)
(0.00526130158955 -0.0537935006091 0)
(0.00456067874952 -0.0548710851926 0)
(0.00387778443855 -0.0557920635428 0)
(0.00321279517122 -0.0565610316732 0)
(0.00256566297296 -0.0571824736936 0)
(0.0019359742915 -0.0576607217788 0)
(0.00132324028346 -0.0579998983484 0)
(0.000726727811509 -0.0582039191283 0)
(0.00014574686427 -0.0582764427488 0)
(-0.000420543158693 -0.0582208990845 0)
(-0.000972841829016 -0.0580404620985 0)
(-0.00151190947079 -0.0577380774947 0)
(-0.00203827428874 -0.0573164757032 0)
(-0.00255244171653 -0.0567782086205 0)
(-0.00305458722039 -0.0561256709659 0)
(-0.00354477278155 -0.0553611753127 0)
(-0.00402263747363 -0.0544869984124 0)
(-0.0044876160464 -0.0535054652974 0)
(-0.004938642932 -0.0524190399308 0)
(-0.0053743750777 -0.051230419211 0)
(-0.00579291112234 -0.049942639168 0)
(-0.00619204623591 -0.048559208845 0)
(-0.00656901967686 -0.0470842325089 0)
(-0.00692078879201 -0.0455225213604 0)
(-0.0072438356065 -0.043879719498 0)
(-0.00753447596971 -0.0421624163054 0)
(-0.00778872181647 -0.0403782243332 0)
(-0.00800263998238 -0.038535875253 0)
(-0.00817229235794 -0.0366452418988 0)
(-0.00829414340498 -0.0347173329048 0)
(-0.00836508769564 -0.0327642261706 0)
(-0.0083828785907 -0.0307989167906 0)
(-0.00834618642872 -0.0288350890036 0)
(-0.00825496956144 -0.0268868040149 0)
(-0.00811045726624 -0.0249681088791 0)
(-0.00791537738494 -0.0230926244343 0)
(-0.00767378498999 -0.0212730749458 0)
(-0.00739106460354 -0.0195208381903 0)
(-0.00707353544536 -0.0178455484869 0)
(-0.00672816800232 -0.0162548238712 0)
(-0.00636205071008 -0.014754193178 0)
(-0.00598209338269 -0.0133471687121 0)
(-0.00559469651117 -0.0120354691287 0)
(-0.00520568028671 -0.0108192434439 0)
(-0.00482015635104 -0.00969730256384 0)
(-0.00444255431275 -0.00866732013603 0)
(-0.00407653900789 -0.00772603400009 0)
(-0.00372504568461 -0.00686944608307 0)
(-0.00339026048314 -0.00609304479503 0)
(-0.00307372421195 -0.00539199611262 0)
(-0.00277638410539 -0.00476130504473 0)
(-0.00249873069194 -0.0041959368151 0)
(-0.00224084842593 -0.00369090407983 0)
(-0.00200252045411 -0.00324133624017 0)
(-0.00178325479562 -0.00284252810388 0)
(-0.00158237035121 -0.00248999094795 0)
(-0.00139901942902 -0.00217948787683 0)
(-0.00123226110013 -0.00190706207408 0)
(-0.00108109457361 -0.00166906533823 0)
(-0.000944536605805 -0.0014621645638 0)
(-0.000821671003761 -0.00128333771377 0)
(-0.000711795332143 -0.00113025407779 0)
(-0.000615242552272 -0.000995241583427 0)
(-0.000535768686853 -0.000876127295712 0)
(-0.000477675071388 -0.000784110848912 0)
(-0.000426453680777 -0.0006941369676 0)
(-0.000383693509294 -0.000613368672729 0)
(-0.00034725727268 -0.000536983906626 0)
(-0.000303354346503 -0.000453414264105 0)
(-0.000259973530039 -0.000361655842793 0)
(-0.00024969573631 -0.000304365535168 0)
(-0.000241729061533 -0.000236836506181 0)
(-0.000269847189534 -0.000202749711924 0)
(-0.000302535403218 -0.000159662221262 0)
(-0.000300861361911 -9.81106228084e-05 0)
(-0.000311603701682 -5.65407278606e-05 0)
(-0.000304169381409 -1.87847660945e-05 0)
(0.0194567649117 -0.00181482842542 0)
(0.0204969075822 -0.00580246723172 0)
(0.0202792369271 -0.00973648739517 0)
(0.019906629149 -0.0136372165928 0)
(0.0194206555775 -0.0174403807474 0)
(0.0188326012484 -0.0211257394886 0)
(0.0181544307881 -0.0246732202278 0)
(0.0173991199155 -0.028066251841 0)
(0.0165800285601 -0.0312916262547 0)
(0.0157103704311 -0.0343393946975 0)
(0.0148027133048 -0.0372026405898 0)
(0.0138686700764 -0.0398771693221 0)
(0.0129186188748 -0.0423611436038 0)
(0.0119616170261 -0.0446546957492 0)
(0.0110053157821 -0.0467595522401 0)
(0.0100560335701 -0.0486786696 0)
(0.00911878762932 -0.0504159157404 0)
(0.00819746259286 -0.0519757945189 0)
(0.00729488953154 -0.0533632067515 0)
(0.0064130445655 -0.0545832725181 0)
(0.00555313035179 -0.05564117455 0)
(0.00471576890336 -0.0565420509949 0)
(0.0039010550411 -0.0572909022437 0)
(0.0031087256424 -0.0578925377659 0)
(0.00233818845045 -0.0583515249041 0)
(0.0015886713098 -0.0586721633552 0)
(0.000859221552318 -0.0588584732919 0)
(0.000148836083404 -0.0589141765004 0)
(-0.000543552030558 -0.0588427041451 0)
(-0.00121894920033 -0.0586471836549 0)
(-0.00187832233103 -0.0583304704095 0)
(-0.00252246858876 -0.0578951435018 0)
(-0.0031520392664 -0.0573435598682 0)
(-0.00376740177497 -0.0566778738348 0)
(-0.00436865977806 -0.055900093894 0)
(-0.00495551576288 -0.0550121490628 0)
(-0.00552729083186 -0.0540159688166 0)
(-0.00608279669605 -0.0529135582353 0)
(-0.00662036859363 -0.0517071576528 0)
(-0.00713774923304 -0.0503993084957 0)
(-0.00763215325617 -0.0489930348098 0)
(-0.00810019675587 -0.0474919567626 0)
(-0.00853800004546 -0.045900454306 0)
(-0.00894115772606 -0.0442237854286 0)
(-0.00930489952443 -0.0424682584715 0)
(-0.00962413300298 -0.0406413370894 0)
(-0.00989366523164 -0.0387517524354 0)
(-0.0101083401914 -0.0368095901452 0)
(-0.010263348932 -0.0348262990042 0)
(-0.0103544791223 -0.0328146822395 0)
(-0.0103785059354 -0.0307887355543 0)
(-0.0103334745574 -0.0287634048176 0)
(-0.0102190454243 -0.0267542191308 0)
(-0.0100366480308 -0.0247768232049 0)
(-0.00978965934093 -0.0228464731609 0)
(-0.00948335527275 -0.0209774510706 0)
(-0.00912480871353 -0.0191824500236 0)
(-0.00872248241595 -0.0174720350991 0)
(-0.00828564390437 -0.0158542422399 0)
(-0.00782367805879 -0.0143345339562 0)
(-0.00734554226173 -0.0129159926684 0)
(-0.00685940181113 -0.0115996648487 0)
(-0.00637254243154 -0.0103849455731 0)
(-0.00589134295936 -0.0092698506361 0)
(-0.00542127472704 -0.00825122936246 0)
(-0.0049668614701 -0.00732497035489 0)
(-0.00453165122392 -0.0064862377545 0)
(-0.00411821759497 -0.00572971676572 0)
(-0.00372827970273 -0.00504987650546 0)
(-0.00336283298172 -0.00444113674415 0)
(-0.00302230590552 -0.00389798592351 0)
(-0.00270666505167 -0.00341504879964 0)
(-0.0024155104377 -0.00298713681978 0)
(-0.00214813563705 -0.00260929286883 0)
(-0.00190359159236 -0.0022768284839 0)
(-0.00168073946882 -0.00198536302289 0)
(-0.00147831438441 -0.00173085583936 0)
(-0.00129497292988 -0.00150962770555 0)
(-0.00112936632811 -0.00131838933876 0)
(-0.000980210751457 -0.00115427974659 0)
(-0.000846520265276 -0.00101542789507 0)
(-0.000728916328115 -0.000889532545603 0)
(-0.00064587890063 -0.000793710336889 0)
(-0.000565570464176 -0.000690542278069 0)
(-0.000506201553211 -0.000604940329052 0)
(-0.00045978921933 -0.000530699997797 0)
(-0.000405951897644 -0.000446019249637 0)
(-0.000374164542962 -0.000385914686168 0)
(-0.000347998499954 -0.000321412506382 0)
(-0.000331274496948 -0.000260467137996 0)
(-0.000292653605041 -0.000182266965065 0)
(-0.000297247008262 -0.000134350185308 0)
(-0.000339945001163 -0.000111053211884 0)
(-0.000347924821331 -7.42812624173e-05 0)
(-0.000344079938696 -4.01333600465e-05 0)
(-0.000337391382925 -1.32604755959e-05 0)
(0.0233084168307 -0.0018814363426 0)
(0.0245524456031 -0.00601291359562 0)
(0.0242839487874 -0.0100837087835 6.93743748566e-28)
(0.0238249961785 -0.0141141148849 0)
(0.0232266151536 -0.0180360693716 0)
(0.0225036917278 -0.0218274827737 0)
(0.0216718491985 -0.0254668837779 0)
(0.0207477792514 -0.0289369908999 0)
(0.0197484794544 -0.0322245349244 0)
(0.0186905629628 -0.0353200736459 0)
(0.0175896780559 -0.0382176441963 0)
(0.0164601004574 -0.0409143265788 0)
(0.0153144489115 -0.0434097471453 0)
(0.0141635743916 -0.0457055953277 0)
(0.0130165252868 -0.047805145814 0)
(0.0118806301268 -0.0497128275536 0)
(0.0107616185732 -0.0514338667084 0)
(0.0096638025653 -0.0529739734295 0)
(0.00859024807338 -0.0543391012155 0)
(0.00754298015739 -0.0555352569044 0)
(0.00652314602937 -0.0565683590076 0)
(0.00553119730104 -0.0574441454558 0)
(0.00456701482557 -0.0581680851215 0)
(0.00363005535388 -0.0587453511206 0)
(0.00271944145257 -0.0591807807746 0)
(0.00183407586275 -0.059478869718 0)
(0.000972694358614 -0.0596437547419 0)
(0.00013395561438 -0.0596792160294 0)
(-0.000683521015566 -0.0595886892117 0)
(-0.0014810708208 -0.0593752366281 0)
(-0.00225994944965 -0.0590416005788 0)
(-0.00302124857016 -0.0585901957859 0)
(-0.00376585190876 -0.0580231399121 0)
(-0.00449434813648 -0.0573422943634 0)
(-0.00520697267049 -0.0565492919798 0)
(-0.00590351769165 -0.0556456429391 0)
(-0.00658327872772 -0.0546327662114 0)
(-0.00724495537304 -0.0535121317354 0)
(-0.00788661560235 -0.0522853732799 0)
(-0.00850563239411 -0.0509544188201 0)
(-0.00909867374899 -0.0495216574481 0)
(-0.00966167533676 -0.0479900785428 0)
(-0.0101898923838 -0.0463634807153 0)
(-0.010677925127 -0.0446466181195 0)
(-0.0111198295196 -0.0428453910683 0)
(-0.0115092222971 -0.0409669891513 0)
(-0.0118394757495 -0.039020079604 0)
(-0.0121039356055 -0.0370149226861 0)
(-0.012296247685 -0.0349634704886 0)
(-0.0124107415252 -0.0328793876357 0)
(-0.0124429010081 -0.0307779165536 0)
(-0.0123898403826 -0.0286756306143 0)
(-0.0122507353882 -0.0265899804878 0)
(-0.0120270811443 -0.0245387274678 0)
(-0.011722927956 -0.0225393393276 0)
(-0.0113449059725 -0.0206082315681 0)
(-0.0109021761097 -0.0187599767187 0)
(-0.010405891938 -0.0170063955619 0)
(-0.00986830291573 -0.0153560451061 0)
(-0.00930161956437 -0.0138141266941 0)
(-0.00871716024962 -0.0123829223734 0)
(-0.00812499976186 -0.0110625057756 0)
(-0.00753391767809 -0.00985121614651 0)
(-0.00695156578633 -0.00874606215941 0)
(-0.00638450739409 -0.00774286599366 0)
(-0.00583813773523 -0.00683642870066 0)
(-0.00531660381308 -0.00602081596845 0)
(-0.00482277702085 -0.00528968501981 0)
(-0.00435842050543 -0.00463662056406 0)
(-0.00392442231504 -0.00405533527943 0)
(-0.0035210401738 -0.0035397698718 0)
(-0.00314803212075 -0.00308410903174 0)
(-0.00280474967636 -0.00268280553447 0)
(-0.00249020567595 -0.00233060797569 0)
(-0.00220313274598 -0.00202259528947 0)
(-0.00194203816285 -0.00175420888939 0)
(-0.00170527605958 -0.00152129345278 0)
(-0.00149109265489 -0.00132011586593 0)
(-0.00129770193939 -0.00114739754547 0)
(-0.00112335304198 -0.00100040182389 0)
(-0.00096684158165 -0.000877058124567 0)
(-0.000828352666282 -0.000761628019806 0)
(-0.000745103780649 -0.000682021996166 0)
(-0.000662248364763 -0.000592339459544 0)
(-0.000589172694357 -0.000509953207503 0)
(-0.000533634839102 -0.00043966096266 0)
(-0.000480435475739 -0.000371205477534 0)
(-0.000431214914066 -0.000301790558248 0)
(-0.000408480686595 -0.000247241326636 0)
(-0.000376155941555 -0.000186389104373 0)
(-0.000366448181109 -0.000142278706095 0)
(-0.000336425694384 -8.80366318232e-05 0)
(-0.000346800145507 -6.19056545798e-05 0)
(-0.00037427505371 -4.70982003821e-05 0)
(-0.000365875294336 -2.52030578905e-05 0)
(-0.000359398892159 -8.28215059841e-06 0)
(0.0273127643976 -0.00196222658937 0)
(0.0287646317496 -0.00626905905873 0)
(0.0284374735999 -0.010507306944 -6.93631207807e-28)
(0.0278811062262 -0.0146958496269 0)
(0.0271567342931 -0.0187617184998 0)
(0.0262834952533 -0.0226805000126 0)
(0.025281436638 -0.0264291245587 0)
(0.0241717389648 -0.0299896137982 0)
(0.0229757251408 -0.0333488345126 0)
(0.0217139797756 -0.0364981880439 0)
(0.0204056458505 -0.0394330978003 0)
(0.0190679351597 -0.0421523933538 0)
(0.0177158412675 -0.0446576619576 0)
(0.0163620343774 -0.0469526144697 0)
(0.0150168861188 -0.0490424919386 0)
(0.0136886174753 -0.0509335714967 0)
(0.0123834976479 -0.0526327388143 0)
(0.0111060898916 -0.0541471586092 0)
(0.00985950137692 -0.0554840230428 0)
(0.00864563387276 -0.0566503689354 0)
(0.00746540855019 -0.0576529568883 0)
(0.00631896700586 -0.0584981867204 0)
(0.00520584124799 -0.0591920520218 0)
(0.00412510898064 -0.0597401125083 0)
(0.00307550975424 -0.0601475010362 0)
(0.00205554847096 -0.0604189073928 0)
(0.00106357249294 -0.0605585910864 0)
(9.78475679189e-05 -0.0605703931314 0)
(-0.000843389130557 -0.0604577321177 0)
(-0.00176185060329 -0.0602236128914 0)
(-0.00265915074587 -0.0598706435707 0)
(-0.00353672964791 -0.0594010410958 0)
(-0.00439578774648 -0.0588166591111 0)
(-0.00523719441251 -0.0581189945306 0)
(-0.00606140539111 -0.0573092747295 0)
(-0.00686836732621 -0.0563884666606 0)
(-0.0076574236481 -0.0553574063234 0)
(-0.00842721024375 -0.054216894724 0)
(-0.00917559177652 -0.0529678341203 0)
(-0.00989958403237 -0.0516113639312 0)
(-0.0105953205558 -0.0501490742611 0)
(-0.0112580252742 -0.0485831724739 0)
(-0.0118820415806 -0.0469166941384 0)
(-0.0124608792624 -0.0451537175873 0)
(-0.0129873002011 -0.0432995502335 0)
(-0.0134534455558 -0.0413609794745 0)
(-0.013851022168 -0.0393464616059 0)
(-0.0141715591212 -0.0372663584644 0)
(-0.0144067654241 -0.0351330993584 0)
(-0.0145490486394 -0.0329613300944 0)
(-0.0145921541052 -0.0307678373902 0)
(-0.0145318410534 -0.0285712396726 0)
(-0.0143665192948 -0.0263914611587 0)
(-0.0140975454508 -0.024249016823 0)
(-0.0137296092178 -0.0221643042307 0)
(-0.0132707971299 -0.0201567013919 0)
(-0.012732863374 -0.0182434437748 0)
(-0.0121305977387 -0.0164381946568 0)
(-0.0114802070743 -0.014749996452 0)
(-0.0107975531093 -0.0131834251651 0)
(-0.0100967288345 -0.0117393976051 0)
(-0.00938973970566 -0.0104164459776 0)
(-0.00868677708195 -0.00921153466709 0)
(-0.00799672022405 -0.00812045976551 0)
(-0.00732726077918 -0.00713781669738 0)
(-0.00668478375407 -0.0062570881489 0)
(-0.00607401813192 -0.0054708919222 0)
(-0.00549799885471 -0.00477154706633 0)
(-0.00495829062451 -0.00415153176835 0)