/*--------------------------------*- C++ -*----------------------------------*\
| =========                 |                                                 |
| \\      /  F ield         | OpenFOAM: The Open Source CFD Toolbox           |
|  \\    /   O peration     | Version:  v1906                                 |
|   \\  /    A nd           | Web:      www.OpenFOAM.com                      |
|    \\/     M anipulation  |                                                 |
\*---------------------------------------------------------------------------*/
FoamFile
{
    version     2.0;
    format      ascii;
    class       volScalarField;
    location    "154";
    object      p;
}
// * * * * * * * * * * * * * * * * * * * * * * * * * * * * * * * * * * * * * //

dimensions      [0 2 -2 0 0 0 0];


internalField   nonuniform List<scalar> 
9216
(
278.746154663
278.829151131
279.009774025
279.278681624
279.635990361
280.079888782
280.608047368
281.217639531
281.905521357
282.668196546
283.501977103
284.402930386
285.367034939
286.390118426
287.468002132
288.596433989
289.771215404
290.988133888
292.243068071
293.531925324
294.85072272
296.195534633
297.562548569
298.948027595
300.348340634
301.759943009
303.179381901
304.603297338
306.028403854
307.451512842
308.869492545
310.279311832
311.677980819
313.06261539
314.430361692
315.778479362
317.104254972
318.405100787
319.678461823
320.921926769
322.133133667
323.309888483
324.450074473
325.551773029
326.613181009
327.632727508
328.609002062
329.54086091
330.427367129
331.267879104
332.062001793
332.809650627
333.511011501
334.16657471
334.777101454
335.343625359
335.867424992
336.349994666
336.793025208
337.198350113
337.567938782
337.903826334
338.208122517
338.482932827
338.730383563
338.952539984
339.151445734
339.329042485
339.487220796
339.627744207
339.752308096
339.862469781
339.959711502
340.045376973
340.120735144
340.18692313
340.245008256
340.295937095
340.340593968
340.379756095
340.414149178
340.444421089
340.471220465
340.49425621
340.513206234
340.528683332
340.541330527
340.551372232
340.558949985
340.564429919
340.568209816
340.570738089
340.572410102
340.573414071
340.573909106
340.574070467
278.663259071
278.746755269
278.9248537
279.194369153
279.553274228
279.999389457
280.530204066
281.142815883
281.833999475
282.600219386
283.437719714
284.342538488
285.310594433
286.337694396
287.419609908
288.552076704
289.730857533
290.951735159
292.210560388
293.503241303
294.825776824
296.174245211
297.544824006
298.933781067
300.337482146
301.752386567
303.175043765
304.602095488
306.03026272
307.456355455
308.877251235
310.289913395
311.691363027
313.078705656
314.44909863
315.799786252
317.128064971
318.431326416
319.707022849
320.952717239
322.166051207
323.34480073
324.486848584
325.590243358
326.653177721
327.674047667
328.651436483
329.584170355
330.471306754
331.31218135
332.106397806
332.853860556
333.554762001
334.209596267
334.819140619
335.384447798
335.906820811
336.387785255
336.829060499
337.23251777
337.60015365
337.934041648
338.236313246
338.509109129
338.754570029
338.974791051
339.171822506
339.347629626
339.504102444
339.643021899
339.766077076
339.874837491
339.970775175
340.055242103
340.129494781
340.194675772
340.251838995
340.301934404
340.345832134
340.384308589
340.418066469
340.447716728
340.473795506
340.496385833
340.515157534
340.530336053
340.542604641
340.55226279
340.559664034
340.565050225
340.568674698
340.571088014
340.572716782
340.573648993
340.574079139
340.57424572
278.481826601
278.569834556
278.749944752
279.02233461
279.385045987
279.835865022
280.372173783
280.990966991
281.688903338
282.462348244
283.307437553
284.220122024
285.19622693
286.23148917
287.321606255
288.462263423
289.649169979
290.878076453
292.14479885
293.445228115
294.775343649
296.131217591
297.509019659
298.90501871
300.315580826
301.73717019
303.166341841
304.599743526
306.03410462
307.466239944
308.893036027
310.311457928
311.7185341
313.111366792
314.487117003
315.843019085
317.176367236
318.484535054
319.764965012
321.015193143
322.232842806
323.415654436
324.561484379
325.668338905
326.734378159
327.757952646
328.737611284
329.672137613
330.560559451
331.40218064
332.196588226
332.943674422
333.643635835
334.2969804
334.904514487
335.467331676
335.986786504
336.46446623
336.902154812
337.301794031
337.665445751
337.995251296
338.293399065
338.56208781
338.803502375
339.019782948
339.213009474
339.385178137
339.538194462
339.673857281
339.793859446
339.899778131
339.993080702
340.075119545
340.147141172
340.210283972
340.265589142
340.314000258
340.356374079
340.393480283
340.42600897
340.454567741
340.479680459
340.501337355
340.519242351
340.533698647
340.545075221
340.554022648
340.561099574
340.566205913
340.569527394
340.571800119
340.573275012
340.574095543
340.574520277
340.57473041
278.209103256
278.299523433
278.48286727
278.759886506
279.128610334
279.586748987
280.131552124
280.75986407
281.468181658
282.252712095
283.109434969
284.034158099
285.022572812
286.070300132
287.172933896
288.326074565
289.525358938
290.766482117
292.045215336
293.357418381
294.699047903
296.066163025
297.454926711
298.86160714
300.282574213
301.714298756
303.153345831
304.596373125
306.040122415
307.481418283
308.917158949
310.344316081
311.759925842
313.161090921
314.544972969
315.908797702
317.249849962
318.565483057
319.853117781
321.110256564
322.334487471
323.523503902
324.675114194
325.787266371
326.858063107
327.885790533
328.868937359
329.80622542
330.696630078
331.539408512
332.334116549
333.080628616
333.779144481
334.43019396
335.034627839
335.593603366
336.108557102
336.581171924
337.013335859
337.407098483
337.764626907
338.088163617
338.37998899
338.64238626
338.877612646
339.087871948
339.275294239
339.441916955
339.589673779
339.720384461
339.835751881
339.937358579
340.026669031
340.105030443
340.17367814
340.233738957
340.286238643
340.332106666
340.372184239
340.407229915
340.437927343
340.464912218
340.488570059
340.508689572
340.525222104
340.538455132
340.548769064
340.556946897
340.563233469
340.56778561
340.570891488
340.572933776
340.574208733
340.574945133
340.575344735
340.575539438
277.841834381
277.934703051
278.122427478
278.405835003
278.782852723
279.251049398
279.807489919
280.448810539
281.17128837
281.970911515
282.843447334
283.784506147
284.789599001
285.854188212
286.973730162
288.143710511
289.359671932
290.617235564
291.912116162
293.240132884
294.597215152
295.979406162
297.382862405
298.803852713
300.238753957
301.684047611
303.136313166
304.592223536
306.048537571
307.502095284
308.949810342
310.388666003
311.815708209
313.228043242
314.62283277
315.997294017
317.348697997
318.674373769
319.971711023
321.238169533
322.471287556
323.668697017
324.828138195
325.947481273
327.024747118
328.058134296
329.046044987
329.987115338
330.88024375
331.724620915
332.519754801
333.265493041
333.962036082
334.609943057
335.210125208
335.763829157
336.272607114
336.7382775
337.162875796
337.548602737
337.897772554
338.212766465
338.49599142
338.749844576
338.976682257
339.178792941
339.35837504
339.517519256
339.658196864
339.782252502
339.891401836
339.9872314
340.071201313
340.144648919
340.208794311
340.264746255
340.313509505
340.35599196
340.393012946
340.425311363
340.453553047
340.478365056
340.500058415
340.518184547
340.532899951
340.544541355
340.553568361
340.56070691
340.566258165
340.570213827
340.572821643
340.574527879
340.575626254
340.576252817
340.576591078
340.57675986
277.377579381
277.473323781
277.666632048
277.958278182
278.346011458
278.827185837
279.398612447
280.056649184
280.797284093
281.61621805
282.508943198
283.470814437
284.497112592
285.583098067
286.724054932
287.915325765
289.152338029
290.43062308
291.745828785
293.093727135
294.470217372
295.871326275
297.293205602
298.732128231
300.184482358
301.646765553
303.115577316
304.587612219
306.059651926
307.528558334
308.991265734
310.444774502
311.88614405
313.312487903
314.720968591
316.108795382
317.473222267
318.811550196
320.121129644
321.399368251
322.643740027
323.851799688
325.021198943
326.149708431
327.235241289
328.275881939
329.269916368
330.215866396
331.112524392
331.958989397
332.754700043
333.499463756
334.193476776
334.837333722
335.432023608
335.978911402
336.479704711
336.936405019
337.351246923
337.726632742
338.065070543
338.369121078
338.64135395
338.884311047
339.100474983
339.292241016
339.461893629
339.611588573
339.743342115
339.859026443
339.960370216
340.048961364
340.126252004
340.193564214
340.252096991
340.302933827
340.347051129
340.385327027
340.41855115
340.447434775
340.4726218
340.494746035
340.513811215
340.52941271
340.541991242
340.551830788
340.55957613
340.565667925
340.570214158
340.573248473
340.575369844
340.576706002
340.577516689
340.578070305
340.57834969
340.578491157
276.813371233
276.912606723
277.112839276
277.414746465
277.815830929
278.31315394
278.903190858
279.5819378
280.345011639
281.187748226
282.105293225
283.092683293
284.144915379
285.25700392
286.424025642
287.641153508
288.90368056
290.207035573
291.546791812
292.918670622
294.318540763
295.742414927
297.186444098
298.646910718
300.120220529
301.602894196
303.091558336
304.582936763
306.073841243
307.561162929
309.041863586
310.512967176
311.971551855
313.414742876
314.839706439
316.243644991
317.623794366
318.97742365
320.301837194
321.594380493
322.852449645
324.07350493
325.255088729
326.394847584
327.4905589
328.540161969
329.541793234
330.493825176
331.394909018
332.244018955
333.040496245
333.784088202
334.474977932
335.113799772
335.701638909
336.240012295
336.730830967
337.176339148
337.579034098
337.941580771
338.266734067
338.557278561
338.81598309
339.045566279
339.248664698
339.427804021
339.585372503
339.723602056
339.84455859
339.950141971
340.042090942
340.121990129
340.191277808
340.251253991
340.30308894
340.34783248
340.386423676
340.419701378
340.44841528
340.473237477
340.494777249
340.51362846
340.5295063
340.542291734
340.552518705
340.560478769
340.566730153
340.571441885
340.574778403
340.577034427
340.578611271
340.579569056
340.580042295
340.580419433
340.580605769
340.580694732
276.145587042
276.249056352
276.457730737
276.772158357
277.189520295
277.706495303
278.319125304
279.022944579
279.813101787
280.684477287
281.631789678
282.649688076
283.732828575
284.875934418
286.073841062
287.321527609
288.614136808
289.946985733
291.315569346
292.7155587
294.142795393
295.593283553
297.063180351
298.548785672
300.046531207
301.55296951
303.064763224
304.578674357
306.09155365
307.600330319
309.102001775
310.593623574
312.07229956
313.535173008
314.979418115
316.402233457
317.800836943
319.172463442
320.514364968
321.823815639
323.098119854
324.334625928
325.53074415
326.683970657
327.791915919
328.852339357
329.863188411
330.822644293
331.729172807
332.581580543
333.379072691
334.121307642
334.808440256
335.4411456
336.020624269
336.548583672
337.02719848
337.459032829
337.846930541
338.193895081
338.502988706
338.777264935
339.019728408
339.233305693
339.420816917
339.584943616
339.728196892
339.852894271
339.961152599
340.054894708
340.135862538
340.205629749
340.265612703
340.317080651
340.361166005
340.398875007
340.431099064
340.458626623
340.482155795
340.502306895
340.519649096
340.534651524
340.546912836
340.556679215
340.564312392
340.570189478
340.574674366
340.577945007
340.580141615
340.581642004
340.582475343
340.582996114
340.583199539
340.58325104
340.583320158
340.583335385
275.369825401
275.478397036
275.697252216
276.026768335
276.463712768
277.004272274
277.643935567
278.377653813
279.199991148
280.105266739
281.087680123
282.141416654
283.260731093
284.440010289
285.673816531
286.956914705
288.284286136
289.651132357
291.052871465
292.485129538
293.9437288
295.424674276
296.92413966
298.438453011
299.964082765
301.49762426
303.035786803
304.575381241
306.113307709
307.646543681
309.172132304
310.687170282
312.188796346
313.674179716
315.140509449
316.584985146
318.004809064
319.397180851
320.759296092
322.088348612
323.381537826
324.636081326
325.84923406
327.018312718
328.140726955
329.214016125
330.235893751
331.204298715
332.117456181
332.973947719
333.772789462
334.513508772
335.196208521
335.82160005
336.391018566
336.906403384
337.370269429
337.785608403
338.155725266
338.484059742
338.774048536
339.029057907
339.252358751
339.447115315
339.61636233
339.76296813
339.889588632
339.998635135
340.092269784
340.172426322
340.240837238
340.299054164
340.348461087
340.390286293
340.425613513
340.455394222
340.480460203
340.501537029
340.519257904
340.534177646
340.546809132
340.557467808
340.565912123
340.572396012
340.577231943
340.580863087
340.58343221
340.585142757
340.586174929
340.586752392
340.586960374
340.586892145
340.586749801
340.586481345
340.58640202
340.586330239
274.48078086
274.595471317
274.8265274
275.174096879
275.634415508
276.203039144
276.874753566
277.64377705
278.503948833
279.448902113
280.472212481
281.567517728
282.728608446
283.949491053
285.224427042
286.547952593
287.91488338
289.320308524
290.759577546
292.228282949
293.722240902
295.237471382
296.770178796
298.316733267
299.873653431
301.43759032
303.005312508
304.573691857
306.139689815
307.70034413
309.252755408
310.794073284
312.321482539
313.832189096
315.323406269
316.792342173
318.236188096
319.652110486
321.037245664
322.388699856
323.703554245
324.978877382
326.211743714
327.399259756
328.53859655
329.627029948
330.661987259
331.641104651
332.562296436
333.423843307
334.224496752
334.963591934
335.641144545
336.257890009
336.815314335
337.315626842
337.76178186
338.157353526
338.506277134
338.812559277
339.080083906
339.312558023
339.51353634
339.686443319
339.834564766
339.960997374
340.068573037
340.159802136
340.236874749
340.301709769
340.3560099
340.401290326
340.438890856
340.469987077
340.495602232
340.516620186
340.533799832
340.547789859
340.559143574
340.568332956
340.575775962
340.58170541
340.586089181
340.589110959
340.591136352
340.592412188
340.592959695
340.592976394
340.592684296
340.59222953
340.591780122
340.59122457
340.590600486
340.590035939
340.589743022
340.58958606
273.472092558
273.594105374
273.839743014
274.208841338
274.696949021
275.298811372
276.008320276
276.818774248
277.723116267
278.714146067
279.784695596
280.927764316
282.136614875
283.404833317
284.726359724
286.095496078
287.506897663
288.955553768
290.436762197
291.946100956
293.4793999
295.032713402
296.602294895
298.184573905
299.776135316
301.373700986
302.974112958
304.574317747
306.171351616
307.762326092
309.344413083
310.914828954
312.470818573
314.009638105
315.528537758
317.024744917
318.495448637
319.937786678
321.348836169
322.725609913
324.065059287
325.364084475
326.619553648
327.828329834
328.987306324
330.093447011
331.1438364
332.13573662
333.066664719
333.934496493
334.737611133
335.475058853
336.146723704
336.753337422
337.296557126
337.77886552
338.203780378
338.575702092
338.899462931
339.179824423
339.42117566
339.627557068
339.802789758
339.950570494
340.074481098
340.177915313
340.263932972
340.335145514
340.393728488
340.441535176
340.480207305
340.511209385
340.535825584
340.555167023
340.570183422
340.581676896
340.590318634
340.596665785
340.601177321
340.604228495
340.606126897
340.607079586
340.607184859
340.606620253
340.605683942
340.604419034
340.60288167
340.601261357
340.599674382
340.598169777
340.596836596
340.595701904
340.594690141
340.593797215
340.593233143
340.592986225
272.336152011
272.466932767
272.73000092
273.124763707
273.645875412
274.28703401
275.040991143
275.899889564
276.855565947
277.899811793
279.024580131
280.222135661
281.4851518
282.806762262
284.180576698
285.600670352
287.06155658
288.558149618
290.085723277
291.639869355
293.216458554
294.811604877
296.421633865
298.043055014
299.672538178
301.306892902
302.943050282
304.578046389
306.209007116
307.833132857
309.447682168
311.049954719
312.637272326
314.206958513
315.756316963
317.282609867
318.783036662
320.254715284
321.694667231
323.099809214
324.466951583
325.792807552
327.074011542
328.307149176
329.488793029
330.615547381
331.684092691
332.69124066
333.634003769
334.50971392
335.316214095
336.052126002
336.717157255
337.311988891
337.838495189
338.299307441
338.698657921
339.042184113
339.336081255
339.586138207
339.797257508
339.973707154
340.119496232
340.238583262
340.334912496
340.412302494
340.474143529
340.523144068
340.561368052
340.590500582
340.61208037
340.627518517
340.63803698
340.644670952
340.648283244
340.649577737
340.649121427
340.647364017
340.644656
340.641264627
340.637386308
340.633260471
340.628938275
340.624653355
340.620585192
340.616678277
340.613080518
340.609819018
340.606922143
340.604329048
340.602104963
340.600227016
340.598754055
340.597570959
340.596714273
340.596343813
271.063854105
271.205167085
271.489128553
271.914551734
272.474914936
273.162553061
273.968755596
274.884209581
275.899386816
277.00486445
278.191565888
279.450922629
280.774965489
282.156358296
283.588388928
285.064931972
286.580394952
288.129657622
289.708010738
291.311098971
292.934869454
294.5755273
296.229497725
297.893394217
299.563992283
301.238207418
302.913076255
304.585740165
306.253430186
307.913451612
309.563167289
311.1999789
312.821305552
314.424559408
316.007119397
317.566303263
319.099339251
320.603339932
322.075279922
323.511979838
324.910100694
326.266149339
327.576498389
328.837417691
330.045118463
331.195795622
332.285672739
333.311032959
334.268265544
335.153965211
335.965186457
336.69986549
337.357552151
337.938765467
338.445818566
338.880928431
339.24921327
339.558313568
339.81665467
340.031485837
340.208041992
340.350508521
340.462888848
340.549362727
340.614343969
340.662329249
340.697268839
340.721948585
340.738096557
340.747016827
340.750101678
340.74875321
340.744136154
340.737196659
340.728696699
340.719221423
340.709213893
340.698998461
340.688800947
340.678765435
340.668959515
340.659600227
340.650834339
340.642827666
340.635571175
340.629138736
340.623450306
340.618468829
340.61413714
340.610397564
340.607262561
340.604682759
340.602640758
340.601117495
340.599984813
340.599481382
269.644270142
269.798304265
270.107436332
270.569647288
271.176852026
271.919595342
272.787280344
273.768754722
274.85280735
276.028560157
277.285743555
278.614862213
280.007267808
281.455160503
282.951541476
284.490136574
286.065306937
287.6719581
289.305454736
290.961545415
292.636298317
294.326047605
296.027350016
297.736949651
299.451750002
301.168791244
302.885232326
304.59833542
306.305452202
308.004009825
309.69149429
311.365430829
313.023359764
314.662808332
316.281258412
317.876110949
319.444649037
320.984002026
322.491112161
323.962710276
325.395301292
326.78516685
328.128384676
329.420869766
330.658424435
331.836796356
332.95171078
333.998872763
334.973931073
335.872493232
336.690403227
337.424379873
338.074104721
338.639585337
339.124584697
339.528901248
339.858758189
340.125323795
340.341037882
340.515289027
340.652932915
340.757329415
340.832109329
340.881609777
340.910863544
340.925571499
340.930782527
340.92930958
340.922011633
340.909348615
340.892569691
340.873266703
340.852562881
340.831284757
340.810081262
340.789388378
340.769501395
340.750598973
340.732765156
340.716008632
340.700297036
340.685743905
340.672509875
340.66081178
340.650465255
340.641468884
340.63370469
340.626927571
340.62112207
340.616194235
340.612098209
340.608782139
340.60618049
340.604263137
340.602888479
340.602235809
268.064212169
268.23373105
268.573405215
269.080036213
269.743433342
270.551767261
271.491990724
272.550620055
273.714371677
274.970635668
276.307780662
277.715307626
279.183883396
280.705288068
282.27230942
283.878611714
285.518599199
287.187287539
288.880190471
290.593224829
292.322633339
294.064923151
295.816817905
297.575220736
299.337185727
301.099896357
302.86064939
304.616841956
306.365961042
308.105572447
309.833305193
311.546831885
313.243842442
314.922011282
316.578958276
318.212204218
319.819123014
321.396892132
322.942446556
324.45243976
325.923218511
327.350817884
328.730984067
330.05922357
331.330882116
332.541221945
333.685471911
334.758774185
335.755991758
336.671444647
337.499063864
338.232999589
338.874368924
339.421198326
339.882976461
340.250368685
340.531219656
340.743500993
340.907594875
341.03605948
341.131080266
341.193635562
341.226461756
341.234020766
341.222097294
341.198660145
341.171216896
341.142483944
341.111135174
341.075738255
341.037608905
340.999201488
340.961570659
340.925304302
340.890949692
340.858738624
340.828788805
340.801111904
340.775627505
340.752194534
340.730695329
340.711209467
340.69372433
340.678279213
340.664913693
340.653352462
340.643447002
340.63491469
340.627634054
340.621515747
340.616444161
340.61236361
340.609172646
340.606836261
340.605243732
340.604437512
266.307645624
266.496202604
266.873282576
267.433992171
268.165264976
269.052089119
270.078212438
271.227188894
272.483189948
273.831565899
275.259163883
276.754441312
278.307426398
279.909579503
281.553602294
283.233231421
284.943041356
286.678270534
288.434676958
290.208423345
291.995988733
293.794101577
295.599690089
297.409845245
299.221793669
301.032878614
302.840547529
304.642343837
306.435902135
308.218941869
309.98925526
311.744688608
313.483114154
315.202392459
316.900325466
318.574601655
320.222733677
321.841993273
323.429345469
324.981390544
326.494320211
327.963901988
329.385498267
330.754137824
332.064631583
333.311723646
334.490196396
335.594803672
336.619803537
337.558019486
338.400376384
339.134436507
339.767734061
340.290024922
340.733633865
341.056882924
341.27201129
341.410973135
341.511792816
341.591025214
341.641511584
341.65917978
341.645701589
341.605687235
341.545233672
341.47655063
341.41340285
341.358125821
341.30384316
341.244741095
341.183114002
341.124402913
341.069211107
341.01743006
340.969664891
340.925814409
340.88578446
340.849408281
340.816402042
340.786445492
340.759398207
340.735142978
340.713733382
340.69479789
340.678433569
340.664461492
340.652459224
340.6421676
340.633422592
340.626109379
340.62008002
340.615234279
340.611446228
340.608682788
340.606848112
340.605908277
264.354882856
264.567137723
264.990555638
265.617769197
266.431723329
267.413093275
268.541408143
269.796453133
271.159292485
272.612911318
274.142512141
275.735538016
277.381508309
279.071747426
280.799072462
282.557486956
284.341908164
286.147941733
287.971705331
289.809696956
291.658699515
293.515713461
295.377909062
297.242592558
299.107182558
300.969195037
302.826236221
304.676002161
306.516282128
308.34496133
310.160014371
311.959489426
313.741478716
315.50407554
317.245319034
318.963126154
320.655213802
322.319011679
323.951571953
325.549482452
327.108795407
328.624986893
330.092968708
331.507175004
332.861750481
334.150832715
335.36885823
336.510646668
337.570626706
338.540517191
339.40714933
340.138761036
340.767133561
341.245225449
341.696069966
341.965095255
342.0853347
342.117300903
342.147623633
342.195439369
342.21255223
342.184859911
342.116229117
342.014328591
341.884821544
341.752304407
341.648667134
341.572129533
341.500113121
341.416004871
341.326281208
341.246079665
341.173357545
341.105607884
341.044441133
340.989053148
340.939106937
340.894304828
340.854076798
340.817928846
340.785670361
340.757037339
340.731825959
340.709716851
340.690613944
340.674351521
340.660369302
340.648330798
340.638176363
340.629758695
340.622781171
340.617164627
340.61280882
340.609622463
340.607526941
340.6064728
262.181459473
262.423654646
262.905263637
263.615240835
264.530908277
265.627032944
266.877561284
268.257490018
269.744127317
271.317783371
272.961976315
274.663283928
276.410975402
278.196542499
280.013218868
281.85554479
283.719005444
285.599750853
287.494391674
289.399858013
291.31330577
293.232056173
295.153556136
297.075351143
298.995067052
300.910399843
302.819115474
304.719060128
306.608177614
308.484524487
310.346274545
312.19170743
314.019178032
315.827068063
317.613720652
319.377359691
321.115991884
322.827294383
324.508490485
326.156224362
327.766444804
329.334321958
330.854224814
332.319810658
333.724288955
335.06093729
336.32386042
337.508790021
338.612406125
339.627828009
340.540311584
341.255538782
341.898881355
342.27820044
342.929049313
343.135444334
343.086462519
342.89833426
342.658279652
342.498796916
342.418592354
342.362077331
342.300166351
342.220304268
342.112466992
341.980129207
341.867458222
341.794674635
341.716907714
341.597045857
341.463015201
341.360308515
341.272133992
341.187417309
341.113321682
341.046827582
340.987278863
340.934592421
340.887633508
340.845845859
340.808735525
340.776143817
340.747565104
340.72257842
340.701001201
340.682617189
340.66674454
340.653117067
340.641679059
340.632157625
340.624296772
340.617958059
340.613063007
340.609489891
340.607139627
340.6059827
259.756530633
260.037231402
260.593096336
261.40749677
262.449693181
263.686277998
265.083787879
266.611164967
268.241254732
269.951461398
271.723741738
273.544153681
275.402168276
277.289914377
279.201472093
281.13227867
283.078668294
285.037542184
287.006148033
288.981944439
290.962523136
292.945567366
294.928828574
296.910109929
298.887254409
300.858138273
302.820677475
304.772853488
306.712750701
308.63859342
310.548766607
312.441811798
314.316395136
316.171251185
318.005108766
319.816595667
321.604120656
323.365729907
325.098941805
326.800567974
328.466531963
330.091711066
331.669831971
333.193500382
334.654485963
336.044507363
337.356790236
338.588956178
339.743862973
340.824963121
341.84555324
342.517711857
343.355799582
343.106431558
342.994954188
343.054194284
343.026353837
342.900771463
342.741137432
342.597390965
342.484578679
342.390479923
342.304165646
342.221264744
342.14095917
342.072217424
342.019897936
341.973272992
341.897697489
341.751067358
341.5691778
341.458679299
341.366301703
341.259900473
341.174275845
341.09760254
341.028604001
340.969063828
340.915971227
340.869212362
340.827935652
340.79191368
340.760446357
340.732980854
340.70927
340.688971922
340.671378649
340.656281494
340.643670855
340.63312895
340.624442814
340.617465684
340.612077831
340.608132361
340.605558542
340.604299108
257.040539979
257.371816244
258.024216979
258.972432682
260.173970431
261.584022823
263.159295824
264.861159733
266.657306476
268.522199352
270.436645431
272.386838856
274.363185899
276.359147009
278.370238901
280.393256466
282.425717053
284.465498163
286.510625615
288.559168117
290.609198386
292.658787245
294.706007354
296.748931803
298.785625705
300.814137876
302.83251094
304.838826098
306.831274602
308.808228808
310.768289617
312.710292111
314.633268137
316.536380595
318.4188391
320.279793997
322.118198625
323.932631992
325.721084246
327.48071003
329.207561211
330.896308148
332.539985932
334.129822399
335.65532376
337.105105119
338.469290339
339.747417186
340.956124956
342.147137724
343.564931814
343.329490321
343.283440005
343.279225526
343.141316588
343.069214927
342.986158693
342.858500552
342.713123202
342.577599947
342.462479575
342.364350039
342.27622601
342.19233805
342.111745249
342.037962312
341.971860752
341.907740211
341.837826496
341.76716741
341.703681393
341.623387805
341.479773409
341.3124746
341.222652984
341.140299883
341.060732676
340.996802991
340.938012365
340.887414331
340.842675665
340.803884097
340.770061113
340.740564811
340.715126329
340.693066933
340.673890051
340.657616906
340.643958404
340.632499537
340.623086874
340.615542699
340.609699169
340.605422255
340.602650452
340.601282684
253.981703023
254.381116553
255.161743093
256.284428432
257.689273036
259.315505944
261.106871791
263.015460161
265.003295357
267.042260175
269.112909884
271.202705686
273.304120194
275.412932202
277.526872654
279.644655406
281.765351539
283.888035174
286.011623277
288.134840372
290.256250215
292.37431022
294.487416158
296.59391803
298.692108211
300.780195473
302.856306091
304.918555483
306.965173845
308.994637618
311.005758195
312.997698659
314.969921382
316.922102217
318.854039169
320.765544176
322.656291871
324.525607956
326.372197728
328.193825805
329.986939806
331.746247752
333.464223404
335.13052838
336.73138153
338.249365972
339.663757363
340.967596484
342.179925373
343.386820469
343.540129293
343.545714592
343.377475813
343.278670927
343.148545289
343.040909883
342.930365931
342.800190813
342.662518545
342.533321281
342.419978038
342.321731163
342.23352958
342.150601871
342.071843381
341.99791585
341.92826596
341.859116547
341.786662753
341.71262362
341.639842552
341.569742191
341.508870947
341.442013858
341.336828064
341.184943566
341.07483556
341.01732038
340.952258057
340.900340838
340.852455517
340.811695673
340.776065953
340.744898739
340.718037829
340.694604986
340.674191513
340.656879566
340.642275523
340.63007765
340.620061344
340.612031857
340.605801049
340.601245702
340.598276687
340.596810822
250.510605326
251.004654489
251.959858623
253.314334808
254.982094898
256.880061864
258.935155056
261.088484703
263.296373455
265.529207909
267.768972821
270.006232645
272.237201637
274.461324515
276.679523628
278.893071288
281.102961573
283.309638879
285.512957753
287.712275397
289.906598502
292.094729982
294.275371905
296.447160854
298.608634992
300.75815431
302.893862181
305.013790924
307.116086525
309.199245639
311.262272515
313.304704915
315.326517051
317.327990848
319.309625389
321.272047905
323.215866387
325.14142207
327.048458611
328.935722243
330.800487737
332.637991747
334.440698291
336.197231602
337.890491958
339.49448134
340.965267514
342.293047312
343.550553039
343.612173244
343.583820528
343.519291394
343.377464974
343.245919606
343.106917782
342.975914848
342.846204665
342.711762683
342.578298357
342.454381483
342.345027409
342.249200667
342.162577704
342.082352062
342.007306745
341.936762053
341.869373261
341.802451167
341.733405212
341.66206658
341.590152128
341.520010028
341.451817702
341.384189501
341.323768908
341.262256189
341.178576981
341.055807872
340.95303684
340.907872933
340.856316961
340.815151507