/*--------------------------------*- C++ -*----------------------------------*\
| =========                 |                                                 |
| \\      /  F ield         | OpenFOAM: The Open Source CFD Toolbox           |
|  \\    /   O peration     | Version:  v1906                                 |
|   \\  /    A nd           | Web:      www.OpenFOAM.com                      |
|    \\/     M anipulation  |                                                 |
\*---------------------------------------------------------------------------*/
FoamFile
{
    version     2.0;
    format      ascii;
    class       volVectorField;
    location    "793";
    object      Ua;
}
// * * * * * * * * * * * * * * * * * * * * * * * * * * * * * * * * * * * * * //

dimensions      [0 1 -1 0 0 0 0];


internalField   nonuniform List<vector> 
9216
(
(-0.00666836316119 0.00667178818119 0)
(-0.00685517385822 0.02080693345 2.37686106558e-27)
(-0.00684106056193 0.0350219532631 -4.61580627603e-31)
(-0.00679281200068 0.049228062563 0)
(-0.00672536596122 0.0632881172818 0)
(-0.00664016287538 0.0771669158525 0)
(-0.00653874121209 0.0908250034258 0)
(-0.00642200181391 0.104225874857 0)
(-0.00629100859397 0.117335321966 0)
(-0.00614658264936 0.13012162145 0)
(-0.00598983663926 0.142555471791 0)
(-0.0058216050344 0.154610162428 0)
(-0.00564302404246 0.166261471555 0)
(-0.00545488003801 0.177487727184 0)
(-0.00525825197227 0.188269624385 0)
(-0.00505380087262 0.198590171422 0)
(-0.00484246939497 0.208434435621 0)
(-0.00462472792534 0.217789390805 0)
(-0.00440132173072 0.226643618082 0)
(-0.00417248909682 0.234987084755 0)
(-0.00393874579141 0.242810833426 0)
(-0.00370008874042 0.250106728366 0)
(-0.00345680532858 0.256867171325 0)
(-0.00320867515546 0.26308485391 0)
(-0.00295579125558 0.268752533432 0)
(-0.00269777003849 0.273862823696 0)
(-0.0024345710204 0.278408058293 0)
(-0.00216572484763 0.282380146626 0)
(-0.00189114069556 0.285770543505 0)
(-0.00161036234691 0.288570184771 0)
(-0.00132334844766 0.290769605076 0)
(-0.00102974861203 0.292358946309 0)
(-0.000729676052169 0.293328143182 0)
(-0.000423039102813 0.29366715338 0)
(-0.000110240804454 0.29336627688 0)
(0.000208453761762 0.292416435091 0)
(0.000532251491893 0.290809635829 0)
(0.000860430816967 0.28853933795 0)
(0.00119173507015 0.285600994665 0)
(0.00152493981541 0.281992459055 0)
(0.00185831130486 0.277714541119 0)
(0.00219014054246 0.272771388395 0)
(0.00251826516707 0.267170990747 0)
(0.00284056096946 0.260925489903 0)
(0.00315451261604 0.254051597929 0)
(0.00345764893266 0.246570852077 0)
(0.00374713791702 0.238509975885 0)
(0.0040201661752 0.22990117841 0)
(0.00427353566492 0.220782524169 0)
(0.0045040357147 0.211198382595 0)
(0.00470804453318 0.201199788222 0)
(0.0048820109867 0.19084496631 0)
(0.0050220862225 0.180199396384 0)
(0.00512485631965 0.169335978574 0)
(0.00518697470586 0.158334234051 0)
(0.00520615831624 0.147279524211 0)
(0.00518061022415 0.136261064257 0)
(0.0051101056566 0.125370189132 0)
(0.00499504593789 0.114697766083 0)
(0.00483767033837 0.104332020988 0)
(0.00464093511257 0.094355743294 0)
(0.00440985260902 0.0848436586793 0)
(0.00415015957912 0.0758594170764 0)
(0.00386966598655 0.0674524814725 0)
(0.00357541132546 0.0596565583157 0)
(0.00327383982786 0.0524912442076 0)
(0.00296997701938 0.0459648503393 0)
(0.00266991416892 0.0400744978524 0)
(0.00237946770767 0.0348051920632 0)
(0.00210421683876 0.0301298321726 0)
(0.00184780346649 0.0260118636836 0)
(0.00161264519752 0.0224084148246 0)
(0.00139943165411 0.01927373827 0)
(0.00120829551833 0.0165613304378 0)
(0.00103857743504 0.0142255085146 0)
(0.00088957804808 0.0122219586266 0)
(0.000759937723285 0.010508625178 0)
(0.000648014579435 0.00904658844504 0)
(0.000551656081126 0.00780107820204 0)
(0.000468913731093 0.00674164541314 0)
(0.000397793400797 0.0058419890222 0)
(0.000336511663532 0.00507966637993 0)
(0.000282900195784 0.0044360508131 0)
(0.000233291824595 0.00390146986746 0)
(0.000180224899725 0.00341606559836 0)
(0.00015839236825 0.00310883374348 0)
(0.000149808154837 0.0027878990553 0)
(0.000130409884977 0.00250663641829 0)
(0.000127464401659 0.00226771770839 0)
(0.000132583754591 0.00200641264332 0)
(0.000129528203787 0.00175057787901 0)
(0.000127898565529 0.00148669217539 0)
(0.00014028721227 0.00120962736971 0)
(0.000155753533623 0.000914400158082 0)
(0.000174041199332 0.000564298498858 0)
(0.00018608801568 0.00018112194787 0)
(-0.0208361576066 0.00689560329992 0)
(-0.0219978941334 0.0221005423053 0)
(-0.0219243195703 0.0372177790144 -2.44316693876e-27)
(-0.0217382428859 0.0523383969724 0)
(-0.0214850034969 0.0672916420816 0)
(-0.0211696393936 0.0820480681962 0)
(-0.0207959334328 0.0965674242893 0)
(-0.0203672518863 0.110811384757 0)
(-0.0198874354621 0.1247437277 0)
(-0.0193601278237 0.138330741183 0)
(-0.0187894903053 0.151541331399 0)
(-0.0181793202942 0.164347154548 0)
(-0.0175338383397 0.176722592266 0)
(-0.0168566925427 0.188644749827 0)
(-0.0161518414223 0.200093321634 0)
(-0.0154224816971 0.211050472811 0)
(-0.0146720240066 0.221500612926 0)
(-0.0139029716526 0.231430182982 0)
(-0.013117979791 0.240827365722 0)
(-0.0123187105128 0.249681811024 0)
(-0.0115069627217 0.257984320247 0)
(-0.0106835244615 0.265726550513 0)
(-0.0098493551661 0.272900714889 0)
(-0.00900445122957 0.279499306872 0)
(-0.00814905873486 0.285514854184 0)
(-0.00728256326673 0.290939698238 0)
(-0.00640470993788 0.295765830753 0)
(-0.00551452780163 0.299984753971 0)
(-0.00461153815433 0.30358741955 0)
(-0.00369472490984 0.306564190001 0)
(-0.00276371748148 0.308904881988 0)
(-0.00181779586135 0.310598879437 0)
(-0.000857044264927 0.311635337761 0)
(0.000118554350808 0.312003336427 0)
(0.00110805295247 0.311692242498 0)
(0.00211040787097 0.31069204794 0)
(0.00312347863043 0.308993829547 0)
(0.00414486233546 0.306590197163 0)
(0.00517100128948 0.30347583675 0)
(0.00619799779537 0.29964800752 0)
(0.00722084540232 0.295107097865 0)
(0.00823422402813 0.289857093653 0)
(0.0092318455058 0.283906068361 0)
(0.010207199679 0.277266560075 0)
(0.011152966633 0.269955955352 0)
(0.0120616607908 0.261996782348 0)
(0.0129250377457 0.253417034434 0)
(0.0137346092521 0.244250487676 0)
(0.0144810048915 0.234537085378 0)
(0.0151544565628 0.224323420075 0)
(0.0157441942581 0.213663231271 0)
(0.0162392014497 0.202617997043 0)
(0.0166278508395 0.191257264211 0)
(0.0168993038641 0.179658828363 0)
(0.0170434429973 0.167908158317 0)
(0.0170528401637 0.156097349214 0)
(0.0169223916589 0.144323103481 0)
(0.0166510943394 0.13268451027 0)
(0.0162407808439 0.121280434015 0)
(0.0156980386885 0.110207039924 0)
(0.0150327135252 0.0995549732308 0)
(0.01426010593 0.0894063648813 0)
(0.0133991001669 0.0798316204691 0)
(0.0124750092354 0.0708845179991 0)
(0.0115115155993 0.0625993190054 0)
(0.0105279089425 0.0549946377048 0)
(0.00953945362852 0.0480788791449 0)
(0.00856486254318 0.0418498181823 0)
(0.00762367669167 0.0362910490034 0)
(0.00673369027733 0.0313715766982 0)
(0.00590684600521 0.0270493296566 0)
(0.00515007291811 0.0232757478172 0)
(0.00446528386505 0.0199999260201 0)
(0.00385209893272 0.0171711427506 0)
(0.0033083768232 0.0147400894597 0)
(0.00283160360924 0.0126590417862 0)
(0.00241762780749 0.0108824162543 0)
(0.0020607563545 0.0093681153496 0)
(0.00175395878742 0.00807895691525 0)
(0.00149067677317 0.00698283139294 0)
(0.00126477615757 0.0060520336099 0)
(0.001070788337 0.00526254260229 0)
(0.000903016837352 0.0045932998336 0)
(0.000755488320163 0.00402641616806 0)
(0.000617730502404 0.00352339054635 0)
(0.000520800074661 0.00305138641437 0)
(0.000455387943262 0.00272241052646 0)
(0.000395085795551 0.00244360808094 0)
(0.000377259073937 0.00217089091222 0)
(0.000387514661065 0.00195021142046 0)
(0.000388055509062 0.00172468165675 0)
(0.000395368932675 0.00145043759363 0)
(0.000420238295268 0.00116832071494 0)
(0.000503430731125 0.00091661054506 0)
(0.000605046832219 0.000582636716387 0)
(0.000544871484156 0.000159713951331 0)
(-0.0352108298873 0.00695095149041 0)
(-0.0371956749138 0.0222833763378 0)
(-0.0370447286025 0.0374927090281 -2.44654031489e-27)
(-0.0367245773857 0.0527228327619 0)
(-0.0362976315872 0.067783485383 0)
(-0.0357689979608 0.0826438283447 0)
(-0.035143483183 0.0972626326005 0)
(-0.0344264421108 0.111601046542 0)
(-0.0336238974552 0.125622464885 0)
(-0.0327421147131 0.13929287567 0)
(-0.0317877670985 0.152581006495 0)
(-0.0307674686243 0.165458430026 0)
(-0.0296879779011 0.177899571886 0)
(-0.0285556931988 0.189881677841 0)
(-0.0273769029271 0.201384698263 0)
(-0.0261572656696 0.21239113634 0)
(-0.0249021168202 0.222885828772 0)
(-0.0236159558789 0.232855698851 0)
(-0.0223028162725 0.242289463425 0)
(-0.0209657795076 0.251177326297 0)
(-0.0196074102326 0.259510651522 0)
(-0.0182293097482 0.267281640895 0)
(-0.0168326095871 0.274483019228 0)
(-0.0154175674943 0.281107740479 0)
(-0.0139841043113 0.287148725467 0)
(-0.0125314383323 0.292598632347 0)
(-0.0110586472706 0.297449676517 0)
(-0.00956433688748 0.301693489713 0)
(-0.00804721418958 0.305321041283 0)
(-0.00650578960098 0.308322600383 0)
(-0.0049389643158 0.310687784684 0)
(-0.00334575712771 0.312405644 0)
(-0.00172587419934 0.313464821222 0)
(-7.94915960475e-05 0.313853793741 0)
(0.00159219880044 0.313561193799 0)
(0.00328720877024 0.312576180256 0)
(0.00500226268416 0.310888898701 0)
(0.00673304015311 0.308490977874 0)
(0.00847378241197 0.305376086123 0)
(0.0102175940964 0.301540487194 0)
(0.0119561752153 0.296983611162 0)
(0.0136801902534 0.291708574465 0)
(0.0153791102128 0.285722665867 0)
(0.0170416006499 0.279037743182 0)
(0.0186553908623 0.271670574472 0)
(0.0202075731544 0.263643104176 0)
(0.0216843723763 0.254982706476 0)
(0.0230712616982 0.245722458202 0)
(0.0243525777211 0.235901501277 0)
(0.0255115414877 0.225565553945 0)
(0.0265299244116 0.214767566507 0)
(0.0273884261887 0.203568518789 0)
(0.0280669208619 0.192038136616 0)
(0.028545859079 0.180255362637 0)
(0.0288074193437 0.168308081276 0)
(0.028837808285 0.1562919854 0)
(0.0286282107145 0.144308277223 0)
(0.0281761674973 0.132460918334 0)
(0.0274848492041 0.120854029694 0)
(0.0265645459161 0.109589349836 0)
(0.0254321597428 0.0987635518806 0)
(0.0241128805629 0.0884650765514 0)
(0.0226393638285 0.0787715782997 0)
(0.0210591056663 0.0697404073805 0)
(0.0194167564818 0.0614013119055 0)
(0.0177424196078 0.0537666379891 0)
(0.016057920467 0.0468446053342 0)
(0.014395141591 0.0406364332075 0)
(0.0127912009038 0.0351252771503 0)
(0.0112784020767 0.030274743063 0)
(0.0098778815624 0.0260351154366 0)
(0.00859993731139 0.0223508050751 0)
(0.00744648765775 0.019165893348 0)
(0.00641515313314 0.0164269223437 0)
(0.00550200413476 0.0140832279726 0)
(0.00470294208472 0.012085723672 0)
(0.00401161242533 0.0103865485881 0)
(0.00341752046329 0.00894147725765 0)
(0.00290783593221 0.00771271267299 0)
(0.00247080167371 0.00666881579368 0)
(0.00209647853976 0.0057829459759 0)
(0.00177606227958 0.00503170172989 0)
(0.00150134558518 0.00439477659257 0)
(0.00126573418719 0.00385651039212 0)
(0.00106813602471 0.00337833602652 0)
(0.000910292957761 0.00294123006769 0)
(0.000801448892251 0.00267065560004 0)
(0.00068633241215 0.00230429887468 0)
(0.000610415647636 0.00199451917546 0)
(0.00061021180215 0.00179552350554 0)
(0.000663740165879 0.00163134356256 0)
(0.000655944111896 0.00128752755896 0)
(0.000720088870218 0.00104504402807 0)
(0.000815207000581 0.00075193867624 0)
(0.00089917239458 0.000447844027998 0)
(0.000868510864867 0.0001379391576 0)
(-0.0497830641389 0.00700827605004 0)
(-0.0526130547899 0.022486970655 0)
(-0.0523971225407 0.0378199956345 2.44621507698e-27)
(-0.0519400555904 0.0531790761758 0)
(-0.0513312174627 0.068365032891 0)
(-0.05057830896 0.0833458115834 0)
(-0.0496880457164 0.0980790175494 0)
(-0.0486680991284 0.112524986038 0)
(-0.0475270027516 0.126646518857 0)
(-0.0462738395998 0.140409193426 0)
(-0.0449181195342 0.153781511464 0)
(-0.0434694632443 0.166734992248 0)
(-0.0419374984038 0.179244186218 0)
(-0.0403315417777 0.191286626565 0)
(-0.0386605245389 0.202842709686 0)
(-0.036932692444 0.213895520447 0)
(-0.0351555783386 0.224430598351 0)
(-0.0333357434673 0.234435660934 0)
(-0.031478815367 0.243900286788 0)
(-0.0295892911098 0.252815575171 0)
(-0.0276706526171 0.261173790456 0)
(-0.0257252422868 0.268968007336 0)
(-0.0237544542312 0.276191768019 0)
(-0.0217586778346 0.282838762877 0)
(-0.0197375492667 0.288902545454 0)
(-0.0176899472653 0.294376286431 0)
(-0.0156142840756 0.299252575694 0)
(-0.0135085391593 0.303523271069 0)
(-0.0113705762232 0.307179403718 0)
(-0.00919821023143 0.310211129834 0)
(-0.00698955744896 0.312607770206 0)
(-0.00474311817834 0.31435788362 0)
(-0.00245813977461 0.315449411018 0)
(-0.000134755968723 0.315869931945 0)
(0.00222566398673 0.315606982955 0)
(0.00462039552803 0.314648454892 0)
(0.00704505404426 0.312983076953 0)
(0.00949353806337 0.31060096308 0)
(0.0119578371386 0.307494215144 0)
(0.0144280978862 0.303657546443 0)
(0.0168925928484 0.299088906023 0)
(0.0193379323311 0.293790057771 0)
(0.0217491789568 0.287767090504 0)
(0.0241101386451 0.281030822709 0)
(0.0264034954639 0.273597098536 0)
(0.028611003389 0.265486981724 0)
(0.0307134273153 0.256726896514 0)
(0.032690436189 0.247348791093 0)
(0.0345202222941 0.237390428124 0)
(0.0361791415072 0.226895918039 0)
(0.0376413167399 0.215916574415 0)
(0.0388786642582 0.204512086274 0)
(0.039861483847 0.192751873073 0)
(0.0405600323601 0.18071617013 0)
(0.0409470836199 0.16849635049 0)
(0.0410010485477 0.15619367557 0)
(0.0407086599155 0.143916350671 0)
(0.0400658348789 0.131775623855 0)
(0.0390763637634 0.119883281185 0)
(0.0377539371268 0.108349386699 0)
(0.0361218696857 0.0972796421933 0)
(0.0342148852596 0.0867720730082 0)
(0.0320765969164 0.0769195102471 0)
(0.0297900706443 0.0677878260593 0)
(0.0274307813787 0.0593939578736 0)
(0.0250338300902 0.0517337296119 0)
(0.0226146993335 0.0448173321647 0)
(0.0202214475783 0.0386578221289 0)
(0.017917403504 0.0332391865095 0)
(0.0157549517527 0.0285144005197 0)
(0.0137648026024 0.0244193199868 0)
(0.0119582604464 0.0208860864607 0)
(0.0103337603732 0.0178510304575 0)
(0.00888414332689 0.0152574939214 0)
(0.00760260173205 0.0130543624852 0)
(0.00648480326022 0.0111914036618 0)
(0.00552367891494 0.00961655960689 0)
(0.00470243832037 0.00828118451538 0)
(0.00399960111731 0.00714676820095 0)
(0.00339720032676 0.00618403464282 0)
(0.00288191631155 0.00536818209198 0)
(0.00244187222721 0.00467687860539 0)
(0.00206533262229 0.00409121507092 0)
(0.00174318562921 0.00359956974099 0)
(0.00147380562571 0.00314550981699 0)
(0.0012808271255 0.00279043432209 0)
(0.00112608741323 0.00247357529407 0)
(0.000983270656687 0.00211746239902 0)
(0.0009083923793 0.00186793280193 0)
(0.0008473154936 0.00156686411788 0)
(0.000863825633091 0.00131802431748 0)
(0.000965889440301 0.00114109256191 0)
(0.000977188867235 0.000814064545039 0)
(0.00106751826208 0.000557188788735 0)
(0.00116272665768 0.00033391251206 0)
(0.0011458091912 0.000108975197233 0)
(-0.0645019805688 0.00708228707914 0)
(-0.0681733930638 0.0227559765248 0)
(-0.067891033213 0.0382606691144 0)
(-0.067293772007 0.0537938744537 0)
(-0.0664982127059 0.0691482961058 0)
(-0.0655148612042 0.0842906636502 0)
(-0.0643526799204 0.0991771939142 0)
(-0.0630218796907 0.113767137023 0)
(-0.0615337598258 0.128022471231 0)
(-0.0599003973746 0.141908205023 0)
(-0.0581343843202 0.155392524646 0)
(-0.0562485116545 0.168446881005 0)
(-0.0542555155313 0.181045999661 0)
(-0.0521677722055 0.193167819041 0)
(-0.0499970715602 0.20479335699 0)
(-0.0477543462242 0.215906511876 0)
(-0.0454494976552 0.226493802214 0)
(-0.043091188009 0.236544054349 0)
(-0.0406867466464 0.246048047472 0)
(-0.0382420518504 0.254998129534 0)
(-0.0357615382144 0.263387818111 0)
(-0.0332481813407 0.271211401887 0)
(-0.0307036068499 0.278463557953 0)
(-0.0281281681519 0.285138997601 0)
(-0.025521135397 0.291232151772 0)
(-0.0228808391582 0.296736902072 0)
(-0.0202049097139 0.301646362739 0)
(-0.0174904625753 0.305952713632 0)
(-0.0147343717081 0.309647088347 0)
(-0.0119334915248 0.31271950824 0)
(-0.00908497664346 0.315158910015 0)
(-0.00618652330576 0.316953199922 0)
(-0.00323672637993 0.31808938284 0)
(-0.000235389416819 0.318553820305 0)
(0.00281612166955 0.318332553687 0)
(0.00591458779728 0.317411726327 0)
(0.00905462680343 0.315778106804 0)
(0.0122284921358 0.313419698006 0)
(0.0154259058632 0.310326416436 0)
(0.0186340409052 0.306490809007 0)
(0.0218375787148 0.30190876978 0)
(0.0250189255324 0.296580205747 0)
(0.0281584918827 0.290509601974 0)
(0.0312350638677 0.283706438707 0)
(0.034226131433 0.276185433422 0)
(0.0371081451999 0.267966613186 0)
(0.0398565449502 0.25907526942 0)
(0.0424455350936 0.249541909039 0)
(0.044847515812 0.23940236387 0)
(0.047032312514 0.228698285775 0)
(0.0489663080776 0.217478188124 0)
(0.0506120433071 0.205799229667 0)
(0.051928568143 0.193729478147 0)
(0.0528736530949 0.181350351149 0)
(0.0534075257832 0.168757888555 0)
(0.0534986150137 0.156061745257 0)
(0.0531280816892 0.143380635529 0)
(0.05229098823 0.13083558565 0)
(0.0509900621426 0.118548496735 0)
(0.0492420074437 0.106640638293 0)
(0.0470756987663 0.0952297216779 0)
(0.0445342143787 0.084424488242 0)
(0.0416555720985 0.0743509280521 0)
(0.0385935560244 0.0650982692999 0)
(0.035480515459 0.056648313771 0)
(0.0323380553749 0.0489534180614 0)
(0.0291379170878 0.0420347416011 0)
(0.0259554289276 0.0359413390872 0)
(0.0229016183059 0.0306606915845 0)
(0.0200592365545 0.0261237911545 0)
(0.0174675798297 0.0222398447387 0)
(0.0151331105381 0.0189209867572 0)
(0.0130440751013 0.0160928311931 0)
(0.0111830429977 0.0136966724264 0)
(0.00953857958368 0.0116846686129 0)
(0.00811017011322 0.0100074695298 0)
(0.00689526146023 0.00860475650826 0)
(0.00586731838288 0.00741789256586 0)
(0.00498927949263 0.00640790153634 0)
(0.0042354155702 0.00555150177094 0)
(0.00359132098526 0.00482794048573 0)
(0.00304318986799 0.00421539721048 0)
(0.00257398353261 0.00369626025305 0)
(0.00217187006029 0.00326271809031 0)
(0.00182457345911 0.00283503749734 0)
(0.00164454404762 0.00257808340816 0)
(0.00148672775567 0.00226863274421 0)
(0.0013180791342 0.00193501104251 0)
(0.0011566415617 0.00157267245668 0)
(0.00111487574449 0.00132525197953 0)
(0.00108509957635 0.0010401575943 0)
(0.00118021449075 0.000865017239866 0)
(0.0012895402687 0.000660782477232 0)
(0.00128728801523 0.000408843691793 0)
(0.00132454709298 0.000233355674687 0)
(0.00130319737903 7.70889559193e-05 0)
(-0.0794175271781 0.00717457598777 0)
(-0.0839372153779 0.0230958111398 0)
(-0.0835851333663 0.0388201642717 0)
(-0.0828422922512 0.0545750340783 0)
(-0.0818528427049 0.0701433911562 0)
(-0.0806302455747 0.0854905790986 0)
(-0.0791859843798 0.100571152661 0)
(-0.0775330822866 0.115343008556 0)
(-0.0756859032496 0.129767078346 0)
(-0.0736597944684 0.1438076446 0)
(-0.0714707305104 0.15743249216 0)
(-0.0691349411547 0.170612992673 0)
(-0.0666685590596 0.183324107648 0)
(-0.0640872624176 0.195544312939 0)
(-0.0614059524002 0.207255445224 0)
(-0.0586384393779 0.218442474848 0)
(-0.0557971825307 0.229093209312 0)
(-0.0528930564246 0.239197936257 0)
(-0.0499351915835 0.248749016615 0)
(-0.0469308592723 0.25774044327 0)
(-0.0438854439851 0.266167382473 0)
(-0.0408024656658 0.274025717336 0)
(-0.0376836865053 0.281311611899 0)
(-0.0345292550491 0.288021111784 0)
(-0.0313379148939 0.294149793245 0)
(-0.0281072278861 0.299692466777 0)
(-0.024833839787 0.304642937328 0)
(-0.0215137457692 0.308993819087 0)
(-0.0181425913014 0.312736404583 0)
(-0.0147159763338 0.315860575188 0)
(-0.0112298145395 0.318354812221 0)
(-0.00768066669761 0.320206219505 0)
(-0.00406616401675 0.321400631754 0)
(-0.000385435170482 0.321922864049 0)
(0.00336045647887 0.321757038059 0)
(0.00716809140892 0.320887028876 0)
(0.011031297327 0.319297038744 0)
(0.0149408357941 0.316972286365 0)
(0.0188841857605 0.31389979358 0)
(0.0228454805375 0.310069233537 0)
(0.0268056053609 0.305473789012 0)
(0.0307424842525 0.300110953345 0)
(0.0346315230353 0.293983195598 0)
(0.0384461707263 0.287098414147 0)
(0.0421584897696 0.279470118298 0)
(0.0457396080489 0.271117322528 0)
(0.0491598768025 0.262064206076 0)
(0.0523885759104 0.252339678981 0)
(0.0553930680103 0.241977126389 0)
(0.0581373822002 0.231014642511 0)
(0.0605805607372 0.219496256414 0)
(0.0626751116535 0.20747432265 0)
(0.0643668845605 0.19501348681 0)
(0.0655971237241 0.182195156619 0)
(0.0663086946217 0.169121357877 0)
(0.066455548237 0.155914282167 0)
(0.0660128973857 0.142708770834 0)
(0.0649783290716 0.129637643029 0)
(0.0633496064618 0.116834328621 0)
(0.0611458894013 0.104435042401 0)
(0.0584029323803 0.0925718626977 0)
(0.0551738269251 0.0813519574299 0)
(0.0514202875337 0.0709788205368 0)
(0.0474652991375 0.0616126888917 0)
(0.0435697440264 0.0531383660432 0)
(0.0396857287926 0.0453910799099 0)
(0.0356348227671 0.0384346955118 0)
(0.0315627523616 0.0324215321989 0)
(0.0276804300564 0.0273430007021 0)
(0.0241180230098 0.0230803597879 0)
(0.0209160541375 0.0194931868672 0)
(0.0180630944438 0.016462576469 0)
(0.0155250003528 0.0139009639432 0)
(0.0132636378159 0.011752005363 0)
(0.0112592752318 0.0099814969444 0)
(0.00952580869886 0.00854808649698 0)
(0.00808114320128 0.00737370212971 0)
(0.006880606042 0.00637519590536 0)
(0.00585306456877 0.00551486220291 0)
(0.00496371764395 0.00478607655704 0)
(0.00420503029974 0.00417595843403 0)
(0.00356497334043 0.00365953822332 0)
(0.00301599151963 0.00321972268257 0)
(0.00254559984411 0.00284500090272 0)
(0.00214862752224 0.00246987260945 0)
(0.00195071345371 0.00222525910223 0)
(0.00174209689609 0.00189323090448 0)
(0.00160875590109 0.00163559514216 0)
(0.00150742675118 0.00136815299794 0)
(0.00144681542959 0.00111221146594 0)
(0.00131210568239 0.000797202401966 0)
(0.00132654235991 0.000586900585752 0)
(0.00146271108292 0.000463014220604 0)
(0.00147704256548 0.0003047987392 0)
(0.00146053417265 0.00016595042584 0)
(0.00143888172034 5.46193362611e-05 0)
(-0.0945757742681 0.00728671831103 0)
(-0.0999546406385 0.023510660932 0)
(-0.0995282438801 0.0395039340484 2.4641564796e-27)
(-0.0986326222316 0.0555298932219 0)
(-0.0974399509004 0.0713594902076 0)
(-0.095966832768 0.0869563739403 0)
(-0.0942275552464 0.102273078557 0)
(-0.0922382778548 0.117265848454 0)
(-0.0900167826016 0.131894332659 0)
(-0.0875820439925 0.146121926043 0)
(-0.084953785865 0.159915928286 0)
(-0.0821520314362 0.173247627574 0)
(-0.0791966616764 0.186092296206 0)
(-0.076106981986 0.198429099383 0)
(-0.0729013126795 0.210240918459 0)
(-0.0695966051265 0.22151409005 0)
(-0.0662081035288 0.232238065383 0)
(-0.0627490576822 0.242404997021 0)
(-0.0592305091424 0.25200926562 0)
(-0.0556611544365 0.261046963848 0)
(-0.0520473019496 0.269515359707 0)
(-0.0483929154723 0.277412363607 0)
(-0.0446997472349 0.284736023692 0)
(-0.0409675389694 0.291484069655 0)
(-0.037194281915 0.297653519052 0)
(-0.0333765088998 0.303240351312 0)
(-0.0295096116964 0.308239247387 0)
(-0.0255881677631 0.312643387527 0)
(-0.0216062848951 0.31644430089 0)
(-0.0175579639872 0.319631747368 0)
(-0.0134375128299 0.322193704924 0)
(-0.00923995278774 0.324116344883 0)
(-0.00496153274931 0.325384107908 0)
(-0.000600269079777 0.325979929781 0)
(0.003843496198 0.325885561783 0)
(0.00836653098368 0.32508203896 0)
(0.0129621815764 0.323550311637 0)
(0.017619925714 0.321272034613 0)
(0.0223250591204 0.318230496774 0)
(0.0270585747795 0.314411651885 0)
(0.0317972795198 0.309805185206 0)
(0.0365141812088 0.304405524732 0)
(0.0411791383564 0.298212680931 0)
(0.0457597186578 0.291232791165 0)
(0.0502221355468 0.283478252508 0)
(0.054532067946 0.274967381948 0)
(0.0586550834464 0.265723624533 0)
(0.0625563950583 0.2557745007 0)
(0.0661996474987 0.245150593843 0)
(0.0695447062541 0.233885237431 0)
(0.0725444714216 0.222015424449 0)
(0.0751415651562 0.209585119162 0)
(0.0772660288882 0.19665112018 0)
(0.0788368600684 0.183291851896 0)
(0.0797703737412 0.169616050467 0)
(0.0799978572596 0.155765711168 0)
(0.0794887114145 0.141903191281 0)
(0.0782571917468 0.12817207771 0)
(0.0762831448148 0.114715844708 0)
(0.0735862189972 0.101693760633 0)
(0.0702217216443 0.089257479909 0)
(0.0662836418177 0.0774417304868 0)
(0.0613895392175 0.0666422239891 0)
(0.0563224936754 0.0572474516535 0)
(0.0516764871748 0.0488684806623 0)
(0.0471636568114 0.0410184366827 0)
(0.0421436437004 0.0339118867848 0)
(0.0369976022459 0.0279871658094 0)
(0.03216137208 0.0232162060254 0)
(0.0278332287637 0.0193596564076 0)
(0.0240263971644 0.0161851464594 0)
(0.0206845082071 0.013530146898 0)
(0.0177309718484 0.0112935685874 0)
(0.0150868795024 0.00943111496039 0)
(0.0127134190733 0.0079469610198 0)
(0.010664151305 0.00682938525151 0)
(0.00902575054324 0.00595954356763 0)
(0.00771525363609 0.00518979089222 0)
(0.00657415751008 0.00449099554615 0)
(0.00556177427668 0.00390345676272 0)
(0.0047017474079 0.0034291870039 0)
(0.00399408980365 0.00302632193158 0)
(0.00338132309413 0.00267592585899 0)
(0.00285580240763 0.00236476833016 0)
(0.00246293923563 0.0020747288908 0)
(0.00223986329134 0.00182831142287 0)
(0.0020376492103 0.00155498276008 0)
(0.00185555743814 0.00127821368231 0)
(0.0017640603388 0.00104666543108 0)
(0.00164488141233 0.000796478460434 0)
(0.00160724229647 0.000606382422673 0)
(0.00149830241714 0.000387367274002 0)
(0.0015205006034 0.000269533317647 0)
(0.00159106858762 0.000195297572853 0)
(0.00155373371646 0.000105015968671 0)
(0.00153021069906 3.43390042811e-05 0)
(-0.110026190013 0.00741994881155 0)
(-0.116278105661 0.0240050545385 0)
(-0.115771739089 0.0403188177892 -2.46377654822e-27)
(-0.114714315354 0.0566677081781 0)
(-0.113306750022 0.0728080919384 0)
(-0.111569072052 0.0887015250011 0)
(-0.109518722182 0.10429809687 0)
(-0.107175393385 0.11955206009 0)
(-0.104560714168 0.134421524568 0)
(-0.101697727383 0.148868826846 0)
(-0.0986103532917 0.162860697617 0)
(-0.0953228490759 0.17636834521 0)
(-0.0918592751428 0.189367442578 0)
(-0.0882429726006 0.201838020123 0)
(-0.0844960621984 0.213764263058 0)
(-0.0806389730437 0.225134213153 0)
(-0.0766900187971 0.235939375684 0)
(-0.0726650371559 0.246174238017 0)
(-0.0685771157507 0.255835712224 0)
(-0.0644364201422 0.264922522898 0)
(-0.0602501397486 0.273434568087 0)
(-0.0560225523335 0.281372286502 0)
(-0.0517552018366 0.288736063954 0)
(-0.0474471671973 0.295525706933 0)
(-0.0430953974695 0.301740000582 0)
(-0.0386950811347 0.307376354909 0)
(-0.034240028697 0.312430530325 0)
(-0.0297230543665 0.316896425138 0)
(-0.0251363628254 0.320765908852 0)
(-0.0204719542661 0.324028670709 0)
(-0.0157220890327 0.326672173314 0)
(-0.0108797573356 0.328681558927 0)
(-0.00593929499527 0.330039673805 0)
(-0.000897046288277 0.330727245993 0)
(0.00424792565915 0.330723182276 0)
(0.0094930986738 0.330005046823 0)
(0.0148317747603 0.32854975251 0)
(0.0202524509459 0.326334468258 0)
(0.025738351816 0.323337731906 0)
(0.0312672082018 0.319540728362 0)
(0.0368113629514 0.31492865582 0)
(0.042338269195 0.309492059723 0)
(0.0478114051266 0.303227969337 0)
(0.0531915572595 0.296140638437 0)
(0.058438323831 0.288241688353 0)
(0.0635115572231 0.279549489111 0)
(0.068372346791 0.270087756259 0)
(0.0729830339394 0.259883480118 0)
(0.0773057714283 0.248964702153 0)
(0.0812992205971 0.237358775733 0)
(0.0849132967953 0.225092488856 0)
(0.0880824020126 0.212195336057 0)
(0.0907188484924 0.198708330743 0)
(0.09271059647 0.1846991391 0)
(0.0939308271067 0.17028205635 0)
(0.0942690670047 0.15563234208 0)
(0.0936897602949 0.140967826672 0)
(0.0922741767826 0.126431802362 0)
(0.0899391516563 0.112163079604 0)
(0.0866898446766 0.0983733491766 0)
(0.0826653366488 0.0852690834895 0)
(0.0782047195715 0.0725200297873 0)
(0.0715613432914 0.0610178869036 0)
(0.0648900239536 0.0518997371761 0)
(0.0597164886525 0.0439806999256 0)
(0.0549751390702 0.0358630968151 0)
(0.0486839926624 0.0282764022151 0)
(0.0420856097045 0.0224486726597 0)
(0.0361063877464 0.0181888187746 0)
(0.0309953644196 0.014955944947 0)
(0.026638666437 0.0123548362226 0)
(0.0228797565945 0.0101766649372 0)
(0.0195826000959 0.0083115198244 0)
(0.0165936886126 0.00674103368544 0)
(0.0138210164434 0.00556341189274 0)
(0.0114088249795 0.00486269718123 0)
(0.00964762373902 0.00442542940767 0)
(0.00836654074485 0.00392385130531 0)
(0.00715965273271 0.00336153324088 0)
(0.00601325778682 0.00291374963229 0)
(0.00505315497477 0.00260828417104 0)
(0.00432291182722 0.00233902717491 0)
(0.00366402886374 0.00207863303633 0)
(0.00310084687721 0.00183408619414 0)
(0.00273897365864 0.00161825548915 0)
(0.00248759345905 0.00138561917719 0)
(0.00231129487462 0.00117073151925 0)
(0.00213093835218 0.000934151913546 0)
(0.00198039792266 0.000716711975527 0)
(0.00182796708553 0.000509606134532 0)
(0.00173265611177 0.000350235364662 0)
(0.00169087700755 0.00023065288808 0)
(0.00159269323846 0.000124460418164 0)
(0.00166266695574 8.19489118239e-05 0)
(0.00160674411133 4.83859911074e-05 0)
(0.00157652614425 1.4210180442e-05 0)
(-0.125821463356 0.00757558986836 0)
(-0.132962934074 0.0245843054809 0)
(-0.132369736748 0.0412731863034 0)
(-0.131139482557 0.0579998953644 0)
(-0.129502744969 0.0745033626019 0)
(-0.127483365909 0.0907425985746 0)
(-0.125102379517 0.106664760291 0)
(-0.12238350133 0.122221729786 0)
(-0.119352726149 0.13736979768 0)
(-0.11603769937 0.15207006122 0)
(-0.11246707549 0.166288598374 0)
(-0.108669878109 0.179996548957 0)
(-0.104674867626 0.193170093022 0)
(-0.100509920608 0.205790327594 0)
(-0.0962014266599 0.217843039105 0)
(-0.0917737140758 0.229318365469 0)
(-0.0872485227802 0.240210344749 0)
(-0.0826445501699 0.250516352125 0)
(-0.077977099527 0.260236438009 0)
(-0.0732578598429 0.269372591738 0)
(-0.0684948383312 0.277927968214 0)
(-0.0636924532144 0.285906122882 0)
(-0.0588517759433 0.293310302555 0)
(-0.0539708934883 0.30014283183 0)
(-0.0490453472324 0.306404618827 0)
(-0.0440686013704 0.312094781671 0)
(-0.03903250243 0.317210375755 0)
(-0.0339277123214 0.321746187351 0)
(-0.0287441228293 0.325694560136 0)
(-0.023471281361 0.329045207582 0)
(-0.0180988878938 0.331785118787 0)
(-0.0126173148374 0.333898365701 0)