/*--------------------------------*- C++ -*----------------------------------*\
| =========                 |                                                 |
| \\      /  F ield         | OpenFOAM: The Open Source CFD Toolbox           |
|  \\    /   O peration     | Version:  v1906                                 |
|   \\  /    A nd           | Web:      www.OpenFOAM.com                      |
|    \\/     M anipulation  |                                                 |
\*---------------------------------------------------------------------------*/
FoamFile
{
    version     2.0;
    format      ascii;
    class       volScalarField;
    location    "396";
    object      pa;
}
// * * * * * * * * * * * * * * * * * * * * * * * * * * * * * * * * * * * * * //

dimensions      [0 2 -2 0 0 0 0];


internalField   nonuniform List<scalar> 
9216
(
979.896983206
979.534776453
978.798819382
977.685983136
976.199920232
974.344944891
972.126420114
969.550774668
966.625318799
963.358316632
959.758772059
955.836524305
951.602004647
947.066357045
942.241171682
937.138634468
931.771243845
926.151992364
920.294072704
914.211092714
907.916775193
901.425205817
894.750529762
887.907229407
880.909819099
873.773147536
866.512090812
859.141872407
851.677753645
844.135362995
836.530383458
828.878881214
821.196986746
813.501214809
805.808138825
798.134689906
790.497823058
782.914785924
775.402776961
767.979175128
760.661191699
753.466054343
746.410655903
739.511688163
732.785291039
726.247132767
719.912061446
713.794129618
707.906248316
702.260158839
696.866092671
691.732706901
686.866767283
682.273088678
677.954281433
673.910762298
670.14061691
666.639740971
663.401847395
660.418748801
657.680487396
655.17571613
652.891903562
650.815757426
648.933450496
647.231014541
645.694518434
644.310371056
643.065415838
641.9471311
640.943650022
640.043882164
639.23748374
638.514927171
637.867438512
637.287032108
636.766425246
636.299051198
635.878960801
635.500822849
635.159816528
634.851610059
634.572217599
634.317318143
634.087676575
633.889510696
633.724009019
633.589520209
633.485182568
633.407554831
633.352404447
633.314461803
633.288957437
633.273410113
633.265548214
633.262789638
980.258655809
979.895294878
979.158072306
978.042167619
976.551794715
974.691400564
972.466450618
969.883423191
966.949716022
963.673637693
960.064286931
956.131545918
951.885945408
947.338666413
942.501397824
937.386351793
932.006119798
926.373706043
920.502386884
914.405765046
908.097635802
901.592062794
894.903252444
888.045649942
881.033821448
873.882566786
866.606807453
859.221710979
851.742581724
844.184990881
836.564666176
828.897620093
821.200035395
813.488384517
805.7793048
798.089701619
790.436609963
782.837273635
775.308990033
767.869159663
760.535112889
753.324126142
746.25323137
739.339197178
732.598322426
726.046381151
719.698400561
713.568568062
707.669992274
702.01457231
696.612743993
691.473322736
686.603253448
682.007464139
677.688667242
673.647290924
669.881398763
666.386764512
663.156948739
660.183526634
657.456294919
654.963600592
652.692622866
650.62975149
648.760889918
647.071806169
645.548374291
644.176828073
642.943901701
641.836978842
640.844148986
639.954282597
639.157035087
638.442876366
637.803060723
637.229624364
636.715331214
636.253650795
635.838691733
635.465171972
635.128352696
634.824018804
634.54845588
634.298492357
634.071944812
633.874639102
633.711435949
633.58013348
633.477077944
633.400063702
633.34639118
633.309579221
633.284462364
633.269735762
633.26266352
633.259787071
980.995879482
980.629351631
979.887886779
978.765615419
977.266792252
975.395918764
973.158561976
970.561299856
967.611656165
964.318054148
960.689732238
956.736692662
952.469609365
947.899778298
943.039024441
937.899659821
932.494395545
926.836312643
920.938783874
914.81546092
908.480208964
901.947111736
895.23041975
888.344572317
881.304158098
874.123951202
866.818881042
859.404078065
851.894848795
844.306725896
836.655443957
828.956987164
821.227560433
813.483629501
805.741880759
798.01924622
790.332846893
782.699996035
775.138121368
767.66474174
760.297365694
753.053439285
745.950221068
739.004701007
732.233453138
725.652525722
719.277271195
713.122205053
707.2008091
701.52535458
696.106675744
690.953961136
686.074511999
681.473535971
677.153944793
673.116229916
669.358389892
665.875975201
662.662202159
659.708178394
657.003162223
654.534888817
652.289905264
650.253959171
648.412365837
646.750367237
645.253413841
643.907402168
642.698827304
641.614901255
640.643611095
639.773765477
638.995004562
638.297808448
637.6734758
637.114102092
636.612532932
636.16232421
635.757684162
635.393428355
635.06492515
634.768065609
634.499251645
634.255425609
634.033732016
633.841464585
633.68623952
633.561280217
633.460692694
633.385900436
633.335081355
633.299519342
633.276002257
633.26246121
633.255263923
633.251671963
982.116125866
981.745924777
980.997928537
979.865859318
978.354058329
976.467128201
974.210776361
971.591739464
968.617722702
965.29733741
961.640024717
957.655986307
953.356102539
948.751862956
943.855285868
938.678855204
933.235447825
927.538282366
921.600859311
915.436925914
909.060432193
902.485513741
895.726464303
888.797735701
881.713925183
874.489789391
867.140242795
859.680381196
852.125486565
844.491054819
836.792802462
829.04669183
821.268933206
813.47600327
805.68463532
797.911822727
790.174791171
782.490980216
774.87799177
767.353544853
759.935397218
752.641271718
745.488751526
738.495179619
731.677530006
725.052281989
718.635267199
712.441515006
706.485067638
700.778785207
695.334116229
690.160853833
685.266865818
680.657830037
676.336985824
672.304949625
668.559617934
665.09619727
661.907347126
658.983442379
656.312886622
653.882460167
651.677699982
649.683341637
647.883763975
646.263395271
644.80703191
643.50007141
642.328656241
641.279759943
640.341225108
639.501782787
638.751054216
638.079546085
637.478627554
636.940494502
636.458118756
636.025194982
635.636080182
635.285735996
634.969669634
634.683883342
634.424839567
634.189236896
633.975401845
633.793615574
633.647929285
633.529596608
633.43619915
633.366403783
633.316895279
633.283362828
633.26171481
633.248682681
633.241357232
633.237746203
983.6223946
983.247474204
982.490644416
981.345296476
979.815909187
977.907235829
975.625174613
972.976681907
969.969708154
966.613125795
962.916650338
958.890761007
954.546617041
949.89597778
944.951121568
939.724772368
934.230028083
928.48029999
922.489256109
916.270778136
909.838923384
903.207901339
896.392054825
889.405855225
882.263900529
874.980925667
867.57181305
860.051613029
852.435561748
844.739106297
836.977925345
829.167951843
821.325389631
813.466730094
805.608756554
797.768545611
789.963452317
782.211088306
774.529280754
766.936021633
759.449396903
752.087505718
744.868361317
737.809783808
730.929277648
724.243902344
717.770128006
711.523679749
705.519359255
699.770841686
694.290435431
689.088802593
684.174640033
679.554336185
675.231637642
671.207376654
667.479320263
664.042187539
660.887830319
658.005580851
655.3826422
653.004454143
650.855109783
648.917893997
647.175851045
645.612277336
644.211082708
642.957017198
641.835782333
640.834070601
639.939560439
639.140902017
638.427704013
637.790521909
637.22083107
636.710976864
636.254110995
635.844126092
635.475585945
635.143655891
634.844031586
634.572865264
634.326690627
634.101713063
633.899877284
633.731958838
633.597429196
633.488352933
633.40112251
633.336399234
633.291125885
633.260110115
633.239581612
633.227075448
633.219842852
633.2162392
985.519331183
985.138492707
984.370458602
983.2082409
981.656507498
979.720215058
977.405510756
974.719637061
971.670861229
968.268394546
964.522306394
960.443435876
956.04330135
951.334011666
946.328179093
941.038837947
935.47936845
929.663429874
923.604901788
917.317837195
910.816425344
904.114967375
897.227861348
890.169599131
882.954770639
875.598077515
868.114351225
860.518577749
852.825923782
845.051766765
837.211724878
829.321684979
821.397829399
813.456658911
805.515007128
797.590047807
789.699288692
781.860553555
774.091946738
766.411802888
758.838617807
751.390964949
744.087395542
736.946328537
729.985929142
723.223981566
716.677751655
710.363839784
704.298011813
698.494999326
692.968249103
687.729609557
682.78894169
678.153670565
673.828310201
669.814053997
666.108519508
662.705761801
659.596496443
656.768633937
654.207804424
651.897677654
649.820373709
647.957176328
646.28931216
644.798586166
643.467792954
642.280915678
641.223171326
640.280969564
639.441837865
638.694358755
638.028142719
637.433821786
636.903025694
636.428311042
636.00307583
635.621479282
635.278362679
634.969166537
634.689851689
634.436821279
634.206852699
633.996382813
633.810287902
633.657764295
633.533535129
633.43265608
633.354284482
633.298047424
633.256511069
633.2277676
633.209007011
633.196150757
633.188794627
633.185077845
987.812754811
987.424702539
986.642983117
985.460147833
983.881105353
981.91107106
979.556505878
976.825011579
973.725251964
970.266862294
966.460353808
962.317015092
957.848812103
953.068289424
947.988474495
942.622787328
936.984957396
931.088950004
924.948903456
918.579078688
911.99382183
905.207540213
898.234691065
891.089782147
883.787382543
876.342142139
868.768817709
861.082304245
853.297669828
845.430192926
837.495402267
829.509112635
821.487462923
813.446948549
805.404447316
797.377235929
789.382993887
781.439791981
773.566062841
765.780552017
758.102249202
750.550300799
743.143906574
735.902204646
728.844149452
721.98838708
715.353128962
708.956021089
702.813997487
696.943098211
691.358225074
686.072796388
681.098283052
676.443600674
672.11442956
668.112556129
664.435444182
661.076253877
658.024073833
655.264904276
652.782448365
650.558154553
648.571483883
646.800973303
645.225413136
643.824706057
642.580324332
641.475427563
640.494778394
639.624571526
638.852241909
638.166335991
637.556477545
637.013402649
636.528960836
636.096002654
635.708253733
635.360219943
635.047101586
634.764693652
634.509297232
634.277634603
634.066680024
633.87381753
633.70591301
633.568783264
633.45659973
633.36702512
633.298917493
633.248488039
633.210727605
633.184274869
633.1672806
633.154850979
633.147628514
633.144036736
990.509759231
990.113110108
989.315085981
988.107685384
986.496112496
984.485902188
982.083901361
979.298152913
976.137806424
972.613015923
968.734832493
964.515093493
959.966310617
955.101559387
949.934372146
944.478637278
938.748506696
932.758314341
926.522507351
920.055592083
913.372095501
906.486542766
899.413449779
892.167329897
884.762712084
877.214168877
869.536351134
861.744028427
853.852132855
845.875805882
837.83044847
829.731767441
821.595825918
813.439088821
805.278461946
797.131321824
789.015531394
780.949438486
772.951852722
765.041999435
757.239448888
749.56402336
742.035685117
734.674413129
727.500075455
720.532307378
713.790398635
707.29319167
701.058974814
695.105349429
689.449017262
684.105440006
679.088284093
674.408627105
670.073931635
666.086972718
662.445071992
659.140192
656.158954929
653.484738934
651.099169777
648.981097904
647.106336011
645.449576854
643.986335827
642.694152379
641.553038409
640.54539126
639.655678894
638.870054318
638.175988091
637.562030529
637.017799422
636.534144281
636.103228646
635.718318611
635.373566609
635.063913351
634.78501585
634.53311286
634.304933842
634.097615033
633.908447827
633.73592991
633.588421983
633.467428947
633.368996296
633.291158881
633.231909347
633.186508705
633.153871604
633.1297463
633.113510106
633.103155077
633.096091287
633.092801746
993.618791247
993.212064673
992.394949285
991.158789199
989.509146091
987.45194253
984.994493165
982.145374466
978.914322535
975.312116797
971.350458251
967.041844195
962.399441989
957.436964363
952.168548876
946.608644117
940.771905635
934.673104298
928.32705004
921.748532975
914.952283674
907.952952605
900.765108293
893.403251708
885.881844472
878.21534709
870.41826472
862.505197601
854.49089538
846.390313945
838.218677505
829.991536551
821.724833625
813.434964286
805.138833569
796.853902489
788.598219964
780.390433982
772.249777812
764.196026652
756.249423994
748.43057837
740.760336989
733.259645264
725.94940673
718.850358032
711.982972945
705.36740018
699.023427243
692.970434745
687.227285775
681.812035465
676.741344411
672.029440365
667.68656786
663.717205887
660.118495916
656.880981741
653.98703916
651.416242072
649.148778199
647.160859114
645.423002074
643.90426425
642.575714282
641.412049705
640.391861493
639.497071231
638.712208181
638.023735487
637.419384796
636.887736042
636.418283895
636.001923785
635.631305452
635.300308482
635.003627782
634.736721549
634.495824306
634.277714643
634.079638075
633.89923578
633.734136941
633.584727821
633.458592838
633.354397117
633.270214951
633.204077686
633.153112793
633.114321937
633.085373211
633.064616169
633.049777326
633.041310435
633.03445408
633.031588833
997.149740888
996.731342289
995.892146841
994.62273452
992.929094974
990.817616901
988.296176264
985.37398865
982.06149133
978.370210022
974.312620101
969.902004304
965.152309584
960.078005803
954.693948772
949.015250836
943.057162117
936.834966371
930.363894747
923.659060981
916.735419761
909.607749342
902.290656781
894.798603363
887.145945435
879.346986454
871.416035418
863.367469374
855.215798252
846.975732766
838.662258284
830.290706562
821.876838549
813.436925093
804.987824561
796.5470519
788.132831357
779.764125985
771.460635916
763.242760022
755.131516828
747.148426204
739.315357917
731.654361685
724.187498821
716.936703279
709.923696094
703.169976796
696.696885649
690.525719026
684.677806334
679.174414246
674.036244162
669.282149439
664.92689722
660.977896376
657.431978578
654.278639058
651.491850698
649.044794757
646.919586661
645.090763681
643.520171073
642.168075881
640.999444695
639.985787485
639.104740627
638.338409565
637.672058146
637.093072283
636.589839867
636.150939681
635.765340206
635.423722088
635.119585413
634.847816799
634.603755264
634.38339642
634.18373905
634.002194576
633.836609662
633.685254894
633.546301063
633.421576866
633.316301316
633.229219947
633.160019169
633.106264872
633.064558737
633.032340403
633.006833577
632.988366975
632.976422895
632.969143069
632.963206012
632.960611012
1001.11404755
1000.68224523
999.817739116
998.510222854
996.766196499
994.592605968
991.997996832
988.992345344
985.586921252
981.794134441
977.627376096
973.100856696
968.229443411
963.02849936
957.513727378
951.701021416
945.606329752
939.24553449
932.634352608
925.788262784
918.722461684
911.451850439
903.991050294
896.354442639
888.556227602
880.61049343
872.531291008
864.332709026
856.028949794
847.63440691
839.163750914
830.63201522
822.054699168
813.447871901
804.828277687
796.21343374
787.621711836
779.072392573
770.585682305
762.18268214
753.885303109
745.716124947
737.698206603
729.85486507
722.209454843
714.785187845
707.605044021
700.691812854
694.068293661
687.757643412
681.783797209
676.171812731
670.947703212
666.137251074
661.762665228
657.836916837
654.355121367
651.309932386
648.6556173
646.352209171
644.395986668
642.762988941
641.398252105
640.247387324
639.267161493
638.426113806
637.70234042
637.079427559
636.544397411
636.086612182
635.695844142
635.360485627
635.067929622
634.807783898
634.575372921
634.367464296
634.179991106
634.009264481
633.853440789
633.710625468
633.579298484
633.458520476
633.347211512
633.247670082
633.163389294
633.094776796
633.04083273
632.998385635
632.964864724
632.93885439
632.918626058
632.903251363
632.89296748
632.887010223
632.882712309
632.880354924
1005.52482628
1005.07772469
1004.18438735
1002.83348612
1001.03212801
998.787923263
996.110213528
993.009876638
989.499166105
985.591533726
981.301447622
976.644207817
971.635761658
966.292521033
960.631183437
954.668560398
948.421417752
941.906334237
935.13958505
928.137057577
920.914204058
913.486033948
905.867143585
898.071777519
890.113911152
882.007344066
873.765793702
865.402984607
856.932732829
848.369031429
839.726144721
831.018709088
822.261858296
813.47135614
804.663736369
795.856439133
787.067931102
778.317795705
769.626777345
761.016764956
752.510701483
744.132413252
735.906363204
727.857349483
720.010190109
712.389458228
705.019345073
697.92373457
691.126551701
684.652420906
678.527636837
672.781271622
667.446091118
662.55803781
658.152377226
654.253162736
650.847270291
647.949976818
645.463474616
643.313710026
641.553291265
640.166725888
639.059971682
638.153194356
637.393183174
636.747272806
636.197688432
635.731551758
635.338928368
635.012885331
634.74613983
634.526519361
634.337135065
634.163926895
634.006772938
633.866579029
633.739197433
633.620183407
633.510042543
633.407463079
633.311388364
633.221975368
633.138863556
633.064693578
633.002267672
632.952366353
632.912342503
632.880244524
632.854776697
632.835440692
632.820509127
632.809689063
632.801518014
632.796466244
632.794247852
632.792511138
1010.39701923
1009.93252521
1009.00649006
1007.60641033
1005.74011488
1003.41600541
1000.64436852
997.43714824
993.807756675
989.770868423
985.342212047
980.538360949
975.37652482
969.874342366
964.049676451
957.920414573
951.504280409
944.818664349
937.880483397
930.706080378
923.311171429
915.710845586
907.919615081
899.951506781
891.82018015
883.539053139
875.12142084
866.580558045
857.929808364
849.182670498
840.352896474
831.454604906
822.502431447
813.511696255
804.498588721
795.480354155
786.475467109
777.50377214
768.586570867
759.746631438
751.008098709
742.396287983
733.937360442
725.657898323
717.584434551
709.743024425
702.15898547
694.856941141
687.861283631
681.197183054
674.892231959
668.978891225
663.497461462
658.498503386
654.041068899
650.174103447
646.845118403
644.175852396
641.918132719
639.891553348
638.354476292
637.298757979
636.52598126
635.915990291
635.40886748
634.975819712
634.613287482
634.314305996
634.071428553
633.884115875
633.752125739
633.662460486
633.588124971
633.503933656
633.421640052
633.352635992
633.289293827
633.222437781
633.159029188
633.097631662
633.036809566
632.978834078
632.923791832
632.87477796
632.834021396
632.800820635
632.774105254
632.752969869
632.736791553
632.724574497
632.715022381
632.708240933
632.703487906
632.699738962
632.699654193
632.698573301
1015.74757579
1015.26335862
1014.30034521
1012.84468178
1010.90505712
1008.49081665
1005.61336899
1002.28591753
998.523235945
994.341428812
989.757693544
984.790084935
979.457281798
973.778353863
967.772527686
961.458953808
954.856481216
947.983450414
940.857519289
933.495538179
925.913487719
918.126488247
910.148879012
901.994354857
893.676136012
885.207141993
876.600142366
867.86787149
859.023111973
850.078769613
841.047964319
831.944152249
822.781303098
813.574111431
804.338238354
795.09056479
785.849436231
776.634875986
767.468737252
758.374760473
749.378498531
740.507077119
731.78876962
723.252397285
714.926612311
706.839188192
699.016502831
691.483429856
684.263811472
677.381680531
670.863585347
664.742600053
659.064997655
653.900031586
649.352850215
645.543481086
642.237628881
639.990958756
638.066377702
635.797068777
634.36800958
633.818600759
633.540906822
633.326351707
633.133934496
632.962069654
632.812067076
632.687156552
632.600412827
632.572562201
632.6162673
632.717354469
632.819947671
632.840363222
632.827057188
632.834080243
632.84107533
632.822292541
632.805849294
632.786771005
632.759564501
632.732483225
632.704138309
632.679433626
632.658273666
632.641421415
632.62805445
632.618822561
632.612348576
632.607417196
632.603741264
632.601388004
632.599770752
632.598597168
632.599929144
632.599658752
1021.59566922
1021.08911061
1020.08434261
1018.56595933
1016.54367682
1014.02796915
1011.03157904
1007.56919807
1003.65719735
999.313348349
994.55655226
989.406578547
983.883808281
978.008975716
971.802902892
965.28622678
958.479126191
951.401062817
944.070558145
936.505030548
928.720716394
920.732690334
912.554986669
904.200803553
895.682753222
887.013108154
878.203997083
869.267526424
860.21583933
851.061154558
841.815831257
832.492491552
823.104228376
813.664872127
804.189306324
794.693807004
785.196383161
775.717090944
766.278284825
756.904758055
747.623714981
738.464513997
729.458129968
720.63631654
712.030521288
703.670714377
695.584405833
687.796214632
680.328136358
673.200642554
666.435086209
660.058666626
654.115834136
648.68898203
643.966081362
640.254242814
636.185897406
635.015228446
634.159255706
633.535765908
633.340966735
633.319879519
633.296740262
633.233252348
633.138329408
633.026030039
632.911667621
632.808781115
632.730092798
632.685921888
632.66447363
632.608808784
632.425482825
632.177558061
632.1428962
632.263944833
632.39597526
632.422836601
632.455597743
632.48278627
632.483077001
632.486656691
632.481789566
632.479624592
632.476853545
632.476515539
632.477263962
632.47996433
632.482590266
632.484779772
632.487526725
632.490155384
632.492512362
632.494218563
632.496026075
632.497042881
1027.96295469
1027.43108682
1026.37919238
1024.79007654
1022.67468926
1020.04485951
1016.91492197
1013.30132917
1009.22232502
1004.69761716
999.748072248
994.395431872
988.662038533
982.570556545
976.143674924
969.403787742
962.372658588
955.071089248
947.518623351
939.733323777
931.731662052
923.528549478
915.13751789
906.571027806
897.84084542
888.958404696
879.935069892
870.782253447
861.511412597
852.134007941
842.661507908
833.105499716
823.477934112
813.791466119
804.059866644
794.298471784
784.524646827
774.758238576
765.021972935
755.341735026
745.746646521
736.268839395
726.942816595
717.804319737
708.888712923
700.229083052
691.854470317
683.788934179
676.051403632
668.656090984
661.613467286
654.933083737
648.628669976
642.695874849
637.123228675
634.573440382
634.198312093
634.224748609
634.164494814
634.020742666
633.910381711
633.845227481
633.7789494
633.693448813
633.583686375
633.454147539
633.3140404
633.172323444
633.040255881
632.925781425
632.821327426
632.701298441
632.555758467
632.437682336
632.404358957
632.38979026
632.228090208
631.990508001
632.071431348
632.19200579
632.20692031
632.246874936
632.258338131
632.278035895
632.292575022
632.30843776
632.323263466
632.336802936
632.348097809
632.358567148
632.368343468
632.376289688
632.382795611
632.387401064
632.390328408
632.392560724
1034.8738815
1034.3133092
1033.20819603
1031.5392797
1029.31899982
1026.56082225
1023.28099047
1019.49804783
1015.23243334
1010.50609467
1005.34214924
999.764587269
993.797994168
987.467262293
980.797266371
973.8124895
966.536606049
958.992047146
951.199594498
943.178060753
934.944120532
926.512345269
917.895467225
909.104847338
900.151058865
891.04444247
881.795476257
872.414867842
862.913416104
853.301806694
843.590499228
833.789810002
823.910210637
813.96277497
803.959716732
793.91497334
783.844822368
773.76851547
763.708885998
753.692852175
743.751699351
733.920985777
724.239871422
714.749664476
705.491468924
696.503148839
687.816207912
679.454310691
671.432881849
663.758704551
656.429207594
649.426408941
642.667178591
635.620442732
634.964098559
634.795507623
634.784129479
634.839453393
634.826990458
634.756528172
634.656328146
634.552512601
634.449586525
634.339379859
634.212575184
634.069487845
633.913976245
633.751280676
633.590780398
633.437624717
633.284135565
633.110835025
632.913154506
632.726320282
632.584393737
632.463071133
632.339511191
632.273487713
632.237336704
632.047667635
631.884852533
632.013736571
632.031021239
632.079704409
632.107105527
632.140966889
632.167246498
632.191253886
632.213006531
632.232106874
632.248574346
632.261974658
632.27232992
632.28028059
632.284980889
632.288241393
1042.35606796
1041.76286829
1040.59757001
1038.83850652
1036.49993055
1033.59729877
1030.14916138
1026.17655742
1021.70250137
1016.75151938
1011.34928013
1005.52230542
999.297716677
992.70296179
985.765474345
978.512239351
970.969268118
963.161016979
955.109813647
946.835380283
938.35455545
929.681312101
920.827131477
911.801717483
902.613922863
893.272640901
883.7873634
874.168203847
864.425480267
854.56919538
844.608711182
834.552788115
824.409980909
814.189252449
803.900678956
793.556186117
783.170338486
772.761199637
762.351229343
751.968126116
741.645470321
731.422953795
721.345863929
711.463385293
701.825279173
692.477061885
683.454239042
674.780676758
666.468943912
658.521149342
650.925380322
643.612508874
636.061422229
635.124133222
635.403305287
635.545263964
635.605545238
635.627575044
635.610010708
635.551513769
635.461342629
635.355279308
635.240589821
635.114063176
634.970452887
634.811160232
634.637619159
634.452507119
634.262659767
634.071353825
633.873738065
633.658936689
633.425961302
633.196011856
632.988931387
632.793527031
632.600254687
632.436180585
632.300992687
632.197214317
632.142509042
632.003412501
631.764643663
631.881598056
631.918883375
631.978829009
632.01154186
632.047468025
632.0802725
632.107118488
632.129626077
632.148453749
632.163282228
632.174494386
632.181478783
632.185792414
1050.44075902
1049.8103555
1048.57683204
1046.71571616
1044.24347902
1041.17802014
1037.54070623
1033.3555825
1028.64869288
1023.4475123
1017.7805575
1011.67714568
1005.16721704
998.281121284
991.049285569
983.501715926
975.667330654
967.573168576
959.243561878
950.699402646
941.957665464
933.031354802
923.930011
914.660799293
905.23001272
895.644572703
885.912945776
876.045012244
866.051077672
855.940753175
845.72226249
835.40243997
824.987330092
814.483090716
803.896922274
793.237947426
782.518164013
771.75356741
760.965429298
750.181627154
739.437869262
728.77857619
718.256930344
707.933284284
697.870722356
688.127454199
678.74489034
669.747168016
661.145157045
652.936279161
645.06390967
637.031675832
636.010059246
636.187821172
636.420389918
636.469266268
636.50078111
636.511855348
636.495380612
636.443776753
636.360797407
636.254781739
636.130250348
635.986598752
635.823072253
635.642065384
635.444159419
635.231447784
635.008737747
634.778314787
634.538102025
634.283939459
634.017775545
633.751896558
633.497034631
633.249931176
633.007000508
632.77877381
632.568260912
632.377884608
632.218854957
632.089332171
632.018281983
631.903574532
631.703564553
631.826018888
631.851686236
631.905432349
631.949698931
631.98331123
632.012061257
632.036668891
632.056821385
632.071468276
632.081293004
632.08653846
1059.16338126
1058.49038204
1057.17926658
1055.2022788
1052.57861625
1049.3291982
1045.47888359
1041.05539041
1036.08834601
1030.60856691
1024.6476742
1018.23797723
1011.41246501
1004.20473175
996.64869812
988.778051037
980.62539122
972.221143483
963.592347724
954.761513056
945.745779338
936.55667438
927.200741702
917.681180932
908.000326547
898.162286547
888.174602197
878.047789995
867.79316464
857.420585062
846.937150892
836.347223059
825.653478422
814.858354924
803.965280329
792.979605253
781.909640537
770.76805305
759.573627931
748.353245551
737.143956865
725.995011375
714.969277994
704.142776289
693.599435874
683.419947414
673.653074671
664.3218247
655.43134848
646.930757461
638.321951631
637.288216149
637.488265302
637.609901354
637.607297183
637.571496182
637.55707404
637.538459944
637.502752716
637.44006764
637.348867095
637.231086211
637.088163354
636.920508547
636.731035191
636.521574155
636.292628691
636.047720181
635.790373894
635.522550793
635.243900471
634.953605545
634.65432853
634.353196296
634.056305889
633.764452236
633.478575321
633.204123514
632.943308768
632.696144262
632.467678422
632.262141936
632.096042249
631.970232633
631.903707999
631.796209962
631.656705481
631.763656346
631.824428864
631.861524283
631.896188241
631.927357458
631.953345344
631.972409861
631.985204351
631.991509921
1068.56422157
1067.84223598
1066.44248297
1064.33344526
1061.53763251
1058.07971867
1053.98898637
1049.29774463
1044.03990249
1038.25001262
1031.96294644
1025.21404776
1018.03945732
1010.47630951
1002.56258334
994.336490173
985.835381442
977.094242598
968.143921814
959.009330586
949.707968239
940.249236244
930.635078642
920.862376512
910.927066463
900.828963734
890.575077036
880.178472678
869.653542777
859.011619661
848.258703666
837.395739337
826.42069059
815.33106417
804.125521792
792.804560468
781.371403442
769.833650439
758.205646801
746.511239474
734.78691057
723.085574789
711.480744364
700.069631558
688.969100628
678.304224665
668.13033283
658.458257852
649.235540529
639.950656792
638.884707417
639.165233267
639.256801135
639.099763855
638.941321269
638.828793543
638.754636212
638.689948984
638.618127946
638.526736082
638.409777831
638.264721424
638.090739791
637.888745455
637.663669808
637.41789705
637.152395987
636.871375983
636.578013625
636.274242857
635.960537973
635.637258733
635.306588707
634.972695573
634.639359501
634.308637861
633.982960254
633.666176635
633.360970126
633.069291126
632.794341519
632.538382445
632.308300383
632.111604708
631.961599148
631.859587864
631.77336045
631.661829372
631.714389424
631.741179981
631.781986344
631.821158123
631.853868956
631.878460485
631.894339214
631.902073038
1078.6892387
1077.91071283
1076.4090803
1074.14891737
1071.15655777
1067.46132664
1063.09829828
1058.10572566
1052.52272289
1046.3879288
1039.73936831
1032.61515427
1025.05442786
1017.09803974
1008.78864638
1000.17006576
991.2858785
982.177357263
972.880890575
963.425181031
953.828676125
944.097940209
934.227942529
924.205322883
914.015190596
903.650205567
893.117843948
882.437835155
871.631698051
860.714410494
849.690721637
838.556319337
827.302153691
815.919198756
804.400497293
792.740701485
780.936293863
768.987483327
756.901422986
744.695762713
732.402702173
720.07499658
707.794709817
695.685066851
683.913479852
672.706788249
662.108971396
652.045606841
641.976101567
640.803683771
641.144924069
641.248295621
640.977258377
640.638286213
640.376303354
640.190088222
640.053785499
639.936709026
639.818573441
639.684798437
639.526655879
639.339234205
639.120662761
638.872586149
638.601559639
638.311050294
638.002660269
637.681301465
637.350189751
637.011194002
636.664874687
636.311531202
635.95232491
635.589436814
635.225176244
634.861576422
634.501118787
634.146910247
633.801871644
633.469008249
633.151835217