/*--------------------------------*- C++ -*----------------------------------*\
| =========                 |                                                 |
| \\      /  F ield         | OpenFOAM: The Open Source CFD Toolbox           |
|  \\    /   O peration     | Version:  v1906                                 |
|   \\  /    A nd           | Web:      www.OpenFOAM.com                      |
|    \\/     M anipulation  |                                                 |
\*---------------------------------------------------------------------------*/
FoamFile
{
    version     2.0;
    format      ascii;
    class       surfaceScalarField;
    location    "497";
    object      phia;
}
// * * * * * * * * * * * * * * * * * * * * * * * * * * * * * * * * * * * * * //

dimensions      [0 3 -1 0 0 0 0];
oriented        oriented;


internalField   nonuniform List<scalar> 
18240
(
0.00134617841073
-0.00134633062834
0.00281991338818
-0.00147393040128
0.00429267266291
-0.0014729089979
0.00574671879525
-0.00145424870497
0.00717417140117
-0.00142758902772
0.00856818525148
-0.0013942209664
0.00992286181599
-0.00135479867499
0.0112326114539
-0.00130995898237
0.0124927292487
-0.00126022461795
0.0136987689316
-0.00120624884868
0.0148472448069
-0.00114856641621
0.0159348900652
-0.00108785196421
0.0169594405137
-0.00102462425965
0.0179187789635
-0.000959540556566
0.0188117901822
-0.000893067914469
0.0196374075513
-0.000825812937988
0.0203955336616
-0.000758165848899
0.0210860081329
-0.000690661748419
0.0217095873395
-0.000623602151024
0.0222668523045
-0.000557442452264
0.0227592403264
-0.000492394856334
0.0231879104404
-0.000428836548567
0.0235548171389
-0.000366898063991
0.0238615488575
-0.000306886130208
0.0241104329802
-0.000248861128977
0.0243033605004
-0.000193069191329
0.0244429097423
-0.000139512895666
0.0245311686684
-8.8387431185e-05
0.0245708655919
-3.96486186784e-05
0.0245641997527
6.55068953385e-06
0.0245139693398
5.02894506436e-05
0.0244224120934
9.14553893767e-05
0.024292311914
0.000130168428881
0.024125879327
0.000166343787999
0.0239258409152
0.000200114580443
0.0236943425556
0.000231422188417
0.0234340052618
0.000260419878925
0.0231468693854
0.000287071773866
0.0228354135645
0.000311543578876
0.022501543418
0.000333817424277
0.0221475683543
0.000354066619107
0.0217752385905
0.00037228767006
0.021386675592
0.000388657254588
0.0209834604497
0.000403182862996
0.0205675153541
0.000416040881801
0.0201402453649
0.00042724670217
0.019703368787
0.000436972998415
0.0192581136033
0.000445240056247
0.0188059958661
0.000452213857406
0.0183480712184
0.000457916877474
0.0178856606337
0.000462505720968
0.017419656846
0.00046600259367
0.0169511976628
0.00046855263071
0.0164810264645
0.000470175848744
0.0160101133629
0.00047100437032
0.0155390685181
0.000471054643507
0.0150687120665
0.000470445037112
0.0145995385701
0.000469187799409
0.0141322366414
0.000467387501054
0.0136672026375
0.000465052203757
0.0132050114478
0.000462273407358
0.0127459773239
0.000459055659195
0.0122905773385
0.000455478645121
0.011839057193
0.000451544486317
0.0113918093373
0.000447322748
0.0109490214925
0.000442814499161
0.0105110115076
0.000438081010409
0.0100779163322
0.000433123679024
0.00964998609041
0.000427997303721
0.00922731115247
0.000422704858805
0.00881007798927
0.000417296253556
0.00839833195526
0.000411776965239
0.00799219778341
0.00040619329116
0.00759167557819
0.000400553767371
0.0071968288447
0.000394901947071
0.00680761112739
0.000389249553061
0.00642402462343
0.000383637882597
0.00604597480917
0.000378081591773
0.0056734026349
0.000372619828599
0.00530616447283
0.000367269576612
0.00494414089246
0.00036206762268
0.00458713930315
0.000357032375685
0.0042349821722
0.00035219770572
0.00388742996259
0.000347582172883
0.00354425166934
0.000343215601819
0.00320516628216
0.000339114474208
0.00286989924459
0.000335301416093
0.00253814336819
0.00033178417006
0.00220961076684
0.000328564393529
0.00188403031584
0.000325607833923
0.00156124782857
0.000322811615176
0.00124139264146
0.000319881233557
0.000925403738866
0.000316014406868
0.000617015934346
0.000308411278695
0.000330401380622
0.000286642453469
0.000330417037751
0.00148819638793
-0.00283469769251
0.00314940936265
-0.00313533582451
0.00480159701166
-0.00312527495597
0.00643006046299
-0.00308290386609
0.00802745104097
-0.00302515160155
0.00958680262353
-0.00295376149981
0.0111016051996
-0.0028697652276
0.0125657624396
-0.00277430056334
0.0139739139379
-0.00266853031282
0.0153212214109
-0.00255373407558
0.016603669784
-0.00243115772468
0.0178177712786
-0.00230212283202
0.0189608754076
-0.00216785875813
0.0200308102421
-0.00202963480668
0.0210262065291
-0.00188858106724
0.0219460892515
-0.0017458437973
0.0227902192493
-0.00160239844669
0.0235586480034
-0.00145922627524
0.0242520792986
-0.00131712137547
0.0248713994113
-0.00117688516585
0.0254180598352
-0.00103912831365
0.025893593188
-0.000904478776738
0.0263000157622
-0.000773378890638
0.0266393370966
-0.000646302341375
0.0269139789157
-0.000523546695816
0.027126283891
-0.000405455013031
0.0272789458233
-0.000292204638324
0.0273745215308
-0.000184030173088
0.0274158665594
-8.10102071412e-05
0.0274056528462
1.67107654299e-05
0.027346801993
0.000109136091281
0.0272420192399
0.00019619729244
0.0270942324058
0.000277962435719
0.0269061232694
0.000354424127569
0.0266805496755
0.000425705634904
0.0264201038871
0.000491850371125
0.0261275272178
0.000553023197053
0.025805283694
0.00060930794902
0.0254559606262
0.000660901316963
0.0250818615741
0.000707918393689
0.024685391254
0.000750578517194
0.0242686693269
0.000789019779903
0.0238338979589
0.000823475990753
0.0233829975126
0.000854100758956
0.0229179556023
0.000881134923921
0.0224404853794
0.000904740681203
0.0219523552283
0.000925159057154
0.0214550700495
0.000942554379173
0.0209501811368
0.000957161573824
0.0204389905
0.000969141192812
0.0199228406011
0.000978716499734
0.0194028414788
0.000986039136787
0.0188801402479
0.0009913161046
0.0183556704696
0.000994686071146
0.0178304013473
0.000996336449411
0.0173051085792
0.000996390223897
0.0167806033451
0.000995013385843
0.0162575236802
0.000992312057161
0.0157365433888
0.000988430566113
0.0152181829076
0.000983458527392
0.0147029984754
0.000977519848154
0.01419141141
0.000970689341248
0.0136838779708
0.000963072952363
0.0131807360191
0.00095473340016
0.0126823562482
0.000945761929374
0.0121890052395
0.000936212432171
0.0117009788736
0.00092616505462
0.0112184808742
0.000915668221399
0.0107417394308
0.000904794467503
0.0102709003583
0.000893589788649
0.00980612806983
0.000882122117864
0.00934751251254
0.000870437425098
0.00889515577079
0.00085860131775
0.00844909192091
0.000846661328394
0.00800936058202
0.000834682165531
0.00757593880908
0.000822713637176
0.00714880295892
0.000810820121197
0.00672787169423
0.000799053585218
0.00631305749607
0.000787477863136
0.00590421982511
0.000776146237958
0.00550120758508
0.00076512110945
0.00510382148165
0.000754455607887
0.00471184865903
0.000744209184161
0.00432503335326
0.00073443268492
0.00394310486732
0.000725180237043
0.00356575569494
0.000716497008124
0.00319266377784
0.000708427215065
0.00282347679224
0.000701002882282
0.00245782711555
0.000694245946193
0.00209531199139
0.000688153103867
0.00173546777417
0.000682685371679
0.00137763265025
0.000677744311993
0.00102052506318
0.000673148961114
0.000660372715863
0.000668589010357
0.000285795661666
0.000661244082991
0.000616224811134
0.00151443406745
-0.00434930641292
0.00319686871631
-0.00481795872442
0.00487272519611
-0.00480131723568
0.00652476052087
-0.00473512634874
0.00814485812429
-0.00464543015812
0.00972576179473
-0.0045348478739
0.011260750817
-0.00440492865021
0.0127436461545
-0.00425737219872
0.0141689544189
-0.00409400470075
0.0155318254351
-0.00391677310023
0.0168281632443
-0.00372765165731
0.018054531301
-0.00352864894943
0.0192082437311
-0.00332171591767
0.0202872316838
-0.00310876944897
0.0212901236332
-0.00289160512155
0.0222160839666
-0.00267193830521
0.0230648900693
-0.00245132316617
0.0238367534758
-0.00223121043981
0.0245324002693
-0.00201287259998
0.0251528839885
-0.0017974756208
0.0256996743963
-0.00158600864834
0.0261744691761
-0.00137936591182
0.0265792933967
-0.00117827837552
0.0269163143778
-0.000983401229086
0.0271879517259
-0.000795244846355
0.0273966971126
-0.000614264012328
0.027545232519
-0.000440786712509
0.0276362552292
-0.000275102608934
0.0276726014854
-0.000117389630574
0.0276570766608
3.21991760193e-05
0.0275925820032
0.000173610379436
0.0274819498827
0.000306805541608
0.0273280728053
0.000431831002021
0.027133744836
0.000548739903737
0.0269017886762
0.000657664197759
0.0266349046689
0.000758732873443
0.0263357966197
0.000852143458532
0.026007028538
0.000938084185557
0.0256511477479
0.00101680307282
0.0252705495136
0.00108853336379
0.0248675966546
0.00115355995623
0.024444492315
0.00121214837969
0.0240033953061
0.00126460815212
0.0235463012763
0.00131122552397
0.0230751533794
0.00135232347975
0.022591731964
0.00138819832297
0.0220977601507
0.00141917609564
0.0215948021322
0.00144555317614
0.0210843634954
0.00146764907571
0.02056779803
0.00148575113699
0.0200464025136
0.00150016372847
0.0195213318284
0.00151115721104
0.0189936880481
0.00151901368274
0.0184644434462
0.00152398027254
0.0179345235658
0.00152631157594
0.0174047376151
0.00152622734639
0.0168758552997
0.00152395179178
0.016348543965
0.00151967557828
0.0158234388883
0.00151359207886
0.015301086548
0.0015058635635
0.0147820082394
0.00149665446804
0.0142666488476
0.00148610149806
0.0137554336879
0.00147434391171
0.0132487222811
0.00146149724299
0.0127468585421
0.00144768059302
0.0122501291372
0.00143299359841
0.0117588072349
0.00141754071011
0.011273115167
0.00140141106557
0.0107932621579
0.00138469978468
0.0103194110768
0.00136749039513
0.00985171062667
0.00134987321247
0.00939026605764
0.00133193003486
0.00893516641276
0.00131374974709
0.00848645907777
0.00129541502237
0.00804417267748
0.00127701533644
0.00760829534648
0.00125863547421
0.00717879389742
0.00124036619172
0.0067555956538
0.00122229434003
0.00633860445554
0.00120451143126
0.00592768586936
0.00118710522329
0.00552268056381
0.00117016645203
0.00512339266455
0.00115378171106
0.00472960093924
0.00113803857654
0.00434105001746
0.00112301959176
0.00395745968598
0.00110880591907
0.00357851845045
0.00109547212492
0.00320389061949
0.0010830882937
0.00283321040465
0.00107171513666
0.0024660832441
0.00106140447221
0.00210207134546
0.00105219521072
0.00174066947341
0.0010441166304
0.00138124096267
0.00103720076251
0.00102289449173
0.00103152175392
0.000664374633567
0.00102713455019
0.000305983529564
0.00101966026073
0.00092222016233
0.00153768254039
-0.00588716546068
0.00324305300128
-0.00652351988469
0.0049419691188
-0.00650042157284
0.00661639609874
-0.00640974103088
0.00825774113221
-0.00628695925562
0.00985843635361
-0.00613572556139
0.0114115266052
-0.00595819679573
0.0129106902008
-0.00575671130798
0.0143503173193
-0.0055338016093
0.0157255192139
-0.00529214172085
0.017032172164
-0.0050344645648
0.0182668850084
-0.00476351808354
0.0194270138959
-0.00448199339871
0.0205105982146
-0.00419249822009
0.0215163561065
-0.00389749903423
0.022443599612
-0.00359931330219
0.0232922205246
-0.00330006653826
0.0240625948719
-0.0030017024601
0.0247555676682
-0.00270595363748
0.0253723554926
-0.00241436673244
0.02591453676
-0.00212828351115
0.0263839587141
-0.00184887647026
0.0267827369715
-0.00157713547855
0.0271131700381
-0.0013139081979
0.0273777485541
-0.00105988756515
0.0275790773603
-0.00081565224039
0.0277198925036
-0.000581651805052
0.0278029893401
-0.000358244844175
0.0278312447569
-0.000145681299056
0.0278075499566
5.58619632341e-05
0.0277348363147
0.000246300700932
0.0276160111702
0.000425611241405
0.02745398721
0.000593843698278
0.0272516227736
0.000751096539826
0.0270117524744
0.0008975342765
0.0267371323328
0.00103335582764
0.0264304712548
0.00115881430501
0.026094380664
0.00127418712262
0.0257314069207
0.00137979545274
0.025343985106
0.00147597594995
0.0249344718061
0.00156309966473
0.0245051028979
0.0016415453912
0.0240580263237
0.00171171780853
0.0235952638355
0.00177402238127
0.0231187435314
0.00182888251137
0.0226302655267
0.00187671595628
0.0221315341087
0.00191795090007
0.0216241273166
0.00195300391276
0.0211095285959
0.00198229494931
0.0205891001723
0.00200622695955
0.020064114043
0.00202519994834
0.0195357289338
0.00203959238905
0.0190050203859
0.00204977452735
0.0184729609307
0.00205609176701
0.0179404489287
0.00205887741595
0.0174082914987
0.00205843815987
0.0168772317061
0.00205506638533
0.0163479336967
0.00204902776403
0.015821007813
0.00204057320598
0.0152969973991
0.00202992845616
0.014776401485
0.00201730561621
0.0142596627831
0.00200289454986
0.0137471876817
0.00198687383198
0.0132393350856
0.00196940367619
0.0127364336165
0.00195063611298
0.0122387710811
0.00193070912061
0.0117466089254
0.00190975583297
0.0112601722669
0.0018878995621
0.0107796617957
0.00186526186707
0.0103052444158
0.00184195820474
0.00983706288716
0.00181810475791
0.00937522720105
0.00179381451684
0.00891982232903
0.00176920283912
0.00847090048355
0.00174438383738
0.00802848735189
0.00171947471773
0.00759257539366
0.00169459241075
0.00716312892844
0.00166985679141
0.00674007858303
0.00164538753518
0.00632332555576
0.00162130635954
0.00591273727924
0.00159773411071
0.0055081511299
0.00157479218041
0.00510937130438
0.0015525998327
0.00471617215231
0.00153127494103
0.0043282961604
0.00151093155127
0.00394545691512
0.00149168006124
0.00356733779108
0.00147362501363
0.00319359399515
0.00145686488613
0.00282385060329
0.00144149035226
0.00245770142805
0.00142758459332
0.00209470249515
0.00141522415691
0.00173436266044
0.00140448520561
0.00137613230819
0.00139545867742
0.00101941473804
0.00138826594842
0.000663793723394
0.00138278067949
0.000311153005733
0.00137232545842
0.00123338521903
0.00156752296175
-0.00745486722272
0.00330462931579
-0.00826081671343
0.00503469076063
-0.00823067421823
0.00673904989377
-0.00811428915361
0.00840866902343
-0.00795676496998
0.0100356158486
-0.00776285618288
0.0116126448395
-0.00753540599967
0.0131332301556
-0.00727747323013
0.0145916214474
-0.00699236491828
0.0159828662042
-0.00668355399778
0.0173028271111
-0.00635458749759
0.0185481641798
-0.00600901190496
0.019716318618
-0.00565029834581
0.0208054649356
-0.00528178911173
0.0218144724394
-0.00490664424332
0.0227428388929
-0.00452781102296
0.0235906407158
-0.00414799229754
0.0243584590078
-0.00376963787145
0.0250473283415
-0.00339493242607
0.0256586644571
-0.00302580527211
0.0261942195481
-0.00266393319293
0.0266560181759
-0.00231076256461
0.0270463233971
-0.00196752028735
0.0273675834349
-0.00163524075894
0.0276224088586
-0.00131477773706
0.0278135286554
-0.00100682988148
0.0279437756036
-0.00071194902944
0.0280160486679
-0.000430561570827
0.0280333034206
-0.000162972471894
0.0279985184245
9.06167985477e-05
0.0279146890079
0.000330106801172
0.0277847955737
0.000555487160354
0.0276118023774
0.000766825743479
0.0273986286961
0.000964264384622
0.0271481487591
0.00114801422003
0.0268631678753
0.00131834148448
0.026546424267
0.00147556796215
0.0262005683902
0.00162005726523
0.0258281668894
0.00175221592613
0.0254316847124
0.0018724807485
0.0250134907485
0.00198132037744
0.0245758424528
0.00207922354468
0.0241208928535
0.00216670083938
0.0236506775752
0.00224427367046
0.0231671231087
0.00231247602433
0.0226720361998
0.00237184400923
0.0221671132967
0.0024229174875
0.0216539323088
0.0024662302283
0.0211339631945
0.00250231146668
0.0206085620141
0.00253167678754
0.0200789824969
0.00255482977253
0.0195463722106
0.0025722538614
0.0190117848637
0.00258441433827
0.0184761782466
0.00259175141449
0.0179404268483
0.00259468278745
0.0174053211063
0.00259359815931
0.0168715798605
0.00258886252754
0.0163398503568
0.0025808122102
0.0158107199968
0.00256975888148
0.0152847165632
0.00255598703668
0.0147623188096
0.00253975864934
0.0142439564424
0.00252131184582
0.013730019195
0.00250086592968
0.0132208562562
0.0024786209493
0.0127167836598
0.00245476277372
0.0122180830096
0.0024294631782
0.0117250071706
0.00240288464145
0.0112377783129
0.00237518060404
0.0107565920654
0.0023464997106
0.0102816150212
0.0023169859506
0.00981298761225
0.00228678215048
0.00935082131039
0.0022560298101
0.00889520055388
0.00222487175497
0.00844617990359
0.0021934515724
0.00800378535215
0.00216191542526
0.00756801168849
0.00213041108343
0.0071388235026
0.00209908897536
0.00671615296514
0.00206810086529
0.00629990077896
0.0020376002614
0.00588993452559
0.00200774082916
0.00548608974919
0.00197867629599
0.00508816894498
0.00195055870116
0.00469594286287
0.00192353793995
0.00430915010584
0.00189775996356
0.00392749859472
0.00187336611898
0.00355066552199
0.00185049146528
0.00317829859967
0.0018292642016
0.00281001575775
0.00180980459116
0.00244540539729
0.00179222542443
0.0020840255805
0.00177663340283
0.00172540547371
0.00176313387048
0.0013690533828
0.00175183792124
0.00101449346472
0.00174285127836
0.000661459624921
0.00173583960036
0.000311740797013
0.00172206892895
0.00154513748232
0.00160525294754
-0.00906030091345
0.00338337987048
-0.0100391386805
0.00515351718604
-0.0100010045354
0.0068962384326
-0.00985720206453
0.00860198628422
-0.00966270159344
0.0102623875056
-0.00942344340185
0.0118698432536
-0.00914304412254
0.0134175704881
-0.00882537902822
0.014899651962
-0.00847462035322
0.0163110579243
-0.008095129186
0.0176476501702
-0.00769134345147
0.0189061601843
-0.00726768008836
0.020084156421
-0.00682844644257
0.0211799915864
-0.00637776994495
0.022192746445
-0.00591953783352
0.0231221593494
-0.00545735594754
0.0239685590273
-0.00499451657814
0.0247327883398
-0.00453398471146
0.0254161372852
-0.0040783911713
0.0260202714874
-0.00363004197292
0.0265471745286
-0.00319093083961
0.0269990885858
-0.00276276385072
0.0273784710153
-0.00234698204653
0.0276879493784
-0.00194479112443
0.0279302915661
-0.00155718414755
0.0281083722237
-0.00118496761343
0.0282251517872
-0.000828778141006
0.0282836493076
-0.000489101770818
0.0282869258229
-0.000166284489826
0.0282380602946
0.00013945332447
0.0281401356305
0.000428009192906
0.0279962158476
0.000699390720962
0.0278093368358
0.00095369475723
0.0275824861688
0.0011911106007
0.0273185948766
0.00141190671655
0.0270205222852
0.00161642028629
0.026691050096
0.00180505142578
0.0263328702039
0.00197825287269
0.0259485810937
0.00213652520708
0.0255406781203
0.00228040777114
0.0251115517331
0.00241047467406
0.0246634798657
0.00252732664579
0.0241986277436
0.00263158747498
0.0237190422635
0.00272389646262
0.0232266533302
0.00280490500725
0.0227232702302
0.00287526946146
0.0222105845378
0.00293564776295
0.021690168524
0.00298669267479
0.0211634796543
0.00302904854289
0.0206318610009
0.00306334508409
0.0200965472516
0.00309019452495
0.019558666954
0.00311018623191
0.0190192497858
0.00312388457569
0.0184792302671
0.00313182474498
0.0179394558641
0.00313451167519
0.0174006916479
0.00313241731687
0.0168636286653
0.00312598084343
0.0163288889285
0.0031156074839
0.015797033448
0.00310167004186
0.015268566947
0.0030845092002
0.0147439450106
0.00306443617342
0.0142235780229
0.0030417342074
0.0137078370286
0.00301666202807
0.0131970565671
0.00298945612756
0.0126915390379
0.00296033457696
0.0121915563061
0.0029294996418
0.0116973525616
0.00289714151841
0.0112091447678
0.00286344085115
0.0107271241798
0.00282857201286
0.0102514558546
0.00279270518969
0.00978227911372
0.00275600894048
0.00931970642503
0.00271865164186
0.00886382315524
0.0026808031919
0.00841468615852
0.00264263573842
0.00797232316479
0.00260432451432
0.00753673138783
0.0025660478796
0.00710787685716
0.00252798736762
0.006685693301
0.00249032714258
0.00627008166371
0.00245325339458
0.00586090944572
0.00241695335411
0.00545801057464
0.00238161420129
0.00506118529856
0.00234742179477
0.00467020049031
0.00231455927626
0.00428479009217
0.00228320568386
0.00390465582867
0.00225353446179
0.00352946807286
0.00222571218541
0.00315886682737
0.00219989730467
0.00279246287705
0.00217623942742
0.00242983919699
0.00215487902045
0.00207055342589
0.00213594817216
0.00171414263738
0.00211957227934
0.00136013542544
0.00210587162586
0.00100808057768
0.00209493181153
0.000657687170687
0.00208625708971
0.000310548056673
0.00206923158559
0.00185569717007
0.00165169559375
-0.0107121803017
0.00348058172723
-0.0118682203154
0.00530025154442
-0.0118208709205
0.00709028630942
-0.011647430799
0.00884047729228
-0.0114130842498
0.0105419122721
-0.0111250668312
0.0121865653446
-0.0107878821393
0.0137673463576
-0.0104063408441
0.0152781469827
-0.0099855972539
0.0167138574634
-0.0095310108151
0.0180703575532
-0.00904800925701
0.0193444843786
-0.00854196663038
0.0205339830356
-0.00801809863059
0.0216374424786
-0.0074813761963
0.0226542219087
-0.00693645727943
0.0235843696903
-0.00638763646906
0.0244285395138
-0.00583881190376
0.0251879055785
-0.00529346861188
0.025864081278
-0.00475467717267
0.0264590427319
-0.0042251058434
0.0269750609307
-0.00370704378335
0.0274146424425
-0.0032024321543
0.0277804808008
-0.00271289952447
0.0280754163588
-0.00223979793112
0.0283024049151
-0.00178423641762
0.0284644912975
-0.00134711004542
0.0285647877297
-0.000929123337406
0.0286064532931
-0.000530808764176
0.0285926754134
-0.000152541109782
0.0285266506552
0.000205450506043
0.028411567643
0.000543071125225
0.028250589894
0.000860353802571
0.0280468393753
0.0011574365996
0.0278033836314
0.00143456352574
0.0275232230072
0.00169206996091
0.0272092793778
0.00193037178842
0.0268643876398
0.0021499558911
0.0264912871506
0.00235137072469
0.0260926156829
0.00253521830398
0.0256709029639
0.00270214613504
0.0252285665322
0.00285284043328
0.0247679069781
0.00298801894555
0.024291105461
0.00310842486214
0.0238002205844
0.00321482005714
0.0232971876007
0.00330797930422
0.022783817026
0.00338868367194
0.022261795645
0.00345771488951
0.0217326870106
0.00351584889529
0.0211979343531
0.00356385045274
0.020658863022
0.00360246707958
0.0201166852554
0.00363242422773
0.0195725044418
0.00365442001207
0.019027321499
0.00366912140521
0.0184820405903
0.00367716023959
0.0179374766138
0.0036791308507
0.0173943617959
0.00367558774244
0.0168533536308
0.00366704495837
0.0163150416492
0.00365397557346
0.0157799550837
0.00363681282099
0.0152485691228
0.00361595131193
0.0147213116609
0.00359174968184
0.0141985684707
0.00356453318808
0.0136806885678
0.00353459743109
0.0131679879486
0.00350221181692
0.0126607533401
0.0034676237974
0.012159244389
0.00343106261921
0.0116636958047
0.0033927435205
0.0111743181118
0.00335287123352
0.0106912984038
0.00331164366596
0.0102147999383
0.00326925474311
0.0097449618495
0.00322589725194
0.00928189796244
0.00318176477644
0.00882569587333
0.00313705355577
0.0083764153753
0.0030919634305
0.00793408730079
0.00304669871679
0.00749871191489
0.00300146821887
0.00707025785774
0.00295648523313
0.00664866078789
0.00291196676759
0.00623382267836
0.00286813285249
0.00582561091108
0.00282520515636
0.00542385809213
0.0027834058067
0.00502836171328
0.0027429556124
0.00463888456176
0.0027040726071
0.00425515498381
0.00266697010327
0.00387686789102
0.00263185518776
0.00350368559698
0.00259892686845
0.00313523940649
0.00256837481224
0.002771131149
0.00254037794025
0.00241093565703
0.00251510376982
0.00205420410191
0.00249270787999
0.00170046983363
0.00247333387583
0.00134925706475
0.00245711028608
0.00100010012143
0.00244411276446
0.000652656329781
0.00243372475529
0.000308377407865
0.00241353406689
0.00216408540237
0.00170766212543
-0.0124200286933
0.00359776876515
-0.0137585281169
0.00547712118905
-0.0137004222797
0.00732404749781
-0.0134945546087
0.00912753206689
-0.013216763285
0.0108780061847
-0.0128757324021
0.0125669364632
-0.0124770000677
0.0141868767365
-0.0120264646344
0.0157315100504
-0.0115304092454
0.0171956543142
-0.0109953286231
0.018575238576
-0.0104277612472
0.0198672535476
-0.00983414333685
0.0210696845632
-0.00922068473663
0.0221814290049
-0.00859326903765
0.0232022053675
-0.00795737474653
0.024132454476
-0.00731801945674
0.0249732397869
-0.0066797233238
0.0257261468441
-0.00604649418876
0.0263931891486
-0.00542182993355
0.0269767201724
-0.0048087395301
0.0274793582461
-0.0042097763289
0.0279039223887
-0.00362708292813
0.028253383482
-0.00306243908938
0.0285308258476
-0.00251731101797
0.0287394207134
-0.00199289401303
0.0288824045137
-0.0014901490439
0.028963062632
-0.00100982895967
0.0289847123151
-0.000552498748186
0.0289506870136
-0.000118548817755
0.0288643182337
0.000291793065917
0.028728916634
0.000678453304599
0.0285477599379
0.00104149736305
0.0283240726783
0.00138111696137
0.0280610134076
0.00169762162922
0.0277616632317
0.00199142459089
0.0274290150123
0.0022630295977
0.0270659654877
0.002513019987
0.0266753075506
0.00274204775734
0.026259724687
0.00295082459782
0.0258217852647
0.00314011290582
0.0253639385145
0.00331071823637
0.0248885103638
0.00346348147868
0.0243977007771
0.00359927193265
0.0238935811403
0.00371897995191
0.0233780931107
0.0038235101329
0.0228530477654
0.00391377407493
0.0223201262245
0.00399068351623
0.0217808808105
0.00405514318631
0.0212367376731
0.0041080440369
0.0206890001026
0.00415025646917
0.0201388532149
0.00418262409848
0.019587369328
0.00420595788562
0.019035514478
0.00422103105311
0.0184841554536
0.00422857474263
0.0179340676002
0.00422927468749
0.0173859428287
0.00422376889781
0.016840397936
0.00421264647582
0.0162979827458
0.00419644754435
0.0157591881015
0.00417566425716
0.0152244533136
0.00415074283372
0.0146941730707
0.00412208646864
0.0141687035318
0.00409005902309
0.0136483676191
0.00405498926986
0.0131334593581
0.00401717558616
0.0126242473023
0.00397689082873
0.0121209770195
0.00393438730538
0.0116238726866
0.00388990157363
0.0111331378944
0.00384365903303
0.0106489556875
0.00379587805796
0.0101714880556
0.00374677371875
0.00970087484332
0.00369656085607
0.00923723239787
0.00364545665568
0.00878065182717
0.00359368248886
0.00833119727877
0.00354146527861
0.00788890399217
0.00348903812322
0.00745377662344
0.00343664055327
0.00702578745953
0.00338451808857
0.00660487510441
0.00333292158448
0.00619094312456
0.00328210594427
0.00578385931027
0.00323232879693
0.00538345492636
0.00318384861619
0.00498952466659
0.00313692298253
0.00460182660023
0.00309180636926
0.00422008285792
0.00304874824037
0.00384398031016
0.00300799076927
0.00347317198238
0.00296976702564
0.00310727851108
0.00293429889831
0.00274589040225
0.00290179561034
0.00238857059932
0.00287245208799
0.00203485825935
0.0028464477824
0.00168427324652
0.00282394496983
0.00133632349033
0.00280508502088
0.000990517269723
0.0027899432805
0.000646462317572
0.00277780223751
0.000305519235923
0.00275449921279
0.00246961562154
0.00177409608535
-0.014194314888
0.00373684547734
-0.0157214796188
0.00568691314994
-0.01565069323
0.00760108969736
-0.0154089316381
0.00946736846502
-0.0150832400961
0.0112753936078
-0.0146839521229
0.0130160375999
-0.0142178348955
0.0146814541201
-0.0136920675258
0.0162651094603
-0.0131142461124
0.0177617722088
-0.0124921673633
0.0191674677454
-0.0118336269621
0.0204794071507
-0.0111462464387
0.0216958962846
-0.010437330952
0.0228162321434
-0.00971375472778
0.0238405890782
-0.00898187427024
0.0247699005951
-0.00824746574057
0.0256057382162
-0.00751568802336
0.0263501936951
-0.00679106854644
0.0270057665354
-0.00607751369094
0.0275752638181
-0.0053783393408
0.02806171381
-0.00469632078165
0.0284682985966
-0.0040337537645
0.028798303882
-0.00339252240205
0.0290550866906
-0.00277416357199
0.029242054638
-0.00217992386529
0.0293626540253
-0.00161080231435
0.0294203594352
-0.00106758071301
0.0294186633747
-0.000550841392898
0.0293610620589
-6.09790746062e-05
0.0292510394118
0.000401791306754
0.0290920459713
0.000837428984767
0.0288874886908
0.00124604347974
0.0286407080756
0.00162789249593
0.0283549661767
0.00198336442376
0.0280334348197
0.00231296231787
0.0276791866015
0.00261728949905
0.0272951871455
0.00289703596643
0.026884289152
0.00315296691421
0.0264492269637
0.00338591215526
0.0259926121374
0.0035967570759
0.0255169293055
0.00378643399776
0.0250245327763
0.00395591427451
0.0245176435896
0.00410620038319
0.0239983473222
0.00423831822225
0.0234685926484
0.00435330925891
0.0229301907473
0.00445222262103
0.0223848157719
0.00453610708789
0.0218340062789
0.00460600297737
0.0212791679676
0.00466293415164
0.0207215774282
0.00470790008231
0.0201623872961
0.00474186841797
0.0196026323144
0.00476576794959
0.0190432366785
0.00478048254357
0.0184850219899
0.0047868458588
0.0179287161481
0.00478563743454
0.0173749623987
0.00477757984963
0.0168243288327
0.00476333746699
0.0162773175279
0.0047435163355
0.0157343736243
0.00471866564854
0.0151958935767
0.00468928022503
0.0146622329005
0.0046558042946
0.01413371276
0.00461863598825
0.0136106257585
0.00457813272723
0.0130932404138
0.00453461689749
0.0125818047259
0.00448838195441
0.0120765484537
0.00443969837475
0.0115776845462
0.00438881960148
0.0110854094584
0.00433598745761
0.0105999028186
0.0042814372193
0.0101213262481
0.00422540189141
0.00964982180673
0.00416811595578
0.00918550988469
0.00410981818722
0.00872848701384
0.00405075390667
0.00827882338713
0.003991176282
0.00783656056532
0.00393134715271
0.00740170908666
0.00387153695856
0.00697424648671
0.00381202435502
0.00655411533791
0.00375309502422
0.00614122187275
0.00369504036951
0.00573543467601
0.00363815550686
0.00533658408786
0.00358273734204
0.0049444616745
0.00352908204811
0.00455882049341
0.00347748281968
0.00417937539487
0.00342822713533
0.0038058041718
0.00338159446437
0.00343774870532
0.00333785359202
0.00307481700922
0.00329726051657
0.00271658531589
0.00326005605421
0.00236260106113
0.00322646400584
0.00201238623019
0.00319668907929
0.00166544192491
0.00317091495607
0.00132125257026
0.00314929857476
0.000979296011053
0.00313192198919
0.000639140388751
0.00311798006075
0.000302077333423
0.00309158428865
0.00277170292606
0.00185215080144
-0.016046658776
0.0039001642351
-0.0177697016812
0.00593308466112
-0.0176838199055
0.00792582553359
-0.0174018772196
0.00986518145107
-0.0170227974786
0.0117398622044
-0.0165588310947