/*--------------------------------*- C++ -*----------------------------------*\
| =========                 |                                                 |
| \\      /  F ield         | OpenFOAM: The Open Source CFD Toolbox           |
|  \\    /   O peration     | Version:  v1906                                 |
|   \\  /    A nd           | Web:      www.OpenFOAM.com                      |
|    \\/     M anipulation  |                                                 |
\*---------------------------------------------------------------------------*/
FoamFile
{
    version     2.0;
    format      ascii;
    class       surfaceScalarField;
    location    "137";
    object      phia;
}
// * * * * * * * * * * * * * * * * * * * * * * * * * * * * * * * * * * * * * //

dimensions      [0 3 -1 0 0 0 0];
oriented        oriented;


internalField   nonuniform List<scalar> 
18240
(
0.0121978249553
-0.0121978265769
0.0250788004302
-0.0128809776065
0.0378851747429
-0.0128063758265
0.0505306462471
-0.0126454737129
0.0629559339074
-0.0124252889913
0.0751084873092
-0.0121525556639
0.0869406979823
-0.0118322118273
0.0984097417857
-0.0114690461002
0.109477705771
-0.0110679649658
0.120111716582
-0.0106340131239
0.130284006366
-0.0101722905934
0.139971859871
-0.00968785581704
0.149157484345
-0.00918562511893
0.157827774951
-0.00867029290489
0.165974035298
-0.00814626083435
0.173591625817
-0.00761759279161
0.180679603562
-0.00708797808647
0.187240319984
-0.00656071865886
0.193279039949
-0.00603872016725
0.198803540955
-0.00552450319871
0.203823754126
-0.00502021324595
0.208351398807
-0.00452764682239
0.21239967067
-0.00404827181986
0.215982929368
-0.00358326078322
0.219116444591
-0.00313351507306
0.221816142392
-0.00269969982404
0.224098410401
-0.00228226776186
0.225979901437
-0.00188149299285
0.227477395242
-0.00149749347073
0.228607658815
-0.00113026546029
0.229387370784
-0.000779711555056
0.229833059837
-0.000445690869634
0.22996115551
-0.00012809518953
0.22978813683
0.000173016939085
0.229327736194
0.000460401184173
0.228594681406
0.000733053123038
0.22760342309
0.000991258917966
0.226367870323
0.00123555117789
0.224901423311
0.00146644766206
0.223216959414
0.00168446238423
0.221326850628
0.00189010947597
0.219242952948
0.00208389624468
0.216976627465
0.0022663262075
0.214538734444
0.00243789166278
0.211939658067
0.00259907712922
0.209189304037
0.00275035274892
0.206297126452
0.00289217835972
0.203272127557
0.00302499769121
0.200122885456
0.00314924289236
0.196857554987
0.00326532934186
0.193483895356
0.00337366043556
0.190009271443
0.00347462286093
0.186440680763
0.00356859149249
0.18278475477
0.00365592501628
0.179047784769
0.00373697081763
0.175235722987
0.00381206087866
0.171354207225
0.00388151657726
0.167408561592
0.00394564480349
0.163403819794
0.00400474260968
0.159344725523
0.0040590935137
0.155235754365
0.00410897196057
0.151081113886
0.00415463979195
0.146884764187
0.00419635048997
0.142650417765
0.00423434580464
0.138381558778
0.00426885976298
0.134081442779
0.0043001154502
0.129753114766
0.00432832877159
0.125399408894
0.0043537053909
0.121022965393
0.00437644423887
0.116626230365
0.00439673461322
0.112211471651
0.00441475942941
0.107780778812
0.0044306924903
0.103336078024
0.00444470147867
0.0988791323366
0.00445694540397
0.0944115556648
0.00446757733572
0.0899348134084
0.00447674203677
0.0854502356036
0.00448457843878
0.0809590179769
0.00449121746934
0.0764622343093
0.00449678426891
0.0719608379925
0.00450139621898
0.0674556736591
0.0045051648978
0.0629474793084
0.00450819430973
0.0584368972674
0.00451058256525
0.0539244769915
0.00451242029015
0.0494106855062
0.0045137919679
0.0448959111769
0.00451477440052
0.0403804742176
0.00451543740312
0.0358646327686
0.00451584158206
0.0313485966643
0.00451603651337
0.0268325439375
0.00451605291795
0.022316659622
0.00451588467914
0.0178012227442
0.0045154371126
0.0132868667227
0.00451435630846
0.00877532885207
0.00451153817813
0.00428057877697
0.00449475042079
0.00428057893815
0.0128052751981
-0.0250031035739
0.0264780393933
-0.0265537438188
0.0400294606208
-0.0263577988724
0.0533996324189
-0.026015647491
0.0665344890222
-0.0255601473251
0.0793821724043
-0.0250002409842
0.091893916012
-0.0243439570713
0.104025300618
-0.0236004325942
0.115736773918
-0.022779439801
0.126993918798
-0.0218911598325
0.137767558043
-0.0209459312671
0.148033721967
-0.0199540215008
0.157773516062
-0.0189254205349
0.166972892784
-0.0178696713131
0.175622362983
-0.0167957322463
0.183716648133
-0.0157118795507
0.191254308348
-0.014625639408
0.198237342809
-0.0135437546482
0.204670794863
-0.0124721732244
0.210562352771
-0.0114160625539
0.215921974873
-0.0103798362515
0.220761524734
-0.00936719804727
0.225094441885
-0.00838118977907
0.228935429386
-0.00742424956753
0.232300181463
-0.00649826786687
0.235205129329
-0.00560464889367
0.237667226931
-0.00474436599251
0.239703752486
-0.00391801967264
0.241332146141
-0.00312588767207
0.242569856374
-0.00236797674096
0.243434209843
-0.00164406549256
0.243942264491
-0.000953746490128
0.244110610404
-0.000296441496595
0.243954849352
0.000328777093794
0.243492339177
0.000922911036508
0.242738960392
0.00148643108321
0.241709908715
0.00202031033744
0.240419886764
0.00252557237394
0.238883083533
0.00300325069523
0.237113162551
0.00345438267666
0.235123263459
0.00388000842618
0.232925997079
0.00428116199875
0.230533455214
0.00465886798336
0.227957212262
0.00501413404982
0.225208340001
0.00534794934858
0.222297413269
0.00566127897515
0.219234527622
0.00595506400919
0.216029307375
0.00623021748795
0.212690924688
0.00648762562378
0.209228108775
0.00672814485934
0.205649165425
0.00695260386773
0.201961986591
0.007161801351
0.19817406968
0.00735650852024
0.194292527014
0.0075374673875
0.190324104476
0.00770539350429
0.18627519054
0.00786097456772
0.182151834035
0.00800487325902
0.177959752597
0.00813772603971
0.17370434943
0.0082601459798
0.169390721124
0.00837272166039
0.165023673393
0.00847601991665
0.160607728273
0.00857058479363
0.156147138854
0.00865694015529
0.151645895917
0.00873558866167
0.147107741729
0.008807014214
0.142536176199
0.00887168093746
0.137934469804
0.00893003544563
0.133305669363
0.00898250582358
0.128652610191
0.00902950370457
0.123977921574
0.00907142325563
0.119284038242
0.00910864306583
0.11457320565
0.00914152514129
0.109847490835
0.00917041660812
0.105108787601
0.00919564872717
0.100358826843
0.00921753841714
0.0955991816985
0.00923638730033
0.0908312774141
0.00925248305238
0.0860563965394
0.00926609849031
0.0812756883864
0.00927749275431
0.0764901743291
0.00928691044683
0.0717007569115
0.00929458264727
0.0669082253102
0.00930072610251
0.0621132641436
0.00930554406007
0.057316459162
0.009309225482
0.0525183058258
0.00931194562782
0.0477192152983
0.00931386515886
0.0429195228291
0.00931513019514
0.038119493896
0.00931587077088
0.0333193314224
0.00931619931326
0.028519178099
0.00931620652352
0.0237191078554
0.00931595522905
0.0189190733274
0.00931547191552
0.0141187116433
0.0093147183059
0.00931704757407
0.00931320256017
0.00451829657437
0.00929350175422
0.00879887569379
0.0129692440588
-0.0379723494658
0.0267761438871
-0.0403606455785
0.0404737706805
-0.0400554275666
0.0539882417546
-0.0395301204706
0.0672607085613
-0.0388326159592
0.0802371674593
-0.0379767017298
0.092867516351
-0.0369743077135
0.105106377972
-0.0358392959946
0.116913536668
-0.034586600165
0.128254195959
-0.0332318208264
0.139099067722
-0.0317908046077
0.149424319141
-0.0302792745402
0.159211406126
-0.0287125090063
0.168446811541
-0.0271050782618
0.177121715653
-0.0254706377486
0.1852316142
-0.0238217795425
0.192775908507
-0.0221699350115
0.199757478196
-0.0205253256932
0.206182256189
-0.01889695242
0.212058810839
-0.0172926184701
0.217397949894
-0.0157189764175
0.22221234593
-0.0141815952619
0.226516193785
-0.0126850386545
0.230324895629
-0.0112329525055
0.233654781268
-0.00982815443874
0.236522856567
-0.0084727252026
0.238946585773
-0.00716809604791
0.240943698829
-0.00591513365774
0.242532028068
-0.00471421767907
0.24372936346
-0.00356531298456
0.244553328563
-0.00246803128586
0.245021264662
-0.00142168336486
0.245150134214
-0.000425311664211
0.244956638995
0.000522271612858
0.244457582742
0.00142196674863
0.243668593158
0.00227542004063
0.242604839984
0.0030840630374
0.241281048099
0.00384936369942
0.239711436092
0.00457286229224
0.237909691583
0.00525612668902
0.235888966553
0.00590073310507
0.233661876771
0.006508251344
0.231240509036
0.00708023542489
0.228636427929
0.00761821477677
0.225860688119
0.00812368891815
0.222923844864
0.00859812190426
0.21983596899
0.00904293969235
0.216606659365
0.00945952683904
0.213245059141
0.00984922570378
0.209759869054
0.0102133347205
0.206159363992
0.0105531088302
0.202451406373
0.0108697587912
0.198643462434
0.0111644524003
0.194742615228
0.0114383144584
0.190755580261
0.0116924284514
0.186688717834
0.0119278369
0.182548047839
0.0121455432698
0.17833926131
0.0123465125131
0.174067734291
0.0125316730477
0.169738538569
0.0127019173633
0.165356454603
0.0128581039621
0.160925981466
0.0130010579445
0.156451348885
0.0131315728439
0.151936526452
0.0132504111412
0.147385234846
0.0133583059527
0.142800954412
0.0134559614468
0.138186935652
0.0135440543632
0.133546207258
0.0136232343213
0.128881585977
0.0136941251648
0.124195684201
0.013757325161
0.119490919294
0.013813408173
0.11476952083
0.0138629237587
0.110033539479
0.0139063981787
0.105284853976
0.0139443344069
0.100525179644
0.0139772129863
0.0957560751773
0.0140054919652
0.0909789508668
0.0140296076146
0.0861950752692
0.0140499743052
0.0814055831905
0.0140669850971
0.0766114822994
0.014081011571
0.0718136609215
0.014092404298
0.0670128946396
0.0141014926298
0.0622098539351
0.014108585043
0.0574051108
0.0141139688726
0.0525991462182
0.0141179104929
0.0477923567194
0.0141206549249
0.0429850614684
0.0141224257381
0.0381775081448
0.0141234243789
0.0333698780914
0.0141238296699
0.0285622877938
0.014123797117
0.0237547835895
0.0141234597427
0.0189473209776
0.0141229348131
0.0141397315432
0.0141223080127
0.00933196774721
0.0141209666932
0.00453286874354
0.0140926011168
0.0133317445975
0.0131458732862
-0.0511182245936
0.0271307911338
-0.0543455653932
0.0410033382221
-0.053927976567
0.054686195689
-0.0532129798405
0.068117207402
-0.0522636295237
0.0812400652389
-0.0510995614006
0.0940030180395
-0.0497372622954
0.106359570937
-0.0481958506532
0.118268849591
-0.0464958805206
0.129695813883
-0.0446587867993
0.140611301563
-0.0427062939047
0.150991925361
-0.0406598999331
0.160819849798
-0.0385404349704
0.170082472554
-0.0363677025231
0.178772037475
-0.0341602041054
0.186885201037
-0.03193494452
0.194422574659
-0.0297073099764
0.201388258535
-0.0274910108932
0.207789382933
-0.0252980780696
0.213635665958
-0.0231389027288
0.2189389976
-0.0210223092209
0.223713053475
-0.0189556522812
0.227972943365
-0.0169449296176
0.23173489395
-0.0149949041494
0.23501596776
-0.013109229235
0.23783381525
-0.0112905736668
0.240206460328
-0.00954074202986
0.242152114965
-0.00786078918792
0.243689022588
-0.00625112612584
0.244835325972
-0.00471161718242
0.245608960518
-0.00324166657841
0.246027570453
-0.00184029403855
0.24610846035
-0.000506202231314
0.245868590577
0.000762140725932
0.245324026063
0.00196653066794
0.244490713889
0.00310873162754
0.243384041601
0.00419073480062
0.242018815216
0.00521458956316
0.240409285135
0.00618239191255
0.238569148515
0.00709626285187
0.236511552277
0.00795832894253
0.234249097629
0.00877070559446
0.231793848461
0.00953548424944
0.229157341081
0.0102547218157
0.226350596748
0.0109304329622
0.223384134545
0.0115645838193
0.220267986182
0.0121590878177
0.217011710436
0.0127158023472
0.213624408917
0.0132365270335
0.210114741036
0.0137230024122
0.206490939886
0.0141769098366
0.202760827066
0.014599871466
0.198931828141
0.0149934512251
0.195010986893
0.0153591556042
0.191004980063
0.0156984352207
0.186920130804
0.016012686096
0.182762422533
0.0163032515186
0.178537511487
0.0165714235344
0.174250739634
0.016818444913
0.169907146325
0.0170455106816
0.165511480275
0.0172537700569
0.161068210349
0.0174443279123
0.156581536679
0.0176182465891
0.152055400661
0.0177765472319
0.14749349529
0.0179202114265
0.142899274469
0.0180501823685
0.138275962656
0.0181673663045
0.133626563586
0.0182726335184
0.128953869335
0.0183668195692
0.124260468551
0.0184507260961
0.119548755041
0.0185251218583
0.114820935605
0.0185907433688
0.110079038232
0.0186482957492
0.105324919626
0.0186984532091
0.100560273096
0.0187418597327
0.0957866358537
0.018779129423
0.0910053966623
0.0188108470402
0.0862178029704
0.0188375682298
0.0814249683841
0.018859819932
0.0766278796893
0.0188781005125
0.0718274041896
0.0188928800574
0.0670242966561
0.0189046004205
0.0622192065532
0.0189136754135
0.0574126849197
0.0189204907714
0.0526051914443
0.018925404243
0.0477971011671
0.0189287454774
0.042988711159
0.0189308160323
0.0381802465288
0.0189318892987
0.0333718657254
0.0189322107744
0.02856366418
0.0189319989677
0.0237556760088
0.0189314482039
0.018947874652
0.0189307364554
0.0141401956753
0.0189299873079
0.00933286790221
0.0189282947772
0.00453543077187
0.0188900385759
0.0178671755534
0.0133776076773
-0.0644958341301
0.0276080635532
-0.0685760231976
0.0417184003273
-0.0680383152844
0.0556287346726
-0.0671233160876
0.0692734096618
-0.0659083063849
0.0825933438877
-0.0644194974627
0.0955346294049
-0.0626785496109
0.108049265717
-0.0607104887271
0.120095489911
-0.0585421064333
0.131637944155
-0.0562012427222
0.142647657222
-0.0537160086057
0.153101868988
-0.0511141132909
0.16298372756
-0.0484222950856
0.172281890008
-0.0456658664722
0.180990057008
-0.042868372557
0.189106467823
-0.0400513567442
0.19663337905
-0.0372342225626
0.203576545327
-0.0344341784874
0.209944716962
-0.0316662509715
0.215749164515
-0.0289433515078
0.221003238023
-0.0262763839057
0.22572196456
-0.0236743799543
0.229921686651
-0.0211446527962
0.23361974115
-0.0186929596978
0.236834177979
-0.0163236670662
0.239583516084
-0.0140399127367
0.241886534497
-0.0118437613617
0.243762094919
-0.00973635049287
0.245228993292
-0.0077180253361
0.246305836738
-0.00578846143323
0.247010943617
-0.00394677421795
0.247362264373
-0.00219161552198
0.247377327956
-0.000521266497207
0.247073183415
0.00106628461852
0.246466354863
0.00257335861428
0.245572798961
0.00400228695596
0.244407934865
0.00535559836204
0.242986612985
0.00663591093556
0.241323109691
0.00784589473674
0.239431128667
0.00898824343078
0.237323806531
0.0100656506694
0.23501372103
0.0110807907104
0.232512901909
0.0120363030186
0.229832843373
0.0129347800227
0.22698451823
0.0137787578075
0.223978392768
0.0145707090056
0.220824442555
0.0153130377848
0.217532168364
0.0160080763129
0.214110612507
0.0166580826933
0.210568374894
0.0172652398465
0.206913629176
0.0178316554027
0.203154138356
0.0183593621521
0.199297270298
0.0188503191748
0.19535001257
0.0193064132403
0.191318987054
0.01972946067
0.187210463844
0.0201212092528
0.183030374879
0.0204833404542
0.178784326828
0.0208174715697
0.174477613713
0.0211251580334
0.17011522882
0.021407895593
0.165701876354
0.0216671225624
0.161241982429
0.0219042218872
0.15673970585
0.0221205232379
0.152198948274
0.0223173048877
0.147623364209
0.0224957955893
0.143016370462
0.0226571762227
0.138381155463
0.0228025814279
0.133720688105
0.0229331010095
0.129037726504
0.0230497813183
0.124334826343
0.023153626415
0.119614349162
0.0232455992109
0.114878470307
0.0233266224039
0.110129186853
0.0233975793963
0.105368325238
0.0234593150255
0.100597548903
0.0235126362813
0.0958183656901
0.0235583128559
0.0910321352741
0.0235970776873
0.0862400763855
0.0236296273555
0.0814432740903
0.0236566224734
0.0766426868932
0.0236786879601
0.071839153904
0.0236964133043
0.0670334018581
0.0237103527269
0.0622260521881
0.0237210253494
0.057417627957
0.0237289152709
0.0526085608079
0.0237344716657
0.0477991977349
0.023738108828
0.0429898077602
0.0237402062922
0.0381805883127
0.0237411090395
0.0333716713469
0.0237411280388
0.028563129218
0.0237405413964
0.0237549811611
0.0237395965717
0.0189472027522
0.0237385151545
0.0141397598859
0.0237374304406
0.00933291803307
0.0237351369707
0.00453622605153
0.0236867309206
0.0224034017628
0.0136719920203
-0.0781678280169
0.0282182548724
-0.0831222880469
0.0426335831886
-0.082453645544
0.0568348180007
-0.0813245528255
0.0707519624311
-0.0798254526973
0.0843225048471
-0.0779900417293
0.0974898472763
-0.0758458938497
0.110204126809
-0.0734247700333
0.122422522713
-0.0707605040656
0.134109368322
-0.06788809002
0.145236048199
-0.0648426901242
0.155780721288
-0.0616587879801
0.165727908309
-0.058369483656
0.175067982343
-0.0550059420141
0.183796598774
-0.0515969904448
0.191914095659
-0.0481688550426
0.199424890364
-0.0447450186302
0.206336892197
-0.0413461816403
0.212660945775
-0.03799030582
0.218410314739
-0.0346927216988
0.22360021183
-0.0314662821762
0.22824737782
-0.0283215470814
0.232369709694
-0.0252669857595
0.235985936405
-0.0223091874581
0.239115339664
-0.0194530713278
0.241777516117
-0.0167020901543
0.243992177268
-0.0140584234315
0.245778982979
-0.0115231570856
0.247157404887
-0.00909644808193
0.248146615914
-0.00677767326248
0.24876540257
-0.00456556163425
0.249032096755
-0.0024583104323
0.248964524194
-0.000453694617116
0.248579932895
0.0014508752742
0.247895024349
0.00325826655846
0.246925906832
0.00497140390491
0.245688090825
0.00659341383836
0.244196480369
0.00812752089003
0.24246537667
0.00957699796949
0.240508484459
0.0109451352044
0.238338921846
0.0122352128773
0.235969232468
0.0134504797091
0.233411399587
0.0145941355521
0.23067686146
0.0156693178267
0.227776527764
0.0166790912101
0.224720796533
0.0176264399667
0.22151957151
0.0185142625651
0.218182279504
0.0193453680992
0.214717887733
0.0201224742708
0.211134920852
0.0208482065543
0.207441477715
0.0215250983917
0.203645247619
0.0221555921194
0.199753526149
0.0227420405395
0.1957732304
0.0232867089034
0.191710913747
0.0237917772577
0.187572779954
0.0242593429988
0.183364696802
0.0246914235781
0.179092209099
0.0250899592627
0.1747605512
0.0254568159399
0.170374658961
0.025793787855
0.165939181245
0.0261026003189
0.161458490904
0.0263849122836
0.156936695374
0.0266423188378
0.152377646811
0.0268763535353
0.147784951885
0.0270884906143
0.143161981184
0.027280147035
0.138511878341
0.0274526843962
0.133837568819
0.0276074106678
0.129141768486
0.0277455818013
0.124426991898
0.0278684031638
0.119695560425
0.0279770308567
0.114949610142
0.0280725728699
0.1101910996
0.0281560901323
0.105421817414
0.0282285974153
0.100643389769
0.0282910641403
0.0958572877785
0.0283444150695
0.0910648347943
0.0283895309034
0.0862672136094
0.0284272487796
0.0814654736245
0.0284583627051
0.0766605379415
0.0284836238957
0.0718532104356
0.0285037410684
0.0670441827663
0.0285193806585
0.0622340413774
0.0285311670047
0.0574232744364
0.0285396824817
0.052612278751
0.0285454676251
0.0478013666111
0.028549021247
0.0429907725838
0.0285508006056
0.0381806602404
0.0285512216756
0.033371128937
0.0285506596444
0.0285622209066
0.0285494497355
0.0237539294629
0.028547888303
0.018946209822
0.0285462350821
0.014139009775
0.0285446308148
0.00933255021264
0.0285415968412
0.00453630445343
0.0284829770055
0.026939706404
0.0140346482604
-0.0922024781703
0.0289712285252
-0.0980588702696
0.0437630749523
-0.0972454939542
0.0583226607251
-0.0958841405322
0.0725745187288
-0.0940773126068
0.0864519010936
-0.0918674259582
0.0998949373505
-0.0892889319341
0.112851558971
-0.0863813934389
0.125277771788
-0.0831867186261
0.137137689501
-0.0797480094313
0.148403313751
-0.0761083160283
0.159054118669
-0.0723095945046
0.169076490914
-0.0683918574614
0.178463075003
-0.0643925276145
0.187212067908
-0.0603459848159
0.195326499395
-0.0562832879444
0.202813526678
-0.0522320472835
0.209683764279
-0.048216420562
0.215950663131
-0.0442572059478
0.221629947262
-0.0403720070567
0.22673911184
-0.0365754479368
0.231296982877
-0.0328794192534
0.235323336509
-0.0292933404851
0.238838574073
-0.0258244260684
0.241863448257
-0.022477946517
0.24441883515
-0.0192574780077
0.246525546887
-0.0161651360887
0.248204179763
-0.0132017908392
0.249474993021
-0.010367262179
0.250357813908
-0.00766049494635
0.250871964987
-0.00507971347461
0.251036209893
-0.00262255605803
0.250868710956
-0.000286196359332
0.250386945147
0.00193264044741
0.249607846905
0.00403736420159
0.248547661643
0.00603158860752
0.247221991371
0.00791908358357
0.245645791751
0.00970372001744
0.243833382662
0.0113894065965
0.24179846041
0.0129800570261
0.239554112658
0.0144795602286
0.237112835057
0.0158917569392
0.234486549123
0.0172204211432
0.231686620886
0.018469245748
0.228723879996
0.019641831811
0.225608638964
0.0207416807364
0.222350712349
0.0217721889419
0.218959435687
0.0227366445481
0.215443684045
0.0236382257236
0.211811890078
0.0244800003553
0.208072061544
0.0252649267816
0.204231798194
0.0259958553466
0.200298308041
0.0266755305911
0.196278422955
0.0273065939089
0.19217861362
0.027891586531
0.18800500383
0.0284329527472
0.183763384156
0.0289330432279
0.179459224999
0.0293941184141
0.175097689057
0.0298183518923
0.170683643236
0.0302078337042
0.166221670034
0.0305645735646
0.161716078433
0.0308905039429
0.157170914343
0.0311874830015
0.152589970606
0.0314572973605
0.14797679663
0.031701664692
0.143334707654
0.0319222361255
0.138666793705
0.0321205984732
0.133975928248
0.0322982762653
0.129264776592
0.032456733609
0.124535804054
0.0325973758653
0.119791283923
0.0327215511624
0.115033305243
0.032830551735
0.110263780442
0.0329256151304
0.105484452817
0.0330079252456
0.100696903924
0.0330786132494
0.0959025608496
0.0331387583687
0.091102703419
0.0331893885673
0.0862984713257
0.0332314811141
0.0814908712166
0.0332659630624
0.0766807837264
0.03329371164
0.0718689704849
0.0333155545694
0.0670560810882
0.0333322703189
0.0622426600545
0.0333445883059
0.0574291537514
0.0333531890557
0.0526159173119
0.0333587043398
0.0478032215297
0.0333617173093
0.0429912597653
0.0333627626567
0.0381801548968
0.03336232684
0.033369966433
0.0333608484082
0.0285606980268
0.033358718442
0.0237523058725
0.033356280773
0.0189447083924
0.0333538328547
0.0141378125826
0.0333515268849
0.00933177663774
0.0333476331307
0.00453601976448
0.0332787342475
0.0314757263247
0.0144718178659
-0.10667429794
0.0298794024695
-0.113466456921
0.0451249866806
-0.112491080151
0.0601154318362
-0.110874587656
0.0747684551032
-0.108730337795
0.0890121364605
-0.106111109202
0.102782700776
-0.103059498093
0.116025551362
-0.0996242458277
0.12869547879
-0.095856647811
0.140756577084
-0.0918091094389
0.152181859225
-0.0875335998346
0.162952653036
-0.0830803899346
0.173057845825
-0.0784970518179
0.182493041511
-0.0738277248222
0.191259683916
-0.0691126286909
0.199364188611
-0.0643877940635
0.20681711462
-0.0596849746657
0.213632397048
-0.0550317043163
0.21982665323
-0.0504514634064
0.225418568119
-0.045963923177
0.230428359561
-0.0415852405611
0.234877320497
-0.0373283813278
0.238787432789
-0.0332034538679
0.242181046019
-0.0292180403475
0.245080614054
-0.0253775155542
0.247508482031
-0.0216853469467
0.249486716818
-0.0181433717937
0.251036974424
-0.0147520493224
0.252180398565
-0.0115106871554
0.252937545191
-0.00841764236886
0.25332832868
-0.0054704977203
0.253371986123
-0.00266621421868
0.253087048399
-1.25930896967e-06
0.252491230432
0.00252845778152
0.251601709999
0.00492688404492
0.250434871777
0.00719842627369
0.249006404796
0.00934755004557
0.247331307541
0.0113788167858
0.24542390647
0.0132968072129
0.243297874848
0.0151060882241
0.240966253476
0.0168111812065
0.238441472326
0.018416537724
0.235735372669
0.0199265204647
0.232859229323
0.0213453887841
0.229823772767
0.0226772880848
0.226639210878
0.0239262423677
0.223315250174
0.0250961494146
0.219861116411
0.0261907781025
0.216285574492
0.0272137674597
0.212596947591
0.0281686270945
0.208803135512
0.0290587387226
0.204911632216
0.0298873585249
0.200929542567
0.0306576201438
0.196863598271
0.0313725381289
0.192720173045
0.0320350117008
0.188505297054
0.0326478286999
0.184224670627
0.0332136696356
0.179883677298
0.033735111742
0.175487396214
0.0342146329916
0.171040613949
0.0346546160003
0.166547835762
0.0350573517998
0.162013296333
0.0354250434341
0.157440970042
0.0357598093693
0.152834580801
0.0360636866933
0.148197611495
0.0363386341029
0.143533313071
0.0365865346673
0.138844713301
0.0368091983738
0.134134625258
0.0370083644513
0.129405655537
0.0371857034844
0.124660212257
0.0373428193108
0.119900512857
0.0374812507404
0.115128591719
0.0376024730604
0.110346307665
0.0377078993828
0.105555351303
0.0377988818157
0.100757252287
0.0378767124838
0.0959533864779
0.0379426244043
0.0911449830471
0.0379977922334
0.0863331315108
0.0380433328932
0.0815187887301
0.0380803060928
0.0767027858728
0.038109714753
0.0718858353542
0.0381325053489
0.0670685377586
0.0381495681795
0.0622513887533
0.0381617375801
0.0574347859946
0.0381697920866
0.0526190360424
0.0381744545682
0.0478043612828
0.0381763923502
0.0429909068962
0.0381762173316
0.0381787479047
0.038174486126
0.0333678963904
0.0381717002268
0.0285583090088
0.0381683061354
0.0237498949987
0.0381646950692
0.0189425246906
0.0381612034502
0.0141360532101
0.0381579987006
0.00933057237858
0.0381531142679
0.00453546531973
0.0380738416296
0.0360111918362
0.0149910303691
-0.121665330249
0.0309583083831
-0.129433736938
0.0467420872452
-0.128274861051
0.0622422048832
-0.126374707276
0.0773679847669
-0.12385611963
0.0920412721189
-0.12078439846
0.106193717228
-0.117211945069
0.119767919248
-0.113198449668
0.132717523528
-0.108806253868
0.145006961123
-0.104098548761
0.156610832273
-0.0991374726651
0.167513046388
-0.0939826056782
0.177705809624
-0.088689816635
0.187188541207
-0.0833104579338
0.195966783391
-0.077890872355
0.204051153518
-0.0724721656183
0.211456371236
-0.0670901937648
0.218200380817
-0.0617757152245
0.224303577948
-0.0565546618205
0.2297881426
-0.0514484890599
0.234677473929
-0.046474573077
0.238995719803
-0.0416466283388
0.242767391422
-0.0369751265812
0.24601705281
-0.0324677027823
0.248769074834
-0.0281295385827
0.25104744401
-0.023963717081
0.252875617112
-0.0199715458136
0.254276413663
-0.0161528467474
0.255271939339
-0.0125062136661
0.255883534264
-0.00902923808715
0.256131741845
-0.00571870605692
0.256036297362
-0.00257077044832
0.255616120074
0.000418917308343
0.25488916453
0.00325541270138
0.253872847521
0.00594320046828
0.252583682923
0.00848759032445
0.251037432536
0.0108937999191
0.249249121284
0.0131671275588
0.247233063421
0.0153128646269
0.245002888789
0.017336262439
0.242571569927
0.0192424996808
0.239951449188
0.0210366581049
0.237154265495
0.0227237038265
0.234191180475
0.0243084735022
0.231072803779
0.0257956645036
0.227809217496
0.0271898284004
0.22440999955
0.0284953671333
0.220884246073
0.0297165313788
0.217240592696
0.0308574206578
0.213487234802
0.0319219848329
0.20963194672
0.0329140266716
0.205682099905
0.0338372052281
0.201644680143
0.0346950398141
0.197526303811
0.0354909143896
0.193333233247
0.036228082213
0.189071391275
0.0369096706385
0.184746374945
0.0375386859512
0.180363468521
0.0381180181684
0.175927655797
0.0386504457346
0.171443631766
0.0391386400676
0.166915813705
0.0395851699113
0.162348351733
0.0399925054723
0.157745138869
0.0403630223139
0.153109820655
0.0406990050021
0.148445804378
0.0410026504887
0.143756267931
0.0412760712355
0.139044168362
0.0415212980759
0.134312250136
0.0417402828238
0.129563053145
0.0419349006319
0.124798920512
0.0421069521131
0.120022006198
0.0422581652339
0.115234282457
0.0423901969923
0.110437547147
0.0425046348927
0.10563343094
0.0426029982338
0.100823404424
0.0426867392195
0.0960087851461
0.0427572439108
0.091190744587
0.0428158330296
0.0863703150941
0.0428637626307
0.0815483967842
0.0429022246542
0.0767257644228
0.0429323473718
0.0719030742928
0.0429551957412
0.067080871058
0.0429717716809
0.06225959463
0.0429830142783
0.0574395870457
0.0429897999446
0.0526210993618
0.0429929425296
0.0478042985862
0.0429931934084
0.0429892746563
0.0429912415504
0.038176047505
0.0429877135756
0.0333645742479
0.0429831737854
0.0285547565612
0.0429781241231
0.0237464483251
0.0429730036258
0.0189394631977
0.0429681888721
0.0141335973116
0.0429638648408
0.00932887400275
0.0429578379255
0.00453464584591
0.0428680701612
0.0405458378371
0.0156015606591
-0.137266892863
0.0322272672136
-0.146059445606
0.04864271553
-0.14469031141
0.0647390712876
-0.142471065059
0.0804153982028
-0.139532448517
0.0955861084297
-0.135955110621
0.110177588663
-0.131803427188
0.124129445994
-0.127150308842
0.137394419277
-0.122071228944
0.149937854293
-0.116641985523
0.161736760816
-0.110936380881
0.17277860683
-0.105024453337
0.183059970394
-0.0989711817885
0.1925851512
-0.0928356402804
0.201364818974
-0.0866705416149
0.209414752248
-0.0805221003296
0.216754700463
-0.0744301433627
0.223407385639
-0.0684284017356
0.229397647422
-0.0625449248859
0.234751726515
-0.0568025693897
0.23949667604
-0.0512195237873
0.243659887231
-0.0458098406714
0.247268714734
-0.0405839551754
0.25035018671
-0.0355491758072
0.252930785908
-0.0307101387825
0.255036289051
-0.0260692211843
0.256691653499
-0.0216269111748
0.257920941624
-0.0173821357468
0.258747274876
-0.0133325477484
0.259192810217
-0.00947477422026
0.259278734137
-0.00580463072728
0.259025282149
-0.00231731917101
0.258451767533
0.000992431261088
0.257576405599
0.00413077401537
0.25641679071
0.00710281478059
0.254989554224
0.00991482626853
0.253310507783
0.0125728458549
0.251394678656
0.0150829562117
0.249256342855
0.0174511999877
0.246909060039
0.0196835448437
0.244365707615
0.0217858517248
0.241638513752
0.0237638516157
0.238739089048
0.0256231282067
0.235678456724
0.0273691055288
0.232467081302
0.0290070396559
0.229114895745
0.0305420137126
0.225631327086
0.0319789355727
0.222025320568
0.0333225377001
0.218305362356
0.0345773786979
0.214479500865
0.0357478461729
0.210555366796
0.0368381606135
0.206540191914
0.0378523800024
0.202440826685
0.0387944049577
0.1982637568
0.0396679842083
0.194015118699
0.0404767202666
0.189700714144
0.0412240751647
0.185326023917
0.0419133761679
0.180896220717
0.0425478213757
0.176416181316