/*--------------------------------*- C++ -*----------------------------------*\
| =========                 |                                                 |
| \\      /  F ield         | OpenFOAM: The Open Source CFD Toolbox           |
|  \\    /   O peration     | Version:  v1906                                 |
|   \\  /    A nd           | Web:      www.OpenFOAM.com                      |
|    \\/     M anipulation  |                                                 |
\*---------------------------------------------------------------------------*/
FoamFile
{
    version     2.0;
    format      ascii;
    class       surfaceScalarField;
    location    "999";
    object      phia;
}
// * * * * * * * * * * * * * * * * * * * * * * * * * * * * * * * * * * * * * //

dimensions      [0 3 -1 0 0 0 0];
oriented        oriented;


internalField   nonuniform List<scalar> 
18240
(
0.000850825517911
-0.000850840679371
0.00174380513087
-0.000892994641787
0.00263473302821
-0.000890943875928
0.00351848012523
-0.000883762241168
0.00439220118107
-0.000873737358849
0.00525335293194
-0.000861167020186
0.00609957639238
-0.000846240274358
0.00692866949312
-0.000829108577085
0.00773857487922
-0.00080992282747
0.0085273940375
-0.000788834900373
0.00929337963052
-0.000766003752687
0.0100349505748
-0.000741586986046
0.0107506764598
-0.000715744831079
0.0114392896853
-0.000688629575615
0.0120996604325
-0.000660390539625
0.012730806449
-0.000631162658637
0.0133318589838
-0.000601073214461
0.0139020720704
-0.000570229984256
0.0144407806284
-0.000538730166762
0.0149474118299
-0.000506648303207
0.0154214369886
-0.000474047725123
0.0158623879778
-0.000440968236895
0.0162698046398
-0.000407440227948
0.0166432591905
-0.000373471886799
0.0169823005662
-0.000339065974393
0.0172864893498
-0.000304206161819
0.0175553400424
-0.000268876380264
0.0177883685415
-0.000233045891149
0.0179850329578
-0.000196691241252
0.0181447954572
-0.000159779907122
0.0182670620213
-0.000122294602407
0.0183512579569
-8.4213396594e-05
0.0183967668981
-4.55382557539e-05
0.0184030250315
-6.27573239715e-06
0.0183694585311
3.35358190605e-05
0.018295591114
7.38495474965e-05
0.0181809793985
0.00011457959792
0.0180253325108
0.000155628556909
0.0178284419938
0.000196856868682
0.0175903080757
0.000238114876786
0.0173110597928
0.000279213031444
0.016991081221
0.000319958486904
0.0166309181562
0.000360126102926
0.016231398705
0.000399497879621
0.015793526876
0.000437833058225
0.0153185967828
0.000474906451519
0.0148080818292
0.00051047426557
0.0142637498475
0.000544305611938
0.0136875667627
0.000576140520166
0.0130818272825
0.000605709885087
0.0124490969944
0.000632686188271
0.0117923699876
0.000656694197705
0.0111150584844
0.000677266618921
0.0104211585144
0.00069386478754
0.00971524323496
0.000705870490528
0.00900255352278
0.000712654311725
0.00828887778223
0.000713632170774
0.00758046137785
0.00070838468825
0.00688371501466
0.000696706244187
0.00620505561753
0.00067863573786
0.00555070390517
0.000654317063257
0.00492670359193
0.000623984548144
0.00433881510961
0.000587856345458
0.00379234934713
0.000546451909816
0.00329169633404
0.000500616534292
0.00283937761178
0.000452301432554
0.00243535563384
0.000403978452481
0.00207761468994
0.000357719091778
0.00176301809641
0.000314545901529
0.0014884984294
0.000274488002616
0.00125130693288
0.000237131484068
0.00104875835468
0.000202501245738
0.000877654181299
0.00017103505371
0.000734319579515
0.000143272846997
0.000614785773714
0.000119461316852
0.000515300386952
9.94194839958e-05
0.000432570308454
8.26623176134e-05
0.00036386108492
6.86474411431e-05
0.000306885370555
5.69153078543e-05
0.000259684591604
4.71447288323e-05
0.000220568223835
3.90617544621e-05
0.000188165729041
3.23511115516e-05
0.000161405635567
2.67094340586e-05
0.00013955431071
2.18026328984e-05
0.000122551245234
1.69539975189e-05
0.000108387949719
1.4112809832e-05
9.54881369616e-05
1.28448133488e-05
8.44041969923e-05
1.10220010343e-05
7.40707663134e-05
1.02622963131e-05
6.37126715368e-05
1.0275354579e-05
5.37442942598e-05
9.87084421539e-06
4.42314817431e-05
9.40093301092e-06
3.4305455561e-05
9.79856207945e-06
2.32656103369e-05
1.08920837485e-05
1.11276305166e-05
1.1961602361e-05
1.10369774952e-05
0.000898311797391
-0.00174916795629
0.00185217354947
-0.00184687256341
0.00280082238965
-0.00183960890724
0.00374091681501
-0.00182387284051
0.00466997170524
-0.00180280876714
0.00558547699485
-0.00177668872175
0.00648498210397
-0.00174576232963
0.00736615982522
-0.00171030308271
0.00822682825963
-0.00167060872624
0.00906496896898
-0.00162699284857
0.00987872966639
-0.00157978250397
0.0106664328583
-0.00152930792572
0.0114265690619
-0.00147589973392
0.0121577990787
-0.00141987787934
0.0128589388799
-0.00136154971719
0.0135289566961
-0.0013011993089
0.014166950665
-0.00123908725561
0.0147721424913
-0.00117544118192
0.0153438495887
-0.00111045803288
0.0158814777353
-0.00104429633581
0.0163844899579
-0.000977081412673
0.0168524010027
-0.000908899654949
0.0172847453305
-0.000839806708935
0.0176810761382
-0.000769823528851
0.0180409345046
-0.000698947186927
0.0183638552068
-0.000627148143212
0.0186493384674
-0.000554383187483
0.0188968642054
-0.000480593352342
0.0191058673173
-0.000405718632126
0.019275761333
-0.000329696112967
0.0194059185931
-0.000252476916361
0.0194957063022
-0.000174023812902
0.0195444704735
-9.43283292433e-05
0.019551581015
-1.34095828395e-05
0.0195164221033
6.8667891877e-05
0.0194384490132
0.000151798608343
0.0193171814494
0.000235819265257
0.0191522680026
0.000320517095304
0.0189434792525
0.000405616525249
0.0186907745852
0.00049079355558
0.0183942894584
0.000575667687713
0.0180543976341
0.000659822979132
0.0176716868753
0.000742804787615
0.01724701082
0.000824144912611
0.0167814511148
0.000903358788171
0.0162763588859
0.000979967522594
0.0157333100936
0.00105348684182
0.0151541467803
0.00112343516363
0.0145409444387
0.00118930415365
0.0138960741127
0.0012505435756
0.0132222089774
0.00130651022514
0.0125224295743
0.00135643426712
0.0118002858361
0.00139936755326
0.0110599370361
0.00143417221333
0.0103062270818
0.00145953757095
0.00954476018572
0.001474078952
0.00878183752149
0.00147651459561
0.00802428468368
0.00146589771555
0.00727913067686
0.00144182557312
0.00655329317064
0.00140444126765
0.00585346118996
0.00135412006589
0.00518607693506
0.00129134543451
0.00455753087497
0.00121637457999
0.00397386666691
0.00113009331825
0.00344068488058
0.00103376576512
0.0029611075421
0.000931850878372
0.00253473919719
0.000830309103028
0.00215848026057
0.000733945334505
0.00182808979707
0.000644893103242
0.00153990331053
0.000562632019734
0.00129133296629
0.000485647656708
0.00107987325401
0.000413903696218
0.000902224346189
0.000348617083597
0.000754233440135
0.000291193884022
0.000631307745241
0.000242314111828
0.000529177530212
0.000201478688762
0.0004442797333
0.000167491041938
0.000373784866669
0.000139077593134
0.000315385657604
0.000115252358897
0.000267056571123
9.5415225429e-05
0.0002269810708
7.90806531417e-05
0.000193701569985
6.55768445358e-05
0.000166019581365
5.43387756199e-05
0.000142842033575
4.49288260184e-05
0.000122711426724
3.70339871182e-05
0.0001058286568
3.09443781974e-05
9.21712075849e-05
2.64461450923e-05
8.09196090827e-05
2.22117752058e-05
7.1009988925e-05
2.01023982185e-05
6.15676832124e-05
1.96354585964e-05
5.19699774113e-05
1.93713782571e-05
4.25758462237e-05
1.86872121818e-05
3.31933497564e-05
1.9056917273e-05
2.29679336402e-05
2.09710524873e-05
1.11006385263e-05
2.36678880191e-05
2.20593853678e-05
0.000906528780919
-0.0026557122991
0.00186605291222
-0.00280641259668
0.00282141166797
-0.00279498403997
0.00376828387796
-0.00277076136505
0.00470394501373
-0.00273848649646
0.00562579926603
-0.00269855964074
0.0065313561329
-0.00265133617502
0.00741825985153
-0.00259722390299
0.00828430780365
-0.00253667415265
0.00912746579745
-0.00247016845769
0.00994587409234
-0.00239820884629
0.0107378530508
-0.00232130507154
0.0115018999581
-0.00223996531088
0.012236686933
-0.00215468364821
0.0129410497679
-0.00206593187173
0.0136139792988
-0.00197414825215
0.0142546036013
-0.00187973153167
0.0148621745342
-0.00178303213859
0.0154360452965
-0.00168434941513
0.0159756545711
-0.00158392622573
0.0164805020471
-0.00148195013406
0.0169501330317
-0.0013785518213
0.0173841147154
-0.00127381024521
0.0177820239948
-0.00116775453236
0.0181434268248
-0.00106037245821
0.0184678713562
-0.000951614926415
0.018754871978
-0.000841406838521
0.0190039091608
-0.000729653314817
0.01921441924
-0.000616252339074
0.0193858020852
-0.000501102289468
0.0195174176648
-0.000384116763342
0.0196086022514
-0.000265232331426
0.0196586726672
-0.000144423712353
0.0196669524846
-2.17140151388e-05
0.0196327841582
0.000102810451696
0.0195555644769
0.00022899287748
0.0194347635105
0.000356593542989
0.0192699667518
0.000485287490913
0.0190608968465
0.000614658651156
0.0188074567973
0.00074420609499
0.0185097476816
0.000873347725631
0.0181681049285
0.00100143681455
0.0177831041053
0.0011277749488
0.0173555828087
0.0012516355401
0.016886629718
0.00137227926903
0.0163775906788
0.00148897370751
0.0158300457418
0.00160099678873
0.0152458105115
0.00170763491217
0.0146269210588
0.00180815590129
0.0139756578786
0.0019017684265
0.0132945740964
0.00198755353296
0.012586580733
0.00206438676659
0.0118550536491
0.00213085169993
0.0111039985391
0.00218518528444
0.0103382089095
0.0022252822789
0.00956340982108
0.00224883759559
0.00878624029623
0.00225363916923
0.00801404835903
0.00223805408074
0.00725437081658
0.00220146341441
0.0065143936358
0.00214438928305
0.00580091184432
0.00206757137536
0.00512030852351
0.00197192296251
0.00447950331217
0.00185715282785
0.00388527778202
0.00172428875619
0.00334586445328
0.00157314706517
0.0028656692602
0.00141201082284
0.00244330631943
0.00125263603189
0.00207325342772
0.00110396119577
0.0017488796099
0.000969225970504
0.00146564930938
0.000845817356338
0.00122209843827
0.00072914545469
0.00101676882024
0.000619174030897
0.000846542894223
0.000518775466871
0.000706636131575
0.00043102895432
0.00059141833079
0.00035745831292
0.000495936047685
0.00029688922585
0.000416504214492
0.000246854620163
0.000350528936945
0.00020498770051
0.000296027019634
0.000169693058889
0.000251087448052
0.000140295384742
0.000213786473205
0.000116325364842
0.000182736754624
9.65722641777e-05
0.000156859954772
8.01627185476e-05
0.000135208314284
6.65282999547e-05
0.000116904041899
5.5286616034e-05
0.000101175100761
4.66195496448e-05
8.69882610293e-05
4.05743919541e-05
7.43426858478e-05
3.47946857023e-05
6.41051477779e-05
3.02695762802e-05
5.58138626369e-05
2.78439142811e-05
4.66798460102e-05
2.8409937186e-05
3.6759183376e-05
2.85000152194e-05
2.72250193338e-05
2.84702790236e-05
1.76347042786e-05
3.04329748203e-05
8.82779784853e-06
3.23395222821e-05
3.08166679853e-05
0.000914950163121
-0.0035706781008
0.0018824545517
-0.00377393357553
0.0028458841185
-0.00375842996493
0.00380069257794
-0.00372558642865
0.00474402987373
-0.00368184049265
0.00567321419933
-0.00362776087231
0.00658569587097
-0.00356383497546
0.00747907522472
-0.00349062061754
0.00835111868461
-0.00340873525705
0.00919977182936
-0.00331883951129
0.0100231665374
-0.00322162178521
0.0108196250122
-0.00311778206503
0.0115876578779
-0.00300801704236
0.0123259597403
-0.00289300467367
0.0130333990692
-0.002773390722
0.0137090063383
-0.00264977533723
0.014351957046
-0.0025227024165
0.0149615541746
-0.00239264972435
0.015537206515
-0.00226002256806
0.0160784080536
-0.00212514883612
0.0165847145562
-0.00198827805707
0.0170557230707
-0.00184958198919
0.0174910499558
-0.00170915912438
0.0178903135131
-0.00156704029195
0.0182531160612
-0.00142319754856
0.0185790318139
-0.00127755340685
0.0188675945527
-0.00112999265053
0.0191182919046
-0.000980373912104
0.0193305594932
-0.000828543539163
0.0195037825116
-0.000674349087209
0.0196372973861
-0.000517655815635
0.019730401558
-0.000358360860497
0.0197823640233
-0.000196410985147
0.0197924453324
-3.1820338057e-05
0.0197599178531
0.000135312400094
0.0196840958965
0.000304789048581
0.0195643651279
0.000476297920764
0.0194002206271
0.000649405276991
0.0191913013135
0.000823550537502
0.0189374297523
0.000998049804201
0.018638643423
0.00117210535206
0.0182952262977
0.00134482467165
0.0179077260349
0.00151524491567
0.017476966504
0.00168236401842
0.0170040420839
0.00184517138829
0.0164903062476
0.00200267624716
0.0159373446868
0.00215392357407
0.015346950338
0.00229799327895
0.0147210968676
0.00243397177026
0.0140619341654
0.00256089219924
0.0133718104738
0.00267763681042
0.0126533497805
0.00278280561301
0.0119095950553
0.00287456411697
0.0111442325794
0.00295050307481
0.0103618868033
0.00300758627194
0.00956840122431
0.00304227642475
0.00877098870366
0.00305101368978
0.00797794357016
0.00303105485348
0.00719780632235
0.00298156826354
0.00643807132761
0.00290408915463
0.00570558567977
0.00280002850778
0.005006012434
0.00267146800315
0.00434705625165
0.00251607754454
0.00373572547145
0.00233558534101
0.00318691911008
0.0021219144608
0.00270806253674
0.00189082851609
0.00229544591966
0.00166521250913
0.00193833704309
0.00146103175474
0.00162487728199
0.00128264290411
0.001348956517
0.0011216931922
0.0011126248904
0.000965423177993
0.000916937383703
0.000814801733448
0.000759072573729
0.000676572690897
0.00063289217797
0.000557136570162
0.000530463688309
0.000459813558907
0.000445522629988
0.000381759556583
0.000374381272317
0.000317927866117
0.000315118296437
0.000264187419425
0.000266534226701
0.000218215322706
0.000226918097721
0.000179852975587
0.000193882177479
0.000149304396533
0.000166225032385
0.000124175264012
0.000143138484492
0.000103195821626
0.000123783032969
8.58307640896e-05
0.000107708093403
7.13084747215e-05
9.22512853502e-05
6.20197300423e-05
7.84870262903e-05
5.42773621058e-05
6.66532454402e-05
4.65628085065e-05
5.56665843593e-05
4.1184769424e-05
4.520342911e-05
3.82274494255e-05
3.75951580929e-05
3.59269006273e-05
2.86646136118e-05
3.73258797645e-05
1.93854809008e-05
3.76400960293e-05
1.22279830641e-05
3.74776185102e-05
6.18059618581e-06
3.82675193641e-05
3.69366952829e-05
0.000925839824068
-0.00449653387069
0.0019044641987
-0.0047525741905
0.00287886006581
-0.00473284262847
0.00384435823828
-0.0046911013561
0.0047980022603
-0.00463550152685
0.00573701606975
-0.00456679184751
0.00665877342351
-0.00448560975283
0.0075608149055
-0.00439267975962
0.00844086353023
-0.004288801841
0.0092968371344
-0.00417483135432
0.0101268557162
-0.00405165894274
0.01092924473
-0.00392018995721
0.0117025331101
-0.0037813246618
0.0124454474872
-0.00363593860021
0.0131569013912
-0.00348486454672
0.0138359812514
-0.00332887542131
0.0144819280388
-0.00316866979633
0.0150941167939
-0.0030048593574
0.0156720330212
-0.00283796003105
0.0162152486414
-0.00266838595214
0.0167233965438
-0.00249644779557
0.0171961466908
-0.00232235420484
0.0176331826067
-0.00214621743185
0.0180341811386
-0.00196806142108
0.0183987938149
-0.00178783312946
0.0187266324356
-0.00160541511761
0.0190172566905
-0.00142064029608
0.0192701663492
-0.00123330713625
0.019484795602
-0.00104319666089
0.0196605123788
-0.000850089913052
0.0197966204117
-0.000653788219733
0.019892366889
-0.000454131909885
0.0199469541649
-0.00025102318943
0.0199595584916
-4.4449837889e-05
0.019929353282
0.000165492024843
0.0198555400331
0.000378576403549
0.0197373834599
0.000594428111888
0.019574252985
0.000812508968758
0.019365665746
0.00103211040111
0.0191113318451
0.0012523558068
0.0188111954094
0.00147221315883
0.0184654708444
0.00169051991897
0.0180746669255
0.00190601860256
0.0176395980457
0.00211740176467
0.0171613764997
0.00232336065296
0.0166413878881
0.00252263143083
0.0160812481375
0.00271402853015
0.0154827504359
0.00289645483098
0.0148478087304
0.00306887581392
0.0141784157145
0.00323024612031
0.013476634485
0.00337937737217
0.012744657975
0.00351474054026
0.0119849714169
0.00363420690334
0.0112006701526
0.00373476205844
0.0103959366983
0.00381227307823
0.00957665725384
0.00386151562467
0.00875088222595
0.00387674198039
0.00792869343374
0.003853207654
0.00712059673315
0.00378962488277
0.006334330862
0.0036903235221
0.00557678803043
0.00355753967596
0.00485084488098
0.00339737897411
0.00416580831454
0.00320107778433
0.00352450716346
0.00297684344467
0.00295968472879
0.00268669174678
0.00248532037692
0.00236514592495
0.00209221933627
0.00205827062719
0.0017588169633
0.00179439011861
0.00146193958916
0.00157947810751
0.00119252767759
0.00139105777471
0.000963064475351
0.0011948318019
0.000779853203279
0.000997954068009
0.000640163176967
0.000816194661787
0.000535077285171
0.000662151143721
0.000451582849899
0.000543236569723
0.000380989475626
0.000452283160641
0.000320244650934
0.000378607466098
0.000269085762526
0.000315282676923
0.000228137031848
0.000259104086082
0.000195971249692
0.000211959000584
0.000168517458933
0.000176701634371
0.000145121458481
0.000147516386747
0.000125597178382
0.000122665887768
0.000108927031501
0.000102446797832
9.5100792832e-05
8.50794994844e-05
8.15145262294e-05
7.55456871684e-05
6.88143714229e-05
6.69132576466e-05
5.58109906846e-05
5.949884748e-05
4.4273192344e-05
5.26504424674e-05
3.40001967887e-05
4.84200657815e-05
2.62152014969e-05
4.36257237346e-05
2.02318670703e-05
4.32121359587e-05
1.31313074264e-05
4.46366142494e-05
7.49707077993e-06
4.30125672011e-05
3.67580461057e-06
4.19878187331e-05
4.05599465838e-05
0.000939508345791
-0.00543605837751
0.00193237166678
-0.00574545478574
0.00292075397407
-0.00572124185219
0.00389984313476
-0.00567020775452
0.00486656291684
-0.00560223862045
0.00581802667591
-0.00551827317764
0.00675151419025
-0.00541911506151
0.00766449067144
-0.00530567432409
0.00855462372486
-0.00517895326343
0.00941979586281
-0.00504002219036
0.0102581121556
-0.00488999425302
0.0110679029337
-0.00473000011133
0.0118477214678
-0.00456116290652
0.0125963367871
-0.00438457400134
0.0133127217278
-0.00420126990176
0.013996036528
-0.0040122110047
0.0146456083401
-0.00381826270835
0.0152609072856
-0.0036201797559
0.0158415198699
-0.00341859435869
0.016387120768
-0.00321400892264
0.0168974441726
-0.00300679353157
0.0173722558619
-0.00279718852556
0.0178113271432
-0.00258531157067
0.0182144114914
-0.00237116889903
0.0185812245228
-0.00215466948886
0.0189114274737
-0.0019356416457
0.0192046142515
-0.00171385083004
0.0194603018579
-0.00148901873589
0.0196779241948
-0.00126084316642
0.0198568293365
-0.00102901946238
0.0199962808778
-0.000793264357263
0.0200954635373
-0.000553339425293
0.0201534947649
-0.000309079497612
0.0201694427128
-6.04231686635e-05
0.0201423515172
0.000192557553067
0.0200712744037
0.000449627478675
0.0199553144797
0.000710361625854
0.01979367248
0.000974124091515
0.0195856996042
0.00124005591226
0.0193309526791
0.00150707476934
0.0190292474517
0.00177388978191
0.0186807049447
0.00203903305259
0.0182857847534
0.00230090857831
0.0178452992769
0.0025578560359
0.0173604033939
0.00280822425121
0.016832556424
0.00305044491918
0.0162634560827
0.00328309407858
0.0156549491369
0.00350492564945
0.015008927896
0.00371485940591
0.0143272301245
0.00391190495191
0.0136115678819
0.00409499912287
0.0128635309721
0.0042627356283
0.0120847332881
0.00441296235449
0.0112772015084
0.00454224911588
0.0104441318928
0.00464530085262
0.00959104503
0.00471455593717
0.00872712627752
0.0047406213053
0.00786574226772
0.00471454767856
0.0070217643175
0.00463356702957
0.00620236009011
0.0045096918923
0.00541556656361
0.00434429738195
0.00465522243213
0.00415768579093
0.00393688581212
0.00391937189549
0.00323913765454
0.00367454129936
0.00264585762421
0.00327991428069
0.00218364499712
0.00282730698957
0.00182978458303
0.00241207874949
0.00154092503002
0.00208320342142
0.00126845925798
0.00185190195814
0.000996689473851
0.00166276978772
0.000768924477432
0.00142255483696
0.000600550159158
0.00116625993958
0.000487223691288
0.000929461634586
0.000414838298128
0.000734463507561
0.000358916927161
0.000599086744656
0.000306126684194
0.000505005924409
0.000256404631015
0.000428261986238
0.000213197337021
0.000358428345033
0.00018132032822
0.000290918341342
0.000159817147731
0.000233402178268
0.000139015043109
0.000197445918133
0.000120235129372
0.000166240859912
0.000105006216115
0.000137839491917
9.10441132059e-05
0.000116353416307
7.77560819321e-05
9.8310153432e-05
6.52147532096e-05
8.80251217849e-05
5.39260155513e-05
7.81364794106e-05
4.38782572444e-05
6.94764714226e-05
3.32504069216e-05
6.32011994277e-05
2.3920877688e-05
5.76687223937e-05
1.54035358464e-05
5.20599858289e-05
1.04984552471e-05
4.80294549501e-05
7.3435393803e-06
4.77000528964e-05
3.81125426113e-06
4.64545221484e-05
1.78195055491e-06
4.39267759687e-05
4.22960558462e-05
0.000956166568276
-0.00639224166675
0.00196646703555
-0.00675577219448
0.00297196601819
-0.00672675847591
0.00396766547182
-0.00666592477516
0.00495033992072
-0.00658493093953
0.00591696879739
-0.0064849200979
0.00686471716614
-0.00636688176397
0.00779095813294
-0.00623193389737
0.00869329134394
-0.00608130541301
0.00956955639896
-0.00591630650446
0.0104178406288
-0.00573829811163
0.0112364815794
-0.00554866103343
0.0120240638767
-0.00534876556532
0.0127794109119
-0.00513994174255
0.013501571005
-0.00492345109275
0.0141897986798
-0.00470046010538
0.0148435308954
-0.00447201672699
0.015462359391
-0.00423903035222
0.0160459994891
-0.00400225690774
0.0165942572258
-0.00376228936818
0.0171069956267
-0.00351955495669
0.0175841023801
-0.00327431851795
0.0180254596154
-0.0030266923236
0.0184309176359
-0.00277665061015
0.0188002724352
-0.0025240482238
0.0191332478884
-0.00226864117396
0.0194294814646
-0.00201010870226
0.019688513804
-0.0017480754911
0.019909780925
-0.00148213491427
0.0200926099276
-0.00121187321195
0.0202362179999
-0.000936897397086
0.0203397159983
-0.000656862534671
0.0204021181121
-0.000371506975383
0.0204223592482
-8.06898654977e-05
0.0203993209699
0.000215569957446
0.0203318678125
0.000517054482711
0.0202188936726
0.000823309211028
0.0200593785066
0.00113361230987
0.0198524529978
0.00144695395245
0.019597468568
0.00176203119211
0.0192940671649
0.00207726250249
0.0189422444399
0.00239082637156
0.0185423973848
0.00270072535
0.0180953474895
0.00300487471099
0.0176023300982
0.00330120935476
0.0170649435087
0.00358779807233
0.016485054712
0.00386294824954
0.0158646640928
0.00412528025533
0.0152057376543
0.00437374871601
0.0145100200003
0.00460758372834
0.0137788565728
0.00482612285409
0.0130130697073
0.00502848131479
0.0122129911005
0.00521299865907
0.0113788304384
0.00537636781004
0.0105116819164
0.00551240485226
0.00961557788348
0.00561061804676
0.00870065828413
0.00565549581102
0.00778648665046
0.00562867784505
0.00689853208625
0.00552147998321
0.0060394836382
0.00536870056021
0.00522520177776
0.00515854036642
0.00442175430423
0.00496109790237
0.00367507556666
0.00466599985697
0.00285661633478
0.00449293521616
0.00220967249661
0.00392680469983
0.00177774892177
0.00325916588508
0.00150337560684
0.00268640415097
0.00130268883747
0.00228384541548
0.00106766926112
0.00208686813944
0.000763048845599
0.00196735875581
0.000524924524701
0.00166061763332
0.000374650421837
0.00131648299135
0.000299184739883
0.00100485943565
0.000278348850505
0.000755221107451
0.000262507787756
0.00061486311224
0.000228203827357
0.000539231969687
0.00018635047209
0.000470056247765
0.000147212674876
0.000397497747266
0.000125311163245
0.000312759624239
0.000121290654708
0.000237361587903
0.000107459115167
0.000211217649959
9.23111999973e-05
0.000181331805981
8.27288132057e-05
0.000147365301718
7.15557425394e-05
0.000127468855002
5.89633552424e-05
0.0001108427319
4.84929056767e-05
9.84308561646e-05
3.75124255543e-05
8.90488011069e-05
2.79025425198e-05
7.90135784997e-05
1.93067691049e-05
7.17199660441e-05
1.27722183221e-05
6.41236360541e-05
6.56938153051e-06
5.81812144145e-05
2.05660337964e-06
5.24607858847e-05
1.23438496827e-06
4.84399450054e-05
1.69999983618e-07
4.74370705275e-05
-5.18550018678e-08
4.40679308211e-05
4.22018799292e-05
0.000976009228027
-0.00736826803092
0.0020071009855
-0.00778688239992
0.00303300161556
-0.00775267706101
0.00404847699984
-0.00768141851156
0.00505011806865
-0.00758659042827
0.00603474109672
-0.00746956185232
0.00699937283776
-0.00733153248209
0.00794127555742
-0.00717385592842
0.00885796766984
-0.00699801715732
0.00974723789918
-0.00680559674249
0.0106071534379
-0.00659823401229
0.0114360619556
-0.00637759031818
0.012232587854
-0.00614531259214
0.0129956224469
-0.00590299787553
0.0137243083686
-0.00565215890182
0.0144180178167
-0.00539419183888
0.0150763252654
-0.00513034677626
0.0156989747523
-0.00486170280703
0.0162858432883
-0.00458914868116
0.0168369014007
-0.00431337104365
0.0173521733227
-0.00403485065873
0.0178316983447
-0.003753867598
0.0182754959116
-0.0034705141117
0.0186835352693
-0.0031847144207
0.0190557110133
-0.00289624853615
0.0193918236649
-0.00260477858651
0.0196915651151
-0.00230987499427
0.019954507057
-0.00201104244306
0.0201800921973
-0.00170774513146
0.0203676272451
-0.00139943350111
0.0205162791987
-0.00108557467021
0.0206250749385
-0.000765683780439
0.0206929080738
-0.000439365737542
0.0207185538038
-0.000106361462865
0.0207006950471
0.000233402650292
0.0206379610636
0.000579762076113
0.020528980454
0.000932263127706
0.0203724480948
0.00129011753428
0.0201672053384
0.00165216913819
0.019912329496
0.0020168788783
0.019607227323
0.00238233591906
0.0192517230138
0.0027463011593
0.0188461296243
0.00310628843272
0.0183912894556
0.0034596836465
0.0178885698249
0.00380389678905
0.0173398018005
0.00413653288526
0.0167471551604
0.00445556051328
0.016112949362
0.00475945070735
0.0154394044593
0.00504725667256
0.0147283420567
0.00531860858941
0.0139808423358
0.00557358312278
0.0131968954402
0.00581238846964
0.0123751282413
0.0060347250042
0.0115128628966
0.0062385915571
0.0106070693265
0.00641815654604
0.00965738960667
0.00656025261581
0.00867278327988
0.00664005617261
0.00768405124753
0.00661736310755
0.00674534817155
0.00646013945923
0.00583819677039
0.00627581623185
0.0050151689796
0.00598153265297
0.00414855411712
0.0058276627186
0.00344148271257
0.00537301713569
0.00233228085063
0.005602082881
0.00159561667946
0.00466340249008
0.00124540572136
0.00360933092294
0.00114625203424
0.00278550197722
0.0011687321503
0.00226132640727
0.00107531586437
0.00218023548797
0.000658366668408
0.00238423545184
0.000380760459644
0.00193810731766
0.000225355076952
0.00147176788379
0.000150760791929
0.00107930170573
0.000174612655253
0.000731282219033
0.000202988236287
0.000586393227673
0.00017324264263
0.000568918717997
0.000125955838084
0.000517267364888
7.64225965376e-05
0.000446971046289
6.13596942081e-05
0.000327758164902
8.9604329712e-05
0.000209049270445
7.82889577717e-05
0.000222474016982
6.07651676696e-05
0.000198797069441
6.04859405551e-05
0.000147586003944
5.04122444334e-05
0.000137483233851
3.77211652302e-05
0.000123470085922
2.94601632105e-05
0.00010662416332
1.97170700088e-05
9.87200198761e-05
1.17221036739e-05
8.69334914102e-05
5.89340145946e-06
7.74712534341e-05
2.90093450684e-07
6.96478371414e-05
-2.64002377946e-06
6.10319068681e-05
-4.80022624335e-06
5.45421357301e-05
-5.0089122976e-06
4.85728580229e-05
-3.49469678459e-06
4.58466626806e-05
-1.91693106615e-06
4.24146080994e-05
4.02469174223e-05
0.000999252801951
-0.00836753888247
0.00205469967461
-0.00884234747261
0.00310448290714
-0.00880247937095
0.00414308183921
-0.00872003640434
0.00516686312509
-0.00861039103936
0.00617244706307
-0.00847516530918
0.00715669499255
-0.00831580026776
0.00811673787012
-0.00813391897334
0.00904999847238
-0.00793129830784
0.00995420654275
-0.00770982572256
0.0108274068819
-0.00747145567934
0.0116679611212
-0.00721816626336
0.0124745430097
-0.00695191661929
0.0132461275188
-0.00667460489068
0.0139819730376
-0.0063880273492
0.0146815968247
-0.00609383888779
0.015344743095
-0.00579351669934
0.015971344754
-0.00548832840017
0.0165614792891
-0.00517930749366
0.0171153214542
-0.00486723770444
0.0176330946494
-0.00455264863581
0.0181150247495
-0.00423582263117
0.018561298389
-0.00391681291124
0.0189720286077
-0.00359546988679
0.0193472278055
-0.00327147315497
0.0196867882952
-0.00294436453234
0.019990467736
-0.00261358002557
0.0202578780979
-0.00227847839905
0.0204884752835
-0.0019383680278
0.0206815496177
-0.00159253354734
0.0208362171798
-0.00124026807158
0.0209514142002
-0.000880906673339
0.0210258980323
-0.00051387561382
0.0210582580353
-0.000138747615603
0.0210469393012
0.000244694984296
0.0209902831252
0.0006363916391
0.0208865858275
0.0010359334554
0.0207341779743
0.00144249807183
0.0205315229378
0.00185479637519
0.0202773324092
0.00227104110858
0.0199706918686
0.00268894752577
0.0196111854959
0.00310577794328
0.0191990043605
0.00351843921144
0.0187350182141
0.00392363865958
0.0182207887523
0.00431809428926
0.0176585048982
0.00469878389803
0.0170508277546
0.00506320400146
0.016400642288
0.00540960130378
0.0157107212961
0.00573714221183
0.0149832951308
0.00604599759642
0.0142195120248
0.00633732879866
0.0134187462929
0.00661311593356
0.0125777526683
0.00687567972621
0.0116898072382
0.00712649747461
0.0107445041853
0.0073634151245
0.00973050086866
0.00757420881376
0.00864614188964
0.00772436727219
0.00754136988933
0.00772209170498
0.00655423600316
0.00744723507323
0.00557295162298
0.00725705460794
0.00482804652554
0.00672639219283
0.00387958452219
0.00677607963347
0.00393116318479
0.0053213815707
0.00195702142999
0.00757609767365
0.00114171391915
0.00547855838975
0.00106921400522
0.00368167145001
0.0013096942548
0.00254489311418
0.00214992977063
0.00142095490155
0.00414907523052
0.000180944667883
0.00638351395773
0.000149535698975
0.00717969012833
0.00114162333122
0.00630296165183
0.00234808974999
0.00437283304567
0.00300911971936
0.00242338422914
0.00268045044932
0.00127305774773
0.00173651971669
0.000805562464565
0.0010362064382
0.000531781858226
0.000790857575906
0.000290674180352
0.000687890085509
0.000122353562053
0.000495886110508
0.00012269520858
0.000208617461583
6.96399055968e-05
0.000275465686506
2.46915745522e-05
0.000243684417944
4.51056874003e-05
0.000127110445603
3.04065242516e-05