/*--------------------------------*- C++ -*----------------------------------*\
| =========                 |                                                 |
| \\      /  F ield         | OpenFOAM: The Open Source CFD Toolbox           |
|  \\    /   O peration     | Version:  v1906                                 |
|   \\  /    A nd           | Web:      www.OpenFOAM.com                      |
|    \\/     M anipulation  |                                                 |
\*---------------------------------------------------------------------------*/
FoamFile
{
    version     2.0;
    format      ascii;
    class       volVectorField;
    location    "619";
    object      Ua;
}
// * * * * * * * * * * * * * * * * * * * * * * * * * * * * * * * * * * * * * //

dimensions      [0 1 -1 0 0 0 0];


internalField   nonuniform List<vector> 
9216
(
(-0.0103641032818 0.0103713559796 0)
(-0.010937233594 0.0334720853841 3.91496330548e-27)
(-0.0109333528644 0.0569292121094 -7.07835680419e-31)
(-0.0108308233005 0.0803936100394 0)
(-0.0106847766196 0.103468249002 0)
(-0.0104992648811 0.126058887747 0)
(-0.0102789677875 0.148064114668 0)
(-0.0100270224132 0.169391900022 0)
(-0.00974647531739 0.189959460514 0)
(-0.00944017457389 0.209693498267 0)
(-0.00911120739806 0.228530263631 0)
(-0.00876245044541 0.246415767704 0)
(-0.00839699364418 0.263305618198 0)
(-0.00801760075452 0.279164915256 0)
(-0.00762720209149 0.293967791965 0)
(-0.00722829971057 0.307697044946 0)
(-0.00682353906884 0.32034346831 0)
(-0.0064150662605 0.331905320824 0)
(-0.00600517602352 0.342387560265 0)
(-0.00559562365207 0.351801248581 0)
(-0.00518834340958 0.360162778736 0)
(-0.0047847143738 0.367493296462 0)
(-0.00438634000127 0.373817986034 0)
(-0.00399426690504 0.379165557885 0)
(-0.00360981639409 0.38356762575 0)
(-0.00323375520971 0.387058276866 0)
(-0.00286717039837 0.389673547246 0)
(-0.00251059470972 0.391451071204 0)
(-0.00216492031144 0.392429645309 0)
(-0.0018304873178 0.392648950717 0)
(-0.0015080405431 0.392149145434 0)
(-0.00119767715414 0.390970895291 0)
(-0.000899903401938 0.389154487647 0)
(-0.000614730759221 0.3867399997 0)
(-0.00034260480721 0.383767152441 0)
(-8.33782911535e-05 0.380275041317 0)
(0.000162655696435 0.376301959007 0)
(0.000395782594109 0.371885266213 0)
(0.000615828086084 0.36706124289 0)
(0.000823193420559 0.361864993402 0)
(0.00101780721678 0.356330341298 0)
(0.00120016899938 0.350489758541 0)
(0.00137029564915 0.344374299709 0)
(0.00152876720702 0.338013552733 0)
(0.00167567233944 0.33143560832 0)
(0.00181165192023 0.324667029133 0)
(0.00193684883523 0.317732853055 0)
(0.00205194421177 0.310656579861 0)
(0.0021571160446 0.303460204851 0)
(0.00225306422518 0.296164220182 0)
(0.00233998323625 0.288787676919 0)
(0.0024185714999 0.281348199077 0)
(0.00248902245185 0.273862069075 0)
(0.00255201487346 0.26634424993 0)
(0.00260772717354 0.258808490001 0)
(0.00265680464729 0.251267349276 0)
(0.0026994007164 0.243732316476 0)
(0.00273611800091 0.236213833306 0)
(0.00276708054787 0.228721418527 0)
(0.00279284484339 0.221263685449 0)
(0.00281350596118 0.213848466113 0)
(0.00282957548728 0.206482816673 0)
(0.00284112471842 0.199173137604 0)
(0.00284862583987 0.191925164178 0)
(0.00285213436186 0.184744078466 0)
(0.00285209076518 0.177634482613 0)
(0.00284854460887 0.170600501754 0)
(0.00284191344721 0.163645740644 0)
(0.00283225033617 0.156773376839 0)
(0.00281995773946 0.149986101816 0)
(0.00280510045291 0.143286206594 0)
(0.00278807199194 0.136675510588 0)
(0.00276895443806 0.130155441564 0)
(0.00274813566137 0.123726955325 0)
(0.00272571784839 0.117390613574 0)
(0.00270208376557 0.111146498494 0)
(0.00267735532553 0.104994291049 0)
(0.00265190778762 0.0989331836514 0)
(0.00262587986471 0.0929619621452 0)
(0.0025996345871 0.0870789198312 0)
(0.00257332210544 0.0812819450963 0)
(0.00254728632694 0.0755684391026 0)
(0.00252168147845 0.0699354116296 0)
(0.00249682307734 0.0643794052755 0)
(0.00247285839875 0.058896602719 0)
(0.0024500588276 0.0534827636217 0)
(0.00242854013072 0.0481333557492 0)
(0.00240848270143 0.0428435325638 0)
(0.00238986986344 0.0376083517031 0)
(0.00237254741733 0.0324229567416 0)
(0.00235573750602 0.0272832618074 0)
(0.00233730274828 0.0221875343104 0)
(0.00231125539166 0.0171412604748 0)
(0.00225076410769 0.0121992023998 0)
(0.00213783926735 0.00697690891091 0)
(0.00310482053693 0.00310496698202 0)
(-0.0335506177208 0.0110306818356 0)
(-0.0370876194352 0.0373749869611 0)
(-0.0370003682704 0.063646721609 -4.10977650105e-27)
(-0.0364979374282 0.0899507500664 0)
(-0.0357999559656 0.115783348723 0)
(-0.0349330130865 0.14105969003 0)
(-0.0339120956878 0.165672028416 0)
(-0.032751366691 0.189519037817 0)
(-0.0314657967474 0.21250857496 0)
(-0.0300706267127 0.234558817673 0)
(-0.0285817378503 0.255598692345 0)
(-0.0270147357594 0.275568119377 0)
(-0.0253853604257 0.294417920109 0)
(-0.0237084924553 0.312109611478 0)
(-0.0219987264451 0.328614941741 0)
(-0.0202693609284 0.343915377611 0)
(-0.0185331555161 0.358001402339 0)
(-0.0168013155926 0.370871825637 0)
(-0.0150844237902 0.382532970619 0)
(-0.0133914124142 0.392997924501 0)
(-0.0117306459619 0.402285721114 0)
(-0.0101088638474 0.410420623654 0)
(-0.0085323821667 0.417431376823 0)
(-0.00700598632157 0.423350575872 0)
(-0.0055342205128 0.428214023631 0)
(-0.00412021373611 0.432060203052 0)
(-0.00276703216158 0.434929741863 0)
(-0.00147643330902 0.436864979698 0)
(-0.000250268541528 0.43790952396 0)
(0.000910827971532 0.438107886626 0)
(0.00200598310853 0.437505145639 0)
(0.00303551695972 0.436146422193 0)
(0.00399946692219 0.434077091634 0)
(0.00489889655214 0.431342267834 0)
(0.00573441900933 0.427986429996 0)
(0.00650769131523 0.424053327945 0)
(0.00721986392863 0.419585783389 0)
(0.0078730663268 0.41462554368 0)
(0.00846884507791 0.409213135714 0)
(0.00900967455422 0.403387750841 0)
(0.00949738421314 0.397187138554 0)
(0.00993468443278 0.390647523105 0)
(0.010323589366 0.383803534399 0)
(0.0106669490342 0.376688153304 0)
(0.0109668739787 0.369332676554 0)
(0.0112262661376 0.36176668831 0)
(0.0114472524691 0.354018056891 0)
(0.0116327071129 0.346112930613 0)
(0.0117847007127 0.338075763791 0)
(0.0119060078067 0.3299293345 0)
(0.0119985793951 0.321694797055 0)
(0.0120650294457 0.313391718537 0)
(0.0121071375258 0.305038153371 0)
(0.012127309414 0.296650694064 0)
(0.0121271168834 0.288244562624 0)
(0.0121087269111 0.279833669867 0)
(0.0120734844361 0.271430716953 0)
(0.0120233052344 0.263047256728 0)
(0.0119593072079 0.254693798662 0)
(0.0118831611984 0.24637986582 0)
(0.011795774889 0.238114096473 0)
(0.0116985962663 0.229904290946 0)
(0.0115923539065 0.221757504759 0)
(0.0114783072132 0.213680081279 0)
(0.0113570457009 0.205677732606 0)
(0.0112296808622 0.197755555716 0)
(0.0110967070941 0.189918099756 0)
(0.0109591299566 0.182169365566 0)
(0.0108173907384 0.174512859623 0)
(0.0106724269329 0.166951578488 0)
(0.0105246627958 0.159488051649 0)
(0.0103749981293 0.152124313959 0)
(0.0102238668654 0.14486194038 0)
(0.0100721513846 0.137702010119 0)
(0.00992031155256 0.130645137128 0)
(0.0097692220988 0.12369143003 0)
(0.0096193742727 0.116840521924 0)
(0.00947163468231 0.110091529772 0)
(0.00932652193666 0.103443086972 0)
(0.00918488540704 0.0968933054807 0)
(0.00904725881407 0.090439813731 0)
(0.00891445767526 0.084079723932 0)
(0.0087870114523 0.0778096775957 0)
(0.00866567747578 0.0716258201532 0)
(0.00855095130125 0.0655238558916 0)
(0.00844349140811 0.0594990318786 0)
(0.0083436992628 0.0535462040494 0)
(0.00825203099006 0.0476598296639 0)
(0.00816859554992 0.0418340292544 0)
(0.00809322924577 0.036062522837 0)
(0.00802480764709 0.0303384412793 0)
(0.00796037084459 0.0246534168897 0)
(0.00789207797709 0.0189939755409 0)
(0.00779774631317 0.0133301212933 0)
(0.00755855694385 0.00754235046781 0)
(0.00697190090034 0.00213228025066 0)
(-0.0574385204213 0.0111778526336 0)
(-0.0635891698489 0.0379915512546 0)
(-0.063370927984 0.0645952216754 -4.11352069789e-27)
(-0.0624997995776 0.0912824525141 0)
(-0.061318245199 0.117487045889 0)
(-0.0598602601713 0.143118799235 0)
(-0.0581465985248 0.168066131345 0)
(-0.056199606352 0.192225409572 0)
(-0.0540435993925 0.215502803625 0)
(-0.0517040367563 0.237815292145 0)
(-0.0492071739254 0.259091095237 0)
(-0.0465792475537 0.279269867533 0)
(-0.0438462619952 0.298302599602 0)
(-0.0410332488076 0.316151332347 0)
(-0.0381642306164 0.332788665056 0)
(-0.0352615895521 0.348197152024 0)
(-0.032346223164 0.362368567734 0)
(-0.0294370250178 0.37530313006 0)
(-0.0265512192724 0.387008660347 0)
(-0.0237039332237 0.397499760752 0)
(-0.0209086766726 0.406796982987 0)
(-0.0181769692586 0.414926056478 0)
(-0.0155189177417 0.421917143037 0)
(-0.0129428541205 0.427804170877 0)
(-0.0104559635002 0.432624207683 0)
(-0.00806389612976 0.436416912601 0)
(-0.00577141212858 0.439224023805 0)
(-0.00358194925819 0.441088912652 0)
(-0.00149827045026 0.442056163229 0)
(0.000478014013079 0.442171203992 0)
(0.00234580442461 0.441479972744 0)
(0.00410501334269 0.440028587036 0)
(0.00575584860524 0.437863067388 0)
(0.00729943958579 0.435029115745 0)
(0.00873714827054 0.43157185324 0)
(0.0100711047442 0.427535622434 0)
(0.0113035391245 0.422963800454 0)
(0.0124373566352 0.417898643497 0)
(0.0134754608939 0.412381145996 0)
(0.0144213410724 0.406450923238 0)
(0.015278394071 0.400146108589 0)
(0.0160505211245 0.393503270026 0)
(0.0167414510938 0.386557342052 0)
(0.0173553421686 0.379341573095 0)
(0.0178961080986 0.371887488898 0)
(0.0183680212383 0.364224868297 0)
(0.0187750442189 0.356381736508 0)
(0.0191214312841 0.348384367713 0)
(0.0194110685374 0.340257305865 0)
(0.0196480716542 0.332023391756 0)
(0.0198361386154 0.32370380908 0)
(0.0199791424344 0.315318132983 0)
(0.0200805004605 0.306884396981 0)
(0.0201437612568 0.298419158133 0)
(0.0201719944804 0.289937579703 0)
(0.0201683706808 0.281453507069 0)
(0.0201355749397 0.27297955902 0)
(0.0200763779234 0.264527207255 0)
(0.0199930755434 0.256106869472 0)
(0.0198880485945 0.247727985614 0)
(0.0197632294363 0.239399105573 0)
(0.0196206469175 0.231127955872 0)
(0.019461920202 0.222921516814 0)
(0.0192887849692 0.214786075233 0)
(0.0191026137229 0.206727287156 0)
(0.0189049192407 0.198750214069 0)
(0.0186969005449 0.190859370004 0)
(0.018479919652 0.183058741246 0)
(0.0182550723931 0.175351818251 0)
(0.0180236352174 0.167741600396 0)
(0.0177866605512 0.160230615448 0)
(0.0175453910482 0.152820912634 0)
(0.0173008796267 0.145514072948 0)
(0.0170543695185 0.138311194425 0)
(0.0168069397703 0.131212897583 0)
(0.0165598500867 0.124219307157 0)
(0.01631421294 0.117330056435 0)
(0.0160713028984 0.110544269218 0)
(0.0158322568391 0.103860566744 0)
(0.0155983476872 0.0972770531173 0)
(0.0153707141596 0.0907913273463 0)
(0.0151505989109 0.0844004744709 0)
(0.0149391088978 0.0781010846007 0)
(0.0147374171075 0.0718892509368 0)
(0.0145465530838 0.0657605958618 0)
(0.0143675649036 0.0597102744979 0)
(0.0142013348384 0.0537330033281 0)
(0.0140486907811 0.0478230565945 0)
(0.0139102310716 0.041974265735 0)
(0.0137863665747 0.0361799315817 0)
(0.0136771604602 0.0304326165233 0)
(0.0135824634863 0.0247235844622 0)
(0.0135022830022 0.0190413439579 0)
(0.0134368220949 0.0133658085392 0)
(0.0133323495764 0.00774023920757 0)
(0.012168563137 0.00223584470639 0)
(-0.0818846707286 0.0113075470027 0)
(-0.090723819996 0.0385715295267 0)
(-0.0904035189533 0.0655215530949 4.11161060744e-27)
(-0.0891453948114 0.0925759903547 0)
(-0.0874417032121 0.119131668731 0)
(-0.0853424836427 0.145093366207 0)
(-0.0828775023769 0.170345176111 0)
(-0.0800789961512 0.194780472057 0)
(-0.0769820496666 0.218303366582 0)
(-0.0736235868904 0.240829589849 0)
(-0.0700415351486 0.262286850428 0)
(-0.0662739014294 0.282614945172 0)
(-0.0623581265684 0.301765591476 0)
(-0.0583303483337 0.319702043566 0)
(-0.0542249868803 0.336398517244 0)
(-0.0500742224878 0.351839481907 0)
(-0.0459078228787 0.366018842742 0)
(-0.0417528309017 0.378939067595 0)
(-0.0376336124747 0.39061027739 0)
(-0.0335717201618 0.401049347158 0)
(-0.02958611308 0.410279029003 0)
(-0.0256931376583 0.418327132242 0)
(-0.0219068511511 0.425225760376 0)
(-0.0182390495456 0.431010625413 0)
(-0.0146996254495 0.435720427191 0)
(-0.0112965840398 0.439396305636 0)
(-0.00803638818619 0.442081346496 0)
(-0.00492393364353 0.44382014292 0)
(-0.00196286678778 0.444658394194 0)
(0.000844480956515 0.444642544943 0)
(0.00349679830987 0.443819452462 0)
(0.00599389290241 0.442236115009 0)
(0.00833633445404 0.439939278784 0)
(0.0105256558028 0.436975325115 0)
(0.0125640333652 0.433389985946 0)
(0.0144544013148 0.429228144913 0)
(0.016200172129 0.424533660016 0)
(0.0178053707886 0.419349207948 0)
(0.0192743596953 0.41371614789 0)
(0.0206119832101 0.40767440577 0)
(0.021823298179 0.401262375395 0)
(0.0229137268702 0.394516836959 0)
(0.0238887924298 0.387472891154 0)
(0.0247542771239 0.380163908475 0)
(0.025515961877 0.372621493721 0)
(0.026179787652 0.364875464279 0)
(0.0267515993426 0.356953843553 0)
(0.0272373090798 0.348882866864 0)
(0.027642645883 0.340687002388 0)
(0.0279733213032 0.332388983049 0)
(0.0282347875075 0.324009852735 0)
(0.0284324063608 0.31556902116 0)
(0.0285712190894 0.30708433147 0)
(0.0286561205278 0.298572133387 0)
(0.0286916434974 0.290047366569 0)
(0.0286821392215 0.281523645532 0)
(0.0286315785382 0.273013351559 0)
(0.0285437386606 0.264527721891 0)
(0.0284220220619 0.256076942454 0)
(0.0282696480702 0.247670233592 0)
(0.0280894886046 0.239315936218 0)
(0.0278842619788 0.231021587415 0)
(0.027656383473 0.222793994144 0)
(0.0274081574901 0.214639293811 0)
(0.0271416400266 0.206563011717 0)
(0.0268588251382 0.198570104099 0)
(0.0265615162639 0.190664998059 0)
(0.0262515029166 0.182851616973 0)
(0.0259304380787 0.175133403839 0)
(0.0256000019219 0.16751333111 0)
(0.025261783348 0.159993910371 0)
(0.0249174283425 0.152577190127 0)
(0.0245685246335 0.14526475578 0)
(0.024216733544 0.138057719758 0)
(0.0238636777809 0.130956716308 0)
(0.023511056463 0.123961888445 0)
(0.0231605367824 0.117072881823 0)
(0.0228138527722 0.110288832546 0)
(0.0224727021558 0.103608363843 0)
(0.0221388297024 0.0970295779682 0)
(0.0218139307232 0.090550058331 0)
(0.0214997200335 0.0841668676189 0)
(0.0211978433954 0.0778765568345 0)
(0.0209099325818 0.0716751702541 0)
(0.0206375253276 0.0655582606789 0)
(0.0203821061816 0.0595208986925 0)
(0.0201450348002 0.0535576884643 0)
(0.0199275730055 0.0476627697364 0)
(0.0197308272823 0.0418298112263 0)
(0.0195557859316 0.0360519636893 0)
(0.0194033493764 0.0303217786114 0)
(0.0192745722118 0.0246310327942 0)
(0.0191710039145 0.0189705259153 0)
(0.0190916110831 0.0133254675875 0)
(0.0189469510759 0.00777122166157 0)
(0.0170527628578 0.00228182615344 0)
(-0.106731309198 0.011474329962 0)
(-0.118266559305 0.0393321079905 0)
(-0.11783784762 0.0667612866407 0)
(-0.116177406319 0.0943081460593 0)
(-0.113929870118 0.121331964807 0)
(-0.111162504786 0.147732017722 0)
(-0.107915416527 0.173387141757 0)
(-0.104231836738 0.198186753658 0)
(-0.100158641748 0.222032205655 0)
(-0.0957450975392 0.244837593601 0)
(-0.0910416469426 0.266530022517 0)
(-0.086098755345 0.28704960537 0)
(-0.0809659480513 0.306349178144 0)
(-0.0756909369108 0.324393783292 0)
(-0.0703189674946 0.341159963408 0)
(-0.0648922562731 0.356634915845 0)
(-0.059449654491 0.37081554777 0)
(-0.0540263835732 0.383707478248 0)
(-0.048653984857 0.395324021982 0)
(-0.0433603049166 0.405685194057 0)
(-0.0381696646943 0.414816761014 0)
(-0.0331030123899 0.422749364826 0)
(-0.0281782166063 0.429517730019 0)
(-0.0234102859539 0.435159962892 0)
(-0.0188116879677 0.439716936268 0)
(-0.0143925506442 0.443231753972 0)
(-0.0101609429638 0.445749278973 0)
(-0.00612302021525 0.447315714762 0)
(-0.00228325231888 0.447978225459 0)
(0.00135548057329 0.447784589073 0)
(0.00479169485533 0.446782874226 0)
(0.00802526375584 0.445021198019 0)
(0.0110571284105 0.442547272088 0)
(0.0138893736658 0.439408392983 0)
(0.0165250016109 0.43565109259 0)
(0.0189678912067 0.431320963839 0)
(0.021222636543 0.426462488973 0)
(0.0232945154892 0.421118888248 0)
(0.0251893393004 0.415331989177 0)
(0.0269134335722 0.409142114918 0)
(0.0284734977874 0.402587989646 0)
(0.0298765957988 0.395706660206 0)
(0.0311300226239 0.388533433071 0)
(0.032241301124 0.38110182604 0)
(0.0332180537286 0.373443534494 0)
(0.0340680030749 0.365588411781 0)
(0.0347988478207 0.357564464142 0)
(0.035418266766 0.349397859335 0)
(0.0359337998255 0.341112949496 0)
(0.0363528570388 0.332732306928 0)
(0.0366826073795 0.324276773329 0)
(0.0369299953847 0.315765520213 0)
(0.037101641437 0.307216120734 0)
(0.0372038692283 0.298644629868 0)
(0.0372426209816 0.290065672987 0)
(0.0372234982528 0.281492538896 0)
(0.0371516943797 0.272937277228 0)
(0.0370320495742 0.264410795906 0)
(0.0368690009381 0.255922958826 0)
(0.0366666506985 0.247482679232 0)
(0.0364287320562 0.239098009402 0)
(0.0361586875086 0.230776222426 0)
(0.0358596470235 0.222523887496 0)
(0.0355345119447 0.214346934798 0)
(0.03518594095 0.206250712278 0)
(0.0348164344716 0.19824003099 0)
(0.0344283236724 0.190319202216 0)
(0.0340238504981 0.182492063445 0)
(0.0336051554862 0.174761997148 0)
(0.0331743495208 0.167131939858 0)
(0.0327334974126 0.1596043861 0)
(0.032284678716 0.152181384758 0)
(0.0318299654229 0.144864532718 0)
(0.0313714706808 0.137654963427 0)
(0.0309113203061 0.130553335373 0)
(0.0304516894853 0.123559817823 0)
(0.0299947689246 0.116674078775 0)
(0.0295427906083 0.109895272227 0)
(0.0290979901422 0.103222029579 0)
(0.0286626231648 0.0966524518131 0)
(0.0282389257857 0.0901841070482 0)
(0.0278291234597 0.0838140297008 0)
(0.0274353914417 0.0775387255558 0)
(0.0270598578153 0.0713541783687 0)
(0.0267045658113 0.0652558616929 0)
(0.026371473003 0.059238750843 0)
(0.0260624186775 0.0532973376922 0)
(0.0257791251447 0.0474256413403 0)
(0.0255231833224 0.0416172177082 0)
(0.0252960847297 0.0358651605635 0)
(0.0250992838697 0.0301621147392 0)
(0.024934356636 0.0245003083919 0)
(0.0248029513994 0.0188717267253 0)
(0.0247009370771 0.0132631204336 0)
(0.0245052499547 0.0077541074181 0)
(0.0219944997255 0.00228835151843 0)
(-0.132118531095 0.0116825341284 0)
(-0.146392363951 0.0403009754575 0)
(-0.145842747919 0.0683492567776 0)
(-0.143756443234 0.0965283006374 0)
(-0.140933902732 0.124151194028 0)
(-0.13746076108 0.15111063526 0)
(-0.133388814533 0.177279086169 0)
(-0.128773652415 0.202541064416 0)
(-0.123675275748 0.226794517254 0)
(-0.118156519295 0.249951590753 0)
(-0.112281474043 0.271938782467 0)
(-0.106114040493 0.292696795752 0)
(-0.0997166812286 0.312180091655 0)
(-0.0931493549907 0.330356196034 0)
(-0.0864686756021 0.347204814183 0)
(-0.0797272565371 0.362716806266 0)
(-0.0729732770826 0.376893071204 0)
(-0.066250216307 0.389743387376 0)
(-0.0595967851154 0.401285252745 0)
(-0.0530469871018 0.411542766026 0)
(-0.0466303304298 0.420545581675 0)
(-0.040372105925 0.42832796563 0)
(-0.0342937492567 0.434927965274 0)
(-0.0284131963877 0.440386697773 0)
(-0.022745259216 0.444747747322 0)
(-0.0173019404331 0.448056655725 0)
(-0.0120927367046 0.450360484307 0)
(-0.00712486651327 0.451707427691 0)
(-0.00240349224781 0.45214646217 0)
(0.00206811891754 0.451727018221 0)
(0.00628841560534 0.450498671298 0)
(0.0102574793989 0.448510933553 0)
(0.0139767107639 0.445812717216 0)
(0.0174488829495 0.442452461764 0)
(0.0206779068916 0.438477692924 0)
(0.0236687310678 0.43393488661 0)
(0.0264271998975 0.428869299976 0)
(0.0289599568563 0.423324827133 0)
(0.0312743189781 0.417343875205 0)
(0.0333781956262 0.410967258594 0)
(0.0352799765362 0.404234109594 0)
(0.0369884621934 0.397181804203 0)
(0.0385127609305 0.38984590238 0)
(0.0398622262954 0.382260102337 0)
(0.0410463594652 0.37445620894 0)
(0.0420747507967 0.366464116148 0)
(0.0429569861216 0.358311803855 0)
(0.0437025921088 0.350025349025 0)
(0.0443209475524 0.341628951444 0)
(0.0448212347783 0.333144973524 0)
(0.045212359348 0.324593994065 0)
(0.0455029115255 0.315994874663 0)
(0.0457010990812 0.307364838076 0)
(0.0458147235443 0.298719556375 0)
(0.0458511306781 0.29007324757 0)
(0.0458172052353 0.281438777821 0)
(0.0457193420032 0.272827767569 0)
(0.0455634606738 0.264250698347 0)
(0.0453549977947 0.255717018587 0)
(0.0450989404846 0.247235245239 0)
(0.0447998367833 0.23881305994 0)
(0.0444618443968 0.230457397 0)
(0.0440887546612 0.222174522625 0)
(0.0436840505638 0.213970103322 0)
(0.0432509381568 0.205849263807 0)
(0.0427924073958 0.197816633113 0)
(0.042311264652 0.189876380099 0)
(0.0418101901721 0.182032237738 0)
(0.0412917661217 0.174287518123 0)
(0.0407585257727 0.16664511812 0)
(0.0402129730825 0.159107518055 0)
(0.0396576204165 0.151676773674 0)
(0.0390949975146 0.144354503974 0)
(0.0385276765057 0.137141875194 0)
(0.0379582699308 0.130039583566 0)
(0.0373894433992 0.123047836924 0)
(0.0368239037586 0.11616633762 0)
(0.036264401 0.10939426655 0)
(0.0357137086282 0.102730270461 0)
(0.0351746170854 0.0961724519771 0)
(0.0346499088389 0.0897183641679 0)
(0.0341423459249 0.0833650087136 0)
(0.0336546424269 0.0771088390775 0)
(0.0331894488034 0.070945767349 0)
(0.0327493246438 0.064871175645 0)
(0.032336723118 0.0588799304371 0)
(0.0319539685339 0.0529664004559 0)
(0.031603247771 0.0471244769103 0)
(0.0312866039312 0.0413475976332 0)
(0.0310059536944 0.0356287781318 0)
(0.0307631240741 0.0299606773731 0)
(0.0305599021276 0.0243356746646 0)
(0.0303976763875 0.0187460483449 0)
(0.0302696066431 0.0131786024117 0)
(0.0300220724236 0.00771116490217 0)
(0.0269254994975 0.0022822596087 0)
(-0.158180460105 0.0119373526349 0)
(-0.175254140514 0.0414960408129 0)
(-0.174566127198 0.0703100809098 4.13513086902e-27)
(-0.172022377952 0.0992697358913 0)
(-0.168583913246 0.127630593902 0)
(-0.164356223149 0.1552772141 0)
(-0.159404399993 0.182074309752 0)
(-0.153798086803 0.207900510116 0)
(-0.14761209055 0.232649761269 0)
(-0.140924391554 0.256232048165 0)
(-0.133814163482 0.278573396226 0)
(-0.126359990243 0.299615533489 0)
(-0.118638330903 0.319315225665 0)
(-0.110722238554 0.337643354124 0)
(-0.102680346875 0.354583799627 0)
(-0.0945761099683 0.370132189874 0)
(-0.0864672990436 0.384294565015 0)
(-0.0784057314083 0.397086013445 0)
(-0.0704372262193 0.408529328134 0)
(-0.0626017474598 0.41865373096 0)
(-0.0549337126419 0.427493705986 0)
(-0.0474624088346 0.435087972661 0)
(-0.0402124815446 0.441478615219 0)
(-0.0332044317014 0.446710368181 0)
(-0.0264550942662 0.450830041552 0)
(-0.0199780526919 0.453886057684 0)
(-0.0137839928548 0.455928066416 0)
(-0.00788098150048 0.457006607557 0)
(-0.00227470002812 0.457172797869 0)
(0.00303136779469 0.456478024838 0)
(0.00803574219227 0.454973663652 0)
(0.0127388653511 0.45271087704 0)
(0.0171427366675 0.449740028653 0)
(0.0212509517987 0.446110911663 0)
(0.025068455029 0.441872236853 0)
(0.0286013954169 0.437071530301 0)
(0.0318569751611 0.431754968616 0)
(0.034843318247 0.425967244009 0)
(0.0375693395247 0.419751449221 0)
(0.0400446334682 0.413148979483 0)
(0.0422793606167 0.406199449488 0)
(0.0442841503302 0.398940624134 0)
(0.0460699976894 0.391408362445 0)
(0.0476481737207 0.383636574621 0)
(0.0490301274606 0.37565719245 0)
(0.0502273998557 0.367500153605 0)
(0.0512515289473 0.35919340036 0)
(0.0521139671157 0.35076289323 0)
(0.052825990831 0.342232639858 0)
(0.0533986242552 0.333624739243 0)
(0.0538425580299 0.324959441004 0)
(0.0541680847887 0.316255218926 0)
(0.0543850332767 0.30752885754 0)
(0.0545027222046 0.298795549995 0)
(0.0545299158 0.290069005106 0)
(0.0544748012004 0.281361560979 0)
(0.0543449693672 0.272684302488 0)
(0.0541474182604 0.264047179652 0)
(0.0538885595546 0.255459124137 0)
(0.0535742461164 0.246928161039 0)
(0.0532098012672 0.238461513573 0)
(0.0528000656462 0.230065698472 0)
(0.0523494427615 0.221746610527 0)
(0.0518619579247 0.213509594943 0)
(0.0513413121509 0.205359506896 0)
(0.0507909449099 0.197300757994 0)
(0.0502140882152 0.189337349997 0)
(0.0496138254285 0.181472896345 0)
(0.0489931385156 0.17371063264 0)
(0.0483549567996 0.166053417281 0)
(0.0477021924053 0.158503723916 0)
(0.0470377751666 0.151063627211 0)
(0.0463646737241 0.143734783776 0)
(0.0456859152282 0.136518409801 0)
(0.0450045918444 0.129415257167 0)
(0.0443238659618 0.122425589344 0)
(0.0436469636587 0.115549158592 0)
(0.0429771676073 0.108785185439 0)
(0.0423178002004 0.102132341605 0)
(0.0416722071782 0.0955887368981 0)
(0.0410437336819 0.0891519108984 0)
(0.0404357019817 0.0828188295103 0)
(0.0398513839036 0.0765858868166 0)
(0.0392939761348 0.0704489119638 0)
(0.0387665726423 0.0644031811083 0)
(0.03827214148 0.0584434341859 0)
(0.0378135017876 0.0525638966896 0)
(0.0373933077924 0.0467583064398 0)
(0.0370140377486 0.0410199491776 0)
(0.036677993527 0.0353417041392 0)
(0.0363873065899 0.0297161149446 0)
(0.0361439190481 0.0241354717007 0)
(0.0359490392557 0.0185919306993 0)
(0.0357937497087 0.0130718884586 0)
(0.0354955871672 0.00765017884372 0)
(0.031826511922 0.00226950024323 0)
(-0.185063452036 0.0122430222369 0)
(-0.205013767393 0.0429371994881 0)
(-0.204165196952 0.0726740817121 -4.13292927256e-27)
(-0.201123838562 0.102573481759 0)
(-0.19701759869 0.131820596985 0)
(-0.191973917338 0.160289947192 0)
(-0.186073272358 0.187836926286 0)
(-0.179401522396 0.214333240422 0)
(-0.172050398579 0.239668305546 0)
(-0.164115001715 0.263749874336 0)
(-0.155691361766 0.286503822379 0)
(-0.146874278817 0.307873549939 0)
(-0.137755488096 0.327819032966 0)
(-0.128422154115 0.346315609753 0)
(-0.118955692642 0.363352575297 0)
(-0.109430908038 0.378931646806 0)
(-0.099915438704 0.393065358198 0)
(-0.0904694935652 0.405775441194 0)
(-0.0811458642045 0.417091250721 0)
(-0.0719901785917 0.427048292351 0)
(-0.0630413568118 0.435686903498 0)
(-0.0543322061915 0.443051128368 0)
(-0.0458900921757 0.449187806505 0)
(-0.0377376104532 0.454145871091 0)
(-0.0298932051655 0.457975828552 0)
(-0.0223716882702 0.460729373744 0)
(-0.0151846511441 0.462459087879 0)
(-0.00834077332912 0.46321817247 0)
(-0.00184606010097 0.463060188241 0)
(0.00429596779899 0.462038764313 0)
(0.0100840952502 0.460207408154 0)
(0.0155192339911 0.457619062207 0)
(0.0206041897551 0.454325902849 0)
(0.025343534503 0.450379243609 0)
(0.0297433982221 0.445829169849 0)
(0.0338112795845 0.440724415062 0)
(0.0375558725185 0.435112210557 0)
(0.0409869100365 0.429038162274 0)
(0.0441150190158 0.422546147008 0)
(0.0469515903532 0.415678224066 0)
(0.0495086556189 0.408474559876 0)
(0.0517987737705 0.400973364285 0)
(0.0538349192569 0.393210838275 0)
(0.0556303759714 0.385221133437 0)
(0.0571986295383 0.377036324043 0)
(0.0585532635566 0.368686392612 0)
(0.0597078534657 0.360199230104 0)
(0.0606758647187 0.35160065162 0)
(0.0614705501058 0.342914428513 0)
(0.0621048538615 0.334162337239 0)
(0.062591318365 0.325364225022 0)
(0.0629420015939 0.316538091599 0)
(0.063168401597 0.307700185913 0)
(0.0632813959726 0.298865115706 0)
(0.0632911923309 0.290045967662 0)
(0.063207296819 0.281254434978 0)
(0.0630384958458 0.272500949267 0)
(0.0627928567433 0.263794813159 0)
(0.0624777414195 0.255144330395 0)
(0.0620998373178 0.246556929986 0)
(0.0616651988133 0.238039281753 0)
(0.0611793021996 0.229597400593 0)
(0.0606471068348 0.221236737761 0)
(0.0600731248525 0.212962257623 0)
(0.0594614919644 0.204778499359 0)
(0.058816041494 0.196689623271 0)
(0.058140374592 0.188699442331 0)
(0.057437928909 0.180811439637 0)
(0.0567120395107 0.173028773367 0)
(0.0559659947245 0.165354270621 0)
(0.055203081739 0.157790412268 0)
(0.0544266251493 0.150339310556 0)
(0.0536400143517 0.143002681746 0)
(0.0528467234144 0.13578181552 0)
(0.052050320268 0.128677543236 0)
(0.0512544690807 0.121690206511 0)
(0.0504629234178 0.114819627828 0)
(0.0496795140693 0.108065084242 0)
(0.0489081296886 0.101425285402 0)
(0.0481526939531 0.0948983565182 0)
(0.0474171377944 0.0884818270263 0)
(0.0467053701159 0.0821726251371 0)
(0.0460212458465 0.0759670785839 0)
(0.0453685344081 0.069860921461 0)
(0.0447508877543 0.0638493071268 0)
(0.0441718107587 0.0579268271135 0)
(0.0436346334874 0.0520875362244 0)
(0.0431424878039 0.0463249847008 0)
(0.0426982877758 0.0406322580499 0)
(0.0423047149772 0.0350020268331 0)
(0.0419642027145 0.0294266238453 0)
(0.0416788795777 0.0238980968468 0)
(0.0414499176898 0.018408264983 0)
(0.0412667278567 0.0129430767448 0)
(0.0409188507561 0.00757412640033 0)
(0.0366854997098 0.00225223593229 0)
(-0.212927819567 0.0126041883425 0)
(-0.235846609849 0.0446485510523 0)
(-0.234809725177 0.0754791144019 0)
(-0.231220638479 0.106490888639 0)
(-0.226382087161 0.136784103413 0)
(-0.220446290089 0.166221063729 0)
(-0.213511845071 0.194646108171 0)
(-0.205683587724 0.221922982489 0)
(-0.197072826375 0.247936160964 0)
(-0.187794217016 0.272591295743 0)
(-0.177962796736 0.295814688542 0)
(-0.167691415265 0.317552338624 0)
(-0.157088591285 0.337768626223 0)
(-0.146256783217 0.35644473514 0)
(-0.135291055908 0.373576894164 0)
(-0.124278124766 0.389174501363 0)
(-0.113295765039 0.40325819009 0)
(-0.102412574491 0.415857897316 0)
(-0.0916880738872 0.427011001731 0)
(-0.081173113841 0.436760603414 0)
(-0.0709105364445 0.44515401475 0)
(-0.0609360143622 0.452241517679 0)
(-0.0512789729355 0.45807541552 0)
(-0.0419634936525 0.462709370782 0)
(-0.0330091125609 0.466197982937 0)
(-0.0244314571019 0.468596531847 0)
(-0.0162427087853 0.469960803541 0)
(-0.00845191629024 0.470346926729 0)
(-0.00106520955227 0.469811177522 0)
(0.00591403518037 0.468409708047 0)
(0.0124850590455 0.46619842075 0)
(0.0186494303189 0.463232339656 0)
(0.0244109285292 0.459565641763 0)
(0.0297753091235 0.455251388018 0)
(0.0347500695273 0.450341212142 0)
(0.0393442298125 0.444885203167 0)
(0.0435681327844 0.438931771134 0)
(0.0474332650554 0.432527540278 0)
(0.0509520969022 0.425717260298 0)
(0.0541379385365 0.418543730227 0)
(0.0570048073477 0.411047731964 0)
(0.0595673031584 0.403267972487 0)
(0.0618404870686 0.395241035016 0)
(0.0638397626559 0.387001340257 0)
(0.0655807568628 0.378581119103 0)
(0.0670792009485 0.370010398523 0)
(0.0683508102745 0.361317002205 0)
(0.0694111646957 0.35252656767 0)
(0.0702755897059 0.343662581086 0)
(0.0709590414552 0.334746430883 0)