/*--------------------------------*- C++ -*----------------------------------*\
| =========                 |                                                 |
| \\      /  F ield         | OpenFOAM: The Open Source CFD Toolbox           |
|  \\    /   O peration     | Version:  v1906                                 |
|   \\  /    A nd           | Web:      www.OpenFOAM.com                      |
|    \\/     M anipulation  |                                                 |
\*---------------------------------------------------------------------------*/
FoamFile
{
    version     2.0;
    format      ascii;
    class       surfaceScalarField;
    location    "510";
    object      phia;
}
// * * * * * * * * * * * * * * * * * * * * * * * * * * * * * * * * * * * * * //

dimensions      [0 3 -1 0 0 0 0];
oriented        oriented;


internalField   nonuniform List<scalar> 
18240
(
0.000845365852447
-0.000845339135965
0.00173258698828
-0.000887195292082
0.00261772087264
-0.000885105131686
0.00349563740718
-0.000877891671082
0.00436349099848
-0.00086782455441
0.00521871752317
-0.000855203137732
0.00605895730917
-0.000840210897216
0.00688198203684
-0.00082300311874
0.00768573491534
-0.000803724386454
0.00846828637657
-0.000782531891901
0.00922789170236
-0.000759577393062
0.00996293447005
-0.000735025474748
0.0106719901316
-0.000709028421892
0.0113537523747
-0.000681747427648
0.0120071021361
-0.000653323263214
0.0126310162913
-0.000623901969995
0.0132246437995
-0.000593601755997
0.013787197213
-0.000562543952434
0.0143180385537
-0.000530816225575
0.0148165546684
-0.000498509404616
0.0152822561482
-0.000465676837855
0.0157146377633
-0.000432377608805
0.0161132938998
-0.00039863166936
0.0164777650737
-0.000364469747261
0.0168076732956
-0.000329883579794
0.0171025551035
-0.000294882759679
0.0173620197401
-0.000259439330994
0.0175855684869
-0.00022355180401
0.0177727783284
-0.000187183356736
0.0179231072019
-0.000150333688689
0.0180361047064
-0.000112969189916
0.0181111997417
-7.51011770791e-05
0.0181479429508
-3.67123967071e-05
0.0181457793526
2.1567027507e-06
0.0181043193873
4.14941298736e-05
0.0180230922964
8.12202498685e-05
0.0179018477682
0.000121283014773
0.0177402881271
0.000161554111347
0.0175383979147
0.000201934368717
0.0172961530744
0.000242242577234
0.0170138740515
0.000282330526895
0.0166919128647
0.000321965150657
0.0163310231339
0.000360950719043
0.0159320316897
0.000399005638674
0.0154962172716
0.000435887038021
0.0150249812347
0.000471265173709
0.0145202233568
0.000504843803875
0.0139840328748
0.000536238960584
0.0134190433507
0.000565088926662
0.0128281638384
0.00059094976131
0.0122148822528
0.000613392156415
0.0115830416886
0.00063193131437
0.0109370463886
0.000646111750898
0.0102816646928
0.000655486941328
0.00962208987808
0.000659689379461
0.00896374306343
0.000658456660306
0.00831217909945
0.000651668208689
0.00767289472015
0.000639387867498
0.00705113722443
0.000621845012552
0.00645175392479
0.00059947130497
0.00587898185009
0.00057283990941
0.0053363480327
0.000542701327325
0.00482648916531
0.000509907515507
0.00435113110225
0.000475405374588
0.00391106351703
0.000440101225055
0.00350626625199
0.000404829062954
0.00313603272383
0.000370258398542
0.00279913849491
0.000336916654848
0.00249399043387
0.00030516948487
0.00221873932876
0.000275269309035
0.00197140344751
0.000247357038209
0.00174992093719
0.000221500234132
0.00155224426388
0.000197699285592
0.00137634636194
0.000175917229089
0.00122028568815
0.000156085110815
0.0010821880096
0.000138118624846
0.000960298603212
0.000121914593228
0.000852960503753
0.000107359262319
0.000758660075562
9.43248659889e-05
0.000676004914421
8.26750966655e-05
0.000603774904767
7.22527203213e-05
0.000540938544056
6.28543750177e-05
0.000486830442602
5.41288667867e-05
0.00044176636373
4.50802980398e-05
0.000404983173508
3.68028360282e-05
0.0003709642389
3.40356506929e-05
0.000339053355747
3.19324223852e-05
0.000310976342434
2.80978840932e-05
0.000282676792173
2.8326799002e-05
0.000251400276549
3.13060602252e-05
0.000219011977008
3.24256001312e-05
0.000185510040461
3.35440411786e-05
0.00014728418795
3.8275085771e-05
0.000101682198885
4.56582052115e-05
4.93304678833e-05
5.24158049703e-05
4.93631433826e-05
0.000892570810541
-0.00173788218173
0.0018403075267
-0.00183490413612
0.00278281144362
-0.00182757991562
0.00371673088586
-0.00181178334727
0.00463957141867
-0.00179063641633
0.00554880615759
-0.0017644110272
0.0064419757977
-0.0017333526733
0.00731673375138
-0.00169773549816
0.00817088884934
-0.00165785266299
0.00900240033575
-0.0016140193368
0.0098094065111
-0.00156655800402
0.0105902052434
-0.00151580191408
0.0113432785696
-0.00146207760173
0.0120672614622
-0.00140570994412
0.0127609639045
-0.00134700309619
0.013423328648
-0.0012862483646
0.0140534523015
-0.00122370437191
0.014650533314
-0.0011596086833
0.0152138943519
-0.00109415777125
0.0157429223521
-0.00102752315349
0.0162370950443
-0.000959831451243
0.0166959152307
-0.000891185451653
0.0171189445063
-0.000821644077801
0.0175057337602
-0.000751248357107
0.0178558668292
-0.000680000677708
0.0181688886183
-0.000607895309803
0.0184443608278
-0.00053489608994
0.0186817883829
-0.000460971154181
0.0188806887469
-0.000386068310547
0.0190405163948
-0.000310153718334
0.0191607487625
-0.000233185661924
0.0192408101004
-0.000155154955481
0.0192801704695
-7.60557385798e-05
0.0192782674997
4.06782707417e-06
0.019234623487
8.51570606298e-05
0.0191487642611
0.000167089093304
0.0190203512903
0.0002497178378
0.0188490953588
0.000332822387483
0.0186349012637
0.000416154704979
0.0183777737355
0.000499387063799
0.0180779707685
0.000582166225683
0.0177359002958
0.000664059930514
0.0173522780555
0.000744614986907
0.0169280172359
0.000823301656411
0.0164643882856
0.000899570581049
0.0159629094239
0.00097279408521
0.0154255071428
0.00104231634186
0.0148544199429
0.00110739446584
0.014252355838
0.00116724062209
0.0136224184494
0.00122097499485
0.0129682458886
0.00126766843289
0.0122939510291
0.00130633103085
0.0116042044032
0.00133597313409
0.0109041529464
0.00135565333755
0.0101993946019
0.00136456489209
0.00949583306134
0.00136213308712
0.00879952413695
0.00134808665928
0.00811647832565
0.0013225381523
0.00745244218538
0.00128597466437
0.0068127170609
0.00123928287051
0.00620195282533
0.0011836767971
0.00562400607567
0.00112071230795
0.0050817443638
0.00105222035041
0.00457697650138
0.000980216546222
0.00411045246423
0.000906659235011
0.00368200753227
0.000833302649585
0.00329073587584
0.000761553978378
0.00293519268977
0.00069248080545
0.00261355885354
0.000626823072112
0.00232377404859
0.000565072252983
0.0020636487729
0.000507501563589
0.00183094090726
0.000454226811654
0.00162342888034
0.000405232443358
0.00143894151983
0.000360425895732
0.00127539320179
0.000319657068048
0.00113078790403
0.000282747268743
0.00100324473735
0.000249482399968
0.000891001492504
0.000219625889661
0.000792433687798
0.00019291642131
0.00070604554181
0.000169085131295
0.000630468883575
0.000147851217108
0.000564412639506
0.00012893048937
0.000506536030847
0.000112025348532
0.000454822985939
9.68114364846e-05
0.000407653139679
8.39909227793e-05
0.000365692517062
7.6014130257e-05
0.000331416385981
6.62286948451e-05
0.000302544261653
5.69915264086e-05
0.000275550553278
5.53455547084e-05
0.000247766324829
5.91200382175e-05
0.000216635178491
6.35929948512e-05
0.00018307571165
6.71440293956e-05
0.000146759191411
7.46387232814e-05
0.00010390394399
8.85693449839e-05
5.10749409562e-05
0.000105304345634
0.000100466118356
0.000900786365991
-0.00263864047652
0.0018542044879
-0.00278829287846
0.00280342982104
-0.00277677618844
0.0037441394006
-0.00275246414619
0.00467359852742
-0.00272006695104
0.00558919768528
-0.00267998232002
0.00648843464503
-0.00263256196368
0.00736893757195
-0.00257821174645
0.00822849047046
-0.00251737911317
0.00906504071539
-0.00245054433419
0.0098767139316
-0.00237820622085
0.0106618103876
-0.00230087476476
0.0114188125101
-0.00221905636254
0.0121463719092
-0.00213324754258
0.0128433108109
-0.00204392039458
0.0135086007757
-0.00195151843462
0.0141413595031
-0.00185644331816
0.0147408228088
-0.00175905402838
0.0153063389392
-0.00165965591543
0.0158373360688
-0.00155850420495
0.0163333169274
-0.00145579602121
0.0167938245002
-0.00135167869028
0.017218439927
-0.00124624471163
0.0176067489251
-0.00113954454038
0.0179583455137
-0.00103158369815
0.0182728009745
-0.000922339165985
0.0185496751275
-0.00081175752855
0.0187884888413
-0.000699774090384
0.0189887439948
-0.000586311183034
0.0191499002102
-0.000471299529505
0.0192714043373
-0.00035467742834
0.0193526714373
-0.000236411499502
0.0193931248536
-0.000116496142352
0.01939218224
5.02178984739e-06
0.0193493058436
0.00012804786677
0.019263992738
0.000252415183358
0.0191358344244
0.000377892953104
0.0189645090533
0.000504163614045
0.0187498472675
0.000630837191723
0.018491822969
0.000757431935168
0.0181906211876
0.000883394806567
0.0178466240641
0.00100808503438
0.0174604771069
0.00113079788391
0.0170330700869
0.00125074754924
0.0165656015095
0.00136708787512
0.0160595599326
0.00147888936664
0.0155167912781
0.00158515012801
0.014939491826
0.00168476584687
0.0143302845115
0.001776531762
0.0136922326533
0.00185911809475
0.0130289206879
0.00193108203796
0.0123444774924
0.00199088196331
0.0116436264666
0.00203693831477
0.0109316681571
0.00206772830218
0.0102144295184
0.00208192084327
0.00949813521978
0.00207854201138
0.00878921405049
0.0020571174376
0.00809407128594
0.00201778356304
0.00741884212609
0.0019612970782
0.00676918136252
0.00188902671303
0.00615006929255
0.00180286002525
0.0055656449908
0.00170519540194
0.00501893614331
0.0015989763335
0.00451171612569
0.00148747357059
0.00404452844186
0.00137387563377
0.00361689157734
0.00126096291169
0.00322755590233
0.00115090883947
0.00287476502283
0.00104528891212
0.00255643642655
0.00094516744627
0.00227029937367
0.000851224679071
0.00201399174299
0.000763825068204
0.00178514589927
0.000683089789598
0.00158144760414
0.000608949754324
0.00140067108135
0.000541223493615
0.00124068757709
0.000479663379048
0.00109947056604
0.000423987971265
0.000975106221343
0.000373870785019
0.000865812282803
0.000328943354187
0.000769946247284
0.000288805316424
0.000686004492631
0.000253048567635
0.000612608655207
0.00022126782738
0.000548468539963
0.000193090261101
0.000492306838365
0.000168205997294
0.000442635441953
0.000146500757395
0.000398596087931
0.000128047790688
0.00035954643502
0.000115082108864
0.000322447419993
0.000103347613456
0.000287058988826
9.24013258951e-05
0.000258220925553
8.42080448726e-05
0.000234540955639
8.2829406425e-05
0.000203730947722
9.44375934885e-05
0.000166571828675
0.000104343198271
0.000127800658223
0.000113456076095
8.52550578531e-05
0.000131163516107
4.3472861953e-05
0.000147136246961
0.000143964741168
0.000909231836786
-0.00354784368142
0.00187066215718
-0.0037496940723
0.00282799012205
-0.00373407442449
0.00377666948544
-0.00370111430323
0.00471384018572
-0.00365720863543
0.00563680803417
-0.00360292175315
0.00654301071465
-0.00353873667701
0.00743003357612
-0.00346520737031
0.00829562798767
-0.0033829468663
0.00913772203805
-0.00329261259492
0.00995443059736
-0.00319488966698
0.0107440566542
-0.00309047669904
0.0115050929523
-0.0029800692799
0.0122362144771
-0.00286434677693
0.0129362724961
-0.00274395690195
0.0136042791855
-0.00261950476663
0.0142393954253
-0.00249153997428
0.0148409092601
-0.00236054946497
0.0154082196557
-0.00222694864493
0.015940811374
-0.00209107942961
0.0164382376957
-0.00195320648958
0.0169000948644
-0.00181352112909
0.0173260070397
-0.00167214266632
0.0177156032767
-0.00152912758597
0.0180685073512
-0.00138447490947
0.0183843192892
-0.00123813914541
0.0186626116193
-0.00109003801613
0.0189029164222
-0.000940067793378
0.019104728767
-0.000788112290694
0.0192674998631
-0.0006340599486
0.0193906483939
-0.00047781486836
0.0194735601283
-0.000319312480586
0.019515608281
-0.000158532799161
0.0195161609399
4.48056349602e-06
0.0194746103855
0.000169610998222
0.0193903878352
0.000336650652933
0.0192630008593
0.000505294565882
0.0190920531746
0.000675126907312
0.0188772866242
0.000845621913911
0.0186186015701
0.00101613713377
0.0183160980459
0.0011859222892
0.0179700915585
0.00135411890419
0.0175811486534
0.00151977367482
0.0171500957734
0.0016818386043
0.0166780494931
0.0018391798773
0.016166423537
0.00199056841658
0.0156169627726
0.00213467355249
0.0150317630129
0.00227003729544
0.0144133249002
0.00239505218089
0.0137646034302
0.00250793127796
0.0130890891929
0.00260669742536
0.0123908825714
0.00268919726228
0.0116747677546
0.00275316730893
0.0109462446339
0.00279636867776
0.0102114905597
0.00281679154208
0.00947722670718
0.00281292018868
0.00875047383553
0.00278397813651
0.00803825612211
0.00273010248786
0.00734730679444
0.00265233669604
0.00668381387919
0.00255260003714
0.00605326802111
0.00243347162284
0.00546031977293
0.00229819628938
0.00490828874836
0.00215104632768
0.00439887895216
0.00199691180346
0.0039322447589
0.00184053055929
0.00350733401099
0.00168588940759
0.00312231300382
0.00153594309518
0.00277492513052
0.00139268811093
0.0024626957456
0.00125740794765
0.00218304069936
0.00113089012615
0.00193334920573
0.00101352878555
0.00171106683478
0.000905385890504
0.00151375917358
0.000806274591877
0.0013391324769
0.000715870234518
0.00118501600679
0.000633802243949
0.00104934219421
0.000559685247697
0.000930154757943
0.000493081842385
0.000825643176989
0.000433477879785
0.000734153995773
0.000380316511113
0.000654190606349
0.000333032653108
0.000584406274688
0.000291071885445
0.000523581541518
0.000253933648391
0.000470571537213
0.000221234005306
0.000423823907218
0.000193265569117
0.000382824986738
0.000169063819051
0.000343552788837
0.000154372575571
0.000306234032004
0.000140686332505
0.000272862622574
0.000125794113559
0.000239153120312
0.000117941523569
0.000204506417749
0.000117503326843
0.00017839053613
0.000120586095372
0.000142993247005
0.000139778860214
0.000101789115246
0.000154700976474
6.6938388224e-05
0.000166057130819
3.45910267241e-05
0.000179527903463
0.000178577617059
0.000920155939241
-0.00446797059042
0.00189274616228
-0.00472225362514
0.00286108192131
-0.00470238020421
0.00382049543537
-0.00466049784932
0.00476802058424
-0.0046047043293
0.00570086978216
-0.00453574194659
0.00661640395627
-0.00445424243182
0.00751214895068
-0.00436092460551
0.00838581184653
-0.00425658270951
0.00923529271862
-0.00414206721571
0.0100586930458
-0.00401826456145
0.0108543183726
-0.00388607750607
0.0116206776991
-0.0037464049954
0.0123564770246
-0.00360012348457
0.0130606101629
-0.00344806838638
0.0137321439873
-0.00329101797826
0.0143703019141
-0.00312967827226
0.0149744425729
-0.00296467154436
0.0155440382813
-0.00279652673308
0.0160786500391
-0.00262567458686
0.0165779044465
-0.00245244519082
0.0170414687764
-0.00227707069924
0.0174690301629
-0.00209969007589
0.0178602742741
-0.00192035855678
0.0182148697465
-0.00173905787746
0.0185324526137
-0.00155571019695
0.0188126173454
-0.00137019138296
0.0190549076902
-0.00118234728934
0.0192588146414
-0.0009920086369
0.0194237739596
-0.00079900897699
0.019549171697
-0.000603202322031
0.0196343490212
-0.000404479611079
0.0196786166939
-0.000202790014652
0.0196812691969
1.83871466132e-06
0.0196416088606
0.000209282609215
0.0195589694149
0.000419301974947
0.0194327491902
0.000631527809945
0.0192624417158
0.00084544864558
0.0190476738565
0.00106040600774
0.0187882376736
0.00127559179368
0.0184841263018
0.0014900553663
0.018135559254
0.00170271135662
0.0177430087499
0.00191235456785
0.017307213355
0.00211767000155
0.0168291938071
0.00231724264629
0.0163102600384
0.0025095532569
0.0157520292984
0.00269296486605
0.0151564479314
0.00286568906191
0.0145258398978
0.00302574138225
0.0138629757146
0.00317088677503
0.0131711786396
0.00329859581177
0.0124544515698
0.00340603316027
0.0117176148578
0.00349011928416
0.010966406586
0.00354769340288
0.0102074943594
0.00357582151524
0.00944832412448
0.00357220142144
0.00869680312231
0.00353560686348
0.00796085242785
0.00346615001094
0.00724806054724
0.00336521733925
0.00656530550829
0.00323542937073
0.00591878635502
0.00308005129246
0.0053140737519
0.00290295096212
0.00475504005116
0.00271010875239
0.0042432576844
0.00250871121186
0.00377818179979
0.00230561653933
0.00335778826384
0.00210629044258
0.00297931611358
0.00191442027854
0.00263979859433
0.00173221121046
0.00233625055941
0.00156096011778
0.00206568970875
0.0014014565719
0.00182517270037
0.00125405225672
0.00161189895282
0.00111867047765
0.00142328938337
0.000994898766674
0.00125699420606
0.000882184661123
0.00111081737857
0.000780001068649
0.000982643247507
0.000687882371741
0.000870446959826
0.000605301114327
0.000772376283137
0.000531570768879
0.000686767448974
0.000465946194412
0.000612139810312
0.000407679832841
0.000547207355411
0.000356022641938
0.000490903652
0.000310254859863
0.000442457646594
0.000269696856509
0.00040159692743
0.000234142763144
0.00036436401855
0.000206313468447
0.000328193011437
0.000190562059033
0.000291638185576
0.000177260837502
0.000250100732147
0.000167352637413
0.000211498380892
0.000156566928972
0.000175670787338
0.000153357761703
0.000146117804893
0.000150168767608
0.000120244007226
0.00016568791591
8.47790021962e-05
0.000190205053259
5.21591206525e-05
0.000198714147413
2.63162823838e-05
0.000205407661533
0.000204912972348
0.000933867116095
-0.0054018078364
0.00192074351815
-0.00570909975036
0.0029031161044
-0.00568472178985
0.00387617490471
-0.00563352621432
0.00483683501632
-0.00556533425966
0.00578219889752
-0.00548107624095
0.00670953363355
-0.00538154815578
0.00761628962252
-0.00526765229295
0.00850011781677
-0.00514038334459
0.00935888216182
-0.005000804842
0.010190667742
-0.00485002429013
0.0109937835631
-0.00468916842733
0.0117667608949
-0.00451935838741
0.0125083462486
-0.00434168593307
0.0132174902005
-0.00415719045376
0.0138933311728
-0.00396683814607
0.0145351757977
-0.00377150313483
0.015142475171
-0.00357195224208
0.015714799205
-0.00336883311701
0.0162518086536
-0.00316266743512
0.0167532275297
-0.00295384843211
0.0172188155124
-0.0027426440202
0.0176483431704
-0.00252920394012
0.0180415691075
-0.0023135715559
0.0183982214897
-0.00209569805421
0.018717982235
-0.00187545944456
0.019000475905
-0.0016526741267
0.0192452609912
-0.0014271219809
0.0194518257237
-0.00119856336123
0.0196195861234
-0.000966759706464
0.0197478891741
-0.000731495887709
0.0198360184727
-0.000492599540142
0.0198832067588
-0.000249968879384
0.0198886522777
-3.59722168682e-06
0.0198515424684
0.000246402364904
0.0197710821665
0.000499772794056
0.0196465285298
0.000756092811331
0.0194772288049
0.00101476095422
0.0192626616702
0.00127498734777
0.0190024771848
0.00153579273357
0.018696534645
0.00179601718484
0.0183449332748
0.00205433575565
0.0179480349997
0.00230928044379
0.0175064763066
0.00255926210414
0.0170211716018
0.00280258768526
0.0164933100323
0.00303746349609
0.0159243552782
0.0032619778815
0.0153160565935
0.00347405641909
0.014670489607
0.00367138837649
0.0139901374107
0.00385133021399
0.013278030286
0.00401080357864
0.0125379465883
0.00414622791197
0.0117746478552
0.00425353119509
0.0109941171293
0.00432834417622
0.0102036530471
0.00436639792613
0.00941174951878
0.00436421871074
0.00862759844354
0.00431985895651
0.00786038851038
0.00423345704116
0.00711887816739
0.00410680882747
0.00641067458792
0.0039437039732
0.00574277078984
0.00374800382289
0.00512253304052
0.00352321997872
0.00455490702037
0.00327774877884
0.00404119817676
0.0030224234722
0.00357958255151
0.00276723108277
0.00316637034028
0.00251949958732
0.00279737075513
0.00228341827384
0.00246869092867
0.00206088799085
0.00217679783708
0.00185285233808
0.00191825886669
0.0016599929618
0.00168971130598
0.00148260267181
0.00148802776251
0.00132036001305
0.00131048082711
0.00117245886615
0.00115472235146
0.00103796156935
0.00101859558106
0.000916149140233
0.000899932122308
0.000806568320271
0.000796575415304
0.000708679816203
0.000706608986792
0.000621558364171
0.000628358534064
0.000544216436584
0.000560345185407
0.000475711217399
0.000501306023116
0.000415078835571
0.000450206221039
0.000361370692636
0.000406242052544
0.000313676832435
0.000368733929162
0.000271666352377
0.000331282593999
0.000243781200329
0.000294375549066
0.000227486780427
0.00026047349608
0.000211181881488
0.000228977141485
0.000198869979493
0.000192544126721
0.000193023856541
0.000154977893438
0.000190950190397
0.000116737462098
0.000188437748699
9.13128287233e-05
0.000191143719447
6.99459043833e-05
0.00021160533311
4.27846820433e-05
0.000225908993267
2.12951532964e-05
0.000226930329138
0.000226224565295
0.00095057400579
-0.00635235147905
0.00195494170282
-0.0067134352006
0.00295448879483
-0.0066842375397
0.00394422128712
-0.00662322732391
0.00492090604132
-0.00654198824463
0.00588151247887
-0.0064416523853
0.00682319318601
-0.00632319924947
0.00774330626348
-0.0061877364671
0.00863943392473
-0.00603648291753
0.00950939603306
-0.00587073972276
0.0103512582678
-0.00569186024024
0.0111633348977
-0.00550121974696
0.0119441862005
-0.00530018542488
0.0126926105191
-0.00509008704021
0.0134076310573
-0.00487218889112
0.014088477539
-0.00464766362426
0.0147345631096
-0.00441756883932
0.0153454570575
-0.00418282742525
0.0159208543404
-0.00394421275575
0.0164605431195
-0.00370233963618
0.0169643718874
-0.0034576616851
0.0174322176628
-0.00321047527204
0.0178639568615
-0.00296092958035
0.0182594397845
-0.00270904180284
0.0186184695889
-0.00245471601776
0.0189407855671
-0.00219776432601
0.0192260507444
-0.00193792888536
0.0194738428959
-0.00167490430011
0.0196836490128
-0.0014083601518
0.019854862636
-0.00113796441473
0.0199867851834
-0.000863409835544
0.0200786306827
-0.000584436654459
0.0201295370141
-0.000300866920857
0.02013858286
-1.26347385087e-05
0.0201048123696
0.000280181393695
0.0200272670746
0.000577327046179
0.019905025343
0.000878344182135
0.01973724744
0.00118254952984
0.0195232244097
0.00148902250436
0.0192624269787
0.00179660429583
0.0189545505307
0.00210391041672
0.0185995512355
0.00240935530406
0.0181976689674
0.00271118743687
0.0177494337352
0.00300752764457
0.0172556556169
0.00329640324302
0.0167174008636
0.00357576401576
0.0161359655056
0.00384346905062
0.0155128589386
0.00409722989096
0.0148498239278
0.00433450203162
0.0141489157772
0.00455232805804
0.0134126796602
0.00474714235301
0.0126444326957
0.00491458217582
0.0118486799728
0.00504940381373
0.0110315445825
0.0051455914313
0.0102011299966
0.0051969329516
0.00936740789802
0.00519804315328
0.00854152872543
0.005145842657
0.00773438869957
0.00504068325874
0.00695648894345
0.00488478793518
0.00621572974436
0.00468452182105
0.00551947541497
0.00444429644767
0.0048789917391
0.00416371668947
0.00430141362182
0.00385532388866
0.00378740197531
0.00353642294772
0.00333270844657
0.00322190913594
0.00293072347247
0.00292147264944
0.00257505081835
0.00263907847163
0.00226076237671
0.00237516798248
0.00198395368222
0.00212964940691
0.00174078447399
0.0019031553174
0.00152731553906
0.0016960661463
0.00133996396079
0.00150771514174
0.00117586028802
0.00133657311288
0.00103282190188
0.00118101629301
0.000908902444902
0.00104008910018
0.000801870170493
0.000913620506023
0.0007092676218
0.000801302955251
0.000629085515594
0.000701760350619
0.000559669218865
0.000613651005063
0.000499532942993
0.000535864280622
0.000447423437389
0.00046720375752
0.000402337626238
0.000406471317954
0.000363478031246
0.000352550894175
0.000330332740608
0.000304826556665
0.000295451036931
0.000278678707608
0.000263038152792
0.000259917194013
0.000228554804188
0.00024568426171
0.000195101701066
0.000232344166038
0.00016087697212
0.000227272086822
0.000130909239335
0.000220943306419
9.82112210486e-05
0.000221163072097
6.83248951694e-05
0.00022105844995
5.33425546601e-05
0.000226617390083
3.40425034238e-05
0.000245239116919
1.68473462744e-05
0.00024415483341
0.000243087128079
0.000970469591045
-0.0073227896746
0.00199568723402
-0.00773862117479
0.00301570009389
-0.00770421782504
0.00402527969907
-0.00763277503756
0.00502101112046
-0.00753768804784
0.00599970156417
-0.00742031189052
0.00695836569857
-0.00728183309436
0.00789425048752
-0.00712359176736
0.00880485597084
-0.0069470597495
0.00968794964839
-0.00675380568986
0.0105415750296
-0.00654545888331
0.0113640540983
-0.0063236731383
0.0121539840915
-0.00609009081222
0.0129102282276
-0.00584630771773
0.0136319006604
-0.00559383900031
0.0143183452743
-0.00533408710883
0.0149691089042
-0.00506831249883
0.0155839091574
-0.00479760890815
0.0161625983075
-0.00452288427906
0.0167051244117
-0.00424484927754
0.0172114920547
-0.00396401395411
0.017681724445
-0.00368069337729
0.0181158292973
-0.0033950211473
0.0185137695726
-0.0031069697729
0.0188754402264
-0.00281637524692
0.0192006503999
-0.00252296392092
0.0194891106364
-0.00222637928488
0.0197404235602
-0.00192620808062
0.0199540774855
-0.0016220055222
0.0201294422327
-0.00131332113538
0.0202657682297
-0.000999728226658
0.0203621889072
-0.000680850065156
0.0204177300445
-0.000356401011083
0.0204313261379
-2.62238760855e-05
0.020401846142
0.000309668405529
0.0203281291756
0.000651051314583
0.0202090301543
0.000997451006157
0.0200434741759
0.0013481142037
0.0198305165185
0.00170199006224
0.0195694045227
0.00205772804399
0.0192596343234
0.00241369469593
0.0189009967542
0.0027680102858
0.0184936030755
0.00311860268288
0.0180378865045
0.0034632714184
0.0175345740763
0.0037997498786
0.0169846334769
0.0041257473201
0.0163892042825
0.00443895181927
0.0157495310597
0.00473696656057
0.0150669388305
0.00501717172727
0.0143428781846
0.00527647797953
0.0135791165214
0.00551100249987
0.0127781336954
0.00571568044266
0.0119437348647
0.00588391111602
0.0110819329183
0.00600751892059
0.0102017041975
0.00607726568234
0.00931525145468
0.0060846065802
0.00843680908145
0.0060243750956
0.00757950935739
0.00589806878628
0.00675701751618
0.00570734498001
0.00597579205634
0.00546579507111
0.0052410049281
0.00517910122986
0.00457361879045
0.00483109417287
0.00398523628457
0.00444368118273
0.00347475253944
0.00404687318212
0.00303316627491
0.00366346487586
0.00264857265865
0.00330603858129
0.00231118253047
0.00297644671442
0.00201529244077
0.00267103459973
0.00175743851796
0.00238748411753
0.00153352389066
0.0021270496434
0.0013386841861
0.00189089471772
0.00116855298649
0.0016778431691
0.00102015388404
0.00148497747088
0.000891853864612
0.00130932980124
0.000782343380311
0.00114961420467
0.000689302791403
0.00100667824499
0.000609475336957
0.000881147708919
0.000540757689962
0.00077049607378
0.000481652557619
0.000672773121915
0.000430646110654
0.000586886196647
0.000386470504618
0.000511393647398
0.000348154152612
0.000444801161356
0.000314741789798
0.000385977044038
0.000284999072922
0.000334583353938
0.000254655164146
0.000309038460713
0.000226086278286
0.000288503415037
0.000196412444867
0.000275377667106
0.000163325233374
0.000265452817999
0.000132582116853
0.000258038441042
0.000101351067231
0.000252199190534
7.89911901985e-05
0.000243549234156
5.54090277623e-05
0.000244667500325
3.78638693595e-05
0.00024418922305
2.66236750306e-05
0.000256507276699
1.27564040915e-05
0.000258049697897
0.000255857416256
0.000993767419002
-0.00831652524044
0.00204340161321
-0.00878822137259
0.00308736496108
-0.00874814832408
0.00412014561894
-0.00866552276983
0.00513810627129
-0.00855561650087
0.00613785955738
-0.00842003351356
0.00711625514857
-0.00826019780504
0.00807040832979
-0.00807771487097
0.0089977223232
-0.0078743445945
0.00989590377375
-0.00765195895809
0.0107629713344
-0.00741249933043
0.0115972579982
-0.00715793377256
0.0123974070252
-0.00689021498744
0.0131623616578
-0.00661123866293
0.0138913479474
-0.00632280284974
0.0145838507488
-0.00602656867666
0.0152395823587
-0.00572402415028
0.0158584446874
-0.00541645248845
0.016440485647
-0.0051049077501
0.0169858522323
-0.00479019955037
0.0174947424745
-0.00447288908882
0.0179673597948
-0.00415329669775
0.0184038721633
-0.00383152063086
0.0188043786428
-0.00350746437813
0.0191688837861
-0.00318086951435
0.0194972797233
-0.00285134987438
0.0197893338622
-0.00251842430262
0.0200446802572
-0.00218154611438
0.0202628125193
-0.00184013013817
0.0204430777454
-0.00149357932908
0.020584672053
-0.00114131605149
0.0206866390863
-0.000782811057625
0.0207478757405
-0.000417631972776
0.020767146468
-4.54891203005e-05
0.0207431093768
0.000333710915543
0.0206743557374
0.000719810516778
0.0205594633203
0.00111234935535
0.0203970626651
0.00151052149022
0.0201859129048
0.00191314749863
0.0199249821106
0.00231866810114
0.0196135232844
0.00272516490539
0.0192511366183
0.00313041142399
0.0188378045043
0.00353195322352
0.0183738901962
0.00392720983833
0.0178600890042
0.00431358184342
0.0172973357563
0.00468854095828
0.0166866701842
0.00504966603601
0.0160290972138
0.00539460299118
0.0153254569069
0.0057208841223
0.0145763997128
0.00602562222212
0.0137825255167
0.00630497830914
0.0129448340708
0.00655347580997
0.0120656743605
0.00676319447822
0.011150184095
0.00692311669426
0.0102081827208
0.00701938467027
0.00925519909271
0.0070376844775
0.0083110097913
0.00696865678465
0.00739077871874
0.00681836942219
0.00651638013547
0.00658179729274
0.00568734768075
0.00629485395007
0.00489633884007
0.00597010382572
0.00419133641902
0.00553606071574
0.00359260840571
0.00504235680208
0.00309379549201
0.00454563076726
0.00267638864441
0.00408082122748
0.00231862601861
0.00366375708934
0.00200543737609
0.00328959630526
0.0017317792456
0.00294465452508
0.00149701762267
0.00262220912723
0.00129708052876
0.00232695515809
0.00112512297457
0.00206283037377
0.000975220473829
0.00182773415915
0.000844337412935
0.00161586093749
0.000732266717349
0.00142140522581
0.0006394242473
0.00124246671821
0.000563337617631
0.00108277610842
0.000498472303073
0.000946027250255
0.000442803577353
0.000826181229508
0.000395485808442
0.000720107012209
0.00035487995825
0.000627506113811
0.000319636389762
0.000546650487037
0.000288955415873
0.000475494641895
0.000261867457313
0.000413077773876
0.000234219124714
0.000362245764887
0.000207755166167