/*--------------------------------*- C++ -*----------------------------------*\
| =========                 |                                                 |
| \\      /  F ield         | OpenFOAM: The Open Source CFD Toolbox           |
|  \\    /   O peration     | Version:  v1906                                 |
|   \\  /    A nd           | Web:      www.OpenFOAM.com                      |
|    \\/     M anipulation  |                                                 |
\*---------------------------------------------------------------------------*/
FoamFile
{
    version     2.0;
    format      ascii;
    class       surfaceScalarField;
    location    "201";
    object      phi;
}
// * * * * * * * * * * * * * * * * * * * * * * * * * * * * * * * * * * * * * //

dimensions      [0 3 -1 0 0 0 0];
oriented        oriented;


internalField   nonuniform List<scalar> 
18240
(
-0.000209970625894
0.000210003065028
-0.000415334072593
0.000205391113898
-0.000622868103591
0.000207565415936
-0.00082824793524
0.000205409877951
-0.00102966398153
0.000201449076134
-0.00122588691321
0.00019625804896
-0.0014159568357
0.000190104935501
-0.00159906568802
0.000183151494011
-0.00177456397073
0.000175534864827
-0.00194188608835
0.000167374270578
-0.00210063073992
0.000158781755693
-0.00225043268529
0.000149865012002
-0.00239110986536
0.000140713418051
-0.00252245697698
0.000131421909276
-0.00264447500805
0.000122051639423
-0.00275707194303
0.000112683723411
-0.0028603912675
0.000103348545874
-0.00295440808179
9.41153757717e-05
-0.00303936983882
8.4984665583e-05
-0.00311527817446
7.60180548222e-05
-0.00318245195038
6.71887318472e-05
-0.00324088750278
5.85554873494e-05
-0.00329094998122
5.00677851222e-05
-0.0033326072697
4.17862446745e-05
-0.00336625286118
3.36400239399e-05
-0.00339181164015
2.56953372965e-05
-0.00340969375871
1.78644303078e-05
-0.00341977349289
1.02223104604e-05
-0.00342247143919
2.66748068626e-06
-0.00341761054071
-4.71406747648e-06
-0.00340561981377
-1.20346466784e-05
-0.00338627578743
-1.91948293184e-05
-0.00336001957382
-2.63135992046e-05
-0.00332659349202
-3.32765609796e-05
-0.00328645872195
-4.02056617808e-05
-0.00323934111153
-4.69698887184e-05
-0.00318573484864
-5.3690004136e-05
-0.0031253736897
-6.02174737364e-05
-0.00305880199942
-6.66676814666e-05
-0.00298579019675
-7.28744030996e-05
-0.00290695284223
-7.8944339509e-05
-0.00282212896149
-8.46950234503e-05
-0.00273202369503
-9.02221025361e-05
-0.00263657560056
-9.53298758145e-05
-0.00253659808685
-0.000100102514153
-0.00243215582705
-0.000104336503137
-0.00232418102322
-0.000108106471718
-0.00221287965241
-0.000111209323844
-0.00209929973706
-0.000113716282239
-0.00198378453772
-0.000115437233904
-0.00186747255777
-0.000116451196894
-0.00175081048507
-0.000116597435872
-0.0016349724733
-0.000115977884821
-0.00152044199664
-0.000114477385881
-0.00140834773831
-0.000112232984778
-0.00129912102573
-0.000109182707323
-0.00119375637607
-0.000105500546589
-0.00109254732567
-0.000101171688226
-0.000996283699623
-9.63958745892e-05
-0.000905064051103
-9.11871266321e-05
-0.000819441393661
-8.57509332775e-05
-0.000739306180765
-8.01065880554e-05
-0.00066498654196
-7.44443944011e-05
-0.000596192213044
-6.87693163121e-05
-0.000533070754362
-6.3243189716e-05
-0.000475202410142
-5.78471169184e-05
-0.000422610987229
-5.27108069447e-05
-0.000374802708989
-4.77912706924e-05
-0.000331730154911
-4.3189938259e-05
-0.000292872209454
-3.88457060982e-05
-0.000258149000587
-3.48389152475e-05
-0.000227044192752
-3.10977953479e-05
-0.000199469986034
-2.76881311286e-05
-0.000174935163296
-2.4533285483e-05
-0.000153358499331
-2.16886198985e-05
-0.000134286021989
-1.90763874451e-05
-0.000117651320907
-1.67441588637e-05
-0.000103044730412
-1.46154166851e-05
-9.04205409416e-05
-1.27306430442e-05
-7.94211137359e-05
-1.10123639901e-05
-7.00398645792e-05
-9.48363902277e-06
-6.20268766353e-05
-8.02835686845e-06
-5.56418975799e-05
-6.48439933455e-06
-5.02536820325e-05
-5.4104649956e-06
-4.51277953254e-05
-5.22445553561e-06
-4.03021672419e-05
-4.85798517201e-06
-3.62457356049e-05
-4.15480768228e-06
-3.28214993371e-05
-3.47466353854e-06
-2.95323377443e-05
-3.39920431934e-06
-2.59286939923e-05
-3.68463949824e-06
-2.23144153262e-05
-3.75038285101e-06
-1.86781183429e-05
-3.76041126469e-06
-1.4651909698e-05
-4.17853994859e-06
-9.98532090127e-06
-4.84554813396e-06
-4.83334738105e-06
-5.36931730128e-06
-4.93965253912e-06
-0.000207635048041
0.000417667058484
-0.000437768307945
0.000435554199007
-0.000662165681826
0.000431993402666
-0.000882054230418
0.000425330050462
-0.00109695982781
0.000416388224224
-0.00130602518467
0.000405359225362
-0.00150837148264
0.000392488827074
-0.00170319720009
0.000378018825376
-0.00188982028385
0.000362200083264
-0.00206766690287
0.000345269266213
-0.0022362988503
0.000327460394103
-0.00239536570914
0.000308987391176
-0.00254465060031
0.000290048999161
-0.00268398857744
0.000270822400013
-0.00281334228482
0.000251459163758
-0.00293268373979
0.000232094103905
-0.00304210822618
0.000212828729515
-0.00314167628181
0.0001937578525
-0.00323157212604
0.000174936777096
-0.0033119027883
0.000156427496906
-0.00338290525416
0.000138246539709
-0.00344470004948
0.000120432129593
-0.00349754955655
0.00010297033401
-0.00354156412988
8.58843710823e-05
-0.00357701250538
6.91376944638e-05
-0.00360397951132
5.27461925424e-05
-0.00362272829267
3.66575347322e-05
-0.00363330991946
2.08866830707e-05
-0.00363597595021
5.37162160034e-06
-0.00363074179856
-9.8679775169e-06
-0.00361784758216
-2.48979410751e-05
-0.00359727742643
-3.96886028968e-05
-0.0035692646873
-5.43035605115e-05
-0.00353377224573
-6.86978084923e-05
-0.00349103764362
-8.29263000773e-05
-0.00344101932537
-9.69234515519e-05
-0.00338397571447
-0.000110729084432
-0.00331988372945
-0.000124252338068
-0.00324904449427
-0.000137512152133
-0.00317148125885
-0.000150389238372
-0.00308756327727
-0.000162877583763
-0.00299739080633
-0.000174828807984
-0.00290142755618
-0.000186210644272
-0.00279988090969
-0.000196848372562
-0.00269333286618
-0.000206685787907
-0.00258212345997
-0.000215528907558
-0.00246696963534
-0.000223305068985
-0.00234835890327
-0.000229814393667
-0.00222714562844
-0.000234983152575
-0.00210395979674
-0.000238628246812
-0.00197977081904
-0.000240701232792
-0.00185531434369
-0.000241068605914
-0.00173161738485
-0.000239741522992
-0.001609446697
-0.000236670239404
-0.0014897964004
-0.000231953344881
-0.00137336417191
-0.000225642153567
-0.00126100981938
-0.000217926269055
-0.00115326550893
-0.000208946085692
-0.00105077550366
-0.000198957020889
-0.000953843489792
-0.000188150651745
-0.000862861356454
-0.000176803345215
-0.000777892271154
-0.000165108063011
-0.000699090373439
-0.000153315711837
-0.000626312954007
-0.000141580093955
-0.000559527641547
-0.000130097486726
-0.000498445562357
-0.0001189639168
-0.000442911904058
-0.000108313499535
-0.00039255424332
-9.81854885413e-05
-0.000347153383335
-8.86603777325e-05
-0.000306303917541
-7.97340577081e-05
-0.000269763754995
-7.1449538882e-05
-0.000237127658462
-6.37754616368e-05
-0.000208155911188
-5.67313599465e-05
-0.000182463374368
-5.0270160877e-05
-0.000159827592488
-4.43967475424e-05
-0.000139895288373
-3.90556260789e-05
-0.000122469460188
-3.42428224229e-05
-0.000107234269712
-2.98996460188e-05
-9.40202476799e-05
-2.60175428648e-05
-8.25457506415e-05
-2.25378233238e-05
-7.26528892067e-05
-1.94488037455e-05
-6.40428190585e-05
-1.66903062479e-05
-5.63505239523e-05
-1.42474599906e-05
-4.96311223855e-05
-1.21844303035e-05
-4.39685544362e-05
-1.09572347003e-05
-3.90009139708e-05
-9.88587486286e-06
-3.48724360321e-05
-8.35971766163e-06
-3.14823399264e-05
-6.93577603645e-06
-2.84248326639e-05
-6.54404686875e-06
-2.5334628967e-05
-6.87307891005e-06
-2.19142769118e-05
-7.29086961281e-06
-1.83401983836e-05
-7.46132032731e-06
-1.45932529605e-05
-8.0784880898e-06
-1.02904034824e-05
-9.32895272915e-06
-5.06478088119e-06
-1.07930948954e-05
-1.01039970816e-05
-0.000214361141456
0.000632056415753
-0.000443582409295
0.000664803633049
-0.000670073117857
0.000658514344893
-0.000892491112464
0.000647779215961
-0.0011098165903
0.000633747039989
-0.00132107632055
0.000616654507509
-0.0015253628351
0.000596813294474
-0.00172187348276
0.000574570565162
-0.00190992513514
0.000550295166933
-0.00208895930441
0.000524350712606
-0.00225854279805
0.00049709301244
-0.00241835382119
0.000468851940486
-0.00256818226192
0.000439931955619
-0.00270790219953
0.000410601676872
-0.00283747927628
0.000381095358214
-0.00295693151715
0.000351610663816
-0.00306634879055
0.000322308674816
-0.00316584244705
0.000293319701822
-0.00325558003791
0.00026473928154
-0.00333572334306
0.0002366415962
-0.00340648020391
0.000209069223177
-0.00346803003786
0.000182053995655
-0.00352059348474
0.000155599061959
-0.00356434443778
0.000129707214041
-0.00359949770597
0.000104354376269
-0.00362620686495
7.95257209267e-05
-0.0036446695495
5.51803833245e-05
-0.00365501092209
3.12955830116e-05
-0.00365740618883
7.82261713826e-06
-0.00365194999081
-1.52607759233e-05
-0.00363879524982
-3.80026147707e-05
-0.00361800951646
-6.04162588299e-05
-0.00358972923905
-8.25404206176e-05
-0.00355400440273
-0.000104371027836
-0.00351096671246
-0.000125928237449
-0.00346066439168
-0.000147181626303
-0.00340324251962
-0.000168123609702
-0.00333876993183
-0.000188689181959
-0.00326742900218
-0.000208834891641
-0.00318933675284
-0.000228454922496
-0.00310474105586
-0.000247464731159
-0.00301383795177
-0.000265715231146
-0.00291697044108
-0.000283079758546
-0.00281444416629
-0.000299368407026
-0.00270672503238
-0.000314416938131
-0.00259425518781
-0.000328003384952
-0.00247764511679
-0.000339937748537
-0.00235749119939
-0.000349983861277
-0.00223455733477
-0.000357949769614
-0.00210959335722
-0.000363618089259
-0.00198349972336
-0.000366836680081
-0.00185714456544
-0.00036745846073
-0.00173150672475
-0.000365428299922
-0.00160749180671
-0.00036072648374
-0.00148605615763
-0.000353442719843
-0.00136802898782
-0.00034371465847
-0.00125422773342
-0.000331783569393
-0.00114529518478
-0.0003179256856
-0.00104181659022
-0.000302492188603
-0.000944177780616
-0.000285836901853
-0.000852690857475
-0.000268346472659
-0.000767475268564
-0.000250371161884
-0.00068859093168
-0.000232255967354
-0.000615935996631
-0.000214282832416
-0.000549380262251
-0.000196709270806
-0.000488670806049
-0.000179721892826
-0.000433560205295
-0.000163480790481
-0.000383714340822
-0.000148081077397
-0.000338831717167
-0.00013360074718
-0.000298550328929
-0.00012006686436
-0.000262556386829
-0.000107502729425
-0.000230491318576
-9.58939741429e-05
-0.000202052013494
-8.52315805489e-05
-0.00017690071326
-7.54769743972e-05
-0.00015475825047
-6.66016857628e-05
-0.000135318026626
-5.85531826689e-05
-0.000118332292383
-5.12922283308e-05
-0.000103530315034
-4.47604027309e-05
-9.06966753755e-05
-3.89157068633e-05
-7.95920162685e-05
-3.37029413005e-05
-7.00162187398e-05
-2.90895976834e-05
-6.1720576891e-05
-2.50465094094e-05
-5.43807110579e-05
-2.16526481657e-05
-4.7932296951e-05
-1.8693817501e-05
-4.25178690119e-05
-1.6439446914e-05
-3.78945258129e-05
-1.45772993789e-05
-3.34548833281e-05
-1.28762742469e-05
-2.9312792144e-05
-1.11549243025e-05
-2.60650314512e-05
-9.87895252364e-06
-2.35666357949e-05
-9.47296136789e-06
-2.03419715566e-05
-1.06359605907e-05
-1.6460220887e-05
-1.14735350467e-05
-1.25807016803e-05
-1.21013895999e-05
-8.4200033137e-06
-1.3655402276e-05
-4.3585417025e-06
-1.50322858039e-05
-1.45513604543e-05
-0.000219112980077
0.000851196650691
-0.000451137196195
0.000896856921441
-0.000680868139542
0.000888274505978
-0.000906532715018
0.000873474892892
-0.00112690849333
0.000854155828421
-0.00134092019978
0.000830701649689
-0.00154761383153
0.000803545084931
-0.00174616849471
0.000773166310219
-0.001935899647
0.000740070413855
-0.00211626182194
0.000704760209108
-0.00228684131401
0.000667722753761
-0.0024473472307
0.000629411378578
-0.00259759898661
0.00059023973569
-0.00273751041509
0.000550572263498
-0.00286707791738
0.000510723879627
-0.00298636114563
0.000470957742407
-0.00309547568277
0.000431488093713
-0.0031945720738
0.000392483440785
-0.00328383515824
0.000354069851985
-0.00336346185043
0.000316337808482
-0.00343366781557
0.000279343878093
-0.00349466355734
0.000243120047226
-0.00354666841889
0.000207672464117
-0.00358988425745
0.000172992778833
-0.00362451634366
0.000139053460397
-0.00365074395263
0.000105821128578
-0.0036687477745
7.32483901912e-05
-0.00367867705842
4.12894563064e-05
-0.0036806831603
9.88881214177e-06
-0.00367488315712
-2.10006244079e-05
-0.00366139938397
-5.143151867e-05
-0.00364031994264
-8.1441124217e-05
-0.00361174396816
-0.000111067868202
-0.00357573955611
-0.000140327508509
-0.00353239460905
-0.000169231944346
-0.00348177290425
-0.000197762991877
-0.00342397002094
-0.000225893432767
-0.00335906811247
-0.000253559186121
-0.00328719601612
-0.000280682813604
-0.00320848310863
-0.000307145094877
-0.00312312214485
-0.000332811094663
-0.00303132230535
-0.000357502192715
-0.0029333730267
-0.000381024596021
-0.00282959637835
-0.000403142680408
-0.00272041012372
-0.000423609517783
-0.0026062796482
-0.000442142582229
-0.00248777841971
-0.000458456444255
-0.00236553920328
-0.000472243116886
-0.00224030870638
-0.000483208742214
-0.00211289510056
-0.000491062484611
-0.00198421049514
-0.000495559674408
-0.00185520862122
-0.000496500383797
-0.00172690822206
-0.000493775014625
-0.00160031862705
-0.00048736300834
-0.00147644701098
-0.000477365813716
-0.00135622177236
-0.000463990775508
-0.00124049737333
-0.000447561808442
-0.00112998861413
-0.000428486653223
-0.00102528498631
-0.000407249956602
-0.000926803715884
-0.000384370186457
-0.000834822369593
-0.000360381467169
-0.000749454812236
-0.000335790344945
-0.000670699928263
-0.000311064219307
-0.000598431259449
-0.000286603208422
-0.000532449497635
-0.000262744633321
-0.000472474708577
-0.000239748918661
-0.000418195991383
-0.000217813764962
-0.000369261003438
-0.000197069216097
-0.000325318515516
-0.000177598618011
-0.000286001047355
-0.000159438935447
-0.000250958409789
-0.000142602353013
-0.000219835539172
-0.00012707330519
-0.000192301376455
-0.000112824576262
-0.000168026394528
-9.98103068623e-05
-0.000146709201699
-8.79793846533e-05
-0.000128054563462
-7.72677822441e-05
-0.000111797558981
-6.76110580694e-05
-9.76820264823e-05
-5.89371712929e-05
-8.54818536161e-05
-5.11788052329e-05
-7.49796505241e-05
-4.42677394871e-05
-6.59847541863e-05
-3.81479937766e-05
-5.83145094723e-05
-3.27796025458e-05
-5.18622118538e-05
-2.81675034358e-05
-4.58764493302e-05
-2.47456587111e-05
-4.05101187258e-05
-2.18734522014e-05
-3.56052040043e-05
-1.95570760607e-05
-3.11284666155e-05
-1.74337126805e-05
-2.72681516081e-05
-1.50992569048e-05
-2.35125801822e-05
-1.37263433604e-05
-1.97733484398e-05
-1.33135763593e-05
-1.72702296302e-05
-1.32517300883e-05
-1.37823671533e-05
-1.50899706984e-05
-9.72806042352e-06
-1.62968799169e-05
-6.46160910704e-06
-1.70657804678e-05
-3.42241032947e-06
-1.82278045148e-05
-1.80587798376e-05
-0.000224412874872
0.00107563672802
-0.000461253831744
0.00113372481526
-0.000695670209579
0.00112272019452
-0.000925790267516
0.00110362548519
-0.00115028311318
0.00107868163509
-0.0013679878781
0.00104844188228
-0.00157789895345
0.00101349448604
-0.00177917127918
0.000974480119556
-0.00197111978836
0.000932063530942
-0.00215321587887
0.000886904275432
-0.00232507687092
0.000839634807835
-0.00248645279349
0.000790841597224
-0.00263720976106
0.000741053789349
-0.00277731244979
0.000690734881378
-0.00290680687198
0.000640280511468
-0.00302580293822
0.000590018317808
-0.00313446027779
0.00054021160042
-0.00323297311385
0.000491064108562
-0.00332156067434
0.000442726194329
-0.00340045477598
0.000395301705375
-0.00346989495096
0.000348854084957
-0.00353011815107
0.000303413633329
-0.0035813579851
0.000258982190734
-0.00362383562081
0.000215540040639
-0.00365776242928
0.000173048714806
-0.0036833312922
0.000131457560817
-0.00370072203992
9.07048472369e-05
-0.00371009267106
5.07243581586e-05
-0.00371158729215
1.14452229821e-05
-0.00370532709059
-2.72010313953e-05
-0.0036914207621
-6.528114167e-05
-0.00366995552044
-0.000102852159416
-0.00364101008663
-0.000139962715908
-0.00360464619837
-0.000176643800379
-0.0035609244173
-0.00021291024326
-0.00350989661396
-0.000248750719794
-0.00345162468783
-0.000284129797323
-0.00338617428452
-0.000318977841381
-0.00331363598956
-0.0003531942549
-0.00323412011041
-0.000386638305306
-0.00314777947477
-0.000419134308851
-0.00305480464796
-0.000450464208995
-0.00295544707897
-0.000480375012104
-0.00285001416126
-0.000508573496542
-0.0027388919202
-0.000534735751454
-0.00262253981494
-0.000558504167315
-0.00250151263667
-0.000579499529698
-0.00237645484632
-0.000597322421958
-0.00224811983713
-0.000611571572049
-0.00211735978092
-0.000621855655503
-0.00198513408801
-0.000627824092
-0.00185248395832
-0.000629193610427
-0.00172051788071
-0.000625788527626
-0.00159036364224
-0.000617567593023
-0.00146313411228
-0.000604648413362
-0.00133987129851
-0.000587307747524
-0.00122151351287
-0.000565974977606
-0.0011088504951
-0.000541204474216
-0.00100250579776
-0.00051364981424
-0.00090291179071
-0.000484018093004
-0.000810319905745
-0.000453027425101
-0.000724805735759
-0.00042135776646
-0.00064630285163
-0.000389620728802
-0.000574622786307
-0.000358336498627
-0.000509490900022
-0.000327930365493
-0.000450564902119
-0.000298728429069
-0.000397467290959
-0.000270965701685
-0.000349798662914
-0.000244792071778
-0.00030716167013
-0.000220290868871
-0.000269162951913
-0.000197493218185
-0.00023542473069
-0.000176397432071
-0.000205579370685
-0.00015697609845
-0.000179277739328
-0.000139184944865
-0.000156184319447
-0.000122963010461
-0.000135985504257
-0.000108238605991
-0.000118384950857
-9.49291196433e-05
-0.000103110927215
-8.29467782463e-05
-8.99113786984e-05
-7.21986592753e-05
-7.85601652537e-05
-6.25927955658e-05
-6.8851565913e-05
-5.4039142293e-05
-6.0605353109e-05
-4.6457930229e-05
-5.36324015509e-05
-3.9814221452e-05
-4.7789311087e-05
-3.40752543921e-05
-4.26335994806e-05
-2.99673835299e-05
-3.78541749185e-05
-2.67258366224e-05
-3.33389752033e-05
-2.4151302302e-05
-2.90445611333e-05
-2.18129416576e-05
-2.42792602661e-05
-1.99541918414e-05
-2.00265800813e-05
-1.80734794832e-05
-1.6231019065e-05
-1.72126427877e-05
-1.33918612913e-05
-1.62012340099e-05
-1.11710691757e-05
-1.74326227268e-05
-7.82575798217e-06
-1.97703205686e-05
-4.77833071933e-06
-2.02496845388e-05
-2.47603281361e-06
-2.0672989912e-05
-2.06047817728e-05
-0.000230865169997
0.0013065281374
-0.000474162939548
0.00137705086238
-0.000714747827481
0.00136333332299
-0.000950641278199
0.00133954951028
-0.00118041184727
0.00130848494602
-0.00140281376605
0.00127087936903
-0.00161678700174
0.00122750641546
-0.00182146234084
0.00117919738697
-0.00201615845727
0.00112680504501
-0.00220037340101
0.00107116797006
-0.00237376889466
0.00101308244542
-0.00253615189286
0.000953279893104
-0.00268745278899
0.000892412981439
-0.00282770394879
0.00083104706375
-0.00295701839201
0.000769658391137
-0.00307557044337
0.000708635953221
-0.0031835786819
0.000648287138745
-0.00328129095734
0.000588845193744
-0.00336897272151
0.000530477761684
-0.00344689645072
0.000473296083754
-0.00351533477768
0.000417363325634
-0.00357455327764
0.000362703254002
-0.0036248072449
0.000309306854086
-0.00366633659702
0.000257139673169
-0.00369936515623
0.000206146458698
-0.00372409667251
0.000156257268887
-0.00374071585194
0.000107390498652
-0.0037493849144
5.945833816e-05
-0.00375024598478
1.23688792774e-05
-0.00374341799322
-3.39685074277e-05
-0.00372900060751
-7.964091375e-05
-0.00370707178207
-0.000124725934537
-0.00367769342468
-0.000169289467589
-0.00364091017378
-0.000213378437677
-0.00359675745469
-0.000257018267773
-0.00354526202511
-0.000300204833246
-0.00348645279853
-0.00034290207114
-0.00342036342556
-0.000385033995417
-0.00334704575053
-0.000426483499893
-0.0032665740831
-0.000467085684448
-0.00317906036658
-0.000506629016789
-0.00308465915744
-0.0005448510371
-0.00298358318831
-0.000581442455767
-0.00287610812826
-0.000616045292667
-0.00276258789863
-0.000648259236523
-0.00264345965467
-0.000677641545678
-0.00251925991078
-0.000703715381518
-0.00239063126308
-0.000725973330046
-0.00225833926687
-0.000743892752686
-0.00212327705102
-0.000756952800981
-0.00198647253878
-0.000764669735782
-0.00184907303337
-0.000766639007376
-0.00171232000855
-0.0007625921202
-0.00157749690798
-0.000752444457035
-0.00144587348336
-0.00073632805393
-0.00131864166436
-0.000714597273508
-0.00119686384644
-0.000687810730606
-0.0010814270324
-0.000656698966334
-0.000973007538066
-0.000622126033433
-0.000872048701137
-0.000585032653149
-0.000778765455865
-0.000546365720664
-0.000693167156454
-0.000507010625536
-0.000615098475334
-0.000467743867934
-0.000544277515375
-0.000429211990112
-0.000480332095055
-0.000391930288426
-0.000422829817369
-0.000356285299432
-0.00037130907339
-0.000322541129307
-0.000325303877204
-0.000290852173644
-0.00028436431347
-0.000261285840972
-0.000248062910691
-0.000233850797874
-0.000215995635502
-0.000208521818546
-0.000187777409495
-0.000185252392168
-0.000163042602475
-0.000163978779631
-0.000141444736439
-0.000144620745226
-0.00012265954149
-0.000127084411036
-0.000106385301131
-0.000111264610841
-9.23454502024e-05
-9.70483848039e-05
-8.0288828668e-05
-8.43175882848e-05
-6.99917598914e-05
-7.29522874207e-05
-6.12600293965e-05
-6.28340771683e-05
-5.39298870774e-05
-5.38508539073e-05
-4.78458858457e-05
-4.59614598406e-05
-4.23135446041e-05
-3.96716707489e-05
-3.73445644517e-05
-3.50051459941e-05
-3.28401234686e-05
-3.13041397999e-05
-2.85206028515e-05
-2.85497131661e-05
-2.4744466311e-05
-2.56746876832e-05
-2.13620733982e-05
-2.34290306303e-05
-1.74516322359e-05
-2.20870003937e-05
-1.36697094854e-05
-2.11022969667e-05
-9.92431688026e-06
-2.00515451871e-05
-7.76335204881e-06
-1.97051475533e-05
-6.10533327648e-06
-2.15549181702e-05
-3.66937399313e-06
-2.28079271273e-05
-1.87026787044e-06
-2.25954510315e-05
-2.2543501596e-05
-0.000238776389628
0.00154533087691
-0.000490186325872
0.00162848637349
-0.000738499213955
0.0016116746936
-0.000981580486803
0.00158266072213
-0.00121787117455
0.00154480846127
-0.0014460288825
0.00149907286182
-0.0016649338748
0.00144645050697
-0.00187369493261
0.00138800114986
-0.00207164363399
0.00132479997726
-0.00225831915022
0.00125789340132
-0.0024334465505
0.00118826315205
-0.00259691042574
0.00111680042929
-0.00274872726017
0.0010442894592
-0.00288901779241
0.000971400007529
-0.00301798155863
0.000898686965279
-0.00313587418018
0.000826595441915
-0.00324298807282
0.000755469634066
-0.00333963668706
0.000685563726213
-0.00342614186792
0.000617053912774
-0.00350282430306
0.000550050084899
-0.00356999616921
0.000484607152381
-0.00362795596446
0.00042073492509
-0.00367698462081
0.000358407150013
-0.00371734292288
0.000297568899603
-0.00374926958948
0.000238143227639
-0.00377297998912
0.00018003645892
-0.00378866522302
0.000123143139457
-0.00379649143925
6.73500842111e-05
-0.00379659951289
1.2540574909e-05
-0.00378910477552
-4.14020459995e-05
-0.00377409754437
-9.45893560283e-05
-0.00375164371016
-0.000147123910077
-0.00372178645257
-0.000199093717435
-0.00368454855312
-0.000250566723505
-0.00363993624204
-0.000301584213214
-0.00358794403389
-0.000352154491014
-0.0035285614182
-0.000402245755104
-0.00346178070844
-0.000451780041603
-0.003387606594
-0.000500627008549
-0.0033060665916
-0.000548599897782
-0.00321722241531
-0.000595452017188
-0.00312118159186
-0.000640876228284
-0.00301810882059
-0.000684504983862
-0.002908237202
-0.000725913103283
-0.0027918789445
-0.00076461997255
-0.00266943720482
-0.000800093053211
-0.00254141926926
-0.000831749965278
-0.00240845371554
-0.000858963051566
-0.00227131026143
-0.000881067146232
-0.00213092103769
-0.000897380178393
-0.00198839448934
-0.000907240203975
-0.00184501302858
-0.000910070475954
-0.0017021986536
-0.0009054607143
-0.00156144741052
-0.000893253707527
-0.00142424691702
-0.000873588868402
-0.00129199053562
-0.000846915095076
-0.00116591152414
-0.000813951345483
-0.00104702769074
-0.00077564294309
-0.000936090007625
-0.000733122761741
-0.000833547963192
-0.000687631816375
-0.000739557597529
-0.000640412339933
-0.000654023418186
-0.000592600604301
-0.000576663723834
-0.000545159181591
-0.000507067293002
-0.000498864044785
-0.000444734919502
-0.000454318343789
-0.0003891132933
-0.000411962110827
-0.000339632573502
-0.000372077171994
-0.000295740000853
-0.000334799867455
-0.000256925789523
-0.00030015590216
-0.000222726372148
-0.000268106791734
-0.000192715132728
-0.000238590730109
-0.00016648940221
-0.00021153669687
-0.00014366735056
-0.000186860389205
-0.000123888894332
-0.000164459452662
-0.000106818583783
-0.000144215693343
-9.21468503142e-05
-0.000125997789236
-7.95920236706e-05
-0.000109665163273
-6.89011768349e-05
-9.50706852904e-05
-5.98524292297e-05
-8.20635491699e-05
-5.2258970336e-05
-7.0490177828e-05
-4.5978132903e-05
-6.01949867808e-05
-4.09414457343e-05
-5.10614612944e-05
-3.61957017733e-05
-4.44832316742e-05
-3.17360221345e-05
-3.95355120541e-05
-2.75592531197e-05
-3.55553649784e-05
-2.40047026152e-05
-3.21855281227e-05
-2.02769867789e-05
-2.94893725465e-05
-1.68226944665e-05
-2.69784542565e-05
-1.34343454877e-05
-2.55780981484e-05
-1.06873738783e-05
-2.3955308571e-05
-7.6680756595e-06
-2.31817821449e-05
-5.01395008195e-06
-2.24672415693e-05
-4.09807565293e-06
-2.25753126092e-05
-2.60027547785e-06
-2.44252484611e-05
-1.32036574486e-06
-2.39952096208e-05
-2.3921452681e-05
-0.000248394815096
0.00179375082538
-0.000509719154963
0.00188983801119
-0.00076746256421
0.00186944530505
-0.00101926945488
0.00183449769072
-0.0012634184053
0.0017889901151
-0.00149845002491
0.00173414057583
-0.00172317872798
0.00167121897971
-0.00193669677448
0.00160156271604
-0.00213836287431
0.0015265135267
-0.00232777909062
0.00144736079085
-0.00250475914593
0.00136529805489
-0.00266929298169
0.00128139244863
-0.00282151012995
0.00119656788571
-0.00296164517972
0.00111159906217
-0.0030900067019
0.0010271148532
-0.00320695082203
0.000943607946857
-0.00331285977096
0.000861448552532
-0.00340812499493
0.000780900227273
-0.003493134767
0.000702135803372
-0.00356826495045
0.000625253019148
-0.00363387306713
0.000550288170727
-0.00369029389331
0.000477228667556
-0.00373783727973
0.000406022975632
-0.00377678618082
0.000336589684951
-0.00380739623007
0.000268824097971
-0.00382989462157
0.000202604593313
-0.00384448029316
0.000137796941152
-0.0038513228596
7.42592015429e-05
-0.00385056295403
1.1845074182e-05
-0.0038423110181
-4.95916177496e-05
-0.00382664821922
-0.000110192439481
-0.00380362568251
-0.000170089191129
-0.00377326652261
-0.000229398729055
-0.0037355666924
-0.000288215226898
-0.00369049953472
-0.000346603575066
-0.00363801939709
-0.000404590009995
-0.00357806986824
-0.000462154662618
-0.00351059098511
-0.00051922192719
-0.0034355314476
-0.000575654143326
-0.00335285904554
-0.000631244160752
-0.0032625755335
-0.000685712814252
-0.00316472815633
-0.000738706075261
-0.00305942431716
-0.000789797812719
-0.00294684156638
-0.000838491249259
-0.00282724045683
-0.000884224196596
-0.00270097445843
-0.000926369464349
-0.00256850679574
-0.000964236336984
-0.00243043052044
-0.000997065410314
-0.00228750191395
-0.00102403019659
-0.00214067721263
-0.0010442456307
-0.00199115308786
-0.00105681271662
-0.00184037783311
-0.00106089930474
-0.00169002008937
-0.00105587730387
-0.00154186710165
-0.00104146900528
-0.00139770731014
-0.00101781282691
-0.00125920193786
-0.000985486426955
-0.00112781109756
-0.000945406655467
-0.00100473523474
-0.000898782037155
-0.00089082892673
-0.000847089856795
-0.000786542331651
-0.000791976651876
-0.000691930307364
-0.000735081841652
-0.000606731434072
-0.000677856036523
-0.000530482698889
-0.000621464582345
-0.000462601849849
-0.000566801796301
-0.000402427778762
-0.000514548735846
-0.000349251343548
-0.000465194518662
-0.000302359786126
-0.000419024113053
-0.00026109056003
-0.000376124662666
-0.000224867326892
-0.000336435256359
-0.000193198730976
-0.000299832691205
-0.000165646385861
-0.000266201461846
-0.000141794685281
-0.000235447724067
-0.000121244676619
-0.000207470451574
-0.000103620701739
-0.000182144265615
-8.85742613414e-05
-0.000159323374508
-7.57864356145e-05
-0.000138847375655
-6.49688904421e-05
-0.000120544755925
-5.58646987159e-05
-0.000104237239457
-4.82484110733e-05
-8.9742114037e-05
-4.19275099205e-05
-7.68736496293e-05
-3.67383335803e-05
-6.54476398258e-05
-3.25076103021e-05
-5.53558992473e-05
-2.84229087215e-05
-4.86350238659e-05
-2.47635416957e-05
-4.32656604581e-05
-2.14795163903e-05
-3.89160376495e-05
-1.86211225023e-05
-3.51260318673e-05
-1.57397580685e-05
-3.24602526988e-05
-1.25546368077e-05
-3.02606086841e-05
-9.81959444186e-06
-2.84160134125e-05
-7.00982618272e-06
-2.68716787806e-05
-5.27249545382e-06
-2.50247364195e-05
-3.37607074926e-06
-2.4469614894e-05
-2.16209973129e-06
-2.38996669584e-05
-1.66109465814e-06
-2.50316833684e-05
-8.01282955695e-07
-2.49600940746e-05
-2.47814083267e-05
-0.000259984464222
0.00205376064972
-0.000533260136282
0.00216313768895
-0.00080233431984
0.00213854707784
-0.00106456700085
0.00209675980438
-0.00131802787033
0.00204248396664
-0.00156111769529
0.00197726698665
-0.0017925797955
0.00190272160765
-0.00201150027293
0.00182052793582
-0.00221728782697
0.00173234983961
-0.00240963779631
0.00163976361453
-0.00258848782616
0.00154420461583
-0.00275396892038
0.00144693359249
-0.00290635809269
0.00134902016433
-0.00304603451275
0.00125134130675
-0.00317344214596
0.00115459062423
-0.00328905920017
0.00105929500751
-0.00339337446748
0.000965835389885
-0.00348687024234
0.00087446863992
-0.00357001015801
0.000785349221985
-0.00364323184527
0.000698548564629
-0.0037069420681
0.000614072492118
-0.00376151486727
0.000531875294279
-0.00380729027583
0.000451871890368
-0.00384457476304
0.000373946849693
-0.00387364108277
0.00029796226535
-0.00389472913864
0.000223763152497
-0.00390804565005
0.000151182649041
-0.00391376456011