/*--------------------------------*- C++ -*----------------------------------*\
| =========                 |                                                 |
| \\      /  F ield         | OpenFOAM: The Open Source CFD Toolbox           |
|  \\    /   O peration     | Version:  v1906                                 |
|   \\  /    A nd           | Web:      www.OpenFOAM.com                      |
|    \\/     M anipulation  |                                                 |
\*---------------------------------------------------------------------------*/
FoamFile
{
    version     2.0;
    format      ascii;
    class       surfaceScalarField;
    location    "277";
    object      phia;
}
// * * * * * * * * * * * * * * * * * * * * * * * * * * * * * * * * * * * * * //

dimensions      [0 3 -1 0 0 0 0];
oriented        oriented;


internalField   nonuniform List<scalar> 
18240
(
0.00089258799402
-0.000891399873526
0.00180373804769
-0.000909771167089
0.00271952733799
-0.000914641414218
0.00363056039215
-0.000909598134166
0.00453228859914
-0.00090063352895
0.00542239533445
-0.000888618403127
0.00629767829923
-0.00087424510055
0.0071566744618
-0.000857455017876
0.00799639461724
-0.000838743014866
0.00881588067552
-0.000817893874003
0.00961224371426
-0.000795452568242
0.0103850065125
-0.00077112255071
0.011131367931
-0.000745522533413
0.0118513259667
-0.000718274399168
0.0125421505207
-0.000690064236633
0.0132042926316
-0.000660421593631
0.0138350598025
-0.000630090754557
0.0144353093586
-0.000598500789995
0.015002339098
-0.000566444470059
0.0155373509008
-0.000533245268455
0.016037579015
-0.000499738620925
0.0165044956322
-0.000465144735225
0.0169352209243
-0.000430337626693
0.0173314258237
-0.000394441483496
0.0176900785716
-0.00035836932724
0.0180129824567
-0.000321164165117
0.0182969373032
-0.000283778953312
0.0185438312761
-0.000245193890158
0.0187503064828
-0.000206405717287
0.0189183068316
-0.00016635655768
0.0190443599383
-0.000126089335633
0.0191304619281
-8.45310761029e-05
0.0191731014375
-4.27759701183e-05
0.0191743545651
2.28631313413e-07
0.0191307870342
4.33362615985e-05
0.0190446130175
8.75517894609e-05
0.0189126229501
0.000131674264733
0.0187372531836
0.000176630734792
0.0185156941609
0.000221169141761
0.0182507144744
0.000266114479322
0.0179400950893
0.000310170298447
0.0175870580833
0.000354040509518
0.0171901676368
0.000396396952074
0.0167532276429
0.000437812339294
0.0162757644753
0.000476942889864
0.0157622814665
0.000514229712718
0.0152134120005
0.000548338616915
0.0146344456436
0.000579598351712
0.0140271939866
0.000606727028635
0.0133977340394
0.000629992681069
0.0127489871212
0.000648241943579
0.0120876608329
0.000661778520646
0.0114175009186
0.000669686465952
0.0107454660074
0.000672428277556
0.010075600666
0.000669430361313
0.00941454900405
0.000661407619867
0.00876599432569
0.000648160273665
0.00813567708029
0.000630652704327
0.00752634116685
0.000608976652795
0.0069424283523
0.000584236413467
0.00638544692536
0.000556648610551
0.00585845100323
0.000527305952905
0.00536172648875
0.00049640695641
0.00489706944808
0.000464943669194
0.00446371758264
0.000433040228189
0.00406240863251
0.000401559155077
0.00369156563968
0.000370531475025
0.00335110463489
0.000340665218666
0.00303891183414
0.000311881926457
0.0027543491302
0.000284718601424
0.00249504997927
0.000258993910093
0.00226007374986
0.000235088740037
0.00204703157168
0.000212750548318
0.00185487131149
0.000192238582077
0.00168133516253
0.000173265324398
0.00152538631171
0.000156003188276
0.00138498504564
0.000140156647267
0.00125918833123
0.000125836579816
0.00114622403123
0.000112748432766
0.00104532289665
0.000100935021101
0.000955106803705
9.00307672873e-05
0.000875347473671
7.97903978777e-05
0.000806239451754
6.8947669526e-05
0.000751412756794
5.48560839122e-05
0.00069967820509
5.1603882999e-05
0.00064558795344
5.4116799284e-05
0.000597081430406
4.84012246638e-05
0.00055508284819
4.20162020012e-05
0.000510714087993
4.42837750896e-05
0.000458686563813
5.20312326572e-05
0.000402885483224
5.5725420684e-05
0.000343529850418
5.93337034207e-05
0.000273534948444
6.99494127111e-05
0.000188455622674
8.50179747589e-05
9.07536354454e-05
9.76067890339e-05
9.07141127077e-05
0.000916243679674
-0.00180639832094
0.00190763948405
-0.00189981049533
0.00288793396948
-0.00189363735581
0.00385858484342
-0.00187887567323
0.00481804168298
-0.00185880473567
0.00576436856753
-0.00183356009315
0.00669493882632
-0.00180354485856
0.00760776579106
-0.0017688863934
0.00850030381663
-0.00173002926364
0.00937088684484
-0.00168707386116
0.0102171773306
-0.00164051385086
0.011037882521
-0.0015904212954
0.0118308910241
-0.00153732999288
0.0125952866295
-0.00148126557403
0.0133291712325
-0.00142278170448
0.0140319804382
-0.00136183510263
0.014701992897
-0.00129897752353
0.0153389478782
-0.00123407696842
0.0159412462614
-0.00116766599728
0.0165088655815
-0.00109951189166
0.0170402643583
-0.00103011810123
0.0175355851251
-0.000959149131188
0.0179932802646
-0.000887078968132
0.0184135867277
-0.000813478561908
0.0187948978457
-0.00073880069814
0.0191374866119
-0.00066254154203
0.0194396545159
-0.000585148263678
0.0197016722661
-0.000506068995401
0.0199217426303
-0.000425765601167
0.0201001200235
-0.000343670457937
0.02023493413
-0.000260286106417
0.0203264444015
-0.000175066504573
0.0203727669314
-8.85784762474e-05
0.0203742135914
-3.40165074701e-07
0.0203289836652
8.89872048036e-05
0.0202375292954
0.000179780614552
0.0200982662031
0.000271259401565
0.0199119054487
0.000363658434632
0.0196772416027
0.000456059228532
0.0193953882957
0.000548526320366
0.0190656991227
0.000639995709464
0.0186898469106
0.000730345540629
0.018267929323
0.000818369950117
0.0178023375492
0.000903757761732
0.0172940895567
0.000985176986322
0.0167464429457
0.00106214092197
0.0161614858085
0.00113322642692
0.0155434560384
0.00119781690878
0.0148955974536
0.00125447578613
0.0142231529131
0.00130256534235
0.0135304693391
0.00134079034349
0.012823639874
0.0013686923563
0.012107824855
0.00138535567401
0.0113895473988
0.00139076394305
0.0106742111194
0.00138462403051
0.00996810971231
0.00136755792747
0.00927615423611
0.0013399859983
0.00860370838648
0.00130314912214
0.00795454872444
0.00125802324013
0.0073326370828
0.00120620397106
0.00674031421181
0.00114887195471
0.00618005519236
0.00108762235757
0.00565282843109
0.00102353946495
0.00515979229976
0.000958028127795
0.00470075433531
0.000891978048162
0.00427578012808
0.000826560573511
0.00388376027304
0.000762436489356
0.00352392749475
0.000700496385673
0.00319455099084
0.00064112595946
0.00289433574266
0.000584903028736
0.002621239263
0.00053194412705
0.00237372108754
0.000482553083387
0.00214967455402
0.000436645141761
0.00194751787247
0.000394327983445
0.00176524121503
0.00035539330615
0.00160134809897
0.000319824876639
0.00145401461835
0.000287351913054
0.00132189459545
0.000257888459132
0.0012033785106
0.000231141341794
0.00109726823591
0.000206984892179
0.00100208633829
0.000185107061997
0.000916511632251
0.000165312515855
0.000838176278881
0.000147192721473
0.00076217775033
0.000130809343329
0.000693895315344
0.000119819076905
0.000634347974501
0.000113628506828
0.000583980741124
9.87125906345e-05
0.000541252301696
8.47159013432e-05
0.000499889696124
8.56036150414e-05
0.000455337129893
9.6549494142e-05
0.000402377312954
0.000108641100433
0.00034295127461
0.000118723952165
0.000276913983818
0.000135932397378
0.000197000239363
0.000164868809451
9.6646577601e-05
0.000197885537929
0.000187312786147
0.000931033942426
-0.00273617017858
0.00192192334488
-0.00288936177207
0.00290790790714
-0.00287829156703
0.00388522461376
-0.00285484419337
0.00485139995847
-0.0028236531662
0.00580411369882
-0.00278492376603
0.00674087804678
-0.00273898763267
0.00765948140069
-0.00268613959121
0.00855760235114
-0.00262683623237
0.00943330577189
-0.00256143016242
0.0102845326546
-0.00249043844366
0.0111096783791
-0.00241422723979
0.0119069714303
-0.00233333710891
0.0126751433269
-0.00224811065478
0.0134126991018
-0.00215907443644
0.0141186813773
-0.00206651033389
0.0147918332313
-0.00197089616465
0.0154314573407
-0.00187242189095
0.0160364753918
-0.00177148936112
0.0166063820939
-0.00166817616253
0.0171402061516
-0.00156279451291
0.017637557919
-0.00145530492089
0.0180975011507
-0.00134593135068
0.0185196906013
-0.00123452830982
0.0189031635941
-0.00112124843742
0.0192475614969
-0.00100586599019
0.0195518537871
-0.000888490301516
0.0198156338148
-0.000768851190042
0.0200377875079
-0.000647051769272
0.0202178519179
-0.000522821553534
0.0203546450045
-0.000396302169298
0.0204476719581
-0.000267272355538
0.0204957324308
-0.000135957874935
0.0204983594503
-2.24476594051e-06
0.0204544231349
0.000133503964293
0.0203635829563
0.000271240197422
0.0202249054892
0.000410415144296
0.0200383092419
0.000550769000441
0.0198032148953
0.000691530023289
0.0195199597477
0.000832191928553
0.0191884952687
0.000971739113036
0.0188097496108
0.00110940221353
0.0183843880419
0.00124391964127
0.0179141042519
0.00137426095018
0.0174004555752
0.00149893320727
0.0168460680596
0.00161666680799
0.0162535546287
0.0017257786984
0.0156266181043
0.00182482379713
0.0149690448605
0.00191203280584
0.0142856832148
0.0019859438706
0.0135814844483
0.00204493231749
0.0128623231783
0.00208783213014
0.0121340469996
0.00211355079122
0.0114031161617
0.00212165180636
0.0106756550814
0.00211199606969
0.00995794897749
0.0020852156666
0.00925555198833
0.00204229994133
0.00857374052547
0.00198492071804
0.00791674998029
0.00191494436783
0.00728829695036
0.00183463234435
0.00669099070929
0.00174612394589
0.00612695510299
0.00165164518469
0.00559733772437
0.00155311054911
0.00510292670571
0.00145242632743
0.00464367261296
0.00135118040855
0.00421926456599
0.00125094088682
0.0038286925969
0.00115293857041
0.00347080963214
0.00105832673469
0.00314395617068
0.000967886237813
0.00284648903105
0.000882291848648
0.00257644156046
0.000801878463007
0.00233198483898
0.000726913309004
0.00211110392945
0.000657402655511
0.00191198921879
0.000593338771186
0.00173273362852
0.000534525823549
0.00157166331307
0.000480793523124
0.0014270605646
0.000431840194351
0.0012974388967
0.000387417322385
0.00118128693539
0.000347191896517
0.00107727969024
0.000310910812137
0.000984007552527
0.000278292288456
0.000900056069643
0.000249195105606
0.000823496604121
0.000223676259848
0.000751953573582
0.000202297092257
0.000685993813948
0.000185719985359
0.000630134354929
0.000169441633643
0.000573687629674
0.000155107425869
0.000517260200217
0.00014110290898
0.000471971738914
0.000130850159267
0.00043574202636
0.000132738473857
0.000383198328977
0.000161134455024
0.00031632085595
0.000185557141601
0.000245325043955
0.000206889492189
0.000165278498991
0.000244846475362
8.44906121351e-05
0.000278589668125
0.000271769319082
0.000941161119774
-0.00367606681955
0.00193832670924
-0.00388519232228
0.00293167141932
-0.00387029970099
0.00391659137851
-0.00383842281189
0.00489030603541
-0.00379603185544
0.00585026710963
-0.00374354418307
0.00679396921549
-0.0036813560389
0.00771908044883
-0.00360991218166
0.00862333180279
-0.00352975865983
0.00950467886368
-0.00344144355199
0.0103611523538
-0.00334559130561
0.0111910395562
-0.00324279002508
0.0119926947478
-0.00313368521692
0.0127647427942
-0.00301884918836
0.0135058499954
-0.00289889419145
0.0142149513627
-0.00277432398944
0.0148909831797
-0.0026456679451
0.015533135569
-0.0025133164825
0.016140548831
-0.00237767828989
0.0167125931075
-0.00223900150859
0.0172485326394
-0.00209755491796
0.0177478347153
-0.00195343654059
0.0182098065542
-0.00180677864064
0.0186339347326
-0.00165754426545
0.0190195000412
-0.00150575366322
0.0193659472993
-0.00135126898415
0.0196724827696
-0.00119403923935
0.0199384722634
-0.00103387357718
0.0201630260475
-0.000870701481875
0.0203454223985
-0.000704336492358
0.0204846853207
-0.000534751102161
0.02058002952
-0.00036182830664
0.0206304375516
-0.000185648738975
0.0206351232262
-6.24139699351e-06
0.0205931138153
0.000176129066918
0.0205037260555
0.000361213789613
0.0203661590232
0.000548493665213
0.0201799752675
0.000737433824209
0.0199447077032
0.000927205260206
0.0196603361388
0.00111694131591
0.0193269102157
0.00130547214717
0.0189450116512
0.00149157990017
0.0185153958391
0.00167374843092
0.0180394324487
0.00185041225906
0.0175187701613
0.00201972319835
0.0169557522447
0.0021797913147
0.0163531084087
0.00232847594559
0.015714339798
0.00246362933877
0.0150434302094
0.00258293435039
0.0143451776541
0.00268417671332
0.0136248906652
0.00276516402192
0.0128886157141
0.00282404657259
0.0121427587549
0.00285932115735
0.0113941595922
0.00287016589228
0.0106496194765
0.00285643675963
0.00991585284951
0.00281889313363
0.0091990091337
0.00275905026658
0.00850462687469
0.00267922712538
0.00783726189925
0.00258223676192
0.00720058437587
0.00247125923496
0.00659723289404
0.0023494294386
0.00602909481205
0.0022197568941
0.0054972510033
0.00208492671934
0.00500223256745
0.00194742537928
0.00454390884179
0.00180947425449
0.00412168840814
0.00167312726493
0.00373442973931
0.00154014591605
0.00338066956257
0.00141202406039
0.00305859413985
0.0012898802272
0.00276627073837
0.00117452299318
0.00250161913158
0.00106642363978
0.00226259266383
0.000965828441009
0.00204712039502
0.00087275652745
0.00185324274986
0.000787099991469
0.00167904111583
0.000708610424962
0.00152274405869
0.000636980140166
0.00138265486295
0.000571822517327
0.00125723294159
0.000512740896181
0.00114502034733
0.000459311544964
0.00104469349063
0.000411153108744
0.000954972160796
0.000367935991289
0.000874612599683
0.000329484089692
0.000801918420131
0.000296306798415
0.000736429264968
0.000267726435641
0.000673884421588
0.000248213173298
0.000613172395851
0.000230099860364
0.000553932530068
0.00021429433081
0.000500391626756
0.000194595164861
0.000444156525452
0.000187036011382
0.00038462835281
0.000192216261874
0.000341183818855
0.00020453365717
0.00027755710529
0.000249138481986
0.000199818484145
0.000284568016362
0.000133177512108
0.000311433443622
6.93607823438e-05
0.000342343304805
0.000341083881107
0.000952413377888
-0.00462721616385
0.00195997258301
-0.00489142102716
0.00296371819354
-0.00487270862999
0.00395893070356
-0.00483229714521
0.0049427052554
-0.00477846986205
0.00591235052866
-0.00471185166097
0.00686529046168
-0.00463296085309
0.00779910640767
-0.00454239201684
0.00871150881315
-0.00444082925418
0.00960039618975
-0.00432899936939
0.0104638138931
-0.00420768419355
0.0113000150996
-0.00407766861341
0.0121074017279
-0.00393975892203
0.0128845857371
-0.00379472529676
0.0136303123248
-0.00364332629328
0.0143435217075
-0.00348624732572
0.015023255475
-0.00332413321088
0.0156687199916
-0.00315752508851
0.016279178562
-0.00298690322547
0.016854018941
-0.00281262528435
0.0173926349276
-0.00263498142379
0.0178945014361
-0.0024541354619
0.0183590503818
-0.00227019223767
0.0187857564888
-0.0020831416884
0.0191740111346
-0.00189293673718
0.0195232206475
-0.00169943845705
0.0198326809955
-0.00150250147205
0.020101688589
-0.00130191903548
0.0203294172161
-0.00109751414434
0.0205150409332
-0.00088908451254
0.0206576159213
-0.000676500518605
0.0207562150905
-0.000459645774351
0.0208098178505
-0.000238522902046
0.0208174576053
-1.31994704727e-05
0.0207781225447
0.000216090596773
0.0206909146974
0.00044899934038
0.0205549631854
0.000684967013365
0.0203695913481
0.000923277961237
0.0201342415076
0.00116297226267
0.0198486437289
0.00140290751489
0.0195127484119
0.00164168301179
0.0191268901222
0.00187770695706
0.0186917260917
0.00210913186215
0.0182083920595
0.00233392215608
0.0176784498221
0.00254979658821
0.0171040391355
0.00275429356247
0.0164878429421
0.00294472458472
0.0158332396175
0.00311825104977
0.0151442820721
0.00327187699985
0.0144258344343
0.00340258394685
0.0136835158896
0.00350741428305
0.0129237541208
0.00358372225717
0.0121535981803
0.00362937345941
0.0113805849666
0.00364306603822
0.0106123745297
0.00362452960483
0.00985645087885
0.00357469773142
0.0091197253032
0.00349566804049
0.00840824163574
0.00339061025521
0.00772689174094
0.0032635068548
0.00707933709603
0.00311875162178
0.00646808642752
0.00296063827658
0.00589474385614
0.00279307403924
0.00536017589452
0.00261947699302
0.00486466665761
0.00244292180561
0.00440789117477
0.00226622609976
0.00398898281526
0.00209200536794
0.00360651624274
0.00192255862963
0.00325867661702
0.00175979781028
0.0029433285958
0.00160513767312
0.00265822103046
0.00145953011225
0.00240103333285
0.0013234941685
0.0021695050167
0.00119723802047
0.00196142296437
0.00108071310914
0.00177469926952
0.000973704029069
0.00160734296651
0.000875848100904
0.00145751500349
0.000786699092225
0.00132349797803
0.000705735539519
0.00120373586752
0.00063240923636
0.00109680758685
0.000566152104514
0.0010014589081
0.000506423262656
0.000916593786206
0.000452729073373
0.000841346815981
0.000404669526694
0.000774964625686
0.00036262782443
0.00071641039183
0.000326227906054
0.00066051259821
0.000304056599132
0.000603260593236
0.000287298933843
0.000542904274465
0.00027459626726
0.000470393114359
0.000267050691141
0.000402489109945
0.000254886411889
0.000339473114009
0.000255180278618
0.000287591726109
0.000256362233007
0.000241732966399
0.000294949475923
0.000173364491858
0.000352899895767
0.000107690706245
0.000377042985475
5.47102170804e-05
0.000395247184748
0.000395765482444
0.000965887579087
-0.00559184366314
0.00198711782027
-0.00591132433687
0.00300430741432
-0.00588856453483
0.00401266587031
-0.00583932122338
0.00500919595018
-0.00577366520573
0.00599109195336
-0.00569241311063
0.0069556903761
-0.00559622459362
0.00790048808217
-0.00548585593548
0.00882314701715
-0.00536215545097
0.00972151679145
-0.0052260388188
0.0105936327207
-0.00507847284215
0.0114377338442
-0.00492044720496
0.0122522498956
-0.004752958414
0.0130358128074
-0.0045769793564
0.013787231201
-0.00439344542203
0.0145054952525
-0.00420322350237
0.0151897390678
-0.0040071031242
0.0158392402913
-0.00380576792788
0.0164533723315
-0.00359979563771
0.0170316019664
-0.00338963539844
0.0175734357022
-0.00317561960129
0.0180784202073
-0.00295794921252
0.0185460877742
-0.00273671822968
0.0189759641665
-0.00251190611728
0.0193675173172
-0.00228341237559
0.019720175129
-0.00205105295529
0.02003327889
-0.00181460132844
0.0203061111777
-0.00157378601454
0.0205378542816
-0.00132833604024
0.0207276281453
-0.00107797968892
0.0208744546118
-0.000822496607412
0.0209773064419
-0.000561713163048
0.021035080775
-0.000295564620612
0.0210466622262
-2.40966731744e-05
0.0210109079399
0.00025247483745
0.0209267261242
0.000533761390118
0.0207930735319
0.000819144229935
0.0206090472532
0.00110777915079
0.0203738911772
0.00139854773587
0.0200870945165
0.00169007494979
0.019748400934
0.0019806931739
0.0193579056689
0.00226847234608
0.018916062663
0.00255119334138
0.0184237775344
0.00282638211158
0.0178824182228
0.00309128249852
0.017293914263
0.00334288445285
0.0166607891885
0.00357789303349
0.0159862845559
0.00379276475647
0.0152744271815
0.0039837072087
0.0145301650643
0.0041467883631
0.0137594262721
0.00427806883022
0.0129691636501
0.00437387985757
0.0121672411066
0.00443117056256
0.0113622182504
0.00444795290898
0.0105629269816
0.00442367936874
0.00977800308104
0.00435947877887
0.00901540244203
0.00425813356213
0.00828195649758
0.00412392705509
0.00758294955055
0.00396240608467
0.00692197314107
0.00377963788969
0.00630118181237
0.00358136147873
0.00572173185955
0.00337247165927
0.00518414718274
0.00315701803023
0.00468844817344
0.00293857319564
0.00423408555333
0.0027205320263
0.00381987636929
0.00250614263804
0.00344400796916
0.00229833728869
0.00310418553735
0.00209951158386
0.00279781554937
0.00191138245994
0.0025222231943
0.00173498790895
0.00227477022088
0.00157080591207
0.00205294097041
0.00141892712748
0.00185434843556
0.00127916946807
0.00167676061191
0.00115116413593
0.00151809780999
0.00103439282092
0.001376448935
0.000928240551336
0.001250066267
0.000832021610534
0.00113737746232
0.000745010527587
0.00103698640611
0.00066646508975
0.000947685590991
0.000595652703629
0.000868473869073
0.000531879272858
0.000798554267611
0.000474532653107
0.000736952031058
0.00042417894587
0.000676042830141
0.0003870859154
0.000618222713295
0.000361827751617
0.000557520389908
0.000347952739437
0.000500759082663
0.000331304725704
0.000447674823324
0.000320081065978
0.000383498021849
0.000319005087717
0.000313602437448
0.000325018235726
0.000240545527873
0.000329374039378
0.000192371759092
0.000343079019736
0.000150387112722
0.000394822448257
9.3131790738e-05
0.000434247728048
4.66205859654e-05
0.00044170567444
0.000442344756149
0.000982039548167
-0.00657262795086
0.00202006328917
-0.00694802624372
0.00305375387169
-0.00692092734567
0.00407819784761
-0.00686243531916
0.00509028443825
-0.00678442195908
0.00608709066888
-0.00668788798969
0.00706584713733
-0.0065736499423
0.008023960587
-0.00644263711858
0.00895902407892
-0.00629588807506
0.00986883801055
-0.00613452216798
0.0107514126761
-0.00595972041719
0.0116049823687
-0.00577269249946
0.0124279977493
-0.00557465569819
0.0132191304649
-0.00536680002267
0.013977254321
-0.00515026709194
0.014701439171
-0.00492611631956
0.0153909210302
-0.00469530691804
0.0160450858587
-0.00445866958862
0.0166634311018
-0.00421689629151
0.0172455429607
-0.00397052265945
0.0177910545177
-0.00371992995783
0.0182996225854
-0.00346534139543
0.0187708891078
-0.0032068372244
0.0192044636563
-0.00294436372609
0.0195998928658
-0.00267775782673
0.019956651464
-0.00240676353731
0.0202741207007
-0.00213106040352
0.0205515872064
-0.00185028289258
0.0207882288898
-0.00156405019485
0.0209831208029
-0.00127198902441
0.0211352285137
-0.000973767740311
0.0212434228932
-0.000669119658452
0.0213064853077
-0.000357888071956
0.0213231355821
-4.00595403041e-05
0.0212920534563
0.000284193539084
0.0212119228989
0.000614475255598
0.0210814711401
0.000950127838534
0.0208995274213
0.00129020075881
0.0206650752734
0.00163342668579
0.0203773173973
0.00197820600109
0.0200357309204
0.00232260301727
0.0196401269974
0.00266434709418
0.019190699854
0.00300084330516
0.0186880771644
0.00332917688838
0.0181333688772
0.00364611782049
0.0175282258074
0.00394810584536
0.0168749238356
0.00423123395199
0.016176468969
0.00449121330575
0.0154367587501
0.00472337675216
0.0146607555916
0.00492271597855
0.0138546711519
0.00508404604798
0.0130260887137
0.00520232813336
0.0121839235765
0.00527318219389
0.0113381490562
0.00529356210248
0.0104992318986
0.00526241622233
0.00967743969972
0.00518108736779
0.0088822104141
0.00505318042546
0.00812156056162
0.00488438648658
0.00740127027561
0.00468252037087
0.00672464783548
0.00445609333944
0.00609308635204
0.00421277374676
0.00550696404081
0.00395845403936
0.00496633109383
0.00369750975236
0.00447099342409
0.00343376511831
0.00402021611231
0.00317114694491
0.00361249233692
0.00291370143728
0.00324548175123
0.00266516234238
0.00291623895633
0.00242856932618
0.00262150706871
0.00220592145575
0.00235805921075
0.00199824898561
0.00212286035033
0.00180582530083
0.00191311697943
0.00162850564177
0.00172624876282
0.00146588735309
0.00155987569091
0.00131740385754
0.0014118179443
0.00118233311241
0.00128009440724
0.00105986320391
0.00116291608866
0.000949111783567
0.00105869509138
0.000849155830387
0.000966045202958
0.000759047462367
0.000883800804774
0.000677838025158
0.000811055135443
0.000604571812455
0.000747223719575
0.000538318721688
0.000692919911941
0.000478438344953
0.000635515752182
0.000444445499852
0.000576964045394
0.000420337171398
0.00052188185866
0.000402989512634
0.000461308714339
0.000391830637747
0.000401756554328
0.000379580913905
0.000338570019063
0.000382136472773
0.000281394688114
0.000382139180584
0.000216429206787
0.0003942823249
0.000154590175043
0.000404868406965
0.000122585793809
0.000426794321459
7.95553819682e-05
0.000477217050554
3.96127017267e-05
0.000481579598471
0.0004819342376
0.00100113091049
-0.00757251260929
0.00205913696645
-0.00800472207789
0.00311247762929
-0.0079729474426
0.00415605511565
-0.00790469161818
0.00518661535088
-0.0078136582683
0.00620109426885
-0.00770104229868
0.0071965995793
-0.00756782805715
0.00817042965004
-0.00741513960788
0.00912009657154
-0.00724422576283
0.0100433397296
-0.00705643721077
0.0109381401446
-0.00685319308794
0.0118027249797
-0.00663595321505
0.0126355711985
-0.006406181262
0.0134353991587
-0.00616531427499
0.0142011634663
-0.00591472511292
0.0149320342237
-0.0056556917899
0.0156273740292
-0.0053893635486
0.0162867073527
-0.00511673529429
0.0169096856232
-0.00483862418938
0.0174960491231
-0.00455565626462
0.0180455865954
-0.00426826020311
0.0185580978946
-0.00397667096242
0.0190333568973
-0.00368094259824
0.0194710832386
-0.00338096693562
0.0198709148501
-0.00307649976278
0.0202323920692
-0.0027671863529
0.020554939658
-0.00245259210358
0.0208378606111
-0.00213222770247
0.0210803238792
-0.00180558049573
0.0212813650902
-0.00147214098277
0.0214398789399
-0.00113143969217
0.0215546294144
-0.000783075178636
0.0216242528343
-0.000426767148119
0.0216472847813
-6.23962045047e-05
0.0216221805519
0.000309940205207
0.021547364763
0.000689883369464
0.0214212718874
0.00107675883681
0.0212424175877
0.00146954287284
0.0210094535147
0.00186682376874
0.0207212492875
0.00226679318267
0.0203769466785
0.00266723365661
0.0199760338929
0.00306553827695
0.0195183830546
0.00345871809858
0.019004305865
0.00384342884269
0.0184345793413
0.00421596559233
0.0178105085501
0.00457225156102
0.017133991162
0.00490777501839
0.0164076669779
0.00521751904849
0.0156351120115
0.00549586679341
0.0148211416593
0.00573657744655
0.0139721461233
0.00593290024783
0.0130963910095
0.00607790933538
0.0122041169102
0.00616525760627
0.011307242788
0.00619021291292
0.0104185529667
0.00615086851554
0.00955056808021
0.00604883637056
0.00871482406629
0.00588865245695
0.00792126249772
0.00567767908085
0.00717630098636
0.00542719203525
0.00648250130913
0.00514962639271
0.00583965520216
0.00485534847101
0.00524676131006
0.00455108435538
0.004703304696
0.00424070400901
0.00420908923883
0.00392769378504
0.00376342476085
0.00361653829314
0.00336447481809
0.00331236143971
0.00300923317439
0.00302014068114
0.00269376753623
0.00274376392055
0.00241388708054
0.00248556136
0.00216561369216
0.00224629373347
0.0019454729653
0.00202576985037
0.00175039699789
0.00182340266056
0.00157763455805
0.0016384990838
0.00142465471287
0.00147025362435
0.00128918371888
0.00131769764713
0.00116916951163
0.00117978805046
0.00106278175105
0.00105542714368
0.000968406427773
0.000943468896565
0.000884651043912
0.00084275041045
0.000810329719009
0.000752112725535
0.000744434506005
0.000670426878346
0.000685777132155
0.000596940110609
0.000632285344456
0.000531895081393
0.000579771586865
0.000496923610629
0.000528011783625
0.000472059803219
0.000478257391063
0.000452704008054
0.000424779351052
0.000445265558417
0.000362185080636
0.000442126376963
0.000301249603199
0.000443018930563
0.000237678214544
0.000445655737228
0.000190622473678
0.000441289389073
0.00013848615935
0.000456958137146
9.75079840259e-05
0.000467711766581
6.91808197974e-05
0.000505501798573
3.34572552938e-05
0.00051725962253
0.000515354732901
0.00102337607904
-0.00859465407523
0.00210471079684
-0.0090847543785
0.00318099325884
-0.00904792338976
0.00424689751936
-0.00896928441398
0.00529898414859
-0.00886443234987
0.00633402366176
-0.00873476511388
0.00734897241354
-0.00858145830489
0.00834100452068
-0.00840584920503
0.00930753040578
-0.00820942823608
0.0102462212935
-0.00799380209534
0.0111550173422
-0.00776066437248
0.0120321419011
-0.00751175313639
0.0128760980926
-0.00724881715119
0.0136856702275
-0.00697357006969
0.0144599068648
-0.00668765366258
0.0151981061799
-0.00639259165824
0.0158997836053
-0.00608975430049
0.0165646401029
-0.00578031901356
0.0171925162184
-0.00546524526054
0.0177833481033
-0.0051452525458
0.0183371162337
-0.0048208155978
0.0188538003115
-0.00449216737562
0.0193333351189
-0.00415931775371
0.019775576152
-0.0038220788953
0.0201802713054
-0.00348009881829
0.0205470411709
-0.00313289594158
0.0208753647829
-0.00277989310815
0.0211645685951
-0.00242044952555
0.0214138181147
-0.00205388988668
0.021622109459
-0.00167953702226
0.0217882641983
-0.00129674464287
0.0219109268422
-0.000904936225889
0.0219885718708
-0.000503658613698
0.0220195184097
-9.26397509445e-05
0.022001960675
0.000328151330662
0.0219340092728
0.000758435930392
0.0218137509671
0.0011975678287
0.0216393163515
0.00164447456396
0.0214089627447
0.00209762332024
0.0211211534334
0.00255499343775
0.0207746418487
0.00301408420655
0.0203685343489
0.00347192844762
0.0199023452424
0.00392513632635
0.0193760215021
0.00436992457325
0.0187899629454
0.00480214331416
0.0181450356366
0.00521724189667
0.0174426334685
0.0056101891034
0.0166848068531
0.00597530104976
0.0158745369358
0.00630603984343
0.0150161738209
0.00659480727599
0.0141159945463
0.00683288215495
0.013182896431
0.00701079072695
0.0122287399458
0.0071191481087
0.0112681796547
0.00715050449754
0.0103173375443
0.00710141804535
0.00939171206673
0.00697414245426
0.00850584676945
0.00677421405313
0.00767302988984
0.00651012912912
0.00690072049731
0.00619915912361
0.00618962005449
0.00586038289957
0.0055362553529
0.00550837979795
0.00493707288346
0.00514994964231
0.00439108053048
0.00478634795813
0.00389882208506
0.00441962799105
0.00346009962957
0.00405490891446
0.00307291741784
0.00369924828548
0.00273324075098
0.00335951239277
0.00243569620032
0.0030410535121
0.00217459407826
0.00274642810578
0.00194499878659
0.00247568545373
0.0017429893563
0.00222760762714
0.00156534989403
0.00200088788244
0.00140921468905
0.00179451111855
0.0012719060114
0.00160745290759
0.00115106873594
0.00143845128827
0.00104459319168
0.00128619390228
0.000950604176281
0.00114936137254
0.000867470230503
0.00102655860593
0.000793804771411
0.000916379507901
0.000728467610803
0.000817417956838
0.000670566043267
0.000728299666946
0.000619141050717
0.000648340352823
0.000568578283626
0.000582432020282
0.000517118907616
0.000548355480215
0.0004679717318
0.000521175519232
0.000417806275329