/*--------------------------------*- C++ -*----------------------------------*\
| =========                 |                                                 |
| \\      /  F ield         | OpenFOAM: The Open Source CFD Toolbox           |
|  \\    /   O peration     | Version:  v1906                                 |
|   \\  /    A nd           | Web:      www.OpenFOAM.com                      |
|    \\/     M anipulation  |                                                 |
\*---------------------------------------------------------------------------*/
FoamFile
{
    version     2.0;
    format      ascii;
    class       volScalarField;
    location    "835";
    object      pa;
}
// * * * * * * * * * * * * * * * * * * * * * * * * * * * * * * * * * * * * * //

dimensions      [0 2 -2 0 0 0 0];


internalField   nonuniform List<scalar> 
9216
(
914.997663428
914.692196056
914.060265584
913.096377667
911.805948704
910.195034145
908.271188949
906.043315987
903.521561146
900.717149548
897.642286436
894.309982451
890.733957661
886.928462718
882.908194601
878.688122482
874.283422206
869.709313142
864.981015408
860.113601054
855.121975186
850.020742204
844.824209677
839.54626858
834.200417431
828.799654528
823.35651932
817.882994548
812.390561975
806.890112555
801.392013677
795.906027808
790.441389472
785.006725531
779.610141447
774.2591492
768.960758368
763.721407144
758.547058224
753.443133128
748.414611255
743.465966896
738.601270123
733.824126048
729.137776372
724.545040457
720.048416414
715.650023652
711.35170249
707.154957839
703.061056379
699.07097113
695.185475368
691.405087882
687.730162923
684.160836067
680.697109704
677.338799536
674.085615244
670.937107831
667.892745338
664.951861328
662.113725648
659.377494503
656.742276417
654.207084361
651.770897136
649.432614056
647.191112031
645.045203245
642.993688186
641.0353167
639.168837197
637.392961345
635.706409572
634.107879589
632.596088255
631.169743969
629.827584884
628.568355135
627.390839329
626.293842478
625.27622062
624.336864283
623.474725046
622.688802247
621.978165156
621.341942423
620.77933899
620.28962642
619.872150479
619.526312772
619.251543408
619.047175907
618.911095399
618.852349839
915.302140801
914.994945006
914.361364562
913.393118952
912.096482121
910.47779776
908.544785398
906.30649586
903.773211484
900.956306661
897.868126852
894.521835264
890.931289184
887.110885848
883.07544745
878.840075793
874.420053558
869.830713921
865.087362312
860.205163971
855.199087415
850.083810201
844.873683006
839.582652023
834.224241185
828.811488742
823.356944735
817.872619264
812.369992557
806.859972849
801.352917107
795.858595553
790.386221248
784.944423503
779.541282908
774.1843086
768.880479845
763.636228005
758.457482115
753.349654209
748.317687913
743.36604637
738.498762809
733.719430381
729.031253759
724.437040245
719.939251526
715.539995482
711.24107728
707.043991347
702.949971063
698.959980431
695.074761718
691.294826447
687.620500459
684.051913978
680.589043725
677.231701949
673.979575407
670.832213415
667.789063673
664.849459549
662.012652881
659.277800816
656.64399586
654.110252664
651.675535635
649.338746115
647.098747887
644.954355147
642.904356223
640.947502675
639.082531484
637.308155521
635.623084378
634.026016351
632.515657986
631.090717619
629.749923632
628.492019503
627.315780679
626.220011029
625.20355819
624.265311235
623.404214316
622.619265329
621.909527613
621.27412937
620.712273252
620.223236573
619.806379908
619.461153
619.1871179
618.984026997
618.852198141
618.79355189
915.935545048
915.623620071
914.98427618
914.007325152
912.699138794
911.066199109
909.116418392
906.859069647
904.304671026
901.464848711
898.352201498
894.980152248
891.362808821
887.514817147
883.451230592
879.187374614
874.738732495
870.120827715
865.349130284
860.438959506
855.40541194
850.263284324
845.027021756
839.710658647
834.327784345
828.891499178
823.414394429
817.908520668
812.385379423
806.855901535
801.330448508
795.818798711
790.330157106
784.873148697
779.455834071
774.085708421
768.769722506
763.514286162
758.325293229
753.208128468
748.167695437
743.208425921
738.334309832
733.548906376
728.855375135
724.25648826
719.754661942
715.351968965
711.050169856
706.850725158
702.754825581
698.763403444
694.877161245
691.096581798
687.421954749
683.853385086
680.390817294
677.034042056
673.782717913
670.636376173
667.594440115
664.656228274
661.820971389
659.08781437
656.455831319
653.924026552
651.491348068
649.156688067
646.918895251
644.776775224
642.729101986
640.774618541
638.912047873
637.140093997
635.457452585
633.862812615
632.354866721
630.932313469
629.59386742
628.338261985
627.164259104
626.07065255
625.056277088
624.120012053
623.260789808
622.477599418
621.769494243
621.135595631
620.575099741
620.08728179
619.671503693
619.327222408
619.054006379
618.85157512
618.720085112
618.657554424
916.909306981
916.591935424
915.943586223
914.953035027
913.626848546
911.971741019
909.995918772
907.708993212
905.121850342
902.246505625
899.095955976
895.68402581
892.025216711
888.134557586
884.027464506
879.719605242
875.226777403
870.564793431
865.749381123
860.796091347
855.720221514
850.536745155
845.260256265
839.904917858
834.484423738
829.01196244
823.500192921
817.961220715
812.406584756
806.847243427
801.293570533
795.755349543
790.241777655
784.761466083
779.322450322
773.932196918
768.597618374
763.32508426
758.120440009
752.989021377
747.935676098
742.964780778
738.080264546
733.285627577
728.583965946
723.977991052
719.470054926
715.062169867
710.7560335
706.553047951
702.454343993
698.460799158
694.573060389
690.791560559
687.116539171
683.548056921
680.086014125
676.730163133
673.480124372
670.335396604
667.295370663
664.359337731
661.526501007
658.795982337
656.166832177
653.63803498
651.208517895
648.877155352
646.642776928
644.504171554
642.460094926
640.509273685
638.650412668
636.882199304
635.2033109
633.612419379
632.108198679
630.689329869
629.354508623
628.102450653
626.931899161
625.841630443
624.830461164
623.897253959
623.040924352
622.260446178
621.554858016
620.923268375
620.364861743
619.878903929
619.464748602
619.121844163
618.849742203
618.648111362
618.517004349
618.453762111
918.227462145
917.903084978
917.242426435
916.233249812
914.882420964
913.196991882
911.185578684
908.858260124
906.226431004
903.302643166
900.100442974
896.634206158
892.918975541
888.970303157
884.804101268
880.436502375
875.883731776
871.161991424
866.287357795
861.275691335
856.142559495
850.903170015
845.572316058
840.164329363
834.693043039
829.171760095
823.613229706
818.029627525
812.432542468
806.832966486
801.241290056
795.667300019
790.120183109
784.608528855
779.140339488
773.723039963
768.363491843
763.068007569
757.8423681
752.691840416
747.621197905
742.634740194
737.736315458
732.929341792
728.216830693
723.601409254
719.085344086
714.670563639
710.35868186
706.151019946
702.048629056
698.052310856
694.162638673
690.379976263
686.704496921
683.136200067
679.674927987
676.320380025
673.072126844
669.929622219
666.892214929
663.959158351
661.129620263
658.402690613
655.777389648
653.252674323
650.827445243
648.500552201
646.270800414
644.136955654
642.097750198
640.151887915
638.298050256
636.534901556
634.861095247
633.275279512
631.776103799
630.362224829
629.032313373
627.785060542
626.619184691
625.533437837
624.526612518
623.597548144
622.745137615
621.968333415
621.266153837
620.63768871
620.082105204
619.59865331
619.186671404
618.845591035
618.574941217
618.374353285
618.243831929
618.180616193
919.896660501
919.563420021
918.886995113
917.853923396
916.471480979
914.747174785
912.690162191
910.311133981
907.622148919
904.63645604
901.36831425
897.832811446
894.045687916
890.023166908
885.781795701
881.338298613
876.709444054
871.911925737
866.962259028
861.876691393
856.671126955
851.361063215
845.961539371
840.487093869
834.951730593
829.368891517
823.751435673
818.111622763
812.461101807
806.810903539
801.171437262
795.552490992
789.963236299
784.412232599
778.907438716
773.456224761
768.065386859
762.74116329
757.489252783
752.314833719
747.222585023
742.216707569
737.300946886
732.478616024
727.752619369
723.125476267
718.599345246
714.176047699
709.857091796
705.643695509
701.5368095
697.537138797
693.645163998
689.86116099
686.185219927
682.61726254
679.15705855
675.804240333
672.558316647
669.418684674
666.384641195
663.455392245
660.630062074
657.907700845
655.287291875
652.7677579
650.34796715
648.026738748
645.80284816
643.675032238
641.641994508
639.70241027
637.854932064
636.098195091
634.430823064
632.851434081
631.358646911
629.951087316
628.627394723
627.386228876
626.226276742
625.146259322
624.144938573
623.221124157
622.373680168
621.601531585
620.903670598
620.279162601
619.727151967
619.246867424
618.837627038
618.498842255
618.230020299
618.030767562
617.90106699
617.838197167
921.925344918
921.581182424
920.88529397
919.822710766
918.401236415
916.628962665
914.5157368
912.073025151
909.313723966
906.251957879
902.902877125
899.282456714
895.407302265
891.294466102
886.961276499
882.425182041
877.703612545
872.813857127
867.77295953
862.59763005
857.304172971
851.908427818
846.425722592
840.870836861
835.257972914
829.600733252
823.912103341
818.204438741
812.489456312
806.778229166
801.081185564
795.408111223
789.768155801
784.169839032
778.621064398
773.129132828
767.700758907
762.34208881
757.058719836
751.85572118
746.737655877
741.70860361
736.772184351
731.931582533
727.189571735
722.54853956
718.010512683
713.577181735
709.249925982
705.02983747
700.917744575
696.914234651
693.019675727
689.234236982
685.557907987
681.990516498
678.531744856
675.181144843
671.938151125
668.802093197
665.772206034
662.847639431
660.027466267
657.310689738
654.696249815
652.183028996
649.769857601
647.455518687
645.238752801
643.118262636
641.092717771
639.16075951
637.321005978
635.57205744
633.912501953
632.340921279
630.855897143
629.456017717
628.139884389
626.906118675
625.753369315
624.680319399
623.685693538
622.768264948
621.926862436
621.160377169
620.467769229
619.848073827
619.300407163
618.823971862
618.418061804
618.082065677
617.815469735
617.617862057
617.489211093
617.426873935
924.323907953
923.9665638
923.247208712
922.149049735
920.680550763
918.850536855
916.669716247
914.150518006
911.306872809
908.153981315
904.708083763
900.986234571
897.00608709
892.785692275
888.343314168
883.697264105
878.865754962
873.866775854
868.717987184
863.43663497
858.039482927
852.542759909
846.962120231
841.312613953
835.608664773
829.86405334
824.091904775
818.304679545
812.514167656
806.731486042
800.967080233
795.230728016
789.531548352
783.87801014
778.277947717
772.738576824
767.266512799
761.867790339
756.547884729
751.311734155
746.163763102
741.107906516
736.147634757
731.285979035
726.525557338
721.868600538
717.316978652
712.872226911
708.535571604
704.307955324
700.190061566
696.182338323
692.285020616
688.498151671
684.821602695
681.255091049
677.798196833
674.45037776
671.210982429
668.079261953
665.054380132
662.135422198
659.321402385
656.611270404
654.003917095
651.498179359
649.092844664
646.786655186
644.578311878
642.466478491
640.449785792
638.52683597
636.6962074
634.956459745
633.306139476
631.743785768
630.267936805
628.877136411
627.569941011
626.344926819
625.200697215
624.135890223
623.149186025
622.239314415
621.405062138
620.645280013
619.958889789
619.344890645
618.802365278
618.330485446
617.928516905
617.595823424
617.331869497
617.136225498
617.008846545
616.947182504
927.10487176
926.731852535
925.98464615
924.844285081
923.320049226
921.421671945
919.160922698
916.551410813
913.608327743
910.348177964
906.788514732
902.94768518
898.844590133
894.498462524
889.928667076
885.154523133
880.195151667
875.069346849
869.795471684
864.391376411
858.87433735
853.261013176
847.567414907
841.808885917
836.000088475
830.154994309
824.286877554
818.408309678
812.531156543
806.666578214
800.825033104
795.01628362
789.249407214
783.53280832
777.874236205
772.280803528
766.759006767
761.314748155
755.953358744
750.679622516
745.497801306
740.411660542
735.424495576
730.53915861
725.758085965
721.083325653
716.51656497
712.059158025
707.71215288
703.476318181
699.35216894
695.339991331
691.439866177
687.65169102
683.975200503
680.409985031
676.955507538
673.611118402
670.376068459
667.24952026
664.230557598
661.318193557
658.511377169
655.808998981
653.209895679
650.712854054
648.316614485
646.019874201
643.821290455
641.719483845
639.713041859
637.800522806
635.980460176
634.251367512
632.611743781
631.060079275
629.594861992
628.214584464
626.917750965
625.702885033
624.568537223
623.513292988
622.535780633
621.634679202
620.808726258
620.056725419
619.377553616
618.770167936
618.233612013
617.76702191
617.369631345
617.040775738
616.779895948
616.586544201
616.460658773
616.399792097
930.283098037
929.89162494
929.11171063
927.921823649
926.332248284
924.35383652
921.99965774
919.28475761
916.225851511
912.841008978
909.149348643
905.170748469
900.925576777
896.434447582
891.718002677
886.796721911
881.690762672
876.419828706
871.003067746
865.458996116
859.805447444
854.059541191
848.237666073
842.35547299
836.427872865
830.469035878
824.492390514
818.51062226
812.535673136
806.578743305
800.650297436
794.760072733
788.91709155
783.129677719
777.405477093
771.751478992
766.174039366
760.678905045
755.271238946
749.955645993
744.736199811
739.616470021
734.5995502
729.688086303
724.884305548
720.190045513
715.606783377
711.135664993
706.777533683
702.532958363
698.402260864
694.385542046
690.482706542
686.693485794
683.017459273
679.454073614
676.002659687
672.662447453
669.432578735
666.312117898
663.300060676
660.395341242
657.596837836
654.903377127
652.313737648
649.826652509
647.44081172
645.154864304
642.967420487
640.877054103
638.882305423
636.981684476
635.173674996
633.456739008
631.82932208
630.289859233
628.836781458
627.468522786
626.183527831
624.980259716
623.857208286
622.8128985
621.845898891
620.954830001
620.138372665
619.39527607
618.72436547
618.124549482
617.594826895
617.134292875
616.742144539
616.417685772
616.16033083
615.969610562
615.845444171
615.785496082
933.876042984
933.462985047
932.644921446
931.397322998
929.731709604
927.660309721
925.197781076
922.360910809
919.168246899
915.639725681
911.796318185
907.659700114
903.251950342
898.5952808
893.711799266
888.623306249
883.351126636
877.915976495
872.337864332
866.636024937
860.828881943
854.934033599
848.968254606
842.947506617
836.886950574
830.800956421
824.703108294
818.606206193
812.522266548
806.462524654
800.43744239
794.456719234
788.52930577
782.663426141
776.86660146
771.145674855
765.506837651
759.955656295
754.497099726
749.1355673
743.874917181
738.718495384
733.669165322
728.729337961
723.901002347
719.185756516
714.58483847
710.099157151
705.729323016
701.475678058
697.338324815
693.317154183
689.411871556
685.622021134
681.947008032
678.386118094
674.938535201
671.603356139
668.379602946
665.266232968
662.262146705
659.366193764
656.577177127
653.893856111
651.314948285
648.839130723
646.465040864
644.191277308
642.016400779
639.938935509
637.957371177
636.07016558
634.275748088
632.572523948
630.958879417
629.433187731
627.99381581
626.639131648
625.367512284
624.177352227
623.06707224
622.03512833
621.08002085
620.200303552
619.39459251
618.661574761
618.000016596
617.408771382
616.886786827
616.433111701
616.046901852
615.727425078
615.474065724
615.286331214
615.164117103
615.105209589
937.904072129
937.465859506
936.603480435
935.288919583
933.535222639
931.356315131
928.768796482
925.791562368
922.445358007
918.752336518
914.735648582
910.419067063
905.826650102
900.982443673
895.910224009
890.633280217
885.174237948
879.554924733
873.796277008
867.91828683
861.939983892
855.879445237
849.753822863
843.579378076
837.371512897
831.144791927
824.912953116
818.688910007
812.484750818
806.311739563
800.180324063
794.100150215
788.080076639
782.128204971
776.251906874
770.45785331
764.752044313
759.139838663
753.625983582
748.214644496
742.909435236
737.713448681
732.629288083
727.659098908
722.804601271
718.067122702
713.447631201
708.946768238
704.564881528
700.302057136
696.158150636
692.132816811
688.225537609
684.435647864
680.762358581
677.204777446
673.761926522
670.432756979
667.216161011
664.110980996
661.116016213
658.230027322
655.45173904
652.779841307
650.212989423
647.749803473
645.388867479
643.128728583
640.967896598
638.904844149
636.938007642
635.065789157
633.286559393
631.598661666
630.000416973
628.490130053
627.066096375
625.726609947
624.469971814
623.294499112
622.198534536
621.180456075
620.238686847
619.371704923
618.578052967
617.856347598
617.205288324
616.623665984
616.110370596
615.664398516
615.284858904
614.970979442
614.722110606
614.537732182
614.417713879
614.359973348
942.390850717
941.923364335
941.009599036
939.617503397
937.762018188
935.459171344
932.727941692
929.589778729
926.068057536
922.18755454
917.973972719
913.453517265
908.652521774
903.597123021
898.312982396
892.825053622
887.15739772
881.333047252
875.373921015
869.300788288
863.133277517
856.889919717
850.588212223
844.244686411
837.8749642
831.493793951
825.115064348
818.751802638
812.416167097
806.11944374
799.872053236
793.683567282
787.562728109
781.517487503
775.555038717
769.68185113
763.903703916
758.225718672
752.652391148
747.187622796
741.834752468
736.596588745
731.475442887
726.473162578
721.591166253
716.830478026
712.191762922
707.675362311
703.281329098
699.009462408
694.859341173
690.830356244
686.921740406
683.132595931
679.461919171
675.908622012
672.471549894
669.149496456
665.941214783
662.845425541
659.86082218
656.986073691
654.219825221
651.560697146
649.00728295
646.558146519
644.211819185
641.966797035
639.821538755
637.774464381
635.823955103
633.968354336
632.205970089
630.535078695
628.953929825
627.460752746
626.053763689
624.73117419
623.491200266
622.332072232
621.252045013
620.249408747
619.322499528
618.469710109
617.689500411
616.98040769
616.341056253
615.770166582
615.266563799
614.829185458
614.457088539
614.149455175
613.905597965
613.724966641
613.607400307
613.550957662
947.363831501
946.862257165
945.888898671
944.407045971
942.434015321
939.988456683
937.092276759
933.77002228
930.048212417
925.954717899
921.518216142
916.767717213
911.73215468
906.440034032
900.919133564
895.196256084
889.297033642
883.245789557
877.065462241
870.777591984
864.402366137
857.958709837
851.464401743
844.936189195
838.389878913
831.84038821
825.301756607
818.787130768
812.308741541
805.877892329
799.504959903
793.199414951
786.969854222
780.824045882
774.768970706
768.810862996
762.955248636
757.206980265
751.570270717
746.048725737
740.64537701
735.362715867
730.20272799
725.166928968
720.256400776
715.471828899
710.813540115
706.281540539
701.875553754
697.595058405
693.439324838
689.407449998
685.498390082
681.710990202
678.044010692
674.496149561
671.066061
667.752369774
664.553681705
661.468590401
658.495680683
655.633529092
652.880702084
650.235752424
647.697214438
645.263598629
642.933386285
640.705024489
638.576922031
636.547446483
634.614922742
632.777633156
631.03381933
629.381685587
627.819404038
626.345121126
624.956965517
623.653057132
622.43151716
621.290478819
620.228098675
619.242568307
618.3321261
617.495069003
616.72976403
616.034659388
615.408295045
614.84931266
614.356464774
613.92862315
613.56478627
613.264086008
613.025792492
612.849320674
612.734476926
612.679470034
952.854868737
952.313503948
951.27090108
949.684991232
947.576102034
944.96618268
941.880761545
938.348148624
934.398617124
930.063673899
925.375443642
920.366150316
915.06767904
909.51120294
903.726864815
897.74351104
891.588481953
885.287468036
878.864442009
872.341673361
865.739822553
859.078099134
852.374453473
845.645761908
838.907965303
832.176136223
825.464476522
818.786272002
812.153838733
805.578493989
799.07055067
792.639345515
786.293290099
780.039927342
773.885985079
767.837424766
761.89948372
756.076712172
750.37300719
744.791645854
739.335318957
734.006166033
728.805811637
723.735402949
718.795648359
713.986857109
709.308979703
704.761649067
700.344221923
696.05582001
691.895370256
687.861643239
683.953288939
680.168869132
676.506885656
672.965804196
669.544073218
666.240138116
663.052450585
659.979473691
657.019682955
654.171564185
651.433608583
648.804305967
646.282136725
643.865563303
641.553021799
639.342914344
637.233602665
635.223403309
633.310584715
631.493366363
629.769919982
628.138372841
626.596812954
625.143296088
623.775854328
622.492506006
621.29126675
620.170161392
619.127236515
618.16057336
617.268300891
616.448608752
615.699759963
615.0201031
614.408083884
613.862255985
613.381290965
612.963987372
612.609278833
612.316240716
612.084096113
611.912222529
611.800388518
611.746961632
958.901000662
958.312989208
957.189632028
955.482717763
953.216447403
950.416965274
947.114307241
943.341363602
939.132880258
934.524614629
929.552658212
924.2528886
918.660516929
912.809702512
906.733217946
900.462161094
894.025722794
887.451027829
880.76307008
873.984758157
867.137074768
860.239331321
853.309473833
846.364374836
839.420042576
832.491702468
825.593757365
818.739679956
811.941902569
805.21175615
798.559463681
791.994181538
785.524082259
779.156430682
772.897653596
766.753397283
760.72857326
754.827395033
749.053410629
743.409534641
737.898082098
732.520804465
727.278927764
722.173192174
717.203893021
712.370922886
707.673815033
703.11178787
698.683790286
694.388547041
690.224603435
686.190368022
682.284152365
678.50420667
674.848750595
671.31599851
667.904179036
664.611548676
661.436399893
658.377063929
655.431909093
652.599335141
649.877764695
647.265632476
644.761373347
642.363409933
640.070140702
637.879929139
635.791094662
633.801905647
631.910574939
630.115257912
628.414053166
626.805005713
625.28611251
623.855330104
622.51058411
621.249780269
620.070816766
618.971597555
617.950046349
617.004121038
616.131828216
615.331237585
614.600495972
613.937840777
613.34161266
612.810267345
612.342386441
611.936687178
611.592031064
611.307431565
611.082059559
610.915249881
610.806731036
610.755037244
965.545459905
964.902422807
963.684367216
961.836081909
959.386835799
956.368173673
952.815777366
948.768116721
944.265245
939.347849989
934.056542514
928.43131101
922.511081079
916.333334046
909.933758881
903.345934188
896.601056637
889.727747641
882.751976914
875.697137885
868.584291238
861.432559045
854.259606147
847.082102118
839.91604072
832.776830172
825.679168958
818.636816955
811.662384186
804.767220706
797.961415758
791.253875763
784.652459323
778.164084827
771.79482065
765.54995187
759.434026605
753.450888532
747.603704152
741.894991771
736.326654674
730.900018411
725.615870904
720.47450452
715.475759372
710.619068109
705.903502302
701.327820748
696.89051924
692.589881195
688.424027743
684.390965942
680.488633405
676.714938144
673.067792368
669.545139666
666.144975056
662.865358045
659.70441885
656.660358504
653.731443487
650.915995953
648.212380473
645.618988496
643.134221531
640.75647419
638.484117981
636.315486769
634.248864532
632.282475969
630.414480226
628.642967913
626.965961321
625.381417715
623.887235397
622.481262255
621.161306432
619.925148793
618.770556823
617.69529963
616.697163703
615.773969084
614.923585644
614.143949135
613.433076781
612.789082119
612.210188963
611.694744287
611.241229948
610.84827327
610.514656353
610.239323698
610.021388858
609.860141058
609.755263246
609.705463725
972.839001919
972.130506669
970.800560103
968.786045617
966.123001776
962.850020766
959.009899519
954.647896944
949.810318155
944.543501799
938.893134114
932.903763881
926.61841845
920.07825078
913.322181852
906.386536871
899.304704604
892.106873252
884.819910883
877.467457393
870.070272236
862.646830364
855.21407999
847.788186588
840.385037614
833.020327755
825.709255616
818.466062538
811.303647181
804.233381856
797.265140248
790.407469709
783.66780616
777.052632232
770.567590958
764.217558644
758.006686006
751.938418258
746.015510985
740.240053027
734.613499043
729.136708758
723.809990212
718.633144632
713.60551222
708.726019226
703.993227404
699.405386269
694.960488234
690.656325524
686.490547293
682.460714675
678.5643518
674.798990756
671.162209268
667.651660012
664.265091353
661.000359379
657.855431858
654.828384722
651.917392238
649.120711934
646.436665692
643.863618244
641.399954549
639.044057202
636.79428518
634.64895484
632.606324072
630.664580115
628.821831429
627.076103644
625.425339515
623.867402541
622.400083884
621.021112156
619.728165624
618.518886433
617.390896421
616.341814156
615.36927277
614.470938244
613.644527697
612.887827402
612.198710132
611.575151639
611.015245994
610.517219682
610.079444349
609.700448083
609.378925316
609.113745511
608.903959153
608.74880415
608.647915511
608.600182135
980.841685527
980.054468833
978.591001552
976.379384074
973.464919547
969.895532737
965.72302698
961.000882657
955.782675836
950.121102529
944.0674293
937.671164906
930.979800701
924.038521314
916.889839218
909.573157239
902.124307293
894.575151191
886.953355681
879.282463127
871.582356239
863.87014369
856.161360753
848.471200597
840.815354906
833.210065404
825.671445231
818.21457757
810.852830089
803.597575262
796.458316396
789.443055832
782.558646939
775.811022299
769.205325024
762.745979402
756.43671541
750.280561794
744.279839673
738.43617649
732.750539606
727.223280328
721.854182127
716.642509377
711.587055082
706.686189648
701.937912719
697.339909682
692.889612947
688.584266956
684.420994201
680.396859348
676.508928289
672.754319784
669.130247749
665.63405328
662.263225872
659.015414153
655.888426673
652.880223908
649.988902662
647.212674527
644.549839861
641.998759113
639.557822983
637.225423148
634.999924851
632.879642707
630.862820604
628.94761646
627.132092091
625.414208274
623.791824665
622.262704156
620.824521064
619.474872588
618.211292974
617.031269888
615.932262561
614.911721232
613.967107484
613.095914972
612.295690132
611.564052417
610.89871373
610.29749668
609.758351525
609.279371536
608.858806767
608.495076246
608.186778513
607.932700155
607.731822994
607.583330459
607.486803713
607.441318231
989.625315269
988.742112833
987.11727869
984.669440993
981.456956649
977.540290966
972.982656774
967.847379064
962.196308112
956.089085297
949.582919261
942.732562581
935.59027395
928.205638206
920.625189849
912.891854637
905.044284717
897.116216176
889.136024941
881.126688308
873.106352601
865.089622007
857.089475928
849.119371879
841.194745863
833.332972436
825.551892219
817.868077468
810.295631892
802.845830463
795.527494817
788.347753345
781.312647539
774.427422502
767.696647384
761.124266359
754.71358971
748.467232078
742.387066081
736.474225773
730.729148728
725.151630442
719.740881573
714.495581567
709.41392718
704.493680781
699.732223463
695.126615376
690.67366454
686.370002154
682.212160637
678.196649583
674.320025461
670.578951557
666.970246112
663.490917309
660.138184962
656.909489169
653.802487055
650.815038851
647.945185187
645.191117331
642.551142539
640.023646425
637.607054488
635.299794599
633.100262318
631.006790442
629.017624072
627.130901902
625.344644125
623.656746811
622.064982286
620.567004747
619.160360314
617.842500699
616.610799819
615.462572806
614.395096897
613.405633767
612.491452775
611.649854629
610.878194882
610.173906814
609.534523186
608.957696587
608.441218055
607.983033865
607.581260404
607.234197064
606.940337302
606.698378179
606.507226677
606.366005691
606.274240072
606.231196882
999.276871448
998.274630611
996.451618649
993.716843996
990.147716017
985.821766863
980.81656371
975.20695503
969.063862917
962.454162598
955.441079265
948.084682275
940.442197152
932.567989372
924.51316293
916.324807229
908.045001362
899.709756966
891.348157029
882.982025856
874.626510494
866.291891662
857.986655564
849.721198632
841.510725324
833.375006671
825.335178274
817.410433578
809.615983793
801.962687274
794.458037513
787.107720049
779.916654549
772.889259297
766.029473715
759.340767593
752.826081114
746.487654327
740.326909212
734.344449212
728.540130111
722.91313598
717.462051372
712.184921593
707.079297816
702.142280829
697.370572544
692.76053954
688.308290844
684.009767425
679.860836507
675.857383701
671.995396499
668.271034911
664.680686501
661.221004831
657.888931104
654.681699928
651.596830492
648.632105187
645.785537747
643.055333427
640.439843548
637.937517052
635.546851343
633.266344932
631.094453864
629.02955395
627.06991012
625.213653986
623.458769823
621.803088779
620.244290379
618.779910238
617.407352732
616.123907565
614.926769415
613.813060052
612.779852485
611.824196649
610.943146128
610.133785244
609.393255892
608.718783441
608.107701231
607.557473188
607.065714363
606.630209167
606.248927307
605.920037534
605.641919217
605.41317149
605.232620639
605.099325835
605.012749487
604.972354723
1009.90344548
1008.75056891
1006.67923338
1003.58996174
999.589231579
994.777953285
989.251347921
983.097172342
976.395658344
969.220614854
961.640862015
953.721520877
945.524826175
937.110329984
928.534443802
919.849382043
911.101654391
902.330337707
893.565472381
884.827086232
876.125521639
867.46380827
858.842543246
850.266583186
841.75111738
833.321019651
825.003721956
816.822984769
808.795533392
800.930963932
793.234114152
785.708241168
778.356797518
771.183304541
764.191064796
757.383136923
750.762234811
744.33032849
738.088396742
732.03645344
726.17370029
720.49863964
715.00917035
709.702656091
704.575956927
699.625459478
694.847122614
690.236541996
685.789039606
681.499773273
677.363854298
673.376461685
669.532943951
665.828902959
662.260257242
658.823283857
655.514639404
652.331361359
649.270851974
646.330847107
643.509372997
640.804693775
638.215252876
635.739611186
633.376385038
631.124186724
628.981570332
626.946985091
625.018738199
623.194968227
621.473629535
619.852487046
618.329120028
616.900933046
615.565172316
614.318946
613.159247485
612.082981123
611.086990076
610.168085942
609.323079535
608.548812091