/*--------------------------------*- C++ -*----------------------------------*\
| =========                 |                                                 |
| \\      /  F ield         | OpenFOAM: The Open Source CFD Toolbox           |
|  \\    /   O peration     | Version:  v1906                                 |
|   \\  /    A nd           | Web:      www.OpenFOAM.com                      |
|    \\/     M anipulation  |                                                 |
\*---------------------------------------------------------------------------*/
FoamFile
{
    version     2.0;
    format      ascii;
    class       volVectorField;
    location    "261";
    object      Ua;
}
// * * * * * * * * * * * * * * * * * * * * * * * * * * * * * * * * * * * * * //

dimensions      [0 1 -1 0 0 0 0];


internalField   nonuniform List<vector> 
9216
(
(-0.0104734578829 0.0104875812231 0)
(-0.0110535670295 0.0338476974975 3.97517841404e-27)
(-0.0110523258001 0.0575724943122 -7.1597524575e-31)
(-0.0109525700408 0.0813117461142 0)
(-0.0108102676466 0.104666625726 0)
(-0.0106289889347 0.127544627075 0)
(-0.0104138501927 0.149845154248 0)
(-0.0101672799538 0.171477395399 0)
(-0.00989291966061 0.192358860565 0)
(-0.00959267100357 0.212417017925 0)
(-0.00927044748534 0.231587819566 0)
(-0.00892792252318 0.249817574939 0)
(-0.0085692975702 0.267061031543 0)
(-0.00819585541255 0.283283163745 0)
(-0.00781196309723 0.298456765269 0)
(-0.00741833853354 0.31256417181 0)
(-0.00701942253812 0.325594485565 0)
(-0.00661525808091 0.337545266376 0)
(-0.00621030896651 0.348419558921 0)
(-0.00580389304235 0.358227596187 0)
(-0.00540049528033 0.366983775219 0)
(-0.00499872301925 0.374708367122 0)
(-0.00460310036049 0.381424587999 0)
(-0.00421156995155 0.387160306637 0)
(-0.00382872778292 0.391945294368 0)
(-0.00345192298849 0.395812870734 0)
(-0.00308583807902 0.398797410059 0)
(-0.0027272927743 0.400935885286 0)
(-0.00238106314445 0.402265649335 0)
(-0.00204351133722 0.402825817709 0)
(-0.00171950489499 0.402655336773 0)
(-0.00140497451413 0.401794298522 0)
(-0.00110474366173 0.400282173219 0)
(-0.000814401120189 0.398158519673 0)
(-0.000538903979212 0.395462217399 0)
(-0.00027354778137 0.392231986675 0)
(-2.32609606702e-05 0.388505397054 0)
(0.000216918877017 0.38431943467 0)
(0.000442090744686 0.379709754627 0)
(0.000657416993302 0.374711071532 0)
(0.000858034452172 0.369356665724 0)
(0.00104924813496 0.363678584609 0)
(0.001226251282 0.357707401738 0)
(0.0013944450865 0.351472257706 0)
(0.00154908472923 0.345000833216 0)
(0.00169561347193 0.338319225123 0)
(0.00182936017889 0.331452136828 0)
(0.00195576586559 0.324422615935 0)
(0.00207023327148 0.317252426994 0)
(0.0021781504912 0.309961643502 0)
(0.00227500252583 0.302569208335 0)
(0.00236608500449 0.295092401364 0)
(0.00244696570323 0.287547554656 0)
(0.002522805065 0.279949385163 0)
(0.00258926519121 0.272311869054 0)
(0.00265134191725 0.264647456121 0)
(0.00270479900989 0.256968070619 0)
(0.00275443820225 0.249284196019 0)
(0.0027961445799 0.241606004441 0)
(0.00283451021501 0.233942326912 0)
(0.00286555824433 0.226301879617 0)
(0.00289365627291 0.218692111566 0)
(0.00291499261043 0.211120528485 0)
(0.00293370726998 0.203593435209 0)
(0.00294617624077 0.196117328336 0)
(0.00295630780322 0.188697531714 0)
(0.00296069400857 0.181339659073 0)
(0.00296301461777 0.174048163719 0)
(0.0029600983792 0.166827846828 0)
(0.00295539596202 0.159682326574 0)
(0.00294599445194 0.152615594319 0)
(0.00293511788875 0.145630426755 0)
(0.00292012336634 0.138729970547 0)
(0.00290400521409 0.13191610688 0)
(0.00288440016483 0.125191067469 0)
(0.00286407011797 0.118555773768 0)
(0.0028409313074 0.112011469426 0)
(0.00281750507721 0.105558043503 0)
(0.00279198434651 0.0991956828647 0)
(0.00276664093926 0.092923196256 0)
(0.0027399337271 0.0867396772061 0)
(0.00271387064998 0.0806428352163 0)
(0.00268716149397 0.0746306767838 0)
(0.00266152883657 0.068699857843 0)
(0.00263590122041 0.0628473895064 0)
(0.002611664342 0.0570690435269 0)
(0.00258786895469 0.0513611409078 0)
(0.00256536652676 0.0457191536233 0)
(0.00254287742148 0.0401398470908 0)
(0.00251964041181 0.0346208405787 0)
(0.00249129370936 0.0291649389422 0)
(0.002448528279 0.0237863231235 0)
(0.00235363558956 0.0185633470419 0)
(0.00213828702565 0.013164799024 0)
(0.00247192408668 0.00863138179468 0)
(0.00416770257871 0.00416840810979 0)
(-0.0339046593733 0.011153345297 0)
(-0.0374832505484 0.0377901179771 0)
(-0.0374038190689 0.0643587777645 -4.17298136257e-27)
(-0.0369088934314 0.0909680573361 0)
(-0.036220633139 0.117111837063 0)
(-0.0353648871604 0.14270732654 0)
(-0.0343570849186 0.167647992164 0)
(-0.033210117101 0.191833692144 0)
(-0.0319396049902 0.215172868876 0)
(-0.0305591522552 0.237584300514 0)
(-0.0290856373005 0.258996856033 0)
(-0.0275326689238 0.279350473781 0)
(-0.0259174377511 0.298595310719 0)
(-0.0242524589742 0.316692383783 0)
(-0.0225543113667 0.333612267669 0)
(-0.0208335372474 0.349335519169 0)
(-0.0191054695897 0.363851070938 0)
(-0.0173781441207 0.377156541575 0)
(-0.0156653299121 0.389256472879 0)
(-0.0139723517495 0.400162609493 0)
(-0.0123113754055 0.409892112152 0)
(-0.0106850827057 0.41846786527 0)
(-0.00910417976068 0.425916769667 0)
(-0.00756893794407 0.432270099142 0)
(-0.00608883982713 0.437561934301 0)
(-0.00466205494465 0.441829557666 0)
(-0.00329707571874 0.445112057513 0)
(-0.00199027176771 0.447450730146 0)
(-0.000749344328602 0.448887854856 0)
(0.000430856025511 0.449467066099 0)
(0.00154326124504 0.449232309318 0)
(0.00259430163789 0.448228065753 0)
(0.00357751464726 0.446498598784 0)
(0.00450043542546 0.444088489321 0)
(0.00535695968526 0.441041432571 0)
(0.00615543298714 0.437400634459 0)
(0.0068901232391 0.433208245066 0)
(0.00757003912936 0.42850550117 0)
(0.00818972568908 0.423332328992 0)
(0.00875866942455 0.417727421389 0)
(0.00927161634312 0.411727975298 0)
(0.00973836092746 0.405369712946 0)
(0.0101537915213 0.398686749131 0)
(0.0105278635848 0.39171156149 0)
(0.0108555497889 0.384474973605 0)
(0.0111468264412 0.377006076585 0)
(0.0113967058409 0.369332323323 0)
(0.0116150642994 0.361479405375 0)
(0.011796909548 0.353471445756 0)
(0.0119519037296 0.345330831306 0)
(0.012075021494 0.337078500057 0)
(0.0121756180764 0.328733730473 0)
(0.0122486124967 0.320314510146 0)
(0.0123029721759 0.31183727873 0)
(0.0123335595817 0.303317372424 0)
(0.0123488999484 0.294768719147 0)
(0.0123438103147 0.28620434379 0)
(0.0123263360151 0.277636010337 0)
(0.0122912840031 0.269074780904 0)
(0.0122462094142 0.260530603012 0)
(0.0121859561595 0.252012907283 0)
(0.0121175935165 0.243530135946 0)
(0.0120360677605 0.235090373153 0)
(0.0119479867778 0.226700816191 0)
(0.0118484676499 0.218368425989 0)
(0.0117436865652 0.21009934165 0)
(0.0116290055997 0.201899548388 0)
(0.0115102064102 0.193774242049 0)
(0.0113829609185 0.185728506424 0)
(0.0112526870425 0.177766633527 0)
(0.01111542423 0.16989281121 0)
(0.0109762533344 0.162110410166 0)
(0.0108316204702 0.154422677612 0)
(0.0106862821518 0.146831999746 0)
(0.0105371160434 0.139340604698 0)
(0.0103885572971 0.131949812438 0)
(0.0102379196192 0.124660744863 0)
(0.0100893048519 0.11747357128 0)
(0.00994045307633 0.110388229414 0)
(0.00979511084188 0.103403676161 0)
(0.00965141748073 0.09651861846 0)
(0.00951272718399 0.0897307743282 0)
(0.00937753469049 0.0830376184438 0)
(0.00924874212315 0.0764356613624 0)
(0.0091251137044 0.0699212129359 0)
(0.00900896584815 0.0634896903289 0)
(0.00889909841684 0.0571364106039 0)
(0.00879680351049 0.0508559387262 0)
(0.00870000125319 0.0446428441064 0)
(0.00860700761589 0.038490871243 0)
(0.00851040011529 0.0323928527169 0)
(0.00839505286067 0.0263364984921 0)
(0.00822185145564 0.020297892048 0)
(0.00787156166362 0.0141032831182 0)
(0.00770545782795 0.00768899576935 0)
(0.00861807355922 0.00246430754773 0)
(-0.0580404893473 0.0112995090738 0)
(-0.0642630684518 0.0384046642516 0)
(-0.0640575441786 0.0653029293162 -4.17675356404e-27)
(-0.063199680411 0.0922939359636 0)
(-0.0620352138502 0.118808708873 0)
(-0.0605975350471 0.14475906043 0)
(-0.0589071269934 0.170034764995 0)
(-0.0569852775701 0.194533328806 0)
(-0.0548560438617 0.218161636376 0)
(-0.0525436340601 0.24083716171 0)
(-0.0500741913714 0.262488172433 0)
(-0.0474725801212 0.283054182565 0)
(-0.0447649456646 0.302485609715 0)
(-0.0419748738109 0.320743794669 0)
(-0.039126856935 0.33780024905 0)
(-0.0362417794726 0.353636392345 0)
(-0.0333413793627 0.368242538319 0)
(-0.0304429996459 0.381617477405 0)
(-0.0275650864645 0.393767345962 0)
(-0.0247211478341 0.404705170362 0)
(-0.021926284406 0.414449735247 0)
(-0.0191903045777 0.423025170103 0)
(-0.0165252429194 0.430459905598 0)
(-0.0139376025542 0.436786349434 0)
(-0.011436789516 0.442039966012 0)
(-0.00902648411531 0.446259040974 0)
(-0.00671390768112 0.449483892784 0)
(-0.00450036766825 0.451756706994 0)
(-0.00239127480338 0.45312085725 0)
(-0.000385938584008 0.453620777861 0)
(0.00151175466883 0.45330138789 0)
(0.00330418818156 0.452207993897 0)
(0.00498871180119 0.450385777031 0)
(0.0065690668369 0.447879752719 0)
(0.00804368498676 0.44473434223 0)
(0.00941747375542 0.440993298038 0)
(0.0106896883115 0.436699383819 0)
(0.0118661199127 0.43189431513 0)
(0.012946669728 0.426618522638 0)
(0.0139377881231 0.420911104267 0)
(0.0148398470688 0.414809657246 0)
(0.0156597468163 0.408350235822 0)
(0.0163981722983 0.401567254871 0)
(0.0170622838432 0.394493456118 0)
(0.0176529338147 0.387159870159 0)
(0.0181773675179 0.379595785927 0)
(0.0186364737498 0.371828774763 0)
(0.0190374242209 0.363884666344 0)
(0.0193810248867 0.355787622341 0)
(0.0196742310613 0.347560113094 0)
(0.0199176654291 0.33922304381 0)
(0.0201179468699 0.33079573312 0)
(0.0202754351368 0.322296077843 0)
(0.020396318562 0.313740525234 0)
(0.0204806445543 0.305144276443 0)
(0.0205341107348 0.296521250407 0)
(0.0205564341565 0.287884309952 0)
(0.0205527962361 0.279245207289 0)
(0.02052260202 0.270614830807 0)
(0.0204705282397 0.262003129093 0)
(0.020395717125 0.253419362735 0)
(0.020302382655 0.244871998319 0)
(0.0201894812173 0.236368964324 0)
(0.0200608310669 0.227917514557 0)
(0.0199152951982 0.219524476258 0)
(0.019756375725 0.211196079198 0)
(0.019582941934 0.202938198693 0)
(0.0193982629366 0.194756154513 0)
(0.0192013072718 0.186654942447 0)
(0.0189951849557 0.17863900478 0)
(0.0187790426632 0.170712456935 0)
(0.0185558893414 0.162878837658 0)
(0.0183251049445 0.155141328884 0)
(0.0180896318293 0.147502490946 0)
(0.0178491128307 0.139964483935 0)
(0.0176064339814 0.132528797054 0)
(0.0173615023301 0.125196471576 0)
(0.0171171324328 0.117967829911 0)
(0.0168734723265 0.11084270751 0)
(0.0166332281842 0.103820188562 0)
(0.0163967419932 0.0968988464875 0)
(0.0161665521475 0.0900764892091 0)
(0.0159431235965 0.0833504123192 0)
(0.0157287383218 0.0767171560199 0)
(0.0155238692443 0.0701727658734 0)
(0.0153303841792 0.0637125541685 0)
(0.0151485301195 0.0573313488325 0)
(0.0149793957589 0.0510231956349 0)
(0.0148224037313 0.0447814332412 0)
(0.0146769191407 0.0385979544328 0)
(0.0145401428346 0.032462137779 0)
(0.0144082758561 0.0263572641549 0)
(0.0142772422283 0.0202543699524 0)
(0.0141470822625 0.0140733114807 0)
(0.0141027273856 0.00781127156541 0)
(0.013128329745 0.00212350111585 0)
(-0.0827334484636 0.0114264658212 0)
(-0.0916750932302 0.0389771875041 0)
(-0.0913731294748 0.0662161540157 4.17481034705e-27)
(-0.0901344136661 0.0935693890768 0)
(-0.0884555878142 0.120430880497 0)
(-0.086386102789 0.146707504089 0)
(-0.0839549497293 0.172284824727 0)
(-0.0811932387661 0.197057382759 0)
(-0.0781351620803 0.220930073449 0)
(-0.074816399269 0.243819083434 0)
(-0.0712740379856 0.265652186131 0)
(-0.0675448531161 0.286368941516 0)
(-0.0636656279303 0.305920472928 0)
(-0.0596713737972 0.324269200723 0)
(-0.0555961202385 0.341388212666 0)
(-0.051471076078 0.357260689774 0)
(-0.0473259260891 0.371879030595 0)
(-0.0431869079218 0.3852441207 0)
(-0.0390786141476 0.397364358023 0)
(-0.0350219407676 0.408254895822 0)
(-0.0310363593498 0.417936693948 0)
(-0.0271376738854 0.426435835692 0)
(-0.0233406961971 0.433782687196 0)
(-0.0196567486508 0.440011336366 0)
(-0.0160966675993 0.445158891341 0)
(-0.0126680051854 0.449265042988 0)
(-0.00937829696316 0.452371488329 0)
(-0.00623195830413 0.454521583725 0)
(-0.00323378061748 0.455759862271 0)
(-0.000385548388801 0.456131747346 0)
(0.00231025964926 0.455683134437 0)
(0.00485408187743 0.454460180971 0)
(0.00724535014247 0.452508885439 0)
(0.00948632845955 0.449874923308 0)
(0.0115780753692 0.446603386106 0)
(0.0135243738791 0.442738569951 0)
(0.0153275523522 0.438323760181 0)
(0.0169925653398 0.433401097858 0)
(0.018522719094 0.428011407193 0)
(0.0199238420566 0.422194096071 0)
(0.0211999456433 0.415987034199 0)
(0.0223574588001 0.409426483918 0)
(0.0234008529264 0.402547024624 0)
(0.0243369097755 0.395381509471 0)
(0.025170334013 0.387961031772 0)
(0.0259080316005 0.380314906881 0)
(0.0265547353854 0.372470678445 0)
(0.0271172677823 0.364454122391 0)
(0.0276002015007 0.356289289479 0)
(0.0280100884616 0.347998530206 0)
(0.0283511803674 0.339602570907 0)
(0.028629602102 0.331120554806 0)
(0.0288491535741 0.322570145712 0)
(0.0290154126074 0.313967580854 0)
(0.0291316410265 0.30532779631 0)
(0.0292027971462 0.296664483703 0)
(0.0292315647039 0.287990228241 0)
(0.0292222601373 0.279316562118 0)
(0.0291770030596 0.27065410734 0)
(0.0290994980954 0.262012617079 0)
(0.0289913606402 0.253401113898 0)
(0.0288557575512 0.244827912741 0)
(0.028693901539 0.236300748603 0)
(0.0285085305585 0.22782677562 0)
(0.0283005797981 0.219412678427 0)
(0.0280724847588 0.211064645465 0)
(0.0278250398536 0.202788462983 0)
(0.0275605075764 0.194589462663 0)
(0.0272796695543 0.186472597915 0)
(0.0269847302253 0.17844236926 0)
(0.0266765668658 0.170502886907 0)
(0.0263574153396 0.162657778925 0)
(0.0260283235314 0.154910243829 0)
(0.025691612941 0.147262948159 0)
(0.0253485408421 0.139718075585 0)
(0.0250015314143 0.132277220674 0)
(0.0246520503619 0.124941439164 0)
(0.0243026044804 0.117711144174 0)
(0.0239548328663 0.110586163334 0)
(0.0236112731508 0.10356564244 0)
(0.0232736715418 0.0966481116345 0)
(0.0229445165171 0.0898313988698 0)
(0.022625568782 0.083112706104 0)
(0.022319159811 0.0764885311861 0)
(0.0220269385291 0.0699547467727 0)
(0.0217509298994 0.0635065168701 0)
(0.0214924909044 0.0571383515268 0)
(0.0212531275468 0.0508439610202 0)
(0.0210336795863 0.0446161647641 0)
(0.0208350196386 0.0384464653721 0)
(0.0206578370437 0.0323245429058 0)
(0.0205042664246 0.0262370468929 0)
(0.020381064518 0.0201669756815 0)
(0.0203031864575 0.0140871023513 0)
(0.0202398188616 0.00809112876788 0)
(0.0184593281777 0.00232249295278 0)
(-0.107820765853 0.0115893186349 0)
(-0.119488198509 0.0397269894477 0)
(-0.11908385347 0.0674373079006 0)
(-0.117449548721 0.0952759202722 0)
(-0.115235446883 0.122599344196 0)
(-0.112508091147 0.149309097559 0)
(-0.109306415773 0.175285625781 0)
(-0.10567225726 0.200419585372 0)
(-0.101651122195 0.224613160796 0)
(-0.0972907812014 0.247780889797 0)
(-0.0926403380212 0.269849912629 0)
(-0.0877488485409 0.290760018287 0)
(-0.0826646946101 0.310463363595 0)
(-0.0774343952161 0.328924022278 0)
(-0.0721023518489 0.346117293578 0)
(-0.0667098737975 0.36202893052 0)
(-0.061295310688 0.376654212514 0)
(-0.0558932770465 0.389997019808 0)
(-0.0505351504753 0.402068832786 0)
(-0.0452484472654 0.4128878034 0)
(-0.0400576253598 0.422477816447 0)
(-0.0349835305992 0.430867670587 0)
(-0.0300444120117 0.438090289993 0)
(-0.0252553412898 0.444182070342 0)
(-0.0206293407946 0.449182260315 0)
(-0.016176696891 0.453132460673 0)
(-0.0119061338367 0.456076141816 0)
(-0.00782399086027 0.458058248738 0)
(-0.00393542296719 0.459124801506 0)
(-0.000243457923209 0.459322562062 0)
(0.0032497653658 0.458698674682 0)
(0.00654403340992 0.457300435586 0)
(0.0096397194266 0.455174866602 0)
(0.0125389325471 0.452368582387 0)
(0.0152441712469 0.448927526561 0)
(0.0177594569114 0.444896735839 0)
(0.0200889587247 0.440320158751 0)
(0.0222381830552 0.435240503504 0)
(0.0242125747502 0.429699087291 0)
(0.0260187433843 0.423735727365 0)
(0.027663050686 0.417388633224 0)
(0.0291528644153 0.41069433249 0)
(0.0304951388382 0.403687603622 0)
(0.0316976857729 0.396401434098 0)
(0.0327677549676 0.388866988426 0)
(0.0337133137111 0.381113595205 0)
(0.034541633828 0.373168750827 0)
(0.0352605722364 0.365058135264 0)
(0.0358771730261 0.356805647189 0)
(0.0363989441515 0.348433445313 0)
(0.0368324835432 0.339962014252 0)
(0.0371847477638 0.331410229192 0)
(0.0374617121336 0.322795445368 0)
(0.0376696287052 0.314133579336 0)
(0.0378137294396 0.305439217341 0)
(0.0378994695639 0.296725706737 0)
(0.0379312818191 0.288005272317 0)
(0.037913800905 0.279289107882 0)
(0.0378506742652 0.27058749321 0)
(0.0377457607152 0.261909877685 0)
(0.0376020011325 0.253264986795 0)
(0.0374225835959 0.244660888841 0)
(0.0372098748166 0.236105085617 0)
(0.0369665420471 0.227604557267 0)
(0.0366945446096 0.219165830423 0)
(0.0363962032684 0.210794997436 0)
(0.0360732500599 0.202497762132 0)
(0.035727835403 0.194279434389 0)
(0.0353616343956 0.18614495315 0)
(0.0349767840125 0.178098858782 0)
(0.0345750444461 0.170145299046 0)
(0.0341586598219 0.162287985266 0)
(0.0337295742019 0.154530185611 0)
(0.0332902122422 0.146874671296 0)
(0.0328427506782 0.139323705355 0)
(0.0323898168754 0.13187898642 0)
(0.031933817705 0.124541638289 0)
(0.0314775565644 0.117312157251 0)
(0.0310236224006 0.110190409124 0)
(0.030574926401 0.103175585176 0)
(0.0301341540061 0.096266208819 0)
(0.0297042235795 0.089460101928 0)
(0.0292878040561 0.0827544018571 0)
(0.0288876971423 0.0761455359937 0)
(0.0285064230168 0.0696292418082 0)
(0.0281465305351 0.0632005381972 0)
(0.0278102605746 0.0568537323144 0)
(0.0274998089482 0.0505823510576 0)
(0.027217129788 0.0443790981069 0)
(0.0269642960101 0.0382357158399 0)
(0.0267437469243 0.0321428637131 0)
(0.0265593378072 0.0260902243328 0)
(0.0264176918108 0.0200675342418 0)
(0.0263238667225 0.0140613759852 0)
(0.0261650440723 0.00817012694485 0)
(0.0235663147113 0.00239559785855 0)
(-0.133440546112 0.0117923498627 0)
(-0.14787547328 0.0406815801826 0)
(-0.14735675301 0.0690008145383 0)
(-0.145304123691 0.0974624043995 0)
(-0.142524633842 0.125376782461 0)
(-0.13910297351 0.152639114238 0)
(-0.135089366402 0.179123638735 0)
(-0.13053762862 0.204716216824 0)
(-0.125505931824 0.229315677761 0)
(-0.12005523872 0.252834592807 0)
(-0.114247852875 0.275199437926 0)
(-0.108145950211 0.296350482831 0)
(-0.101810457947 0.316241376906 0)
(-0.0952999248338 0.334838511376 0)
(-0.0886698066598 0.352120176746 0)
(-0.0819717038385 0.368075600975 0)
(-0.0752530610825 0.382703875123 0)
(-0.0685567536988 0.396012856273 0)
(-0.0619211677054 0.408018042107 0)
(-0.0553800762038 0.418741508015 0)
(-0.0489630206153 0.428210887901 0)
(-0.042695369856 0.436458477776 0)
(-0.0365988765836 0.443520422123 0)
(-0.0306917816766 0.449436039424 0)
(-0.0249894106532 0.454247226992 0)
(-0.0195042074844 0.457997977173 0)
(-0.0142462855348 0.460733937212 0)
(-0.0092233492705 0.462502035344 0)
(-0.00444119195048 0.463350118294 0)
(9.64691640346e-05 0.463326626168 0)
(0.0043875157111 0.462480248452 0)
(0.00843165158486 0.460859717725 0)
(0.0122298301444 0.458513317701 0)
(0.0157845896465 0.455488855819 0)
(0.0190995015567 0.45183332949 0)
(0.0221794148702 0.447592705606 0)
(0.0250299480134 0.442811754535 0)
(0.0276577490353 0.437533893483 0)
(0.0300699920702 0.431801049867 0)
(0.0322746566124 0.425653548951 0)
(0.0342800301865 0.419130018611 0)
(0.0360950039549 0.412267314267 0)
(0.0377285814595 0.405100459365 0)
(0.0391901849976 0.397662603137 0)
(0.0404891692311 0.389984994375 0)
(0.0416351355492 0.382096971149 0)
(0.0426374519224 0.374025966771 0)
(0.0435055726218 0.365797530112 0)
(0.0442485670265 0.357435363033 0)
(0.0448754459837 0.348961370588 0)
(0.0453947052111 0.340395727818 0)
(0.0458146594545 0.331756956084 0)
(0.0461430064323 0.323062014818 0)
(0.046387172203 0.314326398664 0)
(0.0465539022077 0.305564247035 0)
(0.0466496186817 0.296788453122 0)
(0.0466800429477 0.28801078179 0)
(0.0466505653329 0.279241980717 0)
(0.0465659010392 0.270491896221 0)
(0.0464304687726 0.261769575663 0)
(0.0462480789219 0.253083371062 0)
(0.0460223160847 0.244441023908 0)
(0.0457562563832 0.235849748537 0)
(0.0454528456008 0.227316292348 0)
(0.0451146400329 0.218846993616 0)
(0.0447441723587 0.210447814067 0)
(0.0443437102528 0.202124369684 0)
(0.0439156008422 0.193881935693 0)
(0.0434620410721 0.185725452085 0)
(0.0429853940198 0.177659504856 0)
(0.0424879667023 0.169688311336 0)
(0.0419722922628 0.161815683749 0)
(0.0414409123306 0.154045001053 0)
(0.0408966226185 0.146379162659 0)
(0.0403422594435 0.138820554816 0)
(0.0397809077162 0.131371002342 0)
(0.0392156929015 0.124031736839 0)
(0.0386499534515 0.116803353552 0)
(0.0380870413259 0.109685787711 0)
(0.0375304615545 0.102678281595 0)
(0.0369836851162 0.0957793723164 0)
(0.0364502599416 0.0889868712708 0)
(0.0359336406531 0.0822978635433 0)
(0.0354372755216 0.0757086981389 0)
(0.0349644591823 0.0692149946478 0)
(0.0345184050289 0.0628116376606 0)
(0.0341021364541 0.0564927839773 0)
(0.0337185733314 0.0502518570178 0)
(0.0333705142214 0.0440815531989 0)
(0.0330608339616 0.0379738616877 0)
(0.0327927028455 0.0319202696582 0)
(0.0325700235213 0.0259120479262 0)
(0.0323974876385 0.0199410904953 0)
(0.0322721770516 0.0139960029481 0)
(0.03203417902 0.00816736333201 0)
(0.0287617822 0.00241148193647 0)
(-0.159724499621 0.0120406185066 0)
(-0.176987278709 0.0418584366927 0)
(-0.176337349783 0.0709305497377 4.19853411373e-27)
(-0.173835874322 0.100161078882 0)
(-0.170451439073 0.12880317281 0)
(-0.166288275231 0.156744124836 0)
(-0.161409453714 0.183850640502 0)
(-0.1558823702 0.210002819865 0)
(-0.14977950317 0.235095538456 0)
(-0.143176490699 0.259039180476 0)
(-0.136150255852 0.281759658177 0)
(-0.128777260008 0.303198122264 0)
(-0.121132050904 0.323310343302 0)
(-0.113285982571 0.342065855017 0)
(-0.105306262918 0.359446896391 0)
(-0.0972551625606 0.375447225822 0)
(-0.0891895564603 0.390070845099 0)
(-0.0811605978504 0.403330692899 0)
(-0.0732137111018 0.415247353657 0)
(-0.0653886631366 0.425847827154 0)
(-0.0577199074183 0.435164406576 0)
(-0.0502369169421 0.443233683909 0)
(-0.0429647100584 0.450095716013 0)
(-0.0359242549807 0.455793330075 0)
(-0.0291329883343 0.460371575671 0)
(-0.0226051291731 0.463877269168 0)
(-0.0163520783811 0.466358623384 0)
(-0.010382591601 0.467864905763 0)
(-0.00470306784706 0.468446125275 0)
(0.000682367761036 0.468152718184 0)
(0.00577161823909 0.467035218019 0)
(0.0105645885997 0.465144086304 0)
(0.0150627940615 0.462529108513 0)
(0.0192694897208 0.459239533526 0)
(0.0231893009711 0.455323611548 0)
(0.0268281880758 0.450828425516 0)
(0.0301931839012 0.445799722337 0)
(0.0332923551285 0.440281765382 0)
(0.0361345532336 0.434317202591 0)
(0.0387293955122 0.427946964087 0)
(0.0410870298136 0.421210170386 0)
(0.0432181313308 0.414144064689 0)
(0.0451336773428 0.406783956025 0)
(0.0468449544406 0.399163182653 0)
(0.0483633403374 0.391313087712 0)
(0.0497003180347 0.383263012883 0)
(0.0508672637408 0.375040307088 0)
(0.0518754673459 0.366670351596 0)
(0.0527359288525 0.358176601422 0)
(0.0534593876026 0.34958064162 0)
(0.0540561319599 0.340902260586 0)
(0.0545360420106 0.332159535627 0)
(0.0549084191796 0.323368933286 0)
(0.0551820479853 0.314545418066 0)
(0.0553650516891 0.30570257248 0)
(0.0554649774303 0.296852720077 0)
(0.055488682217 0.288007053912 0)
(0.0554424431085 0.279175762037 0)
(0.055331874242 0.270368152832 0)
(0.0551620600552 0.261592771269 0)
(0.0549375006284 0.252857508974 0)
(0.0546622626233 0.244169700384 0)
(0.0543399467821 0.235536208716 0)
(0.0539738484499 0.226963494654 0)
(0.0535669391336 0.218457671936 0)
(0.0531220272023 0.210024544606 0)
(0.0526417444364 0.201669631098 0)
(0.0521286973363 0.193398170801 0)
(0.0515854503285 0.185215118699 0)
(0.0510146595908 0.177125125397 0)
(0.0504190462372 0.169132508748 0)
(0.0498015067 0.161241214772 0)
(0.0491650719104 0.153454774172 0)
(0.0485129913526 0.145776252869 0)
(0.0478486770932 0.138208203008 0)
(0.0471757614315 0.130752612337 0)
(0.0464980274549 0.123410858074 0)
(0.0458194429911 0.116183662933 0)
(0.045144081538 0.109071059169 0)
(0.0444761369079 0.102072356983 0)
(0.0438198397903 0.0951861225449 0)
(0.0431794588007 0.0884101612753 0)
(0.0425592189131 0.0817415107334 0)
(0.041963295584 0.0751764382249 0)
(0.0413957431143 0.0687104462217 0)
(0.0408604924495 0.0623382822927 0)
(0.0403613041532 0.0560539599693 0)
(0.0399017911459 0.0498507812515 0)
(0.0394854293024 0.0437214047843 0)
(0.0391156433167 0.0376579463526 0)
(0.038795903191 0.0316521236661 0)
(0.0385298280749 0.0256956758294 0)
(0.038320569377 0.0197809258455 0)
(0.0381603092297 0.0138951519507 0)
(0.0378544077622 0.00812130826838 0)
(0.0339532925146 0.00240718273939 0)
(-0.186816250619 0.0123382279797 0)
(-0.206982594176 0.0432768353464 0)
(-0.206180130604 0.0732557875836 -4.19629576927e-27)
(-0.203191016291 0.103411600159 0)
(-0.199151524188 0.132927284027 0)
(-0.19418743236 0.161680454288 0)
(-0.188376653301 0.189528751428 0)
(-0.181802228552 0.21634550182 0)
(-0.174552976331 0.242021096331 0)
(-0.166721103815 0.266463634048 0)
(-0.158399866803 0.289598747997 0)
(-0.149681489248 0.311369063906 0)
(-0.140655389876 0.331733320778 0)
(-0.13140671514 0.350665234775 0)
(-0.122015186415 0.368152168634 0)
(-0.112554242626 0.38419367602 0)
(-0.103090485229 0.398799961956 0)
(-0.0936833971848 0.411990333972 0)
(-0.0843853411945 0.423791678532 0)
(-0.0752417824262 0.434237046205 0)
(-0.0662917262827 0.443364370184 0)
(-0.0575682736029 0.451215387388 0)
(-0.0490992737714 0.457834752854 0)
(-0.0409079485301 0.463269372181 0)
(-0.0330134942147 0.467567896678 0)
(-0.0254315444392 0.470780358595 0)
(-0.0181745696699 0.472957872062 0)
(-0.0112521248359 0.47415236996 0)
(-0.00467108387738 0.474416331511 0)
(0.00156422695244 0.473802497598 0)
(0.00745183699733 0.472363540501 0)
(0.0129920603408 0.470151945319 0)
(0.0181870854989 0.467219237653 0)
(0.02304109492 0.463616352634 0)
(0.0275598784399 0.45939299417 0)
(0.0317507115919 0.454597536085 0)
(0.0356221394584 0.449276854424 0)
(0.0391838349491 0.443476184272 0)
(0.0424464083211 0.437239002869 0)
(0.0454212866568 0.430606931141 0)
(0.0481205453341 0.423619654128 0)
(0.0505568038493 0.416314856048 0)
(0.0527430710016 0.408728171115 0)
(0.0546926507034 0.400893148479 0)
(0.0564189942812 0.392841232833 0)
(0.0579356130176 0.384601760352 0)
(0.0592559352961 0.376201970857 0)
(0.0603932257218 0.367667036762 0)
(0.0613604489141 0.35902010914 0)
(0.0621701992554 0.350282381294 0)
(0.062834577313 0.341473168914 0)
(0.0633651368372 0.332610006452 0)
(0.0637727818914 0.323708757813 0)
(0.0640677391907 0.314783739638 0)
(0.0642594840703 0.305847854126 0)
(0.0643567442464 0.296912728482 0)
(0.064367459758 0.287988857751 0)
(0.0642988209967 0.279085747087 0)
(0.064157263634 0.270212050512 0)
(0.0639485387165 0.261375701719 0)
(0.0636777386471 0.2525840353 0)
(0.0633493931098 0.243843893798 0)
(0.0629675183332 0.235161720578 0)
(0.0625357288378 0.226543634163 0)
(0.0620572993492 0.217995486159 0)
(0.0615352809584 0.209522898867 0)
(0.0609725643169 0.201131286636 0)
(0.0603719884352 0.192825857566 0)
(0.0597363944674 0.184611601474 0)
(0.0590687173875 0.17649326118 0)
(0.0583720221294 0.168475294337 0)
(0.0576495709777 0.160561823029 0)
(0.0569048369901 0.152756579258 0)
(0.0561415439044 0.145062843539 0)
(0.0553636555837 0.137483384858 0)
(0.0545753887148 0.130020398971 0)
(0.0537811804394 0.122675452887 0)
(0.0529856776514 0.115449432138 0)
(0.0521936878509 0.108342497794 0)
(0.0514101509159 0.10135404919 0)
(0.0506400799157 0.0944826980874 0)
(0.0498885227792 0.0877262500286 0)
(0.0491605008159 0.0810816967958 0)
(0.0484609683662 0.0745452165937 0)
(0.0477947577646 0.0681121843712 0)
(0.0471665469676 0.0617771908703 0)
(0.0465808224079 0.0555340747609 0)
(0.0460418677255 0.0493759746828 0)
(0.0455537570377 0.0432953988529 0)
(0.0451203738446 0.0372843325242 0)
(0.0447454165937 0.0313344932427 0)
(0.044432315791 0.0254374652931 0)
(0.0441834200071 0.0195848140746 0)
(0.0439880634334 0.0137625395456 0)
(0.0436210167205 0.00804782244173 0)
(0.0391111498093 0.00239262139769 0)
(-0.214872943866 0.0126895582124 0)
(-0.23803337369 0.0449600933799 0)
(-0.237051715832 0.0760131210865 0)
(-0.233526588938 0.107263563884 0)
(-0.228769717562 0.137809908308 0)
(-0.222931122152 0.167517964102 0)
(-0.216106175195 0.196234628698 0)
(-0.208396196073 0.223825432076 0)
(-0.199908890692 0.250175852128 0)
(-0.190755364484 0.275191800318 0)
(-0.181047286836 0.298799146051 0)
(-0.17089440888 0.320942851538 0)
(-0.160402497851 0.341585741501 0)
(-0.149671641474 0.3607070276 0)
(-0.13879494519 0.378300641889 0)
(-0.127857569635 0.394373453498 0)
(-0.116936137431 0.408943415991 0)
(-0.106098466458 0.422037706877 0)
(-0.0954036501235 0.433690931755 0)
(-0.0849024265032 0.443943453326 0)
(-0.0746378119738 0.452839935981 0)
(-0.0646459010881 0.460428135049 0)
(-0.0549567557888 0.466757993638 0)
(-0.0455952677469 0.471880998587 0)
(-0.0365819180475 0.475849793427 0)
(-0.0279333694092 0.478717925372 0)
(-0.0196628864711 0.480539690037 0)
(-0.01178060428 0.481369954681 0)
(-0.00429370440034 0.481263959269 0)
(0.00279345647994 0.480277041533 0)
(0.0094791743284 0.478464311011 0)
(0.0157643712892 0.475880575779 0)
(0.021652097582 0.47257935345 0)
(0.0271476472831 0.468613500953 0)
(0.0322581558301 0.464034372336 0)
(0.0369924103472 0.458891805765 0)
(0.0413606263406 0.453233944762 0)
(0.0453742586552 0.44710711704 0)
(0.0490458098748 0.440555723851 0)
(0.0523886732039 0.433622159615 0)
(0.0554169672884 0.426346736456 0)
(0.058145399517 0.418767630258 0)
(0.0605891154657 0.410920833769 0)
(0.0627635720429 0.40284012716 0)
(0.0646843936692 0.394557060372 0)
(0.0663672496811 0.386100951667 0)
(0.0678277144442 0.377498902868 0)
(0.0690811487556 0.368775831158 0)
(0.0701425664552 0.359954521066 0)
(0.0710265247332 0.351055693434 0)