/*--------------------------------*- C++ -*----------------------------------*\
| =========                 |                                                 |
| \\      /  F ield         | OpenFOAM: The Open Source CFD Toolbox           |
|  \\    /   O peration     | Version:  v1906                                 |
|   \\  /    A nd           | Web:      www.OpenFOAM.com                      |
|    \\/     M anipulation  |                                                 |
\*---------------------------------------------------------------------------*/
FoamFile
{
    version     2.0;
    format      ascii;
    class       surfaceScalarField;
    location    "100";
    object      phi;
}
// * * * * * * * * * * * * * * * * * * * * * * * * * * * * * * * * * * * * * //

dimensions      [0 3 -1 0 0 0 0];
oriented        oriented;


internalField   nonuniform List<scalar> 
36474
(
-0.0396626336315
-0.0585821925118
0.0982452259959
9.94959782384e-05
0.00124926829732
-0.0013487634555
-0.000319108722344
-0.00308473052
0.00340385856179
0.00508857427199
0.00899023430007
-0.0140788165767
0.0061895138232
0.00219679708784
-0.00838633601409
-0.00546244762102
0.00616747979642
-0.000705034962461
0.000112340517019
-0.010116543197
0.0100042026583
0.0251208594465
-0.220504725887
0.195384431236
0.00427273903848
-0.00789334317318
0.00362058315905
-0.00707906298566
0.103030783357
-0.0959491421041
-0.013333414819
-0.00269475529036
0.0160281777607
0.0109498279281
0.0164646861199
-0.0274148411029
-0.00953793237699
0.0204877604016
-0.0016287000916
0.000595448208603
0.00103324459883
-0.00971452558923
0.00552465280822
0.0041898861742
0.265471344331
-0.125498604519
-0.139971792127
0.00402043010397
-0.00145900983007
-0.00256142748177
-0.000754898568336
0.00267089801457
-0.00191598744018
-0.0343259885654
0.0277829826239
0.00654280119846
0.00258896857701
0.0050773953498
-0.00766640026903
-0.0214871865655
-0.0161880144477
0.0376747504884
-0.239532594176
0.15055405215
0.0889790424585
-0.161654072393
-0.0778787049532
0.00234850887059
-0.00243183205838
8.33200699013e-05
0.000319647043719
0.00202885661488
-0.00834522183244
0.00937516096847
-0.00102995736106
-0.000641295844691
-0.00770393304493
0.015357480587
-0.0168673554525
0.00150991946034
0.00212978111469
0.0132277137435
-0.00663284720007
-0.00200569998734
0.00863853707651
-0.0142134814222
-0.0149587752973
0.0291725795794
-0.00919084323082
-0.00141756440472
0.0106083993122
-0.00606417971176
0.000601732743041
0.0370859376201
-0.0443586747889
0.0072739323009
0.00901085680158
-0.035495337763
0.0264846081495
0.0108509881483
-0.000815827083365
-0.0100351895619
-0.000214872779338
0.00027635110134
-6.14931110946e-05
-0.00258621205482
0.00349574489773
-0.00090955804596
-0.0141484833814
0.0221691114971
-0.00802065569721
-0.056959310863
0.00769512505812
0.0492647968871
0.00206305948222
-0.0162115651375
-0.0716169147809
0.0146581826305
-0.00360260396795
0.00342307144273
0.000179525221362
-0.00137160084241
-0.00223099303787
-0.0318113047413
0.0175978617932
-0.00135979208352
-0.00256148931756
0.00392126625151
0.00564083492619
-0.00808397387086
0.00244312946344
-0.0142344170779
0.0171009185053
-0.00286659454285
0.00336752254214
-0.0102267533613
0.00685921679307
0.00195012475466
2.14972207223e-05
-0.00197160535519
0.000479577393155
-0.001742370041
0.00126199395479
0.00844707756452
-0.00585811387875
0.000820969610533
-0.00247940096254
0.00165843841782
0.00301330311204
0.00676736348697
-0.00978073480507
-0.00300824200095
0.00583899467532
-0.00283075744227
-0.0173457739494
0.0236669256021
-0.00632123680132
-0.0051428904433
-0.000643310268729
0.00578618328769
0.0221993356925
-0.0114309260826
-0.0107684490323
0.0731738745052
-0.0360876502431
0.00407585019304
-0.000685522556607
-0.00339033007078
0.00203988724735
0.00151667411479
-0.00355655496459
-0.000926610483815
0.00296650369706
-0.00544232696863
0.00502293444216
0.000419394293312
0.00302212702143
-0.00314462858683
0.000122507402136
0.00969550567844
-0.020000094277
0.010304612306
-0.0026447217325
-0.0106887252798
-0.00955177831297
0.000653000299225
0.00889876868493
-0.00556199405659
0.00332040365518
0.00224159075724
0.00390275257695
-0.00450494873526
0.000602187638386
0.00359328677303
-0.00503865661389
0.00144536384244
-0.00428645812087
0.000696759051418
0.00358972894644
0.0175323806531
0.0129609718996
-0.0304932731264
0.0291729403739
-0.0194087102153
-0.0097643230286
-0.00357626613357
0.00126847595131
0.0023077774545
0.00270721787856
-0.000707079026169
-0.00200013217163
-0.00372014579344
0.00432911566482
-0.000608946687381
-0.0019690040362
-0.00178657678047
0.00375556694321
0.000306493862684
0.00271565075211
0.0184335141649
-0.0191571162953
0.000723608920363
-0.00621322375742
-0.00630693913164
0.0125201236103
-0.00588072005624
0.000848450650718
0.00503227154324
0.451037837162
-0.451038203402
0.000970074946893
-0.000970071333274
-0.000637760148137
0.000637774503064
0.000218920139735
0.00122330730653
0.00586829965736
-0.00933780523893
0.00346953571174
-0.0279422131848
0.110635667751
-0.0826932042451
0.000697571328056
-0.00114426149466
0.00044667425007
-0.00239959945314
0.00457811933957
-0.00217852950755
-0.00390270377229
-0.00217760211455
0.00608030175602
-0.000948364657092
-0.000680338517147
-0.00406791227181
-0.00564661558206
0.185743363898
0.0797282204421
0.00258332054923
0.00143710727212
0.00860769590578
-0.00433819303786
-0.00426952936172
0.00129930153289
0.000821368113034
-0.00212066641295
-0.103772503192
-0.0228058710366
0.126577750268
0.00168556332136
0.00304995846986
-0.0047355312657
-0.00382794389984
-0.000976716724302
0.00480463475043
-0.00751108001867
0.000683046574307
0.00682802274105
-0.00718089382708
0.00259501397244
0.00458586146337
0.0012191150305
0.00763456796007
-0.00885371102897
0.00713749430823
-0.00591839124403
0.0015921918498
-0.00356119642444
-0.0144282605067
-0.00251405653047
0.0169423049243
0.00428407686768
-0.00861471190846
0.00433061747933
0.00807375057784
-0.00378968753295
-0.000773752663936
0.00119463069745
-0.000420857289071
-0.00136614853536
0.000592415744096
0.00447508815021
0.00279007952007
-0.00726518081653
0.00367224280129
-0.00402990150063
0.000357674544899
0.00598075571667
-0.00272957450412
-0.00325121359896
-0.0125689904093
0.00945347960007
0.00311322202605
-0.0038613575453
-0.000410445181776
0.00427182340639
-0.000716464681188
0.00201575820895
0.0916782868537
-0.195450934297
-0.00299820239583
0.00468374245285
-0.0172788858798
-0.021227397556
0.0385060822992
0.0210244435456
-0.0383037396655
0.000377945634063
0.00136064576294
-0.00173860351927
0.00218012224316
-0.00180218096216
-0.000463409941766
-0.00108920442687
0.00155262053602
0.00138914994747
-0.00185254420166
-0.000244802315741
0.00158459144299
-0.00133976841459
0.00102522907319
-0.00127001525085
-0.00228148121865
0.00196754461054
0.000313953817847
-0.0137090276077
0.0152079510679
-0.00149895465668
1.63933717994e-05
0.00562443874121
-0.002053583638
0.00129869714038
0.00439664959053
0.00373682728069
-0.00813348120301
0.0223414152964
-0.0225123934238
0.000170953445674
0.00226349507031
-0.00087433783246
-0.00644651222257
0.00650627696256
-5.97568124788e-05
0.0436977928677
-0.0510218977846
0.00732413674842
0.00578134512289
0.0379163995767
-0.0183339289555
0.0145926672785
0.00374124345382
-0.0076257877031
-0.0107081637079
0.0102553569165
-0.00688784297813
-0.00263352764511
0.00252495291455
0.000108594390015
0.00320688837162
-0.00342946815399
0.000222566136988
-0.0341592412655
0.074565374836
-0.0404054887173
-0.000963864047526
-0.00194754691932
0.00291141002082
0.00536492823493
0.00462117397279
-0.00998611328523
0.011579085241
0.024714466034
-0.0362939836678
-0.00391426783696
-0.000372192064347
-0.00162910539811
-0.0019845255955
0.00361362037514
-0.00469916169801
-0.00174735145271
0.00233355082832
-0.00507307646011
0.00274130789143
0.0115863451887
-0.0024877379765
-0.00909864872578
0.00186119421743
0.00296413851451
-0.00482532965633
-0.00134902660432
0.0122000023627
0.0639987859033
-0.059569133106
-0.00442915561976
0.028420568779
0.0355781620649
0.00417076538672
0.00215901309651
-0.00632977473108
-0.0081396682866
0.01158394945
-0.00344429164492
-0.000947621408051
0.00297011047172
-0.00202247981753
0.00247436663127
-0.00342198651721
0.00704147245121
-0.0117646736851
0.00472321817
-0.0039532117068
0.0109946866869
0.00399970232611
0.0231645359178
-0.0271643549541
0.0287626581914
-0.0247625878282
0.00798301627045
0.0018372540808
-0.00982029437445
-0.00228743199108
-0.000955788503199
0.0109374341528
-0.00998167067394
0.00306148937491
0.00172464044904
-0.00478615784252
0.0085266360816
-0.00918167125772
0.000655010457581
0.010479167926
-0.00299437023503
-0.00748480208831
-0.00652476318015
0.00187989889123
0.00464487197214
-0.00165318585238
0.00582395560984
-0.00081369408935
0.00138341459366
-0.000569707309392
-0.00784755871022
-0.00265471156875
0.010502249182
-0.0142260683061
0.00500108550407
0.00922496488704
-0.00460326620898
-0.00962282466134
-0.0106246139566
0.0275774436242
-0.016952887383
0.0121339759386
-0.0227586741802
-0.0434287057371
0.0256514038093
0.0177765990275
-0.0340772244209
-0.00935157049461
-0.00340297440577
0.00327324780895
0.000129725296243
-0.000880026220138
-0.00252294543864
-0.00468626042776
0.00125222205535
0.00343402315106
-0.00422473076809
-0.000461536984523
-0.0499693202687
-0.000962655559717
0.0509313343834
0.0053033193048
-0.00254086932418
-0.00276244735583
0.00593487346587
-0.0188518533603
0.0129169240581
0.00489433453523
-0.00564603234475
0.000751707679685
-0.00947048589193
0.00157424208099
0.00789623158582
0.0018065135613
-0.000102554335038
-0.00170394434384
0.00194220922478
-0.000135697930871
0.0316578252582
-0.00856683185806
-0.0230910279532
-0.00456797907517
0.0120522063845
-0.00748422971856
0.00750850707762
-0.0120765023449
-0.00326363661318
0.000630115718635
0.00378772886706
-0.000580844727835
-0.0252479540468
0.00538489724774
0.0198630143722
-0.00164960966922
-0.00563445604055
0.00728405994685
0.000384917884016
-0.0027328731382
0.00234799409297
0.00347531618995
0.00154541395622
-0.00502071269824
0.0104551616607
0.000564843615604
-0.0110200085775
-0.00451101837517
0.00171247185442
0.00279855531716
0.00234553704153
-0.00305945262165
0.000713892467465
0.0015717957883
-0.0021143903471
0.000542615989988
-0.0019610630417
-0.00513241392873
0.00709347655595
0.00536142670293
-0.00389935214285
-0.00146205181365
0.0949221549229
-0.256575787141
0.00571533131509
-0.00635663184963
-0.00261968143195
0.0246239200708
-0.022003943142
-0.0299068815309
0.0272873264531
0.0065611926852
-0.0129612306871
0.00640001540825
0.0138338378477
-0.00727266175183
0.0016155448364
0.00169213157856
-0.00330770055343
-0.00034828831896
0.0144523510524
-0.0141041362266
-0.00134473454573
-0.00373903201593
0.0050837729684
0.0314107382017
-0.0315205240691
0.000109046662176
0.00946721414789
-0.00935487931665
-0.0287857025271
0.0220701485756
0.00671549882897
0.0036588153414
1.34372442521e-05
0.0152454341826
0.00318804844019
-0.00685186463916
0.00375688568559
0.00309498364592
0.148913714839
-0.123792793786
0.00578378358412
-0.00151104861071
0.0671382890917
-0.0170980357767
-0.0500399118277
0.00430147220358
-0.000482903013354
-0.00381854946836
0.0105680783894
0.0167542197811
-0.0273225247635
-0.00750124615548
0.0112042082221
-0.00370297990592
0.000656171306533
0.00128604229858
-0.00145288674316
0.00210906966357
-0.00218098196661
0.0248890542035
-0.0227081158132
0.00399915785837
0.000807815104063
-0.00480694219766
0.0466507635989
-0.0206120168367
-0.026037889109
0.0353922431888
0.0112590319643
-0.0180501399969
0.00840917130901
0.00964094678675
-0.0149504990957
-0.0030996529056
-0.0173208552715
0.0109137097552
0.00640717112214
-0.00371881083916
-0.0136020034097
0.00126551940719
-0.00101888202336
-0.000246648858336
-0.0108280622733
0.00809678020156
0.00273124478728
-0.0152496923952
0.0124141944091
0.00283541465603
0.0071130809304
-0.00490891781748
-0.0022041677686
-0.00526713375968
0.00374532760492
0.00152179606452
-0.0117497720134
0.0109339357965
0.00367039141291
-0.00751977382572
0.00385082677772
0.00478567637155
-0.00713594660071
0.00235026725064
-0.000576959213474
-0.000236323909194
0.000813245678269
0.00279341845608
0.00124806867336
-0.00404149154181
0.000253498309506
0.00169664409947
-0.0016679861929
-0.0123405220113
0.0140084708157
-0.00315723680532
-0.00402365899125
-0.00231815259108
-0.000902946089575
0.00322111250129
0.00632182519661
-0.0101026134359
0.00378075968628
-0.0142082595814
0.025787261195
-0.00128849800373
-0.00339537042377
0.0046838805437
0.0089660728023
0.000501135042312
-0.00219497319858
-0.000738154273804
0.00293315340238
-0.00481819730399
0.00278155808881
0.00203666258682
-0.00395932225593
0.00233019578855
0.000681579656105
0.00060681830287
-0.00128839993811
-0.000629552205404
0.00131114046736
0.00760029781133
0.000644599817965
-0.00824490268096
0.00191824519837
-0.00109726751036
0.0109085763909
-0.00283792331949
-0.00807067243
-0.0191087643994
0.0295435857268
-0.0104348852823
-0.0253448927344
0.0146991684307
0.0106457392807
-0.000619169735746
-0.0012687525082
0.00188913076562
0.00467891806837
-0.00103972384477
-0.00363918607295
-0.00614822030919
0.0127150097758
-0.00656681032541
0.0266560501441
-0.0170015424915
-0.00965649331325
0.00267205029194
-0.00540412151524
0.00273204483835
0.00233619313022
-0.00304211572363
0.000705936555637
0.000576887931573
0.00134137072518
0.000451150031221
-0.000670122203233
0.000218989311555
-0.000509805682966
0.000754696378087
-0.000244863710256
0.000583813176355
-0.000858417306425
0.000274597866114
0.0296352999033
-0.0121028037649
0.0152054168756
0.01396747114
-0.0031395627723
-0.000436712986095
0.00261203964712
9.51764951515e-05
0.00271461472849
0.00453958574702
-0.00725421555125
-0.0193251126129
0.0317843698575
-0.0124593411779
-0.0145087969552
0.0177456042163
-0.00323686637572
0.000647923614166
-0.0151567609656
0.0117435577807
-0.0424045573133
0.0306610594714
-0.0306382441472
0.0423821778095
0.0032226593474
0.00411017488956
-0.00733284330189
0.000259401990244
0.000631764742498
-0.000891149984015
-0.00707639160634
0.00252293966733
0.00455342947562
-0.000480897812283
-0.000667009700596
0.00114789396477
-0.0118788756387
0.00340870789845
0.00846990709731
0.00396990229942
-0.00645787834741
0.00248538943135
0.000567162739888
-0.000296562660848
-0.000270582334406
0.00672180224696
0.0110237842762
-0.00968649121065
0.0164082675264
-0.0533647031774
0.0192791556703
0.0340854943155
-0.019906777592
-0.0334579937749
0.0588414985721
0.00124108004137
-0.060081054147
-0.00210564036072
0.00376086954752
-0.0016551939507
-0.00337426664549
-0.00274485956341
0.00611911552329
0.0113658973493
-0.0112562906452
-0.00010962920911
0.00662668094641
-0.00393610138455
-0.0026905925104
0.0035471753687
0.00307950221081
0.00408839232733
-0.00234151969902
-0.00174689254333
-0.00104219134704
0.00285517627934
-0.00181298477652
0.0042163530812
-0.0115705298926
0.00735417029104
-0.00416137234704
0.00683795108198
-0.00267532552299
-0.00687150680145
0.00271141613394
-0.0112395871085
0.0095715810204
0.00189502379748
-0.00532426855147
0.00342923895622
-0.00268402418773
0.00457902578597
0.0113496408505
-0.000870477155912
0.00398472928853
-0.00996330905966
0.00597856821627
-0.0024981294162
-0.00764636184684
0.0101444689814
0.00749588888909
-0.00572577455255
-0.00177013019064
0.000201158091477
0.00505399368826
-0.0052551592813
0.0105465142648
0.00270690398496
-0.01325343478
-0.0227479336381
0.0071344982372
0.0156133826745
-0.0179023870255
0.00743631291572
0.0104660399767
0.00139116665735
-0.000762963945906
-0.000628189545759
0.0211300158106
-0.0110918081427
-0.0100382646326
0.0225609616986
-0.0168257057898
-0.00573523159169
0.00463023591369
-0.00546630283432
0.000836064447823
0.00241721705528
0.0123524479228
-0.0147696948089
-0.00323671808246
0.000171648502878
0.00306504943249
0.0513117383463
-0.0854707184157
-0.00314577425582
0.00218190580835
0.0121939513571
-0.00682902968586
-0.00887385132755
0.00967457735696
-0.000800743277772
-0.00129858623497
0.00168351978886
0.00402942271567
0.00133200542272
0.0029777804114
-0.00818815423642
0.0052103789636
-0.00569363375845
0.00867139622894
0.00947378450766
0.00954037751715
-0.0190141590067
0.0195922267637
-0.0101184521494
-0.00114648701475
-0.0117063829698
0.0128528586407
0.00330749840827
-0.00369837402828
0.000390879556932
0.00602850450096
-0.00931354766903
-0.0113969219832
0.0207104168459
0.0108635545562
-0.0201770959846
-0.0468132437807
0.0388989811215
0.00791393386814
-0.0410935487232
-0.00571948606651
0.00106156665116
-0.00292015260291
0.00185858560942
0.00299979551126
-0.00193823442281
-0.00706829103222
0.0094534418487
-0.00238515848445
0.0082251353347
-0.000624841509524
0.0239461373571
0.00807903119486
-0.0320271507984
0.00370285522477
-0.00585209061114
0.00214923332133
-0.00828194050979
0.0066323248079
-0.00282687248817
-0.00604699353842
0.00443940722146
-0.00726629658895
0.00334848195956
0.00111962361733
-0.00446808558647
0.000509114551683
-0.00282726569899
0.00481169548506
-0.00152220440045
-0.00328949242307
0.00464838001962
-0.000745633592774
0.0115321246156
-0.00230876771733
-0.00922338405937
-0.00936290625322
0.0343328167567
-0.0249696978625
0.000986186699445
0.00300952854606
-0.00399570287643
0.014753846795
-0.0173747283334
0.0026207984
0.027868510984
0.0035422370604
-0.00393330566017
0.0120146383638
-0.00808136039257
0.000937654326574
0.0246244338854
-0.0255620527499
-0.000559361216159
0.00178463374151
-0.00122526046156
-0.00356893660168
0.00137397426315
-0.0231471179773
0.0124370195513
0.0107100766322
-0.0217685855923
-0.00137857787055
-0.00117708009699
0.00659106428992
-0.00541401063702
0.014219596606
-0.0103575457957
-0.00386196257713
-0.00308162484699
0.00138261807867
0.00169900837893
0.00793296149256
0.0062866744266
-0.00247333738338
-0.000608288804609
0.00404453606866
-0.00495298401467
0.000908458328692
0.00627073437596
-0.00278993737394
-0.00348081122976
-0.00850357567292
0.00766887595949
0.000834703279286
-0.00434830822488
-0.00415528696863
0.0115197296753
-0.0126815993766
0.00116186308226
-0.00342719515717
0.00373201182836
-0.000304803927605
-0.00135122070385
-0.00289918976058
0.00425042483753
0.00157973513849
-0.00543543002876
0.0038557090974
0.00445205683175
-0.00516894554668
0.000716902709397
-0.00156215469115
0.000748468900126
0.0133756194703
-1.89309913964e-05
-0.0133566870268
0.0138446899257
-0.000469060186644
-0.000369293085285
0.00551760219086
-0.00514831864161
0.00378319559919
-0.0041524926782
-0.0117706078458
0.0172667209147
-0.00549613675164
0.00854035239295
-0.00170023744957
-0.00684013751031
-0.011344888852
0.00132949868878
0.0100149478388
0.00533568991183
-0.0195701427087
0.00476088374591
-0.00431727883492
-0.000444399397555
-0.0107449816454
0.0140765653138
-0.00333161255907
-0.000277079955977
0.0105657330492
-0.0102886822373
0.00926904540982
-0.00954613515485
0.0113781049524
-0.0094479861459
-0.00193012424996
-0.00673955898648
0.00877059139039
-0.00203104178292
0.00388333621771
0.0053939655052
-0.00927729279448
0.00339198335463
-0.00209766737752
-0.00129430411027
0.0182293586761
-0.00109246100074
-0.0171369527919
0.0190955568653
-0.000866265307938
-0.0282891272095
0.033625311447
-0.0053362587749
-0.0122696026713
0.0212510694472
-0.00898141398108
-0.0267186608682
-0.0212118012544
0.0479304784921
-0.00346625793104
0.00118316008838
0.00228310883591
-0.0030313239889
0.00198915260705
0.00937289906471
-0.00515654896979
0.00661059311246
-0.000629840725225
0.00168497213573
0.00492559109238
0.00224277339389
-0.00176252961533
-0.0138674862154
-0.0149181521297
-0.00719777850865
-0.0153628551411
0.0225605867566
-0.00418493477599
0.00739917568399
-0.00321424858577
-0.00470472435499
0.00128010871619
0.00342462965865
0.000405028651351
-0.00510973881911
-0.00453974385455
0.00504049894508
-0.00050076251881
-0.000446202094368
-0.00409355089996
0.0129857543217
-0.0191297950568
0.00614403781193
0.0538814423818
-0.0723249432142
0.0184437443808
0.00386071901256
-0.0218243470826
0.0179635122851
-0.0186924848323
0.0225531691077
0.000474257344135
9.29156050568e-05
0.000406960131848
0.00690672782202
-0.00731370205497
-0.00216467318244
0.00501072586687
-0.00284605290367
0.00639820948166
0.0185368388418
-0.0249351430791
0.0354730812117
0.000270252098988
-0.0357432643048
0.00887068540166
-0.013930449313
0.0050597548971
0.0162127236058
-0.000422202335591
-0.0157905738926
0.00288018426973
-0.0124222399811
0.00954204489394
-0.0189658110489
-0.00932332078158
-0.000749490964005
0.0136809735248
-0.0129315140176
0.0125261113863
-0.0132756294227
0.00990978724709
-0.0598792430118
0.00790928572889
0.013885582369
-0.0217949490004
0.00695514811283
-0.00165184260106
0.0134491506224
-0.0073211941383
-0.00612798076813
-0.00391299347694
-0.00197694108906
0.00588993345563
0.0105779905897
-0.0120347073712
0.00145670344483
0.00943689118577
-0.0287619719143
-0.00885985830901
-0.0193004172005
0.0281599191659
-0.0213917365233
0.0125317397338
-0.000755588686686
-0.00296454939624
-0.0134950394382
-0.00626280032805
0.0197577780916
-0.0180905133818
0.00459544972912
0.00829025738336
0.000250062782192
-0.0146208266981
0.00327598634693
0.0484118678043
0.00376352792867
-0.0521760241957
-0.00121163810585
0.00291787916336
-0.0017062584974
-0.00951977992538
-0.00838264187208
-0.00427859782175
0.00473301170357
-0.000454404139019
0.00034787712211
-0.0046264750048
0.0206000094561
-0.0151618704345
-0.00543816094681
-0.0555567952946
0.0484605957125
0.00709656188456
0.00753846026928
0.00976994583858
-0.0173084739285
-0.00107634886801
0.00376673126773
-0.00269038852936
0.00797135226103
0.0131585964762
-0.000423700610804
0.00505394675021
-0.00167012163633
0.00770195432765
-0.00603184053033
0.00654247462114
0.00394062415841
-0.0104831071356
0.00162486825739
-0.00106290942472
-0.000561960655933
0.000702944196569
0.000921916885803
0.325881976706
-0.0298622200614
-0.296019718581
0.258877007461
0.0670052255406
0.0119751977273
-0.0079685344258
-0.00400663540015
0.00418179900634
0.00779340267187
0.00569274648698
-0.00266567390661
-0.00302707706427
0.00368809383629
0.0020046513678
-0.000152121830362
0.00420835484614
-0.00405625648814
0.00973605714739
-0.00287595979354
-0.00686015385225
0.00343379522538
-0.0132507490337
0.00981691809692
-0.0226628352727
0.0115709745495
0.0484590063346
-0.0211374199072
-0.0273214090727
-0.0180741843664
0.00581567153663
0.0122584841129
-0.00356767332321
-0.00147098718001
-0.00078494223199
-0.00672613998987
0.0149829140797
-0.0209992273113
0.00601626204696
0.0189431475301
-0.0109718477227
0.0488435768757
-0.0523453090976
0.00350054209271
0.0264445048158
0.0223988112326
-0.00207785709503
-0.000854104197766
0.00293196491109
-0.00337357382093
-0.00285964175256
0.00623318972264
-9.5664386696e-05
-0.000508773260149
0.000604447568566
0.000111714147391
0.000547554388301
-0.000659275866219
-0.00157747786377
-0.00430530639178
0.00588275048082
-0.00131368725819
-0.00682051179584
0.0081341184124
-0.00113338789373
0.0046087033399
0.00970764854079
-0.00200263011087
-0.00770501489238
-0.00360290628865
-0.00389586759982
0.00749876865313
0.00873706692554
-0.00704440668751
-0.00169265389171
0.00472104988843
0.00401602102418
-0.00311428941469
-0.00445118851176
0.00756545018382
0.0114377243028
-0.00199343393189
-0.00944433392257
0.00814228703386
-0.00138849176887
-0.00675382993222
0.00751747449662
0.000624799220393
-0.00832941368013
0.0123141240331
-0.0129326872424
0.00312403526453
0.00314668400328
0.0048257298641
0.0265618027982
-0.0313875538353
0.00058024120342
0.00405601316506
-0.00463625396988
0.00750791191545
0.000488362061275
-0.00799633238475
0.0115469220338
-0.00403904811153
0.00572918316041
-0.00292964992593
-0.00279953498034
0.00581046388708
-8.12641259491e-05
0.00765639182139
-0.00325974506642
-0.00320325527161
-0.00130776963866
0.00353755232496
-0.0158780921957
-0.00358420896449
0.000997984567288
0.0147226040841
-0.0146367686018
-8.58667396982e-05
-0.00328776554602
-0.00356409779958
-0.00510837580612
0.00823239075611
-0.000992110447054
-0.00574744970962
0.0055627697162
-0.00376461399254
-0.00179818052476
0.0177245338032
-0.0359161613655
0.0181904174965
-0.0126956589245
0.00423135588005
0.00846427921159
-0.00576350108102
0.00195851035577
0.00380498835901
-0.00478824248811
-0.0100468345667
0.0148381501689
-0.00226934919822
-0.00130110346984
0.00357047086402
-0.0123003412651
0.0152195985148
-0.00291927713986
-0.0127943901778
-0.00636765257905
0.0191619640862
-0.0156174212391
-0.00216555609003
0.0177828944584
0.00186044546182
-0.0146549365121
-0.000481081061043
-0.0151363267337
0.00138162976653
0.00030799318324
-0.00168963905017
-2.77616647123e-05
0.00140938757826
-0.0414289564488
0.0366092552899
0.00482009027983
-0.00971075602664
-0.0317181690043
-0.00722301074296
-0.0172131076004
0.0244361717671
-0.0272161763352
0.0199931620993
-0.00381842506787
0.000512210703709
0.00330621296991
-0.0046695735721
0.00085115951213
0.0108115980719
-0.006452222653
-0.00435939023179
0.00521407551058
-0.00611803260432
0.000903954467522
0.00649427092533
-0.000834970904832
-0.00565930099066
0.00181354998886
-0.00482179683409
0.00138047407628
0.00656273595652
-0.00794323451938
0.00321527841512
-0.00485667858064
0.00164140197357
-0.0261337041562
0.0213480451449
0.00478538541759
0.0111252971183
-0.0147240350171
0.00359870235697
0.000974007852089
0.0137485911082
0.00666755864773
-0.00833768688993
0.0132464368735
0.0134091036159
0.000610300693694
0.000655214186901
-0.00471476223063
-0.00611331754136
-0.00748076778904
-0.00776893511838
-0.00814391663733
0.00395897718502
0.00262842392621
-0.000353340112803
-0.00227507020254
0.00685769923411
-0.00816426707894
0.00130655696597
-0.00586005142132
0.0208429537537
0.00721937979148
0.00305133698319
-0.0102707669892
-0.00195104138728
-0.00244980311265
0.00440083308657
-0.00421358119227
0.00439572251654
-0.000182133304329
0.0233358471939
-0.0154265960583
0.0558107705936
-0.0267780037881
-0.029033269723
0.00198036176816
-0.000612880335295
-0.00136746166158
-0.00225778689568
0.000782397018547
0.00147537813457
-0.00160782756426
0.000518107372011
0.00108974235789
0.00596824456105
-0.0156949918304
0.00972668544225
0.0036979753924
-0.0179903906041
0.0142923210524
0.000597110197907
-0.00125354307624
0.000656449749443
-0.000712672551807
0.00147373009484
-0.000761070817054
-0.00563874359396
0.0108079528003
-0.0051692343141
0.00379949841553
-0.00576056046065
0.0122963592191
-0.000858590892284
-0.0012455650722
-0.00987917728963
0.0111247370961
-0.00731615367387
0.00479137047203
0.00252475591437
0.00393451600723
-0.0049959402464
0.00106144398389
-0.0142724253247
0.00240125892607
0.0118711392108
0.0122307295291
-0.00296170155577
0.00240763312474
0.00359820182731
-0.00600583649593
-0.00134471321877
-0.00256563363527
0.00391035727878
-0.00388553918235
0.00629317451953
0.00284391514903
-0.00418862658064
-0.0674161461606
0.0200944350178
0.0473229546141
0.0211617704319
-0.0146333349392
-0.00652850312598
0.0381625113302
0.0176481265882
0.00160976458854
0.000370599630624
-0.00172745199496
-0.000530333780632
-0.00124503959326
-0.000362784189921
0.00515267136914
0.00399674304132
-0.00876927791381
0.00477252658828
0.00500434181178
0.0107195459249
-0.0157238228031
-0.01036884243
0.0153731803945
-0.0384535396714
0.0197704759651
0.0186827701889
-0.000757201195084
-0.00172219440363
-0.00351701335507
0.000101304851305
0.00341569389414
-0.00357354097159
5.65192542863e-05
0.447296235984
-0.447296936547
0.000868913950374
-0.000868908390724
-0.00054849646025
0.000548502428801
0.000123633661521
0.00126822327875
-0.0490192237445
0.00299146502862
0.0460272026361
0.000503267115494
-0.00752196044533
0.00701867355563
0.00253787514918
-0.00348533160377
0.000947437854294
0.000510547257424
0.00582968786431
-0.00634022984953
0.00490321542504
-0.00391702215579
-0.000662280917711
4.4081945923e-05
-0.0116974563711
0.00554922966551
0.0377104466272
-0.0247854189533
-0.0129247480515
-0.00111367738317
0.0116601801459
1.81616084845e-06
0.00262660428197
0.00734501292033
-0.00728143429261
-6.35998511919e-05
-0.00577931623119
-0.000762074873201
0.00654140107435
-0.0150109349877
0.00169990280734
0.0133110248022
0.00357837812852
-0.0101445279438
0.00656614175553
-0.00245557592808
0.00147435704414
0.000983523967785
-0.00906970726476
-0.000121142470619
0.00464638246383
0.000283745711585
-0.00493012139602
-0.00404841267267
0.00317256831476
0.000875855667283
-0.0114296686462
-0.000177287793837
0.0116069385088
-0.022749265723
0.00658244166164
0.0161667562688
-0.0135051471074
-0.00924417018111
0.00873527367802
0.0164952968336
-0.0252307273016
-0.00319626617786
-0.00083363230077
0.00592297824638
0.000476280797804
-0.00639810830577
-0.00664303247187
0.00788029784375
-0.00123726705413
0.00120881503496
-0.00785186011165
-0.0207537371262
-0.0433900896912
0.0641445488762
-0.0178824153206
0.00933756567637
0.00854483485768
0.00409498939108
-0.00149000316143
-0.00260500867938
-0.0067199912686
0.0111014745284
-0.00438216158307
0.00844596349897
-0.0151662924475
-0.00077363231131
-0.012843492565
0.0136171021496
-0.00228421392651
0.00426117260479
-0.00197696834517
0.00280172638274
0.00187719886312
0.000402603477814
-0.00235015621468
0.0323015160998
0.0422642369038
-0.00369984163415
0.00832101095813
0.0106512648643
-0.0181496818549
0.00749830974707
-0.188880036519
0.0702843371412
0.118595275376
8.72408905113e-05
-0.00216509245911
0.0246217376059
-0.0174709973481
-0.0071507841984
0.0127895406067
0.0118321765589
-0.00881069107922
0.00945529180684
-0.0238935579323
0.0143737306238
-0.00915113442683
-0.0147424449263
-0.0106400657478
0.0169830882739
-0.00634303999949
-0.000204949402716
-9.92929645692e-06
0.00468655245883
0.00669154859192
0.00631141458987
0.00178112387867
-0.00809255179973
-0.0650558547029
0.0550295521989
0.0100276278206
-0.0425956625291
-0.0224588827091
0.00854851574644
-0.00561964685897
-0.00292887372275
-0.00954179026774
0.00349496517608
0.00604681647551
-0.0047018185737
0.00335059290058
0.0104186394503
-0.00740536249899
0.00783063777982
-0.025176496501
-0.00539049366258
0.00104199342276
0.00434848192794