/*--------------------------------*- C++ -*----------------------------------*\
| =========                 |                                                 |
| \\      /  F ield         | OpenFOAM: The Open Source CFD Toolbox           |
|  \\    /   O peration     | Version:  v1906                                 |
|   \\  /    A nd           | Web:      www.OpenFOAM.com                      |
|    \\/     M anipulation  |                                                 |
\*---------------------------------------------------------------------------*/
FoamFile
{
    version     2.0;
    format      ascii;
    class       volVectorField;
    location    "100";
    object      U;
}
// * * * * * * * * * * * * * * * * * * * * * * * * * * * * * * * * * * * * * //

dimensions      [0 1 -1 0 0 0 0];


internalField   nonuniform List<vector> 
24444
(
(0.049166961907 0.0177388912247 0)
(-0.00539737043716 0.000178737299705 -1.58029192477e-18)
(-0.00577129015004 -0.000842066451411 -3.46820677032e-18)
(-0.00735794838203 0.00502516587713 3.01545737975e-19)
(-0.00621045749656 0.00484268824921 0)
(-0.00652517457178 -0.00162235195251 3.48862063418e-18)
(-0.00437222217265 -0.00882976657387 3.29464778094e-18)
(0.0704229095817 0.0507864748594 2.95239449583e-18)
(-0.00051838351564 -0.0123115838194 -1.6899190436e-18)
(-0.0283916186089 -0.086842773261 4.0933538824e-18)
(-0.00986915207318 -0.00400898480333 0)
(0.00775385055092 0.0103627087034 3.67323339678e-19)
(0.00780935221982 0.00850664474607 -2.34641265724e-19)
(-0.00643044523662 0.00053683715754 -4.83688650406e-19)
(0.00696308388075 0.00453697368058 1.26370647266e-20)
(-0.12954867382 -0.00227806578809 -1.53271765383e-18)
(0.000820056658893 -0.0116112853133 -1.70915913725e-18)
(-0.000937299738447 -0.00537116115146 1.6400747332e-18)
(-0.0303873808214 0.0118181500632 0)
(-0.00447794440797 0.00614172443595 1.70538692588e-19)
(-0.0259765295186 -0.0249997404133 -9.99734264677e-19)
(0.0667774966676 0.0834086639004 7.86483347943e-18)
(0.0601828460334 0.11048204615 -3.47146352736e-18)
(-0.00595707435977 0.000398561050267 0)
(-0.00581968664916 0.000264280241295 -9.54211751204e-19)
(0.000597669560795 -0.0125061033254 2.96665171175e-18)
(0.0014704650416 -0.0126497605575 -3.50015582828e-18)
(0.00371229343119 0.0162803721966 0)
(0.00379562804093 0.0150395942029 4.23621946641e-19)
(-0.00754244353893 -0.000528052827845 4.13652071102e-19)
(0.000928089829986 -0.0289398607158 -3.04283495511e-18)
(-0.000944313126549 -0.0117083817158 0)
(-0.00652078833033 -0.00169691063564 -2.3929683564e-18)
(-0.0388833056561 -0.0552588319569 0)
(-0.0389817817233 -0.0184011345098 -1.33893420536e-18)
(-0.00902610689135 -0.000960574758007 0)
(-0.00287223768286 0.000560207282071 0)
(-0.00494870665764 0.0017840154372 -1.63481432678e-18)
(0.00202619098346 -0.017159488779 0)
(0.00450909297629 0.0199599123649 0)
(0.00183561332991 -0.0152921771312 0)
(0.00497396894802 0.0222091974531 0)
(-0.00411358528438 -0.00256698515778 0)
(-0.00413443239818 -0.00249266655935 -8.48169114271e-19)
(-0.00231985943795 -0.0303962211802 -3.31824276104e-18)
(-0.00434582077734 0.00241732327883 6.68428543904e-19)
(-0.00495647876877 0.00601034498883 9.35143155077e-19)
(-0.0122643796908 -0.00589457378793 0)
(-0.00340190352215 -0.00918060893441 -2.52705107486e-18)
(-0.00177917136419 -0.00377024882697 -3.75142134724e-18)
(-0.0558461773025 0.0268067084742 -1.18021171717e-18)
(-0.00512946790921 0.00607962092542 1.74321648924e-19)
(-0.00221992796854 -0.00337047605255 -3.62755143899e-18)
(0.00114665630554 0.00685552677507 0)
(-0.00623887262976 -0.00126632898552 -2.09953281846e-18)
(-0.0178687433092 0.00378610727708 -2.64495291012e-19)
(-0.00375948774655 0.0067598154676 3.49121165231e-19)
(-0.0117652463572 -0.0143091081157 -1.51649924912e-18)
(-0.0377104709598 -0.0625431112001 -1.01806928895e-17)
(-0.00659682689511 -0.000212276780166 2.31107059208e-18)
(-0.0063088127112 0.000138579412045 4.6989968228e-19)
(-0.00625932205169 0.000167357268482 1.09259042806e-18)
(-0.00589184031527 -0.00290984893626 1.42962848849e-18)
(-0.00515176726951 -0.00109955197998 -1.57660220214e-18)
(-0.0129125340521 0.000261969269062 5.18511567744e-19)
(-0.00956233021216 -0.00265100317308 2.64153048545e-18)
(-0.00754778082579 6.38186117232e-05 -1.41231720667e-18)
(-0.0039937012298 -0.00469893845315 -7.69288160036e-19)
(-0.00472673673071 0.0032607040321 0)
(-0.00348012279725 -0.00522138124315 0)
(-0.00240917408453 -0.00559977892687 1.42438788834e-18)
(0.00334729825198 0.0147764418901 0)
(0.00593855877758 -0.021445315446 -5.22255897024e-18)
(-0.00349023804323 0.00392172789678 0)
(-0.00275958588864 -0.00375013537963 2.39219622925e-18)
(-0.00652232272978 0.000242343910289 0)
(0.000136327951956 -0.00882042516176 -4.83594873482e-18)
(-0.00500329984442 -0.00102034656352 1.52824254468e-18)
(0.00386199782194 0.0143182473168 0)
(-0.0088094408263 -0.0023448470697 0)
(-0.00282961300301 -0.00618847668985 -3.65378630421e-19)
(2.61487576868 0.00584135386797 -1.06348251726e-17)
(0.000197175540719 -0.00784633621253 0)
(-0.00588420335757 0.000100598606895 -1.17871845835e-18)
(-0.00757763783395 0.00104566226739 0)
(0.000558936007092 0.0162735068206 0)
(0.0797700579529 0.0193503372356 -3.4457959242e-18)
(-0.0057901734348 3.87245929214e-05 0)
(-0.000557741706288 -0.0132322242126 -2.01605714672e-18)
(-0.00591418860742 0.00191611031846 0)
(-0.00662083372626 1.74322872197e-05 5.17318752317e-19)
(0.00675810820765 0.00546212288103 1.40530127735e-20)
(-0.143050754869 0.0219274297815 1.78657052141e-18)
(-0.000441724695531 -0.0124228769462 0)
(-0.00562520332837 0.0068431887389 3.42803178911e-19)
(-0.00627840714126 0.0002385970933 -2.77446222277e-18)
(-0.0830415261114 -0.00402878437423 1.02929068989e-19)
(-0.00492930669493 0.00283657247755 0)
(-0.0064115104612 0.000657232347485 -1.56572860591e-18)
(-0.00728287938301 -0.000750941627276 -8.60661206625e-19)
(-0.00673002699876 0.00229643855668 8.45064588573e-20)
(-0.00521956369694 0.00536557766563 4.65015692356e-19)
(-0.00480213402491 0.00555641743098 3.75001921423e-19)
(-0.000320135918409 -0.00883496545236 3.15128553013e-18)
(-0.00969360158455 -0.00704825236497 -8.53512105012e-19)
(0.00190624954793 -0.0109792971309 8.10096895458e-18)
(0.000986752078548 -0.0104145919872 -4.05502444076e-18)
(-0.00379508482139 -0.000691764688261 3.67317501775e-18)
(-0.00393462187521 -0.000767503302776 0)
(-0.00679282498978 0.00279549308892 1.42146525707e-18)
(-0.00606640264416 -0.000813972487103 2.49368341619e-18)
(-0.00590222083368 0.0026171353256 -1.33403274333e-18)
(-0.0462674145805 0.025868258223 0)
(-0.00611969495811 0.000854700827068 1.58421857865e-18)
(-0.00636710296812 -0.000128009359099 2.06293945677e-18)
(-0.093101509038 -0.00476733511481 0)
(-0.00483683955874 0.00267805823114 0)
(0.0421813852721 -0.0146359803405 3.47520252124e-18)
(0.0362963545514 -0.0203850493809 0)
(-0.000579202147375 0.00653290829923 0)
(-0.00108563712696 0.00644531301111 -1.03379827491e-18)
(-0.00052772142838 -0.00534977502759 -8.82571037961e-19)
(-0.000568273455555 -0.00537304631737 9.01986395025e-19)
(-0.00496405730534 -0.00048045415325 3.13509817351e-18)
(-0.0049725754735 -0.000186214925959 -3.14480893367e-18)
(-0.00362683378937 -0.00187204811228 1.84068804312e-18)
(0.00323755831164 -0.0133781056447 -2.35897783321e-18)
(-0.00446806701354 0.00575200499429 -6.82014995144e-19)
(-0.00110083400666 -0.00519640632129 0)
(-0.0013596219469 -0.00993611043511 2.41375745592e-18)
(-0.0133839738496 0.00252151358744 -6.40132123622e-19)
(-0.000726787964729 -0.00555697672045 0)
(-0.00341424221526 -0.00646663316627 0)
(-0.00785073247019 0.0222364806876 -4.77618865334e-19)
(-0.00628791257778 0.0230578991751 2.26356145401e-18)
(-0.00300008927521 -0.0156525348309 0)
(-0.00212554577277 -0.0148820612833 0)
(-0.00343391392646 -0.00959594978109 3.11525896154e-18)
(-0.00214420508412 -0.00440433971411 3.41368222998e-18)
(-0.00295223285782 0.00456283696501 0)
(0.0193387462557 0.0569358074478 2.85601161242e-18)
(-0.00563200152766 0.000952387311853 0)
(0.000445565182377 -0.0117457503553 -5.55516893546e-18)
(-0.00232932838206 0.0159694766829 1.41197735392e-18)
(-0.00221862006006 -0.00615799985727 0)
(-0.0060448148593 0.000817439330221 -9.21466484632e-19)
(-0.00305884746103 -0.00669986961421 -2.30635772025e-21)
(-0.0650447791661 -0.00269809092388 0)
(-0.00341771590053 0.00750617867 -4.15213069411e-20)
(-0.0066628679376 4.80523758034e-05 1.00223832991e-18)
(-0.00920511880278 -0.00172219035546 0)
(-0.0662809223077 0.00330006237432 0)
(-0.06648380946 0.00572642988557 -1.1074937418e-19)
(-0.00238000042597 -0.00674972927481 4.27230673498e-18)
(-0.00508457559188 0.00676944092578 0)
(-0.000863180661987 -0.00847555613539 0)
(-0.000498895444688 -0.00835712729553 3.85267633087e-18)
(-0.00788701558165 0.00381176144632 -4.78225791633e-19)
(-0.00775093198456 0.00399755966822 1.15763914163e-18)
(-0.0228127235765 0.0160898024844 -1.92046675911e-19)
(-0.023010402598 0.0140802636156 -9.16873089933e-20)
(-0.00748962352659 -0.00280903153886 -2.53613234696e-18)
(-0.0033047234225 -0.00546733764973 0)
(-0.0039132761885 0.00723172498742 0)
(-0.00653227450178 0.000136824829783 0)
(-0.00533252804692 -0.0075429292995 1.27574380375e-18)
(-0.00371452859231 -0.00959559604428 0)
(-0.00283758029844 -0.00725869416117 7.03662360044e-19)
(-0.00246970135403 -0.0067472139353 -1.41679897497e-18)
(-0.00446661401062 -0.000365292336521 -3.25472345332e-18)
(-0.00388918400451 -0.00992330697662 0)
(-0.00744081199277 -0.00586703244441 0)
(-0.00761504156168 -0.00546229488332 -2.51541726876e-18)
(0.00479313190357 -0.0229694594233 5.01642702373e-18)
(0.00421079758677 -0.0207060347051 -6.7339014958e-18)
(0.00164782684402 0.016753460424 3.12047692689e-18)
(0.00189079548778 0.0166929137254 -1.60614196352e-18)
(-0.00266060911908 -0.00434176709032 3.25067839421e-18)
(-0.0026434559435 -0.00424748729468 -3.58078388755e-18)
(-0.00328883617024 0.00444187170388 6.40366692207e-19)
(-0.00345039692735 0.00445758186 0)
(-0.025972953248 -0.0402147845755 2.58062236322e-18)
(-0.00519757356003 -0.00372261178416 -3.03126121512e-18)
(-0.00108174612738 0.00937669876311 1.48768234909e-19)
(-0.00648279503851 0.000352361852858 0)
(-0.0070741605168 0.00382621656172 9.74071185256e-19)
(-0.00165572515522 -0.00332227029664 0)
(-0.00151827526214 -0.0034956414371 3.59840285659e-18)
(-0.019517010902 0.0110334011264 -1.37591663366e-19)
(-0.00534439560443 -0.00806525538189 4.05944650184e-18)
(-0.00500149823921 -0.00832969119096 -3.89555256705e-18)
(-0.00229337346349 -0.00434385877974 4.27578552959e-19)
(-0.00292657946485 0.00458385374615 3.45575447245e-19)
(-0.0127765632794 0.009091026082 9.13978276989e-21)
(-0.00709777344131 -0.00322202630014 -2.08728236019e-18)
(-0.0055322194536 -0.000264175043026 -2.54406671323e-18)
(-0.00570734322533 0.001796438944 -7.49622761655e-19)
(-0.00809387529639 0.00186651453257 0)
(-0.00671328014958 0.000377337425432 1.05243122432e-18)
(-0.00107313162289 0.00713692098552 0)
(-0.00520287871102 -0.000295414511088 1.43061943033e-18)
(-0.00481758823013 0.00619715702709 -2.65228089401e-19)
(-0.00647153242674 6.71127921807e-05 0)
(0.0819008719615 0.0965446043162 0)
(-0.0020642483573 -0.0120668891898 0)
(-0.0134695201552 0.0177309586061 0)
(-0.0134223714141 0.0179697798491 -5.26011914919e-19)
(-0.00470879127895 -0.0117655164105 -2.80237643006e-20)
(-0.00508421890559 -0.0117860928704 4.46668811367e-18)
(-0.00209117038135 0.00539939116854 0)
(-0.00847357288618 0.00707162157058 -1.26197730605e-20)
(-0.00182867707302 -0.00647534946141 0)
(-0.0408582744125 -0.00336602138224 -2.09823919593e-18)
(-0.00495627638292 -0.00809263913341 -2.29186938632e-18)
(-0.032642668169 0.00215759859275 0)
(-0.00603856480062 -0.00068757010584 0)
(0.00545564035188 0.0137970100166 3.55352637652e-19)
(-0.000951975478864 -0.00832373622144 1.31976254301e-18)
(0.0699360779245 0.0493059602894 0)
(-0.000260797798144 -0.0120242923629 5.18811380603e-19)
(0.0162565744693 -0.0499351576758 7.09733318772e-18)
(-0.00147213415425 -0.00601826653935 1.44942945777e-18)
(0.00195984123031 0.0151845301839 0)
(-0.00892905153858 2.93980563478e-05 1.18552250673e-18)
(-0.00139600306947 -0.00364987215402 -4.19812747499e-18)
(-0.00161186540869 -0.00365529174552 3.60771383367e-18)
(0.000407652892186 0.0129124678407 -3.88763514887e-19)
(-0.00660773932877 1.3278369926e-05 2.37100496664e-19)
(-0.00991201378768 0.0204115019309 -1.72302316308e-19)
(-0.0124119329106 0.0206957237415 -1.13826933239e-18)
(-0.00394435905256 -0.0140957611841 -3.09562634732e-18)
(-0.00437958562272 -0.0140842194197 2.83680353327e-18)
(0.00388437893091 0.0107914409747 -1.74197298498e-19)
(0.00322094149609 0.012105524931 0)
(-0.000949172850851 0.003809899191 -8.06499235174e-19)
(0.012070607206 -0.00435937406931 0)
(0.00153184892095 0.011047256627 -1.21547737194e-18)
(-0.00659833711076 -0.00169265228881 0)
(-0.00648746776538 0.00044385759454 -6.66376209688e-21)
(-0.00902210993483 1.81717806961e-05 0)
(-0.0488872566085 -0.0456969394009 0)
(-0.00633448483164 -0.0031605712254 -2.399976275e-18)
(-0.00505876065834 0.000181472713758 0)
(2.97181112504e-05 -0.0123384581452 1.12471820124e-18)
(-0.00153570911417 -0.00386953745605 2.82093828578e-18)
(-0.00851003001501 -0.00875714212503 1.54138277786e-18)
(-0.00629206704052 0.00274122441167 5.25071854094e-19)
(-0.00272893843871 -0.00467580235874 0)
(-0.00792605251964 0.00255641379124 -1.6022388633e-19)
(0.0011412728099 0.0153864796942 -1.43608343884e-18)
(-0.00595610996348 0.0011536644967 3.77499744739e-19)
(-0.00533100597434 -0.00805824279952 2.70434413364e-18)
(-0.00524711720233 -0.0012699625316 0)
(-0.00656911552271 -0.000200161496014 -1.14074373205e-18)
(-0.00606893194591 0.00032085629386 2.07560178255e-18)
(-0.00101383369069 -0.00393951816 0)
(-0.00111117142496 -0.00394133727599 -3.84204243984e-18)
(-0.00411539924697 -0.00842113165779 0)
(-0.00205580231232 -0.00335759831645 0)
(-0.00758576831277 -0.00373198421269 -8.43186761716e-19)
(-0.0445693908891 -0.0149530001962 8.90035612589e-20)
(0.000208742356118 0.0133025181778 -5.3954032069e-19)
(-0.00423171411789 0.0452032881134 -1.78945195562e-18)
(-0.00592250601273 0.00113553758715 0)
(-0.00132799505595 -0.0131976881313 2.73423453273e-18)
(-0.0477413851771 -0.00853335283321 1.31755853999e-18)
(-0.00587969233356 0.00725705782364 2.83687424985e-19)
(-0.0060599307719 -0.000445553694888 -6.27449322584e-19)
(-0.00197609161769 -0.00349817362858 -2.97958252166e-18)
(-0.00475876985333 -0.000161206125793 3.55969645236e-18)
(-0.000241634132516 -0.00502751957386 3.53739447126e-18)
(-0.000314481406731 0.00581531226841 9.73833141846e-19)
(0.0040929851077 0.0150065270229 -1.04009032998e-18)
(0.00712701040312 -0.0208051027258 5.51355370487e-18)
(-0.00329670539182 0.00421550275983 0)
(-0.00266207926387 -0.00398857853679 -3.79331354153e-18)
(-0.00540081362695 0.00485115704424 4.31438404365e-19)
(0.00210732367216 -0.0263523162668 -5.21217224134e-18)
(-0.0108875462724 -0.00405611275782 1.04706301867e-18)
(-0.00997828290372 -0.00407118480927 1.46172853613e-18)
(0.0126380487131 -0.0301887958313 4.002466583e-18)
(0.00831195754643 -0.0335625458357 0)
(-0.000981432889475 -0.011345749384 2.92944536735e-18)
(-0.00174791010264 -0.00230318798831 2.20533842828e-18)
(0.00682865596858 -0.00607578720186 -3.2945261468e-18)
(-0.00200589835097 0.00248447660183 0)
(0.00433019323764 0.00843980672124 3.42206295661e-18)
(-0.0483294979442 0.0213197755668 9.44690095184e-19)
(-0.00324041728109 -0.000500977896879 2.02865205922e-18)
(-0.0104755584534 -0.00400787965498 3.65367648865e-19)
(-0.00978234153032 -0.00475949605864 -7.47233929903e-19)
(-0.0204371026501 -0.0369133038861 -6.45045697161e-18)
(-0.0209274231332 -0.0330226300765 2.33246273322e-18)
(0.00142531494643 0.0242760716825 0)
(-0.00476478479335 -0.0019061776086 -1.63155535427e-18)
(-0.00336547973185 0.00606010330027 0)
(-0.00948515022189 -0.00254176838688 3.72731037731e-19)
(-0.00343893891277 0.00782476975225 -2.82040520726e-19)
(-0.00303385891216 0.00792620656557 0)
(-0.0060930918914 0.000282604613638 0)
(-0.00567859572543 0.000439973561714 0)
(-0.00113767349774 -0.0124478437646 -1.93571236966e-18)
(-0.056826124538 -0.0579219585786 -3.03164543828e-18)
(-0.0609393259314 -0.0571579444182 2.67248763195e-18)
(-0.0075644106023 -0.00871027766049 0)
(-0.00121284677207 -0.00694897275671 -1.33013847516e-18)
(-0.000774540641594 -0.00684228260999 1.36282273902e-18)
(-0.00331930772839 -0.0101778935127 0)
(-0.00774493129852 -0.00480863109866 0)
(-0.0051986654333 -0.00752732474073 -6.01361170739e-19)
(0.00244521232377 -0.00929509925776 -9.0919578249e-18)
(-0.00502475536125 0.00394419431968 -7.6227934781e-19)
(-0.00631587900142 0.00590983651418 -3.71516302156e-19)
(-0.0142884376052 -0.0133780799211 3.31567149267e-20)
(-0.0112946339682 -0.00813922277401 2.61413743519e-18)
(-0.00596268712263 -0.000242577061914 3.69557485489e-19)
(0.00232680553159 0.0136342745839 0)
(0.00291636539339 0.0119501298353 2.74062295952e-19)
(-0.000569653582972 -0.00852795669431 3.05160659245e-19)
(-0.00856164313887 0.00611436359248 0)
(-0.00766374292697 0.00554134852726 -1.17425036894e-19)
(0.0211039808167 0.0507579670405 -1.49853812327e-18)
(-0.00586006178962 0.000562707618563 -1.36152570257e-18)
(-0.00087681488303 -0.0133794976077 2.2366243157e-18)
(-0.00787746322041 0.00144061740006 -1.62298220006e-18)
(-0.00524739675854 -0.000188494433934 0)
(-0.00665130148032 0.000255532056361 0)
(-0.00663927695475 0.00278068055639 -1.09624001791e-18)
(-0.00650051319756 0.00329172432428 1.24158185756e-19)
(-0.00708281902656 0.00819085551038 0)
(-0.00723262532674 0.00808992017869 -1.05828113829e-19)
(-0.00789234325562 0.00447605671019 -3.45092064978e-19)
(-0.00595378851368 -0.000669884001414 -1.2580021867e-18)
(-0.00441387466246 -0.008098294608 -7.75040769305e-19)
(0.00191449541967 -0.0187349219638 0)
(0.0012477697007 -0.0183939237306 0)
(0.00176274201666 0.0170622624618 2.80727377621e-18)
(0.00247171107276 0.0171058830118 -9.28629550613e-19)
(-0.00309289978907 -0.0033986480755 0)
(-0.00312080883565 -0.00346009585387 0)
(-0.00787304482092 -0.00247597732309 4.88822894434e-19)
(-0.00493488961552 -0.00830828967378 -1.39847816579e-18)
(-0.0489116875346 -0.035160087433 0)
(-0.00685427713545 0.000347878054669 -9.00130152684e-19)
(-0.00760615816472 -0.00263108747371 1.97521406071e-18)
(-0.00759158932406 0.00197820810261 1.04839120702e-18)
(-0.00750339669488 0.00134808114244 1.4795325943e-18)
(-0.00650150336184 -0.000365128671406 -5.86771400876e-19)
(-0.00307139257037 -0.0042359330684 0)
(-0.00306866117553 -0.00468296000899 0)
(-0.00481315312506 0.00328246738004 -7.30755506652e-19)
(-0.00830231757726 3.88449676082e-05 -1.30063299949e-18)
(-0.0120896880383 -0.025365180581 0)
(-0.00373098090953 -0.00520076928217 0)
(-0.00954775151248 0.00373759767482 1.00323008413e-18)
(-0.0458178789815 -0.00217935113996 1.11387193933e-18)
(-0.00343502944596 0.00838170403293 0)
(0.0277446207352 -0.0181808195278 -9.21460339328e-19)
(-0.000878548624111 -0.00504588913041 1.31178057943e-18)
(-0.00540481161335 -0.0011294895536 7.85638700583e-19)
(-0.00955748435688 -0.0162149407789 -1.71479540478e-18)
(-0.0110020360366 -0.0158895476799 1.49156080221e-18)
(-0.00430910391262 0.00621491785084 -1.56595323662e-20)
(0.00557871586376 0.010129362326 -7.87451235938e-20)
(-0.00630636320603 0.000427099655775 0)
(0.00640687524212 0.00972876131614 0)
(-0.00644669177633 0.000209837519644 2.25195813088e-18)
(-0.00575509282453 -0.00178533441511 -1.40016427973e-18)
(-0.00601897597619 -0.0033302244773 -4.46119478917e-20)
(-0.00550247105446 0.00496220526141 1.51808075514e-20)
(-0.00534106620064 0.00472493361517 9.0737434225e-19)
(-0.00923069572794 -0.00330969787606 -1.57817051907e-18)
(-0.00230529124629 -0.00478744079835 2.94081066243e-18)
(-0.00526147160176 0.00244134337775 0)
(-0.0065990362835 0.000375069908004 2.32935912799e-18)
(-0.00665827036 -0.00083567098821 -5.19644809974e-19)
(-0.00456668406672 -0.000345635998492 3.29022632292e-18)
(-0.00571323255429 0.00707998054573 1.44745520551e-19)
(-0.00617725252279 0.00698055711067 -3.42904528476e-19)
(-0.00700984494078 0.00058615751141 7.07120233692e-21)
(-0.00673037060146 0.000740083766083 5.22315547699e-19)
(-0.0104300618612 0.00473175206707 -1.80841603888e-19)
(-0.00097793324819 0.0135113894035 -5.2165299171e-19)
(0.0272658902939 0.000773826491852 -2.3727786949e-18)
(-0.0125382161285 -0.00599683902949 0)
(-0.0142206891113 0.0388079910065 0)
(-0.00193104784938 -0.0133143626264 3.55194453556e-19)
(-0.00833097182824 -0.00397619960782 -8.73917867946e-19)
(-0.0084646182888 -0.00316762003317 1.89581934789e-18)
(-0.00802205887677 0.00156351048904 -6.69323138312e-19)
(-0.00498097443581 -0.0071057037597 0)
(-0.00771688333864 0.00233445951828 1.36679175594e-18)
(-0.00644619527745 0.000147853986921 -1.13408601369e-18)
(-0.00813854593162 0.00601317730946 3.91318795899e-19)
(-0.0082416656536 0.00588915096407 -1.9368018139e-19)
(0.00175242516039 -0.0260206695059 -1.18765423872e-18)
(-0.00870931190871 0.00720926843812 -9.77720292192e-20)
(0.0165367853201 -0.0388002915155 0)
(-0.0015680201852 -0.00559341451663 -2.07485247361e-22)
(-0.00569263699543 0.000501466064156 6.6910092457e-21)
(-0.0011104941271 -0.011831547334 -2.31635479057e-18)
(-0.00612848234896 0.00317336953601 0)
(-0.00596350514986 0.00265445417539 0)
(-0.0518639469682 0.0250969449848 1.06441585904e-18)
(-0.0316864822377 -0.000563150660471 2.85773852734e-19)
(-0.00777899499076 -0.0167880900452 -1.4177435106e-18)
(-0.0072673291464 -0.000182207266515 3.3901213842e-18)
(-0.00637696126616 -0.000667734937013 1.04637027315e-18)
(-0.00667574109685 -0.000371743339831 -5.04505847075e-19)
(-0.00403923100849 0.00392363434764 -6.57020210451e-19)
(-0.00400993132002 0.00378460133947 -6.47713725674e-19)
(-0.00847568948963 0.00622188347361 -1.38932367292e-19)
(0.0117408632994 -0.0561255983801 0)
(-0.0170236425474 -0.00748437483982 0)
(-0.0182565270977 -0.00673244057397 8.32308840154e-19)
(-0.00324365366897 -0.000465336148208 -2.03005812947e-18)
(-0.00690924193702 -0.00180086191526 9.17097308238e-19)
(-0.00677822794052 0.000499753268506 -4.85481925243e-19)
(-0.00225775548389 0.0156915937741 6.97734573513e-19)
(-0.0226730285572 -0.025163266877 0)
(-0.0088505705956 0.000197229402124 6.71136911571e-19)
(-0.0102243747521 0.00364352074267 -4.19071332293e-19)
(-0.00156772485326 -0.0118087245619 -7.2208347679e-19)
(0.0013833581758 -0.0238539319136 -5.02244512305e-18)
(-0.00953708020498 -0.00787726625785 0)
(-0.00922171287626 -0.00720254705383 0)
(-0.0293429908382 -0.0391195181014 0)
(-0.0132524595973 -0.00878247662657 1.08365646767e-20)
(-0.00549415068493 -0.00451230126155 2.93474677169e-18)
(-0.0050370475247 -0.0104257750627 -1.20202398309e-18)
(-0.00689984595197 -0.000212515312512 8.88729650609e-19)
(-0.00276917416056 -0.01035990929 0)
(-0.000168714548353 -0.0252932876801 4.31833520103e-18)
(-0.0442576757715 0.00742495971686 0)
(-0.0426931310826 0.00879006974752 1.57673625275e-19)
(-0.00643570089722 0.000902215122819 0)
(-0.00685053712896 -0.015172262913 0)
(-0.00544267650917 -0.0154837872023 0)
(-0.00103132807924 0.0138013923286 0)
(0.0290933142852 0.00225095130764 5.06482127182e-18)
(0.0127521990344 0.0144912316481 -3.035627837e-18)
(-0.00428477420215 0.00140549486666 0)
(-0.010032736294 -0.0082238922755 -1.60445542836e-18)
(-0.00656557968314 -1.82967557488e-05 -9.3386930924e-19)
(-0.00643358620372 -0.000161316880647 -2.65318056821e-18)
(-0.0101334827926 0.00525964851728 0)
(0.00025496007191 0.0198903011859 -1.01065806199e-18)
(0.00165028561932 -0.0170041061358 5.43105839386e-19)
(-0.0038920618746 -0.00306353697891 3.32397415231e-18)
(0.00256374624126 0.0130076712183 0)
(-0.000466882110461 -0.00853861568611 -6.26838440918e-19)
(-0.0076594848678 0.00210529519586 0)
(-0.0043426860996 0.00604754043372 -1.95909867186e-19)
(-0.00612779555713 8.89040182769e-05 -7.86246907849e-19)
(-0.00607516958944 0.000112145002752 0)
(0.169925299478 0.158106834458 1.31446067272e-17)
(0.15779006696 0.084778100611 -3.13854077449e-19)
(0.00252662483812 0.0200142188649 0)
(0.0044596794591 0.0198247566773 0)
(-0.000175472581672 -0.0126045704708 -7.67763285244e-18)
(-4.74061404258e-05 -0.0132461518828 5.11452493348e-18)
(-0.0052393509641 0.00353388598285 -1.42877639724e-18)
(-0.00510498433087 0.00521976076974 1.62900857667e-19)
(-0.00821451210668 -0.00623678375347 0)
(0.0021742812861 0.0141558596346 0)
(-0.0138920255527 0.019149813736 1.74806394345e-18)
(-0.00420155940259 -0.0136622500637 1.27430790729e-18)
(-0.00349710810527 -0.00576468467491 2.36469284942e-19)
(-0.00747261146903 -0.000702882834645 0)
(-0.0114016744928 -0.00818657620004 1.6741187706e-18)
(0.00330744767669 0.0138265687611 0)
(-0.0336991409322 -0.0375985129977 0)
(-0.0228983320186 -0.0374817997349 0)
(-0.00496794692414 -0.00106715310202 0)
(-0.00548003252631 0.00562662030839 0)
(-0.000822762644649 -0.00310102530016 2.18040058961e-18)
(-0.000989549172675 0.00343815104395 0)
(0.0097421911592 -0.00395661583491 0)
(0.00173791040369 0.0094334070267 -1.47806401476e-18)
(-0.00569064250418 0.00157105754247 1.13066146335e-18)
(-0.00806250387192 0.000283873672969 0)
(-0.00688697852118 -0.00147242432917 -2.60760209825e-18)
(-0.00407698861927 -0.00754250121757 0)
(-0.0035302595447 -0.00749994620999 -1.26758410781e-18)
(-0.006521815372 0.00355579332738 0)
(0.0266501854398 7.6888045056e-05 -6.65025221196e-18)
(-0.00586156862855 -0.00505663447845 -2.17473460365e-18)
(-0.00616225562963 -0.00529973607445 0)
(-0.00710715366111 -0.00596366972236 1.14893967242e-19)
(-0.00690165648413 -0.00594914317958 1.62445249311e-18)
(-0.00565600727286 -0.00339388449772 1.85583868174e-18)
(-0.0179642269777 0.0138663806111 6.14721022861e-19)
(-0.00527084352483 -0.00337995285359 0)
(-0.00486730265437 0.00593128044012 0)
(-0.00464884259681 0.00680524471754 0)
(-0.00649994949702 -0.000181917609483 0)
(-0.00682647016424 -0.000511369020801 0)
(-0.00131368325694 -0.00990820370244 1.28386738175e-18)
(-0.00678723612008 9.842328349e-05 0)
(-0.00959895444642 -0.00863179028288 1.55793115342e-18)
(-0.0050110679241 0.00189972461936 8.95739502924e-19)
(0.000918073724103 0.0145939775194 4.61865810827e-19)
(-0.00153341773105 -0.00825125707465 -3.78625227214e-18)
(-0.00597344700753 -0.00380430849922 5.46390191715e-19)
(-0.00494122113119 -0.00648956737088 0)
(-0.00579612622092 0.00184915238696 3.84730729133e-19)
(-0.0369021825748 -0.0255699339104 7.04931222101e-18)
(-0.0090690006794 -0.00132765258041 1.51009727363e-18)
(-0.00600774496035 0.0019340150326 0)
(-0.0575899426581 -0.0183567554898 0)
(-0.00458218901224 -0.00341787125385 -8.74249244985e-19)
(-0.00745336365525 -0.00777495864673 1.52717049448e-18)
(0.0191386102134 -0.0075025374587 5.45911163843e-18)
(0.00114191778083 0.0126562708059 4.28389321486e-20)
(0.0178447240573 -0.00458359153401 -8.76162393225e-18)
(0.000109117986217 0.0123700468614 -2.00442870237e-18)
(-0.000832748228523 0.00491015849662 -7.32743190315e-19)
(-0.000604407648857 0.00479654576019 0)
(0.000847757024932 0.0172933093241 0)
(0.000878871698957 0.0173730868223 0)
(-0.000419528199858 -0.0208317404435 -2.44576690557e-18)
(0.00050592093733 -0.0208384251898 -4.33063694476e-18)
(-0.00332017686503 -0.00383864040438 -3.20318270154e-18)
(-0.00343549060467 -0.00384966614646 0)
(-0.00586193616533 0.00634184665281 2.37463268644e-19)
(-0.00683587649229 -0.000511464322343 -1.00946896296e-18)
(-0.00361325261759 -0.00566318555889 2.43144757082e-18)
(-0.00614495552848 -0.00122974674426 2.35315072268e-18)
(-0.00512324740563 0.00595504618806 -3.43809504415e-19)
(-0.00666433842702 -0.000556973301897 1.44765265451e-19)
(-0.0121532049295 0.013725725576 -5.62119796772e-19)
(-0.00588988003384 -0.0116691294977 -6.93107688209e-19)
(0.00102834078839 0.0143552218108 8.3861052343e-19)
(-0.00784681213913 0.001949659649 -1.37719114138e-20)
(-0.0493675952328 -0.0115507297323 -8.13721067383e-19)
(-0.00120974866018 0.00371545534752 -1.44115980421e-18)
(0.0125232437558 -0.00620561795216 0)
(0.00316888435848 0.0109792966711 0)
(-0.00737204767315 -0.000441325281212 -1.37293150532e-18)
(-0.00462182559816 -0.00149583714649 1.7969399143e-18)
(-0.0074465492044 0.00113764251927 -1.04714049025e-19)
(-0.0114567116707 -0.0089390083915 0)
(-0.00789454068154 0.00272470485836 0)
(-0.00579954860741 -0.00139770479692 0)
(-0.00588004114696 0.00103317164764 1.42874878198e-18)
(-0.0150511077919 -0.00885532849231 3.52993195177e-18)
(0.0470320439059 -0.0246553069516 -1.02900643632e-17)
(-0.000788513608358 -0.00558721833974 1.4710798333e-18)
(-0.00128236095216 0.00684273775766 0)
(-0.00510390296444 -0.000504006302746 2.92327603143e-18)
(0.00153458530157 0.0132700478221 9.54143221835e-19)
(0.0232992656007 -0.00823203057317 -4.76331636766e-18)
(-0.000614826380822 -0.00447326565943 -1.79593573502e-18)
(-0.000804565381323 0.00513423472711 2.02333332838e-18)
(-0.00501478016414 0.00645559887315 -4.08283010973e-19)
(-0.00508549659086 0.00595422941042 2.83971653627e-19)
(0.0285004929135 -0.0014067380012 5.90368171058e-18)
(-0.00563343466932 0.00614036576061 -5.43000991671e-19)
(-0.00741111894549 -0.000654338756864 0)
(-0.0049584306668 -0.00348025233733 0)
(-0.00825441531408 -0.00957209921318 0)
(-0.00870296861031 -0.00393849708713 -1.37957527939e-18)
(-0.000853330393035 -0.0081489436199 2.53107467122e-18)
(-0.00626082037553 -0.000150116726577 1.11002854816e-18)
(-0.00149200928164 -0.00822074158806 2.57721963512e-20)
(-0.00638783141546 -0.000409080662122 1.01598580794e-18)
(-0.00596055121541 0.0213931803988 0)
(-0.00301527410858 -0.0168024275348 -9.90806832177e-19)
(0.0545157449328 -0.0238635730117 1.03130246973e-17)
(-0.000730626605951 -0.00580581159067 0)
(-0.00104846232329 0.00719401322014 0)
(-0.00528033336569 -0.000389092801927 0)
(-0.00848446068964 -0.00357518159526 1.01945377456e-18)
(-0.00814297394546 0.0008091543878 0)
(0.000393788171723 0.00878615182672 0)
(0.000280490878935 0.00850556323342 -2.85084975043e-20)
(-0.028031044209 0.00823530875771 -2.48043294519e-20)
(-0.00250459530572 -0.00319967615401 2.97210575269e-18)
(-0.00223557698058 -0.0055586835108 -8.20115631345e-19)
(-0.0024345630866 -0.00550214650139 -1.83070148873e-18)