/*--------------------------------*- C++ -*----------------------------------*\
| =========                 |                                                 |
| \\      /  F ield         | OpenFOAM: The Open Source CFD Toolbox           |
|  \\    /   O peration     | Version:  v1906                                 |
|   \\  /    A nd           | Web:      www.OpenFOAM.com                      |
|    \\/     M anipulation  |                                                 |
\*---------------------------------------------------------------------------*/
FoamFile
{
    version     2.0;
    format      ascii;
    class       volVectorField;
    location    "100";
    object      U;
}
// * * * * * * * * * * * * * * * * * * * * * * * * * * * * * * * * * * * * * //

dimensions      [0 1 -1 0 0 0 0];


internalField   nonuniform List<vector> 
24444
(
(1.57533964574 0.594835034482 0)
(-0.0234489858843 0.00112202621125 -2.17322361199e-19)
(-0.064742883807 -0.0121500009423 -4.03767291785e-19)
(-0.176681865544 0.0820220974902 9.60792706427e-20)
(-0.148994963056 0.0840155416666 0)
(-0.0893158639353 -0.0243484784146 4.60497188127e-19)
(-0.0911565497655 -0.124759384502 6.03259809744e-19)
(3.17758682724 1.57566470271 -2.43483079964e-19)
(-0.000964047698141 -0.115943229444 -2.53504801204e-19)
(0.409862685493 -1.71960182785 1.75039040837e-18)
(-0.207961140554 -0.0820961113359 0)
(0.306683578933 0.278724741417 5.20208444558e-20)
(0.286708053505 0.251697070317 -2.72511436743e-20)
(-0.0251426020571 0.000378804437787 -6.89132752239e-20)
(0.036722269376 0.134230505889 1.92498869839e-21)
(4.41965502967 -0.0106893712375 6.11739320919e-19)
(-0.00136358758608 -0.065379373948 -2.54850237117e-19)
(-0.00964233801117 -0.0412234103251 1.60642908069e-19)
(-0.443090468659 -0.122352436065 0)
(-0.0754808024947 0.130405667597 6.16742718558e-20)
(-0.418326506414 -0.383797497194 -1.5988522172e-19)
(2.80541932715 1.6871550481 -1.20573985415e-18)
(2.9442350971 1.68430619217 3.76875036934e-19)
(-0.0385957249842 0.00225382312822 0)
(-0.0371457822511 0.00180232754274 -1.3284496809e-19)
(-0.00294505591345 -0.134347572288 5.1540520206e-19)
(-0.00241220991203 -0.127431424698 -5.46891352927e-19)
(0.00391864116965 0.260516453131 0)
(0.0085194064418 0.248673858341 4.23490020473e-20)
(-0.117654987718 -0.0143164247783 7.06378040977e-20)
(0.0747586259673 -0.555040427936 -3.50969954446e-19)
(-0.0117675855674 -0.156613185449 0)
(-0.0888244222944 -0.0234491897994 -3.12320969263e-19)
(-0.455539006729 -0.516436426088 0)
(-0.49637083394 -0.225713928639 -2.96479731153e-19)
(-0.196577644107 -0.0313506904537 0)
(-0.00355608888737 0.00108025913667 0)
(-0.0513387136726 0.0218525521204 -2.14735435967e-19)
(0.024461444798 -0.281976478958 0)
(-0.0639036660863 0.908163556735 0)
(0.0224384802584 -0.276054384481 0)
(-0.0517007180567 0.951895659885 0)
(-0.0404146428496 -0.0281540776549 0)
(-0.0409543020024 -0.0268897215436 -8.56362637083e-20)
(0.0555666804133 -0.559706047345 -3.70772682252e-19)
(-0.0440303525144 0.0289668824066 9.4698421057e-20)
(-0.0751035554383 0.0878137443197 2.01529906467e-19)
(-0.248357056967 -0.144910266102 0)
(-0.0717419459482 -0.145644662343 -4.41854384046e-19)
(-0.0145969618862 -0.0270076524962 -3.32365715592e-19)
(0.0023181481843 -0.0282671510139 1.83969397785e-19)
(-0.0776078942422 0.129902972945 6.73792961459e-20)
(-0.0191571171705 -0.0252933071135 -3.19511395336e-19)
(-0.0558710457107 0.18613713135 0)
(-0.0791120277964 -0.0249244719929 -2.77834842521e-19)
(-0.367169249822 -0.0667491681127 -1.39561056168e-19)
(-0.0379988536082 0.0865424513639 8.05459408995e-20)
(-0.21741866536 -0.235516662029 -2.26712850899e-19)
(-0.560764495252 -0.835191634956 -2.52054066009e-18)
(-0.0761725511742 -0.00603096738598 2.90314317105e-19)
(-0.0524776086836 -0.00118633953192 6.28906609901e-20)
(-0.04942024462 -0.000788930323171 1.35137283327e-19)
(-0.0798290027004 -0.0399851696928 1.75886161522e-19)
(-0.0460144705537 -0.0162819686807 -1.55046637516e-19)
(-0.299384108464 -0.0617232970418 1.84233526209e-19)
(-0.210941365999 -0.0795376654023 5.49459029814e-19)
(-0.122726348974 0.00171293396552 -2.50765164552e-19)
(-0.0592487781825 -0.0558178194441 -8.83482788789e-20)
(-0.061304366052 0.0428381431197 0)
(-0.0476482377564 -0.0673982150679 0)
(-0.0349243474211 -0.0641589440105 1.66707002036e-19)
(0.00920498806394 0.547789932319 0)
(0.112340103011 -0.334489204038 -5.60798544483e-19)
(-0.035118447158 0.0410550090477 0)
(-0.028452883069 -0.0354315361267 2.07040605413e-19)
(-0.0593957996773 0.00247319445422 0)
(-0.00392873020714 -0.0675357860679 -6.6974101261e-19)
(-0.0451848524301 -0.0160143183863 1.55088980817e-19)
(-0.00289216019508 0.295370303379 0)
(-0.186511928554 -0.0619565550505 0)
(-0.0456811424551 -0.0694984659981 -4.64144328925e-20)
(6.51473459428 -0.0759291242506 -1.74750061098e-18)
(-0.00013684424121 -0.0100581263434 0)
(-0.00657368865534 -3.31468058918e-05 -1.20121396688e-19)
(-0.0206681249971 0.00546324311376 0)
(-0.000172948165591 0.128168479801 0)
(1.74708840374 0.480831094697 1.39474996061e-19)
(-0.0160051972338 0.000436702641406 0)
(-0.000841534492469 -0.0633982524965 -2.63354281196e-19)
(-0.0758167727532 0.0271029680315 0)
(-0.0255843626767 0.0005175943482 6.80429980924e-20)
(0.0411601611059 0.137927937423 -2.11967769431e-21)
(4.38259690081 -0.0312041378605 -6.30612654332e-19)
(-0.0010172118516 -0.0674034015276 0)
(-0.0393266336468 0.102721613155 1.44110077331e-19)
(-0.037592082901 -0.000828564654809 -3.36857401141e-19)
(2.54909938549 -0.018533655993 2.03171283095e-19)
(-0.0259909821794 0.0848392927104 0)
(-0.0768879182595 0.0134364327395 -2.35612911516e-19)
(-0.112765325863 -0.0111681853164 -1.38057348095e-19)
(-0.101659156739 0.0340263955438 1.33764120787e-20)
(-0.0818126884311 0.0827557737893 1.24542035976e-19)
(-0.0784825463723 0.0818263050046 8.49077551196e-20)
(-0.00238400988583 -0.0596743107118 4.91353356954e-19)
(-0.221287188154 -0.132926909296 -1.979316197e-19)
(0.0129846156098 -0.115685761148 1.17543565828e-18)
(0.0158359174881 -0.125146733097 -5.93194041704e-19)
(-0.0186349883534 -0.00401314118696 3.32119383716e-19)
(-0.0174672609 -0.00330247586397 0)
(-0.133440736106 0.0373403959639 2.55949076816e-19)
(-0.0579097192305 -0.00613976729916 3.08760486598e-19)
(-0.089635078348 0.0465666422327 -2.14370693638e-19)
(-0.143144812884 -0.068204661878 0)
(-0.0702963248369 0.0141523716726 2.40213845207e-19)
(-0.0338561919863 -0.000385714989023 2.68661972143e-19)
(3.03890080977 -0.0131239200857 0)
(-0.0238329896736 0.0751564369719 0)
(0.519973539025 -0.15540613788 4.46057668788e-19)
(0.547708354166 -0.200098564737 0)
(-0.00244490066138 0.0284849843851 0)
(-0.00348010258843 0.0334986901196 -1.91558803524e-19)
(-0.0020563275905 -0.0243608615087 -8.90140589836e-20)
(-0.00292550800314 -0.0282992048902 9.10754441173e-20)
(-0.0246845120643 -0.00197879755475 3.15386907987e-19)
(-0.0210494562739 -0.0014374647826 -3.24882986776e-19)
(-0.0275162016505 -0.0167275722424 1.58481537403e-19)
(0.0593140959867 -0.207119278421 -2.79780448727e-19)
(-0.0733759760524 0.0865091940199 -1.37493843259e-19)
(-0.0083293817408 -0.0393450005234 0)
(-0.0110885241228 -0.132025912098 3.91505259355e-19)
(-0.322421265837 -0.00990235617785 -3.23852982511e-19)
(-0.00370765132345 -0.0317139479393 0)
(-0.0537268044792 -0.0779610646562 0)
(-0.63937824681 0.425881646458 8.80373294622e-20)
(-0.647682008322 0.3743275531 -5.73070026294e-19)
(-0.057506109743 -0.25907382806 0)
(-0.0601657011419 -0.254743138005 0)
(-0.0744760406487 -0.146715615745 5.28162812357e-19)
(-0.0258642689528 -0.0386193753412 2.90768416123e-19)
(-0.0324744949163 0.0456588479276 0)
(0.635778872563 0.935787978323 -6.84953421962e-19)
(-0.0524549563139 0.007621553636 0)
(-0.0069202829804 -0.194726302897 -6.48688500215e-19)
(-0.253214837573 0.44889147084 9.80673281242e-21)
(-0.0344908635645 -0.0629932815295 0)
(-0.0629688788542 0.0057262382 -1.26668329296e-19)
(-0.0533928053468 -0.0767334169149 4.08833411355e-24)
(-0.00225643083115 -0.0712495988461 0)
(-0.119521954099 0.172745602907 -4.84375110007e-20)
(-0.0834509376425 0.00147034721345 1.37990091021e-19)
(-0.197861553129 -0.0337218720202 0)
(0.747011787114 -0.044504834426 0)
(0.966653660088 -0.0301480933178 -3.43560907502e-18)
(-0.0352847354491 -0.0788669037937 6.04674884981e-19)
(-0.129729717919 0.144802023915 0)
(-0.00348478218728 -0.0623355650567 0)
(-0.00424316838716 -0.0684248306165 4.86217906137e-19)
(-0.187202067516 0.0525798938965 -1.2334930173e-19)
(-0.184056757641 0.0502436116689 2.92033224902e-19)
(-0.482071087107 -0.0812038367153 3.15198574885e-19)
(-0.48189690738 -0.0875434314435 1.12703116713e-19)
(-0.135592996692 -0.0491210897823 -4.67292913583e-19)
(-0.0465026890665 -0.0676908567283 0)
(-0.127980373825 0.162852425343 0)
(-0.0855957881356 8.69799709687e-05 0)
(-0.0863849196024 -0.110823498878 1.9553339753e-19)
(-0.0529010487069 -0.148139083859 0)
(-0.0385007252331 -0.0873498267471 9.32205892013e-20)
(-0.0364706052056 -0.0806362968276 -1.9439213404e-19)
(-0.0240011579718 -0.0028200251762 -2.93830139538e-19)
(-0.0916866482601 -0.158130215966 0)
(-0.141853698634 -0.0973447607978 0)
(-0.143337613205 -0.0939623828359 -5.49614689358e-19)
(0.0886035949471 -0.395000076743 6.3067657074e-19)
(0.0892099006839 -0.377721574677 -8.74072407894e-19)
(-0.062262225782 0.526501814098 3.07017493698e-19)
(-0.0528068990102 0.539245021045 -1.66557843884e-19)
(-0.031723605413 -0.0418248163979 3.25084248643e-19)
(-0.0317658416244 -0.040387154676 -3.68340852117e-19)
(-0.039993671495 0.0466169138026 1.03450702319e-19)
(-0.0401228025967 0.0482881655581 0)
(-0.568142551717 -0.625417314161 4.61414996293e-19)
(-0.0784455918523 -0.056295682452 -3.31141794283e-19)
(-0.119003554964 0.220688655564 -5.9185978885e-20)
(-0.0800504200748 0.0074020604006 0)
(-0.163042119141 0.06188673974 2.10716566733e-19)
(-0.012090787373 -0.0214685956441 0)
(-0.0109417837407 -0.0217279612239 3.3025678436e-19)
(-0.476763693927 -0.0165142409847 2.15740804691e-19)
(-0.108322522366 -0.128850149436 8.04527823905e-19)
(-0.111390671398 -0.128667328558 -7.85554665786e-19)
(-0.0252333968233 -0.0376116059853 3.62278828682e-20)
(-0.0315334314084 0.0443092749474 4.38350324071e-20)
(-0.377544075183 0.0501244253261 1.56985099169e-19)
(-0.134534991582 -0.0552585241519 -3.1696226828e-19)
(-0.039578510774 -0.00332558164313 -2.98516778971e-19)
(-0.0675701867322 0.025739114437 -1.13905380561e-19)
(-0.169130503197 0.0171218254016 0)
(-0.06851439358 0.000411999504411 1.35507429659e-19)
(-0.00438237035744 0.0398514476694 0)
(-0.0280160368215 -0.00219695741119 1.65603029271e-19)
(-0.0619150719901 0.108555272471 -7.83949947948e-20)
(-0.0727573685866 0.00233101673557 0)
(3.48705996055 1.75418138153 0)
(-0.00138764757275 -0.109666047531 0)
(-0.537787587058 0.0905266690225 0)
(-0.552521650069 0.0860770984039 2.01069711734e-19)
(-0.105335251101 -0.211446691586 -1.12355310187e-21)
(-0.101922008052 -0.212288619695 7.11230362e-19)
(-0.0164074145144 0.0462335417045 0)
(-0.299716029153 0.0913659659434 -4.55651388543e-23)
(-0.0235571128009 -0.0666313148621 0)
(-0.441184992612 -0.150418366673 -7.54372976272e-19)
(-0.0872719064904 -0.123066556647 -3.74833602711e-19)
(-0.429534267178 -0.144270505029 0)
(-0.0565646140163 -0.00591224026786 0)
(0.00307440681305 0.287611457293 2.47391767625e-20)
(-0.0144520227819 -0.092682727698 1.95710968798e-19)
(2.95986394999 1.27993669946 0)
(-0.000715468020576 -0.103919585813 6.70410989621e-20)
(0.454563364235 -0.88585465028 1.13390264646e-18)
(-0.0148976255486 -0.0561547807113 1.86735260342e-19)
(-0.0238054832284 0.448736753262 0)
(-0.164615650576 -0.0151695524288 2.18518995608e-19)
(-0.0109630264947 -0.0230782220535 -3.78537059281e-19)
(-0.0122055701584 -0.0246024860168 3.20716973266e-19)
(-0.0901393945577 0.353328070528 -2.31976257267e-20)
(-0.0874973208415 -0.00384737934399 3.21710789199e-20)
(-0.620411332754 0.219010374919 4.85152541027e-20)
(-0.616088692014 0.185695335045 3.41350461749e-19)
(-0.0844538551301 -0.241121618101 -5.16130041848e-19)
(-0.0867670287125 -0.236213536002 4.81040024848e-19)
(-0.00382566378044 0.252709638571 -9.85419027287e-21)
(-0.00476388222225 0.26064179284 0)
(-0.00522050850589 0.0157372595614 -9.08241593775e-20)
(0.129556700375 -0.0571174341383 0)
(0.0592627838 0.191426519457 -1.63736464857e-19)
(-0.0889757740073 -0.0264110876249 0)
(-0.0734627974025 0.00648982134268 -1.00012405394e-21)
(-0.191387623972 -0.0312334125575 0)
(-0.0243329702971 -0.065800223851 0)
(-0.0955568652233 -0.0509366603265 -3.18803517467e-19)
(-0.0115317830098 0.000680548478832 0)
(0.00181975182928 -0.0574871673868 1.44320820738e-19)
(-0.0133994318803 -0.0277020979085 2.53806226302e-19)
(-0.189842039505 -0.16094740951 3.19175217286e-19)
(-0.101310192997 0.0359064639959 8.48327265166e-20)
(-0.0349482386313 -0.0489778515116 0)
(-0.152679008147 0.0376831988857 -2.88289668552e-20)
(-0.236570834279 0.436835132256 -6.81169036227e-21)
(-0.0676080860247 0.0190630748447 5.87557782451e-20)
(-0.0856678053949 -0.124427320051 3.95941351995e-19)
(-0.0506026621747 -0.0143309625498 0)
(-0.072537839342 -0.00571367843205 -1.45207093355e-19)
(-0.0639538128811 0.0062261476484 3.05167311078e-19)
(-0.00677960680863 -0.0232133197287 0)
(-0.00610595092615 -0.0223144782469 -3.16370081318e-19)
(-0.0742563036732 -0.127858383359 0)
(-0.0177898087456 -0.0246671992142 0)
(-0.144600039096 -0.0611191641224 -1.58672797339e-19)
(-0.460538063397 -0.166388546653 6.34053437684e-21)
(-0.120045381399 0.36332849918 -2.2450281777e-20)
(-0.00627414219979 0.0360572696307 6.75538786679e-19)
(-0.0621040674485 0.0125609457253 0)
(-0.0199322876672 -0.211388507078 3.65244971227e-19)
(-0.402374400323 -0.129736282181 3.05201057459e-19)
(-0.0259313196758 0.0789765847224 1.20943204352e-19)
(-0.0445388194311 -0.00291042438538 -7.06315008593e-20)
(-0.016876124322 -0.0256645931561 -2.54288829511e-19)
(-0.00959639514822 -0.000523468512039 3.38943488495e-19)
(-0.000625305447252 -0.0107757563243 3.45224232621e-19)
(-0.000763220563367 0.0122570429878 1.54396295846e-19)
(0.00963359336386 0.528715769424 -1.05009386476e-19)
(0.122844768815 -0.337286218677 5.94645422986e-19)
(-0.034126454298 0.0419771882426 0)
(-0.0275186746939 -0.0360241607764 -3.34167468002e-19)
(-0.0951058456527 0.0756503673056 8.7471635947e-20)
(0.050117433285 -0.453254212318 -6.01964502333e-19)
(-0.237229876865 -0.102591354097 3.0027342686e-19)
(-0.234788887151 -0.0974683455046 3.93299019043e-19)
(0.259227525785 -0.52514414061 5.65345495226e-19)
(0.24890299817 -0.568180258198 0)
(-0.00363988078775 -0.138809620875 3.73670573825e-19)
(-0.00933612405976 -0.0111369888342 1.65820421425e-19)
(0.083854320512 -0.0882437439234 -3.09156695632e-19)
(-0.0104846313173 0.012410980689 0)
(0.140662999476 0.15586192484 4.21499072273e-19)
(-0.0858009998706 -0.0534947445008 -5.55787297019e-19)
(-0.00704893735031 -0.00130854812285 1.60159915322e-19)
(-0.235358564372 -0.108483013713 1.01405422432e-19)
(-0.229854211209 -0.109680300823 -1.93874123685e-19)
(-0.315414655415 -0.6178930915 -9.57978106836e-19)
(-0.334504853966 -0.584479784925 3.8640199821e-19)
(-0.274047755973 1.02251982943 0)
(-0.0473756744716 -0.0238952245212 -1.65199715138e-19)
(-0.0362092062273 0.0736535304127 0)
(-0.183496920653 -0.0566814680864 6.44680744882e-20)
(-0.0220570229454 0.0787479680207 -8.39067172365e-20)
(-0.0217267587839 0.0775652902671 0)
(-0.0555016152824 0.00624121617495 0)
(-0.0575709978545 0.00893721928121 0)
(-0.0133006000058 -0.200556987085 -2.41432884336e-19)
(0.0132590136771 -0.0968843488074 -5.00266585791e-19)
(0.00541403163071 -0.0947107768357 4.6172213448e-19)
(-0.18509058731 -0.158373361681 0)
(-0.0133962853238 -0.0680364902888 -1.87234166643e-19)
(-0.0114511470008 -0.0657171203671 1.85258644095e-19)
(-0.0510859553251 -0.149893235762 0)
(-0.152234019615 -0.0930537319216 0)
(-0.0900386715772 -0.114031795334 -8.82475475671e-20)
(0.0408865113098 -0.0945028350608 -8.94741099155e-19)
(-0.0800998233285 0.0581517832706 -1.31314053138e-19)
(-0.172214997529 0.110385230116 -1.31294087823e-19)
(-0.257441318199 -0.241870425338 1.66652581e-21)
(-0.220400171419 -0.164325382528 5.35090021163e-19)
(-0.0182989374905 -0.000442626879093 4.02151310936e-20)
(-0.0259574859506 0.349232030966 0)
(-0.04814365762 0.301337554691 1.42214451772e-20)
(-0.00658521474828 -0.0766453231706 4.81034470572e-20)
(-0.273995616774 0.0559175614687 0)
(-0.0235746493166 0.0533534599818 -7.35157434549e-20)
(0.921207660524 1.14968514054 3.5943809339e-19)
(-0.0506269027962 0.00696227534115 -1.79973520042e-19)
(-0.00572052056068 -0.190323061929 2.72278396231e-19)
(-0.139433527942 0.0185205881359 -3.16817147682e-19)
(-0.036504035364 -0.00268756563698 0)
(-0.0725646131295 0.00181062543755 0)
(-0.121115854063 0.0470036798037 -2.10286292106e-19)
(-0.123585776583 0.0468260374486 2.56174731862e-20)
(-0.274095940209 0.11978327032 0)
(-0.266378365335 0.115746602215 -2.170442973e-19)
(-0.201252077155 0.0603737420789 -1.10674798312e-19)
(-0.055874504657 -0.00922104272382 -1.3123966837e-19)
(-0.087008875373 -0.112885816132 -1.08978620739e-19)
(0.0683093698894 -0.325222728059 0)
(0.0631983714009 -0.332964041434 0)
(-0.0472800525944 0.634045301932 2.27513194461e-19)
(-0.0211845454752 0.6407461718 -7.21516361417e-20)
(-0.033683172496 -0.0347911855192 0)
(-0.0348659807398 -0.0359010032493 0)
(-0.140427499985 -0.0465399587842 8.05882449662e-20)
(-0.0727107445404 -0.128960286599 -1.97296808363e-19)
(-0.441309553059 -0.186819979062 0)
(-0.089553692516 0.00245631376291 -1.28273253243e-19)
(-0.136921941277 -0.0556658620547 3.07058332281e-19)
(-0.140191021381 0.0207088441332 1.9520535374e-19)
(-0.142168619721 0.0212610137614 2.58757862238e-19)
(-0.0692734058662 -0.00495334232544 -7.84264620809e-20)
(-0.0357689610574 -0.0487894588216 0)
(-0.0412447758112 -0.0509921806881 0)
(-0.0606883350261 0.0417046611541 -9.96821221135e-20)
(-0.153808085061 -0.0091994998615 -2.79665886317e-19)
(-0.196503126256 -0.44178863041 0)
(-0.0631306205458 -0.0654151345456 0)
(-0.260785324898 0.0385559133448 4.04321708062e-19)
(-0.448075422167 -0.157300864426 2.8283148853e-19)
(-0.159629400614 0.165520741065 0)
(0.447878353168 -0.220892480446 -1.01664987091e-19)
(-0.00541141942377 -0.0318144634048 1.27487002519e-19)
(-0.0515567113579 -0.0147952907217 7.86906976572e-20)
(-0.185701372496 -0.266922910458 -2.34562728424e-19)
(-0.187627657579 -0.261059688114 2.41419465178e-19)
(-0.0538392043389 0.0945168309747 -3.71339155407e-22)
(0.0361826762264 0.203275589476 -4.71732272488e-21)
(-0.0444064701107 0.00151650791811 0)
(0.0349355450391 0.195877684252 0)
(-0.0448608380144 0.00183191521487 3.11701729146e-19)
(-0.0656761384016 -0.0214240106829 -1.57270636906e-19)
(-0.0884266447289 -0.0496302099359 -5.76402647992e-21)
(-0.0838122515917 0.0721889897432 3.93511236006e-22)
(-0.0830080867621 0.0739524559181 1.62923724144e-19)
(-0.203130934388 -0.0694855924044 -3.43630230163e-19)
(-0.02913321805 -0.0463213005191 3.12584639847e-19)
(-0.0670918980889 0.0329958787172 0)
(-0.0860649815127 0.00875131323305 3.46165065892e-19)
(-0.0907816920091 -0.0195605580306 -7.3525654351e-20)
(-0.0259214059244 -0.00346129322168 3.10776167247e-19)
(-0.189173860518 0.126352492384 8.53630700071e-20)
(-0.191429936067 0.122650475885 -1.66676407528e-19)
(-0.100031831921 0.00528758200135 1.07268518149e-21)
(-0.101281057518 0.00542915231824 6.81692823242e-20)
(-0.282075196378 0.0180851187715 -7.36806688479e-20)
(0.00322419465032 0.132941070678 -6.39473139555e-20)
(0.188345957941 0.0323424260471 -1.22400756419e-19)
(-0.252313617655 -0.141346441752 0)
(-0.0834497751845 -0.0225532766333 0)
(-0.0306612007625 -0.209578857116 6.21587435526e-20)
(-0.175523614708 -0.0726252378976 -1.73336190663e-19)
(-0.171943305624 -0.071965624399 3.66333356869e-19)
(-0.146361453254 0.0121321852632 -1.1567866339e-19)
(-0.0937210256326 -0.0918274017022 0)
(-0.145122054587 0.0320184539962 2.58502893862e-19)
(-0.0474788277937 -0.00132455736878 -1.39446436369e-19)
(-0.244614548021 0.067704087843 2.05920129006e-19)
(-0.240626121462 0.0643671281376 -1.09782749738e-19)
(0.0692065456124 -0.42047732126 -1.50153245108e-19)
(-0.287411312235 0.087839257389 -1.21269464363e-19)
(0.377735321123 -0.651867749444 0)
(-0.0165434351773 -0.0519989063114 -2.27818713758e-23)
(-0.0565357481295 0.00841539560322 5.60792156673e-22)
(-0.012123002923 -0.197638004523 -2.75072579827e-19)
(-0.0905714336782 0.0446944220676 0)
(-0.0905204173138 0.0430171636884 0)
(-0.0017592056163 -0.0360373974222 -1.56692867539e-19)
(-0.429914656207 -0.140543917375 1.29904854391e-19)
(-0.144594615592 -0.292380320306 -2.17480985517e-19)
(-0.119024442124 -0.01738268962 4.97149147641e-19)
(-0.0684889154096 -0.00406913683185 1.42784632246e-19)
(-0.0682344359696 -0.0036454498447 -7.01511178738e-20)
(-0.0505716802034 0.0450374709918 -1.0304006774e-19)
(-0.0508485073742 0.0465739427975 -1.01789627671e-19)
(-0.273435188112 0.0789094598215 -1.17919531383e-19)
(0.359133678951 -1.04476365739 0)
(-0.311401013474 -0.171823799949 0)
(-0.319620498435 -0.173840847998 2.3025482121e-19)
(-0.00657061849202 -0.0012370107262 -1.5922617387e-19)
(-0.100316338509 -0.0286277951917 1.42125309021e-19)
(-0.10100258736 -0.00149066065202 -6.75119174751e-20)
(-0.287604768396 0.387185642598 -2.15964575078e-20)
(-0.371827987656 -0.39838664953 0)
(-0.180686380426 -0.021765224622 1.32260926699e-19)
(-0.272632188041 0.0129973260025 -1.51987305515e-19)
(-0.0264963248071 -0.197282605786 -1.18307060892e-19)
(0.0533348083537 -0.417936628562 -5.75504126126e-19)
(-0.209798154829 -0.144705707194 0)
(-0.204200771167 -0.142963107147 0)
(-0.537450361661 -0.592878818607 0)
(-0.267844815379 -0.182107169245 -3.20320453969e-21)
(-0.0773898111213 -0.0574849060893 3.6492601367e-19)
(-0.118480816633 -0.164280261178 -2.10280681336e-19)
(-0.103343884858 -0.00710920168515 1.32224005326e-19)
(-0.052759077467 -0.158711323773 0)
(0.0363277003431 -0.45878133469 4.83607190559e-19)
(-0.377763234577 -0.117561217475 0)
(-0.354774401676 -0.110118751311 2.70097087235e-19)
(-0.0601503545753 0.00289617799952 0)
(-0.112498545898 -0.269650969255 0)
(-0.11121637069 -0.262113457194 0)
(0.00410531092591 0.144122411811 0)
(0.231760869922 0.0543738773449 2.36522576118e-19)
(0.566168820735 0.545613472526 -3.78761627236e-19)
(-0.0321060966196 0.0142611133941 0)
(-0.222080746647 -0.15890283505 -3.38709721204e-19)
(-0.0734605363563 0.00314908827219 -1.38229917303e-19)
(-0.0737857576415 0.00372739650076 -4.00921063412e-19)
(-0.290623206584 0.0360102253609 0)
(-0.190163706936 0.757422408145 -3.31160041248e-20)
(0.0128028532427 -0.308198140661 6.74356539017e-20)
(-0.0428128593155 -0.0332709143323 3.1099499071e-19)
(-0.0257787844933 0.343256049328 0)
(-0.00758050451556 -0.0812946994218 -9.74438908621e-20)
(-0.152849672708 0.0248980758039 0)
(-0.0700671036717 0.143070887421 -1.00036566534e-19)
(-0.0202587722978 0.00079323802942 -1.13996337426e-19)
(-0.0207791393363 0.000291240664932 0)
(4.40857050053 1.64334636378 -3.56959771536e-19)
(4.21692305196 1.55345718917 -8.83018973284e-21)
(0.0123005935115 0.151001101609 0)
(0.0146887531753 0.155835025947 0)
(-0.000901182228008 -0.0705613047925 -1.21754776902e-18)
(0.000724292294302 -0.0697465719294 7.29942297583e-19)
(-0.0832921175005 0.0540039785629 -2.09187934293e-19)
(-0.0434230376791 0.127865856887 1.18375940348e-19)
(-0.172058735255 -0.108957311221 0)
(-0.0219659132308 0.344565783846 0)
(-0.602170225999 0.124950871053 -5.72535320805e-19)
(-0.0884994194868 -0.224483546348 2.20068782132e-19)
(-0.0481403237585 -0.0659246680513 2.38669598466e-20)
(-0.112272298342 -0.00986318659618 0)
(-0.249328785402 -0.163644225775 3.95698707415e-19)
(-0.0208793945955 0.334246323316 0)
(-0.55416835504 -0.471915316682 0)
(-0.572397987247 -0.495985369195 0)
(-0.0434560811681 -0.0116905082384 0)
(-0.0373123085467 0.101729455124 0)
(-0.00377562938332 -0.0110234297544 1.675337224e-19)
(-0.00439023922964 0.0124868181864 0)
(0.103006520627 -0.0446200414208 0)
(0.0536508974496 0.15375334349 -1.98942075118e-19)
(-0.067190373816 0.024565771061 1.76556013361e-19)
(-0.139264235141 -0.00151111276297 0)
(-0.0976344090707 -0.0257470638762 -3.99254057278e-19)
(-0.0693557022176 -0.093550681808 0)
(-0.0690241243503 -0.0950451273437 -1.71783112081e-19)
(-0.134195144697 0.058006550901 0)
(0.18124293544 -0.0217215474379 -6.71159968746e-19)
(-0.1074312095 -0.0742180749389 -3.48368931094e-19)
(-0.107891937363 -0.0764307271412 0)
(-0.149138521335 -0.0944556691997 2.20773849889e-20)
(-0.1471390073 -0.0926591407759 3.4013917525e-19)
(-0.0878495847474 -0.0515163066296 2.53747505999e-19)
(-0.470081677536 0.0292919989336 -5.70489652563e-19)
(-0.0723025631406 -0.0450568522808 0)
(-0.0913439773128 0.1196103648 0)
(-0.0891147330061 0.117533559163 0)
(-0.0786339121753 -0.0093563631432 0)
(-0.0781200412489 -0.00984284389367 0)
(-0.0106124200752 -0.127690542948 2.02167947687e-19)
(-0.0686886581325 0.000647102214343 0)
(-0.194169571549 -0.157898687883 3.25646028009e-19)
(-0.0516537810277 0.0227513499329 1.10651260465e-19)
(-0.00356880760437 0.280882957906 5.42754977075e-20)
(-0.0149559184295 -0.091365235962 -5.72137890371e-19)
(-0.0895219848174 -0.0529659378666 8.440880978e-20)
(-0.0928734972359 -0.0905788205514 0)
(-0.0706452146618 0.0303274445069 5.65765223897e-20)
(-0.529586283734 -0.253893932567 1.31593459525e-18)
(-0.204757799036 -0.0367315656133 3.03284961466e-19)
(-0.0820089543951 0.0321683250803 0)
(-0.195076756851 -0.110755859317 0)
(-0.0623785140228 -0.0435041557329 -8.7884492225e-20)
(-0.148245832572 -0.119467322022 2.55314196207e-19)
(0.23565845586 -0.0788713564032 7.16067619833e-19)
(0.0248519468704 0.248861143705 4.99876634618e-21)
(0.214519480767 -0.0631734011925 -1.01478459702e-18)
(0.0228263140805 0.233067759148 -3.2078521137e-19)
(-0.00427232964109 0.0232522918067 -1.07902659807e-19)
(-0.00356247048532 0.0212630113706 0)
(-0.172585991132 0.572383328529 0)
(-0.167095653453 0.593338016409 0)
(0.0115937896337 -0.373109489559 -3.2441898254e-19)
(0.0170211306449 -0.360686350981 -6.20513478346e-19)
(-0.0409027187862 -0.0422197711798 -3.47898688571e-19)
(-0.0408417796142 -0.0405650185044 0)
(-0.130135083028 0.124809732242 8.09393409129e-20)
(-0.0866765207382 -0.0103448474739 -1.51710673759e-19)
(-0.0499947579614 -0.0697053925171 3.39030784599e-19)
(-0.0801698673084 -0.0251546173859 2.94131611855e-19)
(-0.0814523853664 0.0948336295397 -8.35166953912e-20)
(-0.0892995354421 -0.0067538550882 1.87563815847e-20)
(-0.468075883276 0.0872747567467 3.05907274437e-19)
(-0.125631487488 -0.203226007883 -1.07885999044e-19)
(-0.00484324841188 0.289326062844 9.1984723315e-20)
(-0.155659944737 0.0252698070504 -1.49639622758e-21)
(-0.406827900093 -0.132124329057 -1.56834723006e-19)
(-0.00586456922647 0.0154611544453 -1.6175944116e-19)
(0.124987366983 -0.0617534220669 0)
(0.0683107117037 0.188016335276 0)
(-0.120658722963 -0.0173516610672 -2.13920832279e-19)
(-0.0398581974075 -0.0178610542352 1.70718380114e-19)
(-0.120214535139 0.00515836243011 -1.66469305016e-20)
(-0.253631156514 -0.166824325221 0)
(-0.173327173206 0.038415234937 0)
(-0.0711833176708 -0.0208895475664 0)
(-0.0651133047084 0.0132256787176 2.31476647198e-19)
(-0.2736412812 -0.185389098066 9.20565364174e-19)
(0.62397798676 -0.219192107035 -1.35625325913e-18)
(-0.00237863054117 -0.0268930599184 1.64912069062e-19)
(-0.00297799828035 0.0316395460696 0)
(-0.0229246910163 -0.00163737137508 3.03394773005e-19)
(0.0111135466148 0.218026170947 1.58405109787e-19)
(0.248711795779 -0.0613228570233 -5.63386316558e-19)
(-0.00204635658107 -0.0182344644437 -1.70835221468e-19)
(-0.00249388773177 0.020998860908 3.08767889624e-19)
(-0.114983582006 0.117517464882 -1.49781770618e-19)
(-0.0601652097591 0.108960011952 7.63066024347e-20)
(0.203239597463 -0.0313995927322 6.32932307797e-19)
(-0.137234614817 0.103884204922 -1.7949532047e-19)
(-0.116307683818 -0.0205995933805 0)
(-0.069440428058 -0.0470137336316 0)
(-0.161420599177 -0.162996540384 0)
(-0.169413935086 -0.0743407533846 -2.77921955631e-19)
(-0.0122045615097 -0.0916757035289 4.10830656661e-19)
(-0.0581077690384 -0.00256967231403 1.55721378427e-19)
(-0.010438349855 -0.0881086511355 3.01898111016e-21)
(-0.0550521210096 -0.00215709745856 1.46121425379e-19)
(-0.510414827563 0.639363963765 0)
(-0.0390650307166 -0.282510736514 -1.27599539749e-19)
(0.652443451061 -0.208953605429 1.15601186576e-18)
(-0.0017907025271 -0.026165183811 0)
(-0.00231302648905 0.0310767530782 0)
(-0.0223713516417 -0.00120825557246 0)
(-0.183332197836 -0.0598352409811 1.80105892025e-19)
(-0.169327018517 0.000305329004995 0)
(-0.0855553148904 0.214021760046 0)
(-0.0800595878273 0.208281383866 1.12534997073e-20)
(-0.448403118912 -0.117599389845 -2.19311971304e-19)
(-0.0200453649572 -0.0244550949463 2.45868340235e-19)
(-0.0329073388297 -0.0596574379829 -9.04992198166e-20)
(-0.0342465391014 -0.0585260367736 -2.03790192963e-19)
(6.69292992461 -0.0369442153979 0)
(0.000144211180876 -0.00967743538339 6.56331176482e-19)
(-0.00607701098037 0.000106658537694 -2.52844181126e-19)
(-0.0197982702481 0.00545475881771 0)
(-0.594556792127 -0.387654249709 -7.21057897703e-19)
(-0.139764222764 -0.0297023921205 -7.95922338019e-20)
(-0.0395168910647 0.0255694347794 1.03436491193e-19)
(-0.0900935227384 -0.0730205759443 0)
(-0.0644169382419 -0.066110308815 2.28700586664e-20)
(0.0101802511681 -0.0063751998396 -1.24853759777e-18)
(-0.0192014612022 -0.208092068467 -2.75312127312e-19)
(-0.494676620978 0.0172566683858 9.10249551253e-20)
(-0.174055084024 0.10823095087 8.42719050393e-20)
(-0.0388088092234 -0.0178208393239 -1.60590951478e-19)
(-0.0851116436732 0.0680539930822 0)
(-0.0679215121499 -0.0891939197374 1.75259033255e-19)
(-0.30179060895 0.0711488682392 2.63339180116e-21)
(-0.177373106769 0.00345879113694 -1.43669541356e-19)
(-0.0063769487167 -0.0313290120312 0)
(-0.0131669122831 -0.158790687501 2.8802280032e-20)
(-0.0959652096058 -0.00452664511309 3.21821845639e-20)
(-0.0620465605581 0.000301746418133 3.38789495214e-20)
(-0.18075401976 0.0220453483676 -9.38621792521e-20)
(-0.224855018618 -0.296995806183 -4.45059095732e-21)
(-0.229906544369 -0.286365300587 -4.51080129277e-19)