/*--------------------------------*- C++ -*----------------------------------*\
| =========                 |                                                 |
| \\      /  F ield         | OpenFOAM: The Open Source CFD Toolbox           |
|  \\    /   O peration     | Version:  v1906                                 |
|   \\  /    A nd           | Web:      www.OpenFOAM.com                      |
|    \\/     M anipulation  |                                                 |
\*---------------------------------------------------------------------------*/
FoamFile
{
    version     2.0;
    format      ascii;
    class       volVectorField;
    location    "369";
    object      Ua;
}
// * * * * * * * * * * * * * * * * * * * * * * * * * * * * * * * * * * * * * //

dimensions      [0 1 -1 0 0 0 0];


internalField   nonuniform List<vector> 
9216
(
(-0.00664355454481 0.00665211912563 0)
(-0.00682708642173 0.0207402186392 2.39254857085e-27)
(-0.00681315985689 0.0349100312194 -4.60459654805e-31)
(-0.00676464410285 0.0490694619423 0)
(-0.00669702110643 0.0630824602341 0)
(-0.00661121627855 0.0769136914655 0)
(-0.0065094065752 0.0905232232909 0)
(-0.00639176235862 0.103874581245 0)
(-0.00626014242627 0.116933042851 0)
(-0.00611447211887 0.129666863538 0)
(-0.00595681926898 0.14204619068 0)
(-0.00578696772056 0.154044244516 0)
(-0.0056071679305 0.165636232459 0)
(-0.00541701128931 0.176800379437 0)
(-0.00521884342777 0.187516813242 0)
(-0.00501199425387 0.197768431795 0)
(-0.00479881938814 0.207539772892 0)
(-0.00457833411784 0.216817718851 0)
(-0.00435283205352 0.225590392669 0)
(-0.00412098317743 0.233847724281 0)
(-0.00388497727568 0.241580412204 0)
(-0.00364314552581 0.248780369759 0)
(-0.00339756028547 0.255439809886 0)
(-0.00314625283521 0.261551601789 0)
(-0.00289119823721 0.267108520179 0)
(-0.00263020201279 0.272103523266 0)
(-0.00236518242051 0.276529216335 0)
(-0.00209381530751 0.280378065445 0)
(-0.0018180241599 0.283642103892 0)
(-0.00153547746515 0.286313064051 0)
(-0.00124816946741 0.288382424583 0)
(-0.000953866629736 0.289841356411 0)
(-0.000654721836785 0.290681092874 0)
(-0.000348782132488 0.290892917222 0)
(-3.84343628118e-05 0.290468750658 0)
(0.000277874762555 0.289401067248 0)
(0.00059744936866 0.287683790767 0)
(0.000921313053882 0.285312103011 0)
(0.00124641095209 0.282283620087 0)
(0.00157314363169 0.278598083019 0)
(0.00189807593154 0.274258747208 0)
(0.00222093026935 0.269271951717 0)
(0.00253789605055 0.263648644735 0)
(0.00284800086123 0.257403877046 0)
(0.00314706796686 0.250558359449 0)
(0.00343344408888 0.243137962671 0)
(0.00370260326575 0.235175178738 0)
(0.00395229018766 0.226708713188 0)
(0.00417771035099 0.217784637253 0)
(0.00437625667514 0.208456046544 0)
(0.00454316722711 0.198783555085 0)
(0.00467607441172 0.188834775399 0)
(0.00477092695307 0.178683686158 0)
(0.00482657709034 0.168409521755 0)
(0.0048406586849 0.158094741882 0)
(0.00481427248557 0.147823156554 0)
(0.00474747205701 0.137676905104 0)
(0.00464398133878 0.127734304775 0)
(0.00450612506872 0.118066969621 0)
(0.00433959442309 0.108738306892 0)
(0.00414792228158 0.0998018945957 0)
(0.00393744962083 0.091301179446 0)
(0.00371176547913 0.0832693515213 0)
(0.00347697807484 0.0757296415359 0)
(0.00323629731953 0.0686958912217 0)
(0.00299526434397 0.0621728477105 0)
(0.00275644135805 0.0561572285094 0)
(0.00252441368384 0.0506381950136 0)
(0.00230076014229 0.0455989544228 0)
(0.0020887969937 0.0410174189851 0)
(0.00188896238266 0.0368680836816 0)
(0.00170326528492 0.0331226691508 0)
(0.00153112483676 0.0297519017993 0)
(0.00137349469443 0.0267258706486 0)
(0.00122912659894 0.0240154415276 0)
(0.00109829909498 0.0215922118898 0)
(0.00097945105327 0.0194295451538 0)
(0.000872480483473 0.0175022338938 0)
(0.000775709250014 0.0157872887257 0)
(0.000688703903656 0.0142635566756 0)
(0.000609357871582 0.0129126938333 0)
(0.000535749458451 0.011719440742 0)
(0.000460294231922 0.0106842378287 0)
(0.000363699989571 0.00970736620584 0)
(0.000329826058669 0.00904290892377 0)
(0.000343411210047 0.00839232154289 0)
(0.000315463406823 0.00766870160998 0)
(0.000275927387151 0.00708255892898 0)
(0.000290310836481 0.00658090358523 0)
(0.000330782183044 0.00595761296712 0)
(0.000341760259263 0.00531089044314 0)
(0.000357444794028 0.00459541153567 0)
(0.000418003655991 0.00379312700407 0)
(0.000482310342658 0.0028946602498 0)
(0.000546792580228 0.00178958993958 0)
(0.000586207640239 0.000571130466349 0)
(-0.0207539254847 0.0068733760692 0)
(-0.0219101674162 0.0220296495327 0)
(-0.0218365998079 0.0370991284491 -2.45930072854e-27)
(-0.0216498852274 0.0521707501678 0)
(-0.0213961069318 0.0670744495572 0)
(-0.0210794777774 0.081780679055 0)
(-0.0207046890656 0.0962488832497 0)
(-0.0202740214048 0.110440610684 0)
(-0.0197924483434 0.124319264267 0)
(-0.0192622922353 0.137850944217 0)
(-0.0186890832896 0.151004131547 0)
(-0.0180750810415 0.163750244907 0)
(-0.0174261124988 0.176063209084 0)
(-0.0167440890385 0.187919862596 0)
(-0.016034807576 0.199299438195 0)
(-0.0152995446012 0.210183833055 0)
(-0.0145437728394 0.22055702276 0)
(-0.0137679098192 0.230405211636 0)
(-0.0129768829729 0.239716213092 0)
(-0.0121701210147 0.248479508066 0)
(-0.0113518911221 0.256685633458 0)
(-0.0105206233168 0.26432618439 0)
(-0.00967992245574 0.271393258816 0)
(-0.0088273263227 0.277879439271 0)
(-0.0079658833149 0.283777336618 0)
(-0.00709244851627 0.289079579316 0)
(-0.00620969806007 0.293778492665 0)
(-0.00531408564149 0.297866113314 0)
(-0.00440815755802 0.30133402759 0)
(-0.00348830493889 0.304173423133 0)
(-0.00255722778704 0.306375079056 0)
(-0.00161160445223 0.307929557128 0)
(-0.000654582309834 0.308827330159 0)
(0.000316430920474 0.309058937904 0)
(0.00129752151492 0.308615422606 0)
(0.00229018292632 0.307488506771 0)
(0.00328945369634 0.305671223153 0)
(0.00429538614125 0.30315811552 0)
(0.00530176591894 0.29994603751 0)
(0.0063069663261 0.296034347154 0)
(0.00730341753209 0.291425822188 0)
(0.00828769179285 0.286126821592 0)
(0.00925084799573 0.280148261206 0)
(0.0101876253574 0.273505743014 0)
(0.0110877236825 0.266220543004 0)
(0.0119440710647 0.258319744891 0)
(0.0127450398558 0.249837188272 0)
(0.0134819046408 0.24081363866 0)
(0.0141419522439 0.231297582439 0)
(0.0147154456003 0.221345345939 0)
(0.0151895484339 0.21102144097 0)
(0.0155552241252 0.200398285523 0)
(0.0158017560742 0.18955557638 0)
(0.0159238493196 0.178579064226 0)
(0.015916185745 0.167558502554 0)
(0.0157805433099 0.156585250172 0)
(0.0155194817363 0.145749099314 0)
(0.0151430976532 0.135135415832 0)
(0.014661340583 0.124822132836 0)
(0.0140904279845 0.114877684806 0)
(0.0134441219825 0.105359498351 0)
(0.0127403362693 0.0963136413617 0)
(0.0119927265859 0.0877750137069 0)
(0.0112182255689 0.0797678143578 0)
(0.0104291554189 0.0723061053031 0)
(0.00964070523448 0.0653942301572 0)
(0.00886307562726 0.0590277052386 0)
(0.00810852609096 0.0531940066519 0)
(0.00738397991686 0.0478740019862 0)
(0.00669777938978 0.0430430756718 0)
(0.00605302187451 0.0386728180445 0)
(0.00545401539914 0.0347321776828 0)
(0.00490043116731 0.0311890161493 0)
(0.00439338729635 0.0280109242353 0)
(0.00393029682143 0.0251663134409 0)
(0.00351035882904 0.0226247482194 0)
(0.00312988872903 0.020357598163 0)
(0.00278714127882 0.0183380196441 0)
(0.00247805218149 0.0165412944608 0)
(0.00220034642601 0.0149445355733 0)
(0.0019494436696 0.0135266097213 0)
(0.00172122485578 0.0122668877602 0)
(0.00150654450682 0.0111438945107 0)
(0.00128030492972 0.0101180299692 0)
(0.00112856473967 0.00902101161709 0)
(0.00109118632734 0.00830578836565 0)
(0.000949420043058 0.00751130516388 0)
(0.000831718159474 0.00696158659531 0)
(0.000852205808371 0.00635188581682 0)
(0.000955443730685 0.00586036948746 0)
(0.00102130172249 0.00531619324476 0)
(0.00111005366987 0.00455965374924 0)
(0.00125221942961 0.00373456066536 0)
(0.00157257592695 0.00297998143866 0)
(0.00193585305862 0.00191086842123 0)
(0.00174278267903 0.000520321023849 0)
(-0.0350731028124 0.0069291974024 0)
(-0.037049014291 0.0222130680431 0)
(-0.0368972789521 0.0373744976045 -2.46265921942e-27)
(-0.0365761076657 0.0525558209553 0)
(-0.036147919626 0.06756720717 0)
(-0.0356174008244 0.0823776512148 0)
(-0.0349896853299 0.0969456858924 0)
(-0.0342696157306 0.11123226361 0)
(-0.0334636386941 0.125200472852 0)
(-0.0325774156219 0.138816038505 0)
(-0.0316181515395 0.152047323586 0)
(-0.0305917825376 0.164865585131 0)
(-0.0295057167793 0.177244845427 0)
(-0.028365616248 0.189162004392 0)
(-0.0271785413709 0.200596597211 0)
(-0.0259493683654 0.211530781933 0)
(-0.0246843278225 0.221949001891 0)
(-0.0233871015914 0.231837869045 0)
(-0.0220627392305 0.241185764443 0)
(-0.0207134802011 0.249982652567 0)
(-0.0193430233203 0.258219659357 0)
(-0.0179521162926 0.26588885835 0)
(-0.0165431391459 0.272982876595 0)
(-0.0151154989236 0.279494697038 0)
(-0.0136704745535 0.285417332418 0)
(-0.0122064513196 0.29074367582 0)
(-0.0107239646288 0.295466276955 0)
(-0.00922081541317 0.299577263295 0)
(-0.00769724852955 0.303068236215 0)
(-0.0061509981429 0.305930267775 0)
(-0.00458255590235 0.308153956418 0)
(-0.00299017325887 0.309729498145 0)
(-0.00137513212363 0.310646875344 0)
(0.000263161586885 0.310896064894 0)
(0.00192201927602 0.310467381042 0)
(0.00360026574333 0.30935177953 0)
(0.00529326019958 0.30754135671 0)
(0.00699753013824 0.305029738761 0)
(0.0087060695968 0.301812704006 0)
(0.0104127552214 0.29788861849 0)
(0.0121079965535 0.293259126955 0)
(0.0137828669631 0.287929587897 0)
(0.0154251417057 0.281909784302 0)
(0.0170230739326 0.275214339987 0)
(0.0185618182806 0.267863429123 0)
(0.0200268236592 0.259883199187 0)
(0.0214006473301 0.251306496161 0)
(0.0226660672059 0.242173341666 0)
(0.02380337864 0.232531649435 0)
(0.0247935380328 0.222437689544 0)
(0.025616146445 0.211956541096 0)
(0.0262530553028 0.201162141772 0)
(0.0266871304993 0.19013681842 0)
(0.0269064425462 0.178970141243 0)
(0.0269032722318 0.167756788539 0)
(0.0266780976377 0.156593677597 0)
(0.0262375123358 0.145576396721 0)
(0.0255968498577 0.134795539166 0)
(0.0247762230855 0.124333307611 0)
(0.0238018282332 0.114260867952 0)
(0.0227004625361 0.104636822992 0)
(0.0215006158779 0.0955072031796 0)
(0.0202281816518 0.0869062669847 0)
(0.0189094617141 0.0788573427085 0)
(0.0175679850124 0.0713733758422 0)
(0.0162273299486 0.0644572777826 0)
(0.0149074345358 0.0581026200078 0)
(0.0136269967584 0.0522946038102 0)
(0.0124000965756 0.0470114608425 0)
(0.0112387439793 0.0422258942207 0)
(0.0101501239137 0.0379067643476 0)
(0.00913935486891 0.0340205994221 0)
(0.00820742969683 0.0305331051294 0)
(0.00735415030523 0.0274102498352 0)
(0.00657651308843 0.0246191637606 0)
(0.00587134487309 0.0221285829249 0)
(0.00523373543128 0.0199092689588 0)
(0.00465925158641 0.0179340715566 0)
(0.00414242819387 0.0161780404365 0)
(0.00367864573848 0.0146181889005 0)
(0.0032627602582 0.0132331635632 0)
(0.0028908896309 0.0120021380818 0)
(0.00255975072821 0.0109036167574 0)
(0.0022741177683 0.00991287047004 0)
(0.00201474934882 0.0088286063389 0)
(0.00185936269654 0.00815482693259 0)
(0.0016789066101 0.00753937782588 0)
(0.00147672165843 0.00669742120062 0)
(0.00137529610138 0.00595463460675 0)
(0.00147455333978 0.0055230570835 0)
(0.001757765754 0.00518096861819 0)
(0.0018534380472 0.00416005787465 0)
(0.0021585532126 0.00345932132337 0)
(0.00256386750344 0.0025401489194 0)
(0.00291133292044 0.00153531472556 0)
(0.00283011962916 0.000472367609764 0)
(-0.0495888033565 0.00698686832774 0)
(-0.0524067923438 0.0224172480273 0)
(-0.0521897246596 0.0377027069369 2.4623339073e-27)
(-0.0517313490116 0.0530134069087 0)
(-0.0511207346094 0.0681506079696 0)
(-0.0503653537711 0.0830820651783 0)
(-0.0494719622505 0.0977651773918 0)
(-0.0484479685856 0.112160057274 0)
(-0.0473019787572 0.126229222742 0)
(-0.0460427878481 0.13993795499 0)
(-0.0446800309543 0.153254403806 0)
(-0.0432230376192 0.166149732538 0)
(-0.0416816313005 0.178598092538 0)
(-0.0400648517554 0.190576627069 0)
(-0.0383819072741 0.202065316362 0)
(-0.0366407922442 0.213046853447 0)
(-0.0348494041735 0.223506378586 0)
(-0.0330140871104 0.233431251064 0)
(-0.0311409235723 0.242810704097 0)
(-0.0292342351768 0.251635549466 0)
(-0.0272980527821 0.259897798374 0)
(-0.0253345948182 0.267590348901 0)
(-0.0233459023421 0.274706625218 0)
(-0.0213323034565 0.281240297163 0)
(-0.0192941843649 0.287184984018 0)
(-0.0172304361608 0.292534044306 0)
(-0.0151403239258 0.297280373999 0)
(-0.0130219168325 0.301416286058 0)
(-0.0108740230276 0.304933419002 0)
(-0.00869461307975 0.307822705943 0)
(-0.0064828129386 0.31007444242 0)
(-0.00423729941095 0.311678330531 0)
(-0.0019583246833 0.312623665319 0)
(0.00035382330667 0.312899565324 0)
(0.00269686274795 0.312495287578 0)
(0.00506802264398 0.311400588437 0)
(0.00746216968456 0.30960619097 0)
(0.00987329619854 0.307104264877 0)
(0.0122927952159 0.303889007346 0)
(0.0147109338986 0.299957191545 0)
(0.0171153126229 0.295308796814 0)
(0.0194922962879 0.289947559856 0)
(0.0218256463619 0.283881595619 0)
(0.0240978442255 0.27712391387 0)
(0.0262888425929 0.269693024115 0)
(0.0283772285892 0.261613461438 0)
(0.0303390795348 0.252916454409 0)
(0.0321490575801 0.243640579336 0)
(0.033779544146 0.23383258646 0)
(0.0352020632338 0.223548207132 0)
(0.0363871557461 0.212852960612 0)
(0.0373067487594 0.201822655923 0)
(0.0379352583624 0.190543346587 0)
(0.038253060834 0.179110346625 0)
(0.0382483149089 0.167625971862 0)
(0.0379201369322 0.156196052405 0)
(0.0372788443667 0.144925391822 0)
(0.0363466581572 0.133913024824 0)
(0.0351550427999 0.123247884148 0)
(0.033743073534 0.113005210272 0)
(0.0321520128381 0.103244825673 0)
(0.0304226951322 0.0940119766599 0)
(0.028592984085 0.0853394366342 0)
(0.026699325254 0.0772490826208 0)
(0.0247762296963 0.0697522776977 0)
(0.0228568678131 0.0628497826177 0)
(0.0209709460354 0.0565322263586 0)
(0.019144637305 0.0507812064072 0)
(0.0173988897033 0.0455708704252 0)
(0.0157499770593 0.0408696662102 0)
(0.0142084822683 0.0366422441902 0)
(0.0127804289239 0.0328513073978 0)
(0.0114670933708 0.0294593452193 0)
(0.0102667940832 0.0264298955301 0)
(0.00917514283435 0.0237283396877 0)
(0.00818654654186 0.0213222822347 0)
(0.00729412912278 0.0191817827022 0)
(0.00649083579592 0.0172793954357 0)
(0.00576922061459 0.01559017274 0)
(0.00512236868549 0.014091509081 0)
(0.00454380963593 0.0127629733018 0)
(0.00402879951681 0.0115857619714 0)
(0.00357535232069 0.0105469130453 0)
(0.00319940116026 0.00958857525829 0)
(0.00285412215755 0.008632101859 0)
(0.00261382586205 0.00798590550336 0)
(0.00238922513912 0.00723815536551 0)
(0.00216298945289 0.0063843239296 0)
(0.00209634304483 0.00581710675343 0)
(0.00206708060104 0.00501801903939 0)
(0.00228447782955 0.00434757159323 0)
(0.00277499448048 0.00389574383219 0)
(0.00296213481891 0.00284556519657 0)
(0.00339690629452 0.00200212201108 0)
(0.00383286892189 0.00122608474223 0)
(0.00382134301005 0.000401388662479 0)
(-0.064251721522 0.00706122485071 0)
(-0.0679078448517 0.0226869176417 0)
(-0.0676240835652 0.0381445425217 0)
(-0.0670252729938 0.0536299297155 0)
(-0.0662275291023 0.068936256537 0)
(-0.0652411782669 0.0840300749768 0)
(-0.0640750892114 0.0988674079376 0)
(-0.0627392754478 0.113407277436 0)
(-0.061244950508 0.127611380645 0)
(-0.0596039955177 0.141444409951 0)
(-0.0578289548657 0.154874190312 0)
(-0.0559324539679 0.167871786301 0)
(-0.0539272437237 0.180411506088 0)
(-0.0518255857553 0.192470860768 0)
(-0.0496393623741 0.204030427446 0)
(-0.0473794551518 0.215073671667 0)
(-0.0450559439448 0.225586684492 0)
(-0.042677510873 0.235557890494 0)
(-0.0402517548761 0.244977691408 0)
(-0.0377846521473 0.253838101808 0)
(-0.0352810042298 0.262132349751 0)
(-0.0327439719646 0.269854497582 0)
(-0.0301756545868 0.276999062024 0)
(-0.027576690943 0.283560680222 0)
(-0.0249469426947 0.289533801478 0)
(-0.0222851386469 0.294912439515 0)
(-0.0195896257431 0.299689965598 0)
(-0.0168580351218 0.303858963747 0)
(-0.0140880757684 0.307411133851 0)
(-0.0112772189365 0.310337237977 0)
(-0.00842354443122 0.312627172003 0)
(-0.00552540598475 0.314269981648 0)
(-0.0025823297461 0.315254047395 0)
(0.000405256360474 0.315567318335 0)
(0.00343517090693 0.315197625487 0)
(0.0065037398188 0.314133073103 0)
(0.00960500133415 0.312362520777 0)
(0.0127310147441 0.309876121247 0)
(0.0158711873462 0.306665927799 0)
(0.019012668189 0.302726514325 0)
(0.0221398298877 0.298055623748 0)
(0.0252347345418 0.292654776555 0)
(0.028276730746 0.286529873117 0)
(0.0312429023102 0.279691729938 0)
(0.0341076684938 0.272156628438 0)
(0.0368430983177 0.263946842753 0)
(0.0394184382779 0.255091295966 0)
(0.0418003431087 0.245626316278 0)
(0.0439525552039 0.235596681565 0)
(0.0458365540088 0.225056823818 0)
(0.0474121472794 0.214072227258 0)
(0.0486395828792 0.202720706881 0)
(0.0494820625373 0.19109304073 0)
(0.0499099483604 0.179292544301 0)
(0.0499048142295 0.167432639267 0)
(0.0494635402608 0.155632406266 0)
(0.0486001682856 0.144010543642 0)
(0.0473456547778 0.132678797916 0)
(0.0457453002125 0.121736232365 0)
(0.043855388294 0.11126381732 0)
(0.0417347127365 0.10132192003 0)
(0.0394382821028 0.091953175442 0)
(0.0370153498803 0.0831874540648 0)
(0.0345125153802 0.0750447310904 0)
(0.0319753994515 0.0675346758644 0)
(0.0294481025863 0.0606553943842 0)
(0.0269707522629 0.0543934601252 0)
(0.0245780194677 0.0487253156072 0)
(0.0222977812093 0.0436192928175 0)
(0.0201509386698 0.0390377288663 0)
(0.0181509539165 0.0349392326886 0)
(0.016304377672 0.0312810242531 0)
(0.0146115908834 0.0280211021294 0)
(0.0130686998216 0.0251197680503 0)
(0.0116689019141 0.0225402387855 0)
(0.0104037967374 0.0202487608383 0)
(0.00926386389606 0.0182146326928 0)
(0.00823922105525 0.0164101328635 0)
(0.00731988448947 0.014810449762 0)
(0.00649631718941 0.0133935711128 0)
(0.00575966510777 0.0121403117611 0)
(0.00510236132458 0.0110342738315 0)
(0.00451885901355 0.0100729022552 0)
(0.00401522022043 0.00913221711795 0)
(0.00367245895225 0.00842524571639 0)
(0.00341905904146 0.00777190893712 0)
(0.00324121277971 0.00704924909955 0)
(0.00300539961887 0.00619611232036 0)
(0.00275164934952 0.00518350360652 0)
(0.00279480376834 0.00454530556058 0)
(0.00289824066566 0.00370423671382 0)
(0.00342478808909 0.00320786571176 0)
(0.00401105248987 0.00254924448073 0)
(0.00418242697204 0.00162831993461 0)
(0.00444828047036 0.000952591328858 0)
(0.00443818911902 0.000315718604186 0)
(-0.0791116251376 0.00715387983272 0)
(-0.0836127391725 0.0230274714838 0)
(-0.0832590772088 0.038705370348 0)
(-0.0825145374311 0.0544130853386 0)
(-0.0815226345529 0.0699341497963 0)
(-0.0802966346176 0.0852337395554 0)
(-0.078847848963 0.100266233362 0)
(-0.0771890903263 0.114989297769 0)
(-0.0753345492378 0.129363579075 0)
(-0.0732993761205 0.143353025383 0)
(-0.0710994122746 0.156925039273 0)
(-0.0687507414321 0.17005057406 0)
(-0.0662694342744 0.182704141243 0)
(-0.0636710985636 0.194863749006 0)
(-0.0609706630727 0.206510754309 0)
(-0.0581819566466 0.217629649644 0)
(-0.0553175646224 0.22820777228 0)
(-0.0523884757082 0.238234960389 0)
(-0.0494040501958 0.247703151612 0)
(-0.0463717752502 0.256605953966 0)
(-0.0432973762322 0.264938193232 0)
(-0.0401847014382 0.272695469238 0)
(-0.0370359779155 0.279873727824 0)
(-0.0338518114164 0.286468876181 0)
(-0.0306315521373 0.292476443539 0)
(-0.0273733664725 0.297891303099 0)
(-0.0240746635073 0.302707448527 0)
(-0.0207322003519 0.306917830821 0)
(-0.0173425419841 0.310514248773 0)
(-0.0139021928931 0.313487273627 0)
(-0.0104081133966 0.315826318022 0)
(-0.00685783965695 0.317519614858 0)
(-0.00325007565778 0.318554398596 0)
(0.00041510753252 0.318917134482 0)
(0.00413571468488 0.318593833861 0)
(0.00790761812382 0.317570473281 0)
(0.0117240518192 0.315833509673 0)
(0.0155754873405 0.313370482395 0)
(0.0194492680079 0.310170678926 0)
(0.023329640594 0.306225838377 0)
(0.0271975795215 0.301530853692 0)
(0.0310309729773 0.296084438212 0)
(0.0348045806906 0.289889729207 0)
(0.0384902400756 0.282954807867 0)
(0.0420567632569 0.275293169635 0)
(0.045469930867 0.266924177667 0)
(0.048692131061 0.257873646924 0)
(0.0516820872699 0.24817465013 0)
(0.0543944075122 0.2378687622 0)
(0.0567796884123 0.22700777916 0)
(0.058785064595 0.215655987007 0)
(0.0603563934755 0.203892586222 0)
(0.0614418113936 0.191813741397 0)
(0.0619975661388 0.17953313571 0)
(0.061994877902 0.16717960095 0)
(0.0614265196305 0.154891434849 0)
(0.0603105130438 0.142807518676 0)
(0.0586888274687 0.131058148191 0)
(0.056624794411 0.119757586585 0)
(0.0541991744527 0.108994572314 0)
(0.0514942749036 0.0988276569231 0)
(0.0485810175979 0.0892925480722 0)
(0.0455178029733 0.0804136080303 0)
(0.0423600570514 0.072209077698 0)
(0.0391651281165 0.0646878182271 0)
(0.0359900275353 0.0578450952769 0)
(0.0328869000733 0.0516621079135 0)
(0.0299000030517 0.0461082035829 0)
(0.0270645157219 0.0411437609503 0)
(0.0244062216457 0.0367228137311 0)
(0.0219410583538 0.0327956624477 0)
(0.0196752790555 0.0293119289739 0)
(0.0176067238903 0.0262236576682 0)
(0.0157278525796 0.0234872021667 0)
(0.0140282382795 0.0210634366638 0)
(0.0124960191514 0.0189172477691 0)
(0.0111183998336 0.0170172132066 0)
(0.00988228683246 0.0153354241418 0)
(0.00877470909328 0.0138472783416 0)
(0.00778318376298 0.0125312998937 0)
(0.00689602423983 0.0113690221446 0)
(0.00610266471476 0.0103447631481 0)
(0.00539719322741 0.00945304931888 0)
(0.00474961361032 0.00851748617082 0)
(0.00439039625421 0.00787394803405 0)
(0.00415012137727 0.00720873200395 0)
(0.00387701461109 0.00634191666602 0)
(0.00377466623733 0.00569434778372 0)
(0.00371328205422 0.00497947510606 0)
(0.00376667160432 0.00426405425263 0)
(0.00360979473587 0.00320915834635 0)
(0.00390889208327 0.00250226479087 0)
(0.00464780495292 0.00207306859251 0)
(0.0049392992384 0.00141485155482 0)
(0.00503444205069 0.000796361282313 0)
(0.00503489411054 0.000263917857115 0)
(-0.0942145881128 0.00726642477893 0)
(-0.099571644914 0.0234430471332 0)
(-0.0991435834401 0.0393905284928 2.48019948626e-27)
(-0.0982462433074 0.0553700837664 0)
(-0.0970510193792 0.0711533059413 0)
(-0.0955742743126 0.0867037117751 0)
(-0.0938300550699 0.101973672515 0)
(-0.0918342617991 0.116919206137 0)
(-0.0896044322448 0.131499666941 0)
(-0.0871593040057 0.145678093509 0)
(-0.0845184066355 0.159421373486 0)
(-0.0817015959356 0.172700337401 0)
(-0.0787286465919 0.185489764528 0)
(-0.0756187950216 0.197768303129 0)
(-0.072390363666 0.209518304904 0)
(-0.0690603466327 0.220725575069 0)
(-0.0656441063859 0.23137904173 0)
(-0.062155051686 0.241470352053 0)
(-0.0586044618945 0.250993407493 0)
(-0.0550013133438 0.259943856233 0)
(-0.0513522790937 0.268318564324 0)
(-0.0476617353011 0.276115091852 0)
(-0.0439319423474 0.283331197757 0)
(-0.0401632085744 0.289964395862 0)
(-0.0363542021114 0.296011574765 0)
(-0.0325022038333 0.301468689314 0)
(-0.0286034768521 0.306330520128 0)
(-0.0246535486361 0.310590495466 0)
(-0.0206476023391 0.314240568308 0)
(-0.0165807832672 0.317271115494 0)
(-0.0124486537135 0.319671000075 0)
(-0.00824749680915 0.321427498389 0)
(-0.00397487900687 0.322526472946 0)
(0.000369937487376 0.32295258307 0)
(0.00478544984449 0.322689603755 0)
(0.00926747810625 0.321720869092 0)
(0.0138086704179 0.32002983858 0)
(0.0183981779073 0.317600775022 0)
(0.0230213402109 0.314419507607 0)
(0.027659590205 0.310474242061 0)
(0.0322904082421 0.305756363424 0)
(0.0368874808346 0.300261178245 0)
(0.0414208579801 0.293988536902 0)
(0.0458571759523 0.28694330919 0)
(0.0501597107547 0.279135720727 0)
(0.0542882564347 0.270581622778 0)
(0.058198652102 0.261302882267 0)
(0.0618420071534 0.251328048084 0)
(0.0651637225602 0.24069377149 0)
(0.0681027083814 0.229447010272 0)
(0.070591365285 0.217648507184 0)
(0.0725574444754 0.205377075162 0)
(0.0739284311607 0.192733877669 0)
(0.0746398659625 0.17984530903 0)
(0.0746463136733 0.166861312592 0)
(0.0739331140737 0.15394776988 0)
(0.0725227070695 0.141272577729 0)
(0.0704711898813 0.128992795312 0)
(0.067865043572 0.117246280732 0)
(0.0648237060326 0.106132988095 0)
(0.0614641224298 0.0957034540449 0)
(0.0578742733857 0.0859764098421 0)
(0.0541142505926 0.0769662262372 0)
(0.0502442363196 0.0686918194232 0)
(0.046335093753 0.0611644384482 0)
(0.0424607152315 0.0543769830223 0)
(0.0386879418317 0.0483032722233 0)
(0.035071968269 0.0429027839632 0)
(0.031655657677 0.0381253779545 0)
(0.0284699039169 0.0339141512705 0)
(0.0255330878049 0.0302081838379 0)
(0.0228497433859 0.0269465985053 0)
(0.0204125975686 0.0240735994417 0)
(0.0182079815196 0.0215412200873 0)
(0.0162203371025 0.0193083548279 0)
(0.0144336974728 0.0173388815798 0)
(0.0128314092744 0.0156008674962 0)
(0.0113967248212 0.0140664157304 0)
(0.010113324861 0.0127113255879 0)
(0.00896545405756 0.0115148690446 0)
(0.00793817194375 0.0104597661946 0)
(0.00701753632888 0.00953506588039 0)
(0.00619752782796 0.00871030145539 0)
(0.00551703211087 0.00790532248009 0)
(0.00514238972488 0.0072858008984 0)
(0.00489025363486 0.00659177810376 0)
(0.00465621356557 0.00586079445656 0)
(0.00444001603469 0.00507027639616 0)
(0.00446245267671 0.00442576722302 0)
(0.00442386377851 0.00358924516637 0)
(0.00461863025382 0.00295369933994 0)
(0.00455992374897 0.0020848222698 0)
(0.00494022108159 0.00157135412895 0)
(0.00548059668703 0.0011814312439 0)
(0.0055249735928 0.000665648070186 0)
(0.00552986644152 0.000220801983428 0)
(-0.109610042064 0.00740005123313 0)
(-0.115836986252 0.0239381007393 0)
(-0.115328994146 0.0402067483157 -2.4798189924e-27)
(-0.114270005606 0.0565100101767 0)
(-0.112860006044 0.0726050283258 0)
(-0.111118717364 0.0884532522552 0)
(-0.109063262997 0.10400463279 0)
(-0.106713005234 0.119213196668 0)
(-0.104089252104 0.134036746067 0)
(-0.101214748653 0.148437233052 0)
(-0.098113160267 0.162380936538 0)
(-0.0948085371511 0.175838558488 0)
(-0.0913247958697 0.188785223384 0)
(-0.0876851940166 0.201200385523 0)
(-0.0839118405555 0.21306763866 0)
(-0.0800252159975 0.224374430555 0)
(-0.0760437587129 0.235111680017 0)
(-0.0719834931854 0.245273305393 0)
(-0.0678577675316 0.254855674623 0)
(-0.0636770708408 0.263857000563 0)
(-0.0594489946073 0.272276708242 0)
(-0.0551782893658 0.280114809618 0)
(-0.0508670627795 0.287371318073 0)
(-0.046515043836 0.294045732951 0)
(-0.0421199417835 0.300136610955 0)
(-0.0376778118156 0.30564123038 0)
(-0.0331834612534 0.310555338425 0)
(-0.0286308239507 0.314872966224 0)
(-0.0240133640494 0.318586295288 0)
(-0.0193244620326 0.32168552929 0)
(-0.0145578873442 0.324158941082 0)
(-0.00970819734924 0.32599273015 0)
(-0.00477136411456 0.327171172691 0)
(0.000254671290584 0.32767679837 0)
(0.00536935778089 0.32749070145 0)
(0.0105689231724 0.326593010202 0)
(0.0158457761863 0.324963513437 0)
(0.021188030451 0.32258244284 0)
(0.0265791400176 0.319431368476 0)
(0.0319977477205 0.315494171013 0)
(0.0374177115274 0.310757997856 0)
(0.042808353514 0.305214132853 0)
(0.0481348265766 0.298858663965 0)
(0.0533585214243 0.291692899476 0)
(0.0584373296255 0.283723493904 0)
(0.0633255279237 0.274962375045 0)
(0.067973155646 0.265426674864 0)
(0.0723246045959 0.255139029439 0)
(0.0763167324655 0.24412881516 0)
(0.079876598937 0.232434827182 0)
(0.0829199426187 0.220110189925 0)
(0.0853517787284 0.207229183124 0)
(0.0870710997151 0.193895753186 0)
(0.0879817863497 0.180250654637 0)
(0.0880113796837 0.166472512662 0)
(0.0871309747287 0.15276749945 0)
(0.0853706394127 0.139345258235 0)
(0.082802033631 0.126400129064 0)
(0.0795398174761 0.114109716799 0)
(0.0757704523367 0.102593238652 0)
(0.0716687843269 0.0918778057074 0)
(0.0673383641632 0.0819422797961 0)
(0.0628188127756 0.072783216233 0)
(0.0581661094306 0.0644296138602 0)
(0.053470510761 0.056904033529 0)
(0.048831038796 0.050197714579 0)
(0.0443339801046 0.0442731586065 0)
(0.0400463722833 0.0390757369167 0)
(0.0360184831087 0.0345415296917 0)
(0.0322870739774 0.0306000913244 0)
(0.0288734551951 0.0271753654615 0)
(0.0257789767812 0.0241913211575 0)
(0.0229862077458 0.0215817983283 0)
(0.0204712149003 0.0192948628795 0)
(0.0182115506365 0.0172890892889 0)
(0.0161870107054 0.0155282689108 0)
(0.0143767302157 0.0139801993828 0)
(0.012759745719 0.0126173065597 0)
(0.011316227232 0.0114159808526 0)
(0.0100269297733 0.0103561228385 0)
(0.00887330014762 0.00942099341981 0)
(0.00783746317335 0.00860098990641 0)
(0.00690955814711 0.00784929483007 0)
(0.00618293931232 0.00711377714478 0)
(0.00585412393605 0.00657859027946 0)
(0.00555745997942 0.00588279561846 0)
(0.00542781408353 0.00529761671116 0)
(0.00526746333227 0.0045698773649 0)
(0.00519103673004 0.00384356950222 0)
(0.00508714034798 0.00305633032548 0)
(0.00514706750153 0.00241153476277 0)
(0.00537432268375 0.00187074776382 0)
(0.0053564998654 0.00126268791441 0)
(0.00593274375955 0.000944546940396 0)
(0.00593496254913 0.000560744206554 0)
(0.00592169049272 0.000179777363657 0)
(-0.125350583597 0.00755607578789 0)
(-0.13246401705 0.0245178409246 0)
(-0.131869394101 0.0411622116015 0)
(-0.13063795808 0.0578440607744 0)
(-0.128999186875 0.0743032202696 0)
(-0.126976526835 0.0904986483204 0)
(-0.124590600489 0.106377383632 0)
(-0.121864698872 0.121891085612 0)
(-0.118824406159 0.136995717272 0)
(-0.115496990952 0.151651953939 0)
(-0.111910784646 0.165825370682 0)
(-0.108094552435 0.179486538591 0)
(-0.104076871828 0.192611021199 0)
(-0.0998855145797 0.205179266506 0)
(-0.0955468473996 0.217176396346 0)
(-0.091085254559 0.228591880719 0)
(-0.0865226113312 0.239419099168 0)
(-0.0818778251199 0.249654785691 0)
(-0.0771664852546 0.259298374749 0)
(-0.0724006403541 0.268351269607 0)
(-0.0675887367117 0.276816073973 0)
(-0.0627357137835 0.284695831332 0)
(-0.057843258654 0.291993322029 0)
(-0.0529101767023 0.298710458339 0)
(-0.0479328480942 0.304847802785 0)
(-0.0429057076772 0.310404212319 0)
(-0.0378217234287 0.315376589103 0)
(-0.0326728386086 0.31975970482 0)
(-0.0274503994028 0.323546066483 0)
(-0.0221455788902 0.326725758998 0)
(-0.0167498737506 0.32928646532 0)
(-0.01125556914 0.331213225976 0)
(-0.00565645973784 0.33248854512 0)
(5.14606516288e-05 0.333092502986 0)