/*--------------------------------*- C++ -*----------------------------------*\
| =========                 |                                                 |
| \\      /  F ield         | OpenFOAM: The Open Source CFD Toolbox           |
|  \\    /   O peration     | Version:  v1906                                 |
|   \\  /    A nd           | Web:      www.OpenFOAM.com                      |
|    \\/     M anipulation  |                                                 |
\*---------------------------------------------------------------------------*/
FoamFile
{
    version     2.0;
    format      ascii;
    class       volScalarField;
    location    "368";
    object      pa;
}
// * * * * * * * * * * * * * * * * * * * * * * * * * * * * * * * * * * * * * //

dimensions      [0 2 -2 0 0 0 0];


internalField   nonuniform List<scalar> 
9216
(
917.748890828
917.44310275
916.810501502
915.84556244
914.553671468
912.94084055
911.014573984
908.783714082
906.258340345
903.449605277
900.369636489
897.031365615
893.448428611
889.634996413
885.605679914
881.375373073
876.959167558
872.372216411
867.629660543
862.746517988
857.737621764
852.61753696
847.400507507
842.100401257
836.730662135
831.304282181
825.833755377
820.331075174
814.807686716
809.2745083
803.741879204
798.219605014
792.716899979
787.242449998
781.804347799
776.410178781
771.066947252
765.781178861
760.558838415
755.405448341
750.32599762
745.325074313
740.4067658
735.574803271
730.832453679
726.182674071
721.627995964
717.170687219
712.812629677
708.555486301
704.400573142
700.349029397
696.401684853
692.559230661
688.822083627
685.190555557
681.664715837
678.244557487
674.929859664
671.720348733
668.615562346
665.615004198
662.718011404
659.923901839
657.231846412
654.641008224
652.150421273
649.759120831
647.466029842
645.270080197
643.170107866
641.164964839
639.253423692
637.434280135
635.706267444
634.068149571
632.518645575
631.056513325
629.680483835
628.389335597
627.181838499
626.056818842
625.013112394
624.049620099
623.165269656
622.35906179
621.630039454
620.977323905
620.400089197
619.897584062
619.469101213
619.11396289
618.831419381
618.620125808
618.477755875
618.423586321
918.053683607
917.746176253
917.111944614
916.142676066
914.844613449
913.224056984
911.28867398
909.047454132
906.510611891
903.689447872
900.596228935
897.244037392
893.646646421
889.818370731
885.773947806
881.528400267
877.09692972
872.494797652
867.737235392
862.839347142
857.816036673
852.68193333
847.451333875
842.138150376
836.755864385
831.317494639
825.835560451
820.322066983
814.788475107
809.245702305
803.704097016
798.173452552
792.662983795
787.181355776
781.736660915
776.336456634
770.987743488
765.697013027
760.470224881
755.312862797
750.229910216
745.225913202
740.304954028
735.470719663
730.72647305
726.075125831
721.519207106
717.060939074
712.702203162
708.444617287
704.289499344
700.237944826
696.290787787
692.448677643
688.712037865
685.081140936
681.556065156
678.136766929
674.823036244
671.614565656
668.510905129
665.511527316
662.615782575
659.822960324
657.132245069
654.542773802
652.053593881
649.663716525
647.372077293
645.177585811
643.079089488
641.075419602
639.165358697
637.34768317
635.621134618
633.984458992
632.436381982
630.975644769
629.600983373
628.311160969
627.104950992
625.981165933
624.938643904
623.97627378
623.092984839
622.287768054
621.559668353
620.907801794
620.331350006
619.829573669
619.401811658
619.047502323
618.766225347
618.557841572
618.423431616
618.369355644
918.68772814
918.375509317
917.73555399
916.757640303
915.44810718
913.813391831
911.861352087
909.601197888
907.04337698
904.199439384
901.081902908
897.704106824
894.080073001
890.224361931
886.151941207
881.878053994
877.41810248
872.787535089
868.001748912
863.0759985
858.025318116
852.864452084
847.60779533
842.269343317
836.862648021
831.400784666
825.896320033
820.361293293
814.807193984
809.244954774
803.68493712
798.136933928
792.610161406
787.113270964
781.654345325
776.24091752
770.879970789
765.577963799
760.340832953
755.174022553
750.08248864
745.07073305
740.142808045
735.302353235
730.552600345
725.896412062
721.336286364
716.874396343
712.512593569
708.252448023
704.095250042
700.042049511
696.093656034
692.250676665
688.513514088
684.882402291
681.357402677
677.938437306
674.625283062
671.417602247
668.3149351
665.316727762
662.422323588
659.630988639
656.94190233
654.354180745
651.8668672
649.47895372
647.189372063
644.997013716
642.900721856
640.899310153
638.991556023
637.176218454
635.452032768
633.817727575
632.27202112
630.813637378
629.441303923
628.153767091
626.949791205
625.828172664
624.787740291
623.827368163
622.945976821
622.142544669
621.416109874
620.765780386
620.190736966
619.690243388
619.263654676
618.910437558
618.630206313
618.422807421
618.288738424
618.227073276
919.66244326
919.344806968
918.695908564
917.704488564
916.377078636
914.720345644
912.742438352
910.452901664
907.862547506
904.983311266
901.828105127
898.410665911
894.745405824
890.847264541
886.731569653
882.413903235
877.909979972
873.235534315
868.40622026
863.437521424
858.344672992
853.142593921
847.845828979
842.468500266
837.024265924
831.526287471
825.987201696
820.419100712
814.833514307
809.241400442
803.653136111
798.078516708
792.526754182
787.006483314
781.525765458
776.092101677
770.712440906
765.393197864
760.140264675
754.959032634
749.854406276
744.830828024
739.892293871
735.042380019
730.28425944
725.620729669
721.054229545
716.586867359
712.220437112
707.956446252
703.796130832
699.740482123
695.790260147
691.94601856
688.208116148
684.57673953
681.0519124
677.633515783
674.321294996
671.114877413
668.013777323
665.01741136
662.125101612
659.336089026
656.649535255
654.064534454
651.5801144
649.195247149
646.908849939
644.719795157
642.626911477
640.628993486
638.724803407
636.913080635
635.192544234
633.561902513
632.01985636
630.565108853
629.196369368
627.912363126
626.711835908
625.593563373
624.556356155
623.599068741
622.72060475
621.919925215
621.196053954
620.548085403
619.975190541
619.476625498
619.051740481
618.699992829
618.42096409
618.214383579
618.080394307
618.01640628
920.981831003
920.657229837
919.996107826
918.986191807
917.63430944
915.947461757
913.934202971
911.604540546
908.969790043
906.042417893
902.835880375
899.364460339
895.643106246
891.687276108
887.512789495
883.135689206
878.5721144
873.838185927
868.949904322
863.923060545
858.773158703
853.515350493
848.164379621
842.734536036
837.239617662
831.692900002
826.107111056
820.494412762
814.866386206
809.234022644
803.607717225
797.997268335
792.411878984
786.860161746
781.350146253
775.889291177
770.484496014
765.142117335
759.867984263
754.667418114
749.545250557
744.505845719
739.553120188
734.690566765
729.921275541
725.247958528
720.672971085
716.198336664
711.825767861
707.556690538
703.392263815
699.333402864
695.380797218
691.534931646
687.796102297
684.164435214
680.639900016
677.222325823
673.911412414
670.706743571
667.607795858
664.613949629
661.724495785
658.93864484
656.255532158
653.674225599
651.19372979
648.812992907
646.53091052
644.346332016
642.258064509
640.264879299
638.365516191
636.558690274
634.843096841
633.217418619
631.680331337
630.23051138
628.866641947
627.587420987
626.391567764
625.277830881
624.244995017
623.291888808
622.417391538
621.620440703
620.900038552
620.255259347
619.685255972
619.189267295
618.766625428
618.416763268
618.139219732
617.933641893
617.800043781
617.735571622
922.652495971
922.319084492
921.64230749
920.60866409
919.225388323
917.499931277
915.441382788
913.060355971
910.368823634
907.379942363
904.107874056
900.567606822
896.774780174
892.745517176
888.496266995
884.043659199
879.404371902
874.595013928
869.632021863
864.531571145
859.309500934
853.981251242
848.561811225
843.065676956
837.506817337
831.898646859
826.2540041
820.585135422
814.903683017
809.220677426
803.546533683
797.891051802
792.263420679
786.672223111
781.125446199
775.630493884
770.19420095
764.82284972
759.522187659
754.297447244
749.153366166
744.094209485
739.123791641
734.245500113
729.462318507
724.776850997
720.191345748
715.707719384
711.327580012
707.052250957
702.882792635
698.820024825
694.864546708
691.016757033
687.276871777
683.644941736
680.120867465
676.70441406
673.395223303
670.19282566
667.096649813
664.106032169
661.220224165
658.438399783
655.7596612
653.183044893
650.707526272
648.332025003
646.055409248
643.876500767
641.794079285
639.806887837
637.913637628
636.113013911
634.40368155
632.784291552
631.253487365
629.809912023
628.452215085
627.179060223
625.989132585
624.881146595
623.853853466
622.906048956
622.036580766
621.244356019
620.528348364
619.887605041
619.321253575
618.828508309
618.408676341
618.06116174
617.785467352
617.581193882
617.448310229
617.383989881
924.682822128
924.33855541
923.64245407
922.579508975
921.157476359
919.384386024
917.270010393
914.825730093
912.064346784
908.999883871
905.64738574
902.022719116
898.142380696
894.023315163
889.682745832
885.138020557
880.406473614
875.505304883
870.451475737
865.26162167
859.951979934
854.538331161
849.035952499
843.45958082
837.823383559
832.140936152
826.425204353
820.688531211
814.942627804
809.198568033
803.466786932
797.757083025
792.078624515
786.439955115
780.849007375
775.313116496
769.839036275
764.432957115
759.100525399
753.8468644
748.676596133
743.593864354
738.602358147
733.705336308
728.905651984
724.205777754
719.607830595
715.113596915
710.724557076
706.441909584
702.266594368
698.19931533
694.240561618
690.390627829
686.649632654
683.017536208
679.494155657
676.07917943
672.772179736
669.57262371
666.479883034
663.493242375
660.611906578
657.835006974
655.161606797
652.590706075
650.121245993
647.752113097
645.482143299
643.310126052
641.234808585
639.254900538
637.369078842
635.57599314
633.874271505
632.262526761
630.739363066
629.303383054
627.953195152
626.687421324
625.504704866
624.403718472
623.383172183
622.441821454
621.578474954
620.792002328
620.081341572
619.445506213
618.883591977
618.394782921
617.978356663
617.633688061
617.360250042
617.157614832
617.025734781
616.961876033
927.083128198
926.725761798
926.006364391
924.908100064
923.439378982
921.608956383
919.427456567
916.907212743
914.062050359
910.907057867
907.458358894
903.732889058
899.748183018
895.522174954
891.07301588
886.418909161
881.577966078
876.568081333
871.406828925
866.111376854
860.698419597
855.184125583
849.584097562
843.913342672
838.186250138
832.416574208
826.617421337
820.801240636
814.979817674
809.16427152
803.365055524
797.591961702
791.854128957
786.160050781
780.517591485
774.934001732
769.415936581
763.969475283
758.600142412
753.312930312
748.112322459
743.002317829
737.986455853
733.067842114
728.249174277
723.532768457
718.920585446
714.414257002
710.015111563
705.724199623
701.542318058
697.470033699
693.507705417
689.655505083
685.913436697
682.281354129
678.758976843
675.345904142
672.041627382
668.8455408
665.756950492
662.775082241
659.899087832
657.128050572
654.460989716
651.896864508
649.434577586
647.072978376
644.810866292
642.646994237
640.580072255
638.608771702
636.731729805
634.947554838
633.254831798
631.652128687
630.138003294
628.711010478
627.369709859
626.11267384
624.938495885
623.845798934
622.833243889
621.899538029
621.043443331
620.263784522
619.559456862
618.929433485
618.372772223
617.888621736
617.476226753
617.134931425
616.86418169
616.663529113
616.532913429
616.469707916
929.865845932
929.492904112
928.74586105
927.605704028
926.081650874
924.183355463
921.922491894
919.312561186
916.368636362
913.10709641
909.545364773
905.701657278
901.594744223
897.243731104
892.667859966
887.886333927
882.918165224
877.782047884
872.496253854
867.078551972
861.546146875
855.915635412
850.202976374
844.423470328
838.591745682
832.721748875
826.826736746
820.919271015
815.011214769
809.113731834
803.237290379
797.391668329
791.585964279
785.828608619
780.127381538
774.489431334
768.921294767
763.428918936
758.01768438
752.692429215
747.457474211
742.316648619
737.273316739
732.330404965
727.490429329
722.755523189
718.127465079
713.60770629
709.197398191
704.897418799
700.708398595
696.630745086
692.66466613
688.810191548
685.067193112
681.435402503
677.91442743
674.503765601
671.202816872
668.010893338
664.927227838
661.950980691
659.081245242
656.317052088
653.657372592
651.101121582
648.647159847
646.294296317
644.041290475
641.88685489
639.8296583
637.868329135
636.001459767
634.227611391
632.54531965
630.953100949
629.449459413
628.032894468
626.701908882
625.455017267
624.290754816
623.207686289
622.204414992
621.279591788
620.431923865
619.660183331
618.963215353
618.339945901
617.789388842
617.310652287
616.902944045
616.565575961
616.297966528
616.099646461
615.970541642
615.908138615
933.045727839
932.654451891
931.874947127
930.685633889
929.096724364
927.118978825
924.765357289
922.050781681
918.991832967
915.606438962
911.913572788
907.932966038
903.684842707
899.189676742
894.467976257
889.540095254
884.426074483
879.145511014
873.717456588
868.160342416
862.491928096
856.729269904
850.888704031
844.98583898
839.035552948
833.051992364
827.048570356
821.037964727
815.032116902
809.042232896
803.078789313
797.151540419
791.2695315
785.441113733
779.673964982
773.975111055
768.350948745
762.807270088
757.349287564
751.981660164
746.708520176
741.533500742
736.459763982
731.490029755
726.626604735
721.871411873
717.2260198
712.691672226
708.269316798
703.95963344
699.763061569
695.67982624
691.709962548
687.853338456
684.109675386
680.478566867
676.959494681
673.551842945
670.254909683
667.067916488
663.990015941
661.020297481
658.157791528
655.401472577
652.750261141
650.203025251
647.758581443
645.415695835
643.173085269
641.029418973
638.983320728
637.03337184
635.178114884
633.416058367
631.74568226
630.165444401
628.67378771
627.26914811
625.949963079
624.714680661
623.56176887
622.489725256
621.497086613
620.58243856
619.744425006
618.981757248
618.29322271
617.677693096
617.134131934
616.661601358
616.259268077
615.926407821
615.662409566
615.466782139
615.339431864
615.277965532
936.64009942
936.227382305
935.410021061
934.1634359
932.499061647
930.429020032
927.967841945
925.132172002
921.940404178
918.4123137
914.568707188
910.431096361
906.02139946
901.361673922
896.473881098
891.379684974
886.100284847
880.656283141
875.067586974
869.353342358
863.531896542
857.620783634
851.636725839
845.595643447
839.512666336
833.402142955
827.277644606
821.151966343
815.037126717
808.944369494
802.884171036
796.866249943
790.899581753
784.992419538
779.152317695
773.386156753
767.700169496
762.099967836
756.590570302
751.176430039
745.861463467
740.649079512
735.54220954
730.543337773
725.654532271
720.877476119
716.21349886
711.663607693
707.228518421
702.908685561
698.704331557
694.615474457
690.641954007
686.783455531
683.039531669
679.409621426
675.893066775
672.489126396
669.196987003
666.015771974
662.944547913
659.982328966
657.128079667
654.38071618
651.739106783
649.202071477
646.768381556
644.436758993
642.205876388
640.074357328
638.04077771
636.103667895
634.261516021
632.512772357
630.855854799
629.289155427
627.811048026
626.419896512
625.11406404
623.891922757
622.751863888
621.69230816
620.711716221
619.808599075
618.981528209
618.229145464
617.55017233
616.94341875
616.407791167
615.942299777
615.546064957
615.218322809
614.958429186
614.765866739
614.640519084
614.580121494
940.669170535
940.231470333
939.370141537
938.057115047
936.30533565
934.128603172
931.543368755
928.568362365
925.224151616
921.532705071
917.516986753
913.200584692
908.607377682
903.7612405
898.685788744
893.404162938
887.938853533
882.311566798
876.543132346
870.653449715
864.661470272
858.585206312
852.441758084
846.247347203
840.017347166
833.766304094
827.507946497
821.255186437
815.020117695
808.814015921
802.647346422
796.529776854
790.47019306
784.476727436
778.556786334
772.717079144
766.96364794
761.301897208
755.73662359
750.272045882
744.911835431
739.659147186
734.516651332
729.486565665
724.570688405
719.770431548
715.086854296
710.520696614
706.07241228
701.742201418
697.530041731
693.435718397
689.458851793
685.598923083
681.855296892
678.227241292
674.713944467
671.314528507
668.028059905
664.853557416
661.789997035
658.836314921
655.991408149
653.254134212
650.623309226
648.097705733
645.676050116
643.357020375
641.139244298
639.021298592
637.001708985
635.078951635
633.251455836
631.517608138
629.875757823
628.324223681
626.861301996
625.48527554
624.194423486
622.987031943
621.861405034
620.815876187
619.848819577
618.958661405
618.143890983
617.403071327
616.7348493
616.137965003
615.611260483
615.153687584
614.764314989
614.442333772
614.187062774
613.997955888
613.874868259
613.815672895
945.156421437
944.68965299
943.77735071
942.387406994
940.534641235
938.234932123
935.507083389
932.372350539
928.853902255
924.976302526
920.765041181
916.246114468
911.445654908
906.389609351
901.103462497
895.612006448
889.939156516
884.107816212
878.139791889
872.055756967
865.875259972
859.616767359
853.297726202
846.934630903
840.543078353
834.137802567
827.732687148
821.340762312
814.974196173
808.644290243
802.361485755
796.135380056
789.974744865
783.88756479
777.881069375
771.961767484
766.135480949
760.407377158
754.782000989
749.263306513
743.8546891
738.559018079
733.378670269
728.315564192
723.371195088
718.546670375
713.842745601
709.259860369
704.798174171
700.45760141
696.237845431
692.138430691
688.158732878
684.298006141
680.555407347
676.93001673
673.420855097
670.02689716
666.747081504
663.580316955
660.525486128
657.581446086
654.747027086
652.021029403
649.402219305
646.88932417
644.481027785
642.175965778
639.972722065
637.869826227
635.865752455
633.958919934
632.147695015
630.430395055
628.805293946
627.270629259
625.824610762
624.465430261
623.191272379
622.000326214
620.890797456
619.860920893
618.908972904
618.033283907
617.232250382
616.504346502
615.848135034
615.262277592
614.74554399
614.296820684
613.915118288
613.599578229
613.349477589
613.164236424
613.043678781
612.985824682
950.12908508
949.628474807
948.657070344
947.178102201
945.208739708
942.767453592
939.875942244
936.558523432
932.841475209
928.752422351
924.319798163
919.572375607
914.538862615
909.247553521
903.726032442
898.000926295
892.097710541
886.040571336
879.852329388
873.554426111
867.166968199
860.708817226
854.197704284
847.650343609
841.082521782
834.509147163
827.944259873
821.401015097
814.891658934
808.427513925
802.018982454
795.675565348
789.405890486
783.217761483
777.118197184
771.113472559
765.209156676
759.410147979
753.720707837
748.144493604
742.684591987
737.343553335
732.123426868
727.025797013
722.051820531
717.202264532
712.477544933
707.877765401
703.402756067
699.052111869
694.825229551
690.721343011
686.739555914
682.878871367
679.138217664
675.5164702
672.01246881
668.625031039
665.35296087
662.195053801
659.150098035
656.21687294
653.394144736
650.680660647
648.075141599
645.576274642
643.18270522
640.893030254
638.705792181
636.619474603
634.632499656
632.743227428
630.949957469
629.250932413
627.644343687
626.128339093
624.701032159
623.360512901
622.104859861
620.932152969
619.840487096
618.827985847
617.892815481
617.033198545
616.247427178
615.53387573
614.891012729
614.317411908
613.811762339
613.372877568
612.999703776
612.691326327
612.446975914
612.266035878
612.148293587
612.091925411
955.618754083
955.078649791
954.038586336
952.456432745
950.352336307
947.748029118
944.668789377
941.142655194
937.199616349
932.870894015
928.188332278
923.18388582
917.88918613
912.335171868
906.551772457
900.567643456
894.409957239
888.104259316
881.674399741
875.142547011
868.529281046
861.853750162
855.133861159
848.386462807
841.627482315
834.871990418
828.134196733
821.427402466
814.763944946
808.155167425
801.611412518
795.142050322
788.755527762
782.45942565
776.260511778
770.164789436
764.177539648
758.303358225
752.546189956
746.909362041
741.395618368
736.00715506
730.745657595
725.612339145
720.607980188
715.732969009
710.987343219
706.370831782
701.882897432
697.522778613
693.289530448
689.182063584
685.199180303
681.339606774
677.602021073
673.985076158
670.487417853
667.107697453
663.84457946
660.696744429
657.662887857
654.741715291
651.9319349
649.232247735
646.641337081
644.157857034
641.780421697
639.507594995
637.337882291
635.269723699
633.301489911
631.431480382
629.657924235
627.978983733
626.392760241
624.89730255
623.490617157
622.170680393
620.935451821
619.782888783
618.710961503
617.71766861
616.801052559
615.959214838
615.190330563
614.492662409
613.864573568
613.304539796
612.811160322
612.383167617
612.019436047
611.718989526
611.48100698
611.304829606
611.190205621
611.135476444
961.66215423
961.07576165
959.955645747
958.253529015
955.993389181
953.201104533
949.90640822
946.141865353
941.941887346
937.341898504
932.377667457
927.084765558
921.498119269
915.651627723
909.577829894
903.307617179
896.870001312
890.291954589
883.598344229
876.811976643
869.953755533
863.042934805
856.097422767
849.134071808
842.168885198
835.217095708
828.293123136
821.410464122
814.581579785
807.817834001
801.129484237
794.525725199
788.014768441
781.603919506
775.29964715
769.107640755
763.032855938
757.079551424
751.251321727
745.551129668
739.981340729
734.543759894
729.239670551
724.069875214
719.034737517
714.134225628
709.367956785
704.735243119
700.235138047
695.866482886
691.62795232
687.518097968
683.535388436
679.678245208
675.945073022
672.33428461
668.84431893
665.473653419
662.220809895
659.084355193
656.062896558
653.155073257
650.359544667
647.674976456
645.100025214
642.633323043
640.273462487
638.018983001
635.86835928
633.819992229
631.872202783
630.023228911
628.271225855
626.614269544
625.05036308
623.577445927
622.193405599
620.896091297
619.683329232
618.552939016
617.502750854
616.530622938
615.634458831
614.812224327
614.061963693
613.381814896
612.770023848
612.224957375
611.745115009
611.329139495
610.975826087
610.684130038
610.453173355
610.282251964
610.171069232
610.118140019
968.302143109
967.661161833
966.447193739
964.604956906
962.163439699
959.153857692
955.61152307
951.574514666
947.08248921
942.175745533
936.894522531
931.278460923
925.366167188
919.19483511
912.799898737
906.21471471
899.4702898
892.595086529
885.614944996
878.553156758
871.430706493
864.266664435
857.07866561
849.883369413
842.696775947
835.534312754
828.410706885
821.339752823
814.334098332
807.405133118
800.562988217
793.816612796
787.173908422
780.64183722
774.226511758
767.933261482
761.766679002
755.730652553
749.828393566
744.062466014
738.434820354
732.946831589
727.599340542
722.392697036
717.326804637
712.401166777
707.614934763
702.966957496
698.455832852
694.079959609
689.837588888
685.726873248
681.745912116
677.892791811
674.165619292
670.562548575
667.081799706
663.721669978
660.480538029
657.3568611
654.34916668
651.456039144
648.676102994
646.008003383
643.450385698
641.001874698
638.661054969
636.426452876
634.296521524
632.269628651
630.34404846
628.517957196
626.789432815
625.15645854
623.61693001
622.168665846
620.809420926
619.536902184
618.348786068
617.242737439
616.216429067
615.267561465
614.393882404
613.593205859
612.863429957
612.202553823
611.608693033
611.080093736
610.615145281
610.212391383
609.870539875
609.588471282
609.365244803
609.200105344
609.092708815
609.041751028
975.589023091
974.883120621
973.558290758
971.551337867
968.897943717
965.636288014
961.808712889
957.460004325
952.635996327
947.38257281
941.744992265
935.76740938
929.492495362
922.961086731
916.211828271
909.280808186
902.20121593
895.003075763
887.713125004
880.354903622
872.949100023
865.514144957
858.066967294
850.623735253
843.200357487
835.812563508
828.475595352
821.203742202
814.009949455
806.905638603
799.900733124
793.003826123
786.222401019
779.562987562
773.031275346
766.632186488
760.369916471
754.247954251
748.269098246
742.435479814
736.748596522
731.20935253
725.818102999
720.574700494
715.478542267
710.528619159
705.72356678
701.061719752
696.541168618
692.159818658
687.915448509
683.805766702
679.828463536
675.981256733
672.26192896
668.668356719
665.198529656
661.85056089
658.622688209
655.513267642
652.520759772
649.643710866
646.880729468
644.230460711
641.691559076
639.262661667
636.942362664
634.729190541
632.621588593
630.617899682
628.716355588
626.915071219
625.212043782
623.605156634
622.092187601
620.670821149
619.338663974
618.093263241
616.932126974
615.852745759
614.852615269
613.929258818
613.080249551
612.303231641
611.595940327
610.956220365
610.382042955
609.871520888
609.422922079
609.034681441
608.705411226
608.433909353
608.219166605
608.06037347
607.9571325
607.908327502
983.582300949
982.798344999
981.341258064
979.139048309
976.236557212
972.681186888
968.524176341
963.818431817
958.616968684
952.971952174
946.934158084
940.552650739
933.874526063
926.94462315
919.805157595
912.49528198
905.050621421
897.502871157
889.879568141
882.204158933
874.49646203
866.773551805
859.050957337
851.343891212
843.668085731
836.039837797
828.475322904
820.989687526
813.596359994
806.306769721
799.130474927
792.075529788
785.148839229
778.356386368
771.70336354
765.194242398
758.832798074
752.622101936
746.564515415
740.661704432
734.914674055
729.323813646
723.888946684
718.609381064
713.483958819
708.511106821
703.688890923
699.015074652
694.487182923
690.102569205
685.858483746
681.7521394
677.780772184
673.941693691
670.23233371
666.650271666
663.193256634
659.859215892
656.646252887
653.552635512
650.576776357
647.717206325
644.972543728
642.341460285
639.822646354
637.4147764
635.116477033
632.926297978
630.842687991
628.8639756
626.988355962
625.213883564
623.538471021
621.959893706
620.475799483
619.083723312
617.781105485
616.565313248
615.433664517
614.38345328
613.411975574
612.516555474
611.694570277
610.943474431
610.260821764
609.64428583
609.091678204
608.600964818
608.170280287
607.797940358
607.482452599
607.222525676
607.017075675
606.865232692
606.76654309
606.720084717
992.353101546
991.474001944
989.857119451
987.420964794
984.223287633
980.323882263
975.785256666
970.670036695
965.039406184
958.95238884
952.465633493
945.633394637
938.507495697
931.137147602
923.568569631
915.844426799
908.003160398
900.078340408
892.09821689
884.085677661
876.058813636
868.032206413
860.018845163
852.032227881
844.087856946
836.203189412
828.396153099
820.683402877
813.079117397
805.594635537
798.238839694
791.018914518
783.940957038
777.010266712
770.23146494
763.608545275
757.144863657
750.843076156
744.705092514
738.732080381
732.924508493
727.282202657
721.804404623
716.489827778
711.336707725
706.342853094
701.505701145
696.822380997
692.289785191
687.904647961
683.663625855
679.563376182
675.600628519
671.772246093
668.075274326
664.506975649
661.064849721
657.746639941
654.550326657
651.474109226
648.516378035
645.675679398
642.950674724
640.340097082
637.842706527
635.457246995
633.182405915
631.016778554
628.958837981
627.006911685
625.159165438
623.413594551
621.768022663
620.220107391
618.767352412
617.407124884
616.13667744
614.953173675
613.853716272
612.835376686
611.895225514
611.030362439
610.237945082
609.515215924
608.85952709
608.268362559
607.739358
607.27031808
606.859231572
606.504284334
606.203870407
605.956600878
605.761311232
605.617067569
605.52335406
605.4794481
1001.98755723
1000.99050042
999.177422598
996.457169722
992.906335673
988.601580759
983.619586529
978.03435041
971.916005277
965.330712662
958.341064235
951.006576745
943.384001548
935.527304812
927.487260696
919.310692179
911.039468143
902.709439217
894.349569972
885.981604102
877.620643227
869.276958178
860.95906285
852.677420352
844.447336402
836.288702433
828.222774686
820.268853252
812.442236214
804.753854477
797.211263771
789.820208403
782.585667692
775.51211874
768.603557107
761.863504626
755.294948225
748.900168062
742.680619473
736.636933365
730.76898877
725.07599047
719.556543351
714.208714785
709.030082327
704.017780097
699.16855348
694.47882589
689.94478018
685.562451593
681.327825602
677.236933066
673.285936395
669.471202004
665.78935641
662.23732454
658.812350143
655.511998961
652.334146089
649.276949576
646.33881258
643.518336838
640.814270207
638.225450985
635.750752015
633.389026446
631.13905819
628.999517703
626.968925755
625.045624853
623.227760124
621.513269144
619.899880946
618.385123677
616.966339462
615.640705996
614.405262846
613.256942111
612.192601652
611.209060267
610.303133236
609.471667171
608.71157308
608.019856791
607.393646414
606.830216585
606.327009623
605.881653828
605.49197913
605.156030371
604.872078468
604.638629964
604.454433313
604.318484653
604.230202962
604.189069649
1012.59168448
1011.44541074
1009.38655674
1006.31539911
1002.33729662
997.552012865
992.053653648
985.928943809
979.257188895
972.111382023
964.559635472
956.666464878
948.493595886
940.10016072
931.542232813
922.871761148
914.135052955
905.371035309
896.609642464
887.870832779
879.164913282
870.494914815
861.861479819
853.269563088
844.734503993
836.28135195
827.937706009
819.727459971
811.667440932
803.767319988
796.031989351
788.464765355
781.069165162
773.848775101
766.806959046
759.946831694
753.271155739
746.781940242
740.480192626
734.365946688
728.438417563
722.696116797
717.136950458
711.75829004
706.557006643
701.529504327
696.671769315
691.979438577
687.447893593
683.072374409
678.848101534
674.770394284
670.834775961
667.037060443
663.373416985
659.840412524
656.43503136
653.154673863
649.997135724
646.960571043
644.043441621
641.24445665
638.562505341
635.996586944
633.545740458
631.208977915
628.985223094
626.873258178
624.871679646
622.978864386
621.192947031
619.5118085
617.933076038
616.454133423
615.072140248
613.784058367
612.586684106
611.476684849
610.450638816
609.505076747
608.63652395
607.841541038
607.116762008