/*--------------------------------*- C++ -*----------------------------------*\
| =========                 |                                                 |
| \\      /  F ield         | OpenFOAM: The Open Source CFD Toolbox           |
|  \\    /   O peration     | Version:  v1906                                 |
|   \\  /    A nd           | Web:      www.OpenFOAM.com                      |
|    \\/     M anipulation  |                                                 |
\*---------------------------------------------------------------------------*/
FoamFile
{
    version     2.0;
    format      ascii;
    class       volVectorField;
    location    "826";
    object      Ua;
}
// * * * * * * * * * * * * * * * * * * * * * * * * * * * * * * * * * * * * * //

dimensions      [0 1 -1 0 0 0 0];


internalField   nonuniform List<vector> 
9216
(
(-0.0103630366553 0.010370097496 0)
(-0.0109360970541 0.0334679659745 3.91361746767e-27)
(-0.0109321546585 0.0569220766794 -7.0774476338e-31)
(-0.0108295557464 0.0803832963027 0)
(-0.0106834057845 0.103454597765 0)
(-0.0104977851691 0.126041683637 0)
(-0.0102773454872 0.148043119733 0)
(-0.0100252611354 0.169366834854 0)
(-0.0097445434587 0.189930036098 0)
(-0.00943808607538 0.209659398789 0)
(-0.00910893347073 0.228491178188 0)
(-0.00876001545696 0.246371373607 0)
(-0.00839437150151 0.263255611461 0)
(-0.00801482549138 0.279108994069 0)
(-0.0076242496665 0.293905685118 0)
(-0.00722521275658 0.307628494889 0)
(-0.0068202946542 0.320268256965 0)
(-0.00641171412244 0.331823252518 0)
(-0.00600169329457 0.342298484602 0)
(-0.00559206577484 0.351705043094 0)
(-0.00518468656973 0.360059368718 0)
(-0.00478101816882 0.367382638006 0)
(-0.00438257879333 0.373700082833 0)
(-0.00399050321318 0.379040444649 0)
(-0.00360602206466 0.383435382131 0)
(-0.00322999441914 0.386919012029 0)
(-0.00286341200542 0.389527411079 0)
(-0.00250690369018 0.391298239996 0)
(-0.00216126228177 0.392270330515 0)
(-0.00182692719646 0.392483386462 0)
(-0.00150454067155 0.391977595012 0)
(-0.00119430176996 0.390793640277 0)
(-0.000896611515251 0.388971832179 0)
(-0.000611585648661 0.386552261962 0)
(-0.000339562596805 0.383574667311 0)
(-8.05009532199e-05 0.380078153433 0)
(0.000165414674413 0.376101023965 0)
(0.000398362832301 0.371680645839 0)
(0.000618278322176 0.366853304879 0)
(0.000825454894761 0.361654108433 0)
(0.00101993046512 0.356116881273 0)
(0.00120209706915 0.350274095889 0)
(0.00137208042922 0.344156804285 0)
(0.00153035349939 0.337794592781 0)
(0.00167711295455 0.331215546176 0)
(0.00181289354639 0.32444622412 0)
(0.00193794478893 0.317511656023 0)
(0.00205284299949 0.310435337471 0)
(0.00215787111514 0.303239253055 0)
(0.00225362603194 0.295943890148 0)
(0.00234040501957 0.28856828746 0)
(0.00241880561467 0.281130063688 0)
(0.00248912163703 0.27364548742 0)
(0.00255193352713 0.266129516218 0)
(0.00260751726766 0.258595883544 0)
(0.00265642259737 0.251057143738 0)
(0.00269889749434 0.243524769607 0)
(0.00273545217121 0.236009197309 0)
(0.00276630185521 0.228519928996 0)
(0.00279191396301 0.221065572451 0)
(0.00281247119345 0.213653942447 0)
(0.00282839970424 0.206292089928 0)
(0.00283985454711 0.198986397771 0)
(0.00284722627305 0.191742596338 0)
(0.00285065012478 0.184565849878 0)
(0.00285048900222 0.177460756271 0)
(0.00284686790529 0.17043142296 0)
(0.00284013099846 0.163481451143 0)
(0.00283040236282 0.156614000963 0)
(0.00281801549791 0.14983176138 0)
(0.00280310158754 0.143137006598 0)
(0.00278598974838 0.136531554601 0)
(0.00276682371525 0.130016817008 0)
(0.00274593174756 0.123593749485 0)
(0.00272347277382 0.117262898397 0)
(0.00269977489139 0.111024346965 0)
(0.00267501176939 0.104877761491 0)
(0.00264950916423 0.0988223365272 0)
(0.00262345243739 0.0928568437299 0)
(0.00259716048499 0.0869795791594 0)
(0.00257082499838 0.0811884168645 0)
(0.0025447514603 0.0754807605967 0)
(0.00251913066475 0.0698536043885 0)
(0.00249424608444 0.0643034911212 0)
(0.00247027748386 0.0588265827804 0)
(0.00244747277906 0.0534186306593 0)
(0.00242598037843 0.0480750646972 0)
(0.00240597572319 0.0427909961937 0)
(0.00238749819689 0.0375613740844 0)
(0.00237046597009 0.0323811425142 0)
(0.00235433500259 0.027245751332 0)
(0.00233752211704 0.0221523665782 0)
(0.00231552314345 0.0171034971845 0)
(0.0022685289694 0.0121370208056 0)
(0.00218040273871 0.00698455532455 0)
(0.00285587330847 0.00285581429011 0)
(-0.0335471184623 0.0110293616533 0)
(-0.0370836466781 0.0373704635325 0)
(-0.0369962031189 0.0636388694266 -4.10836350787e-27)
(-0.0364935483868 0.0899393841491 0)
(-0.0357952590284 0.115768286968 0)
(-0.0349279695975 0.14104069242 0)
(-0.0339066309932 0.165648819348 0)
(-0.0327454678987 0.189491303179 0)
(-0.0314594055003 0.212475981165 0)
(-0.0300637589929 0.234521009475 0)
(-0.0285743530961 0.255555311932 0)
(-0.027006878509 0.275518804296 0)
(-0.0253770065333 0.294362321436 0)
(-0.023699712084 0.312047391122 0)
(-0.021989508522 0.328545788875 0)
(-0.0202597968293 0.343839004885 0)
(-0.0185232428354 0.357917560127 0)
(-0.0167911616431 0.370780297027 0)
(-0.0150740301426 0.382433583253 0)
(-0.0133808971157 0.392890544401 0)
(-0.0117200101523 0.40217026216 0)
(-0.0100982313814 0.410297040522 0)
(-0.0085217499948 0.417299672221 0)
(-0.00699548002761 0.423210792881 0)
(-0.00552382994915 0.428066250974 0)
(-0.00411006284047 0.431904567243 0)
(-0.00275710170743 0.434766410756 0)
(-0.00146684326364 0.43669415475 0)
(-0.000240989527211 0.437731442396 0)
(0.000919681583184 0.437922814184 0)
(0.00201445109591 0.437313377751 0)
(0.00304349156184 0.435948277176 0)
(0.00400699832352 0.43387291092 0)
(0.00490588369784 0.431132410134 0)
(0.00574092126025 0.427771270671 0)
(0.00651361419326 0.423833254615 0)
(0.00722527495737 0.419361194547 0)
(0.00787787730515 0.41439684543 0)
(0.00847313039782 0.40898073986 0)
(0.00901335168213 0.403152072681 0)
(0.00950053304789 0.396948594586 0)
(0.00993722758984 0.390406529923 0)
(0.010325610902 0.383560506022 0)
(0.0106683760373 0.376443501056 0)
(0.0109677933921 0.369086806086 0)
(0.0112266090584 0.36152000045 0)
(0.0114471075841 0.353770944342 0)
(0.0116320090097 0.345865779609 0)
(0.0117835388368 0.337828950504 0)
(0.0119043199856 0.329683227481 0)
(0.0119964550167 0.321449753309 0)
(0.0120624093045 0.313148086575 0)
(0.0121041102948 0.304796268985 0)
(0.0121238188238 0.296410883979 0)
(0.0121232503647 0.288007139939 0)
(0.0121044310377 0.279598938163 0)
(0.0120688449572 0.271198965447 0)
(0.0120182716307 0.262818764854 0)
(0.0119539631502 0.254468830934 0)
(0.0118774590033 0.246158676793 0)
(0.0117897957532 0.237896925368 0)
(0.0116922953415 0.229691367046 0)
(0.0115858094918 0.221549041825 0)
(0.0114714771243 0.213476283293 0)
(0.0113500048789 0.20547878805 0)
(0.0112223896606 0.197561643728 0)
(0.0110892366105 0.18972938428 0)
(0.0109514428274 0.181986001846 0)
(0.0108095537365 0.174334988263 0)
(0.0106644048196 0.166779332326 0)
(0.0105165175864 0.159321549701 0)
(0.0103666965293 0.151963668574 0)
(0.0102154658003 0.144707251061 0)
(0.0100636195126 0.137553370962 0)
(0.009911700532 0.130502630451 0)
(0.00976050265947 0.123555133973 0)
(0.00961059284925 0.116710503834 0)
(0.00946276451134 0.109967853921 0)
(0.00931760460106 0.10332580759 0)
(0.0091758974555 0.0967824744192 0)
(0.0090382379376 0.0903354729958 0)
(0.00890538545017 0.0839819131289 0)
(0.00877792401576 0.077718425667 0)
(0.00865656544135 0.0715411521042 0)
(0.00854185574045 0.0654457830501 0)
(0.00843442374927 0.0594275568747 0)
(0.00833472714763 0.0534813081657 0)
(0.00824322915448 0.0476014746568 0)
(0.00816014507636 0.0417821441442 0)
(0.00808545395009 0.0360170205782 0)
(0.00801841662779 0.0302992856066 0)
(0.0079568850298 0.0246209237936 0)
(0.00789500232843 0.0189699864371 0)
(0.00781561307142 0.0133206369831 0)
(0.0076198594582 0.00760353476192 0)
(0.00697965290271 0.00217479904007 0)
(-0.0574325921342 0.0111765692247 0)
(-0.0635824140378 0.0379871452163 0)
(-0.0633638578357 0.06458757828 -4.11210772406e-27)
(-0.0624923303681 0.0912713728083 0)
(-0.0613102506466 0.11747233449 0)
(-0.0598516432452 0.143100204296 0)
(-0.0581372594688 0.168043360063 0)
(-0.0561894861869 0.192198132846 0)
(-0.0540326346561 0.215470668446 0)
(-0.0516922112775 0.237777927181 0)
(-0.0491944625877 0.259048123337 0)
(-0.0465656763761 0.279220911112 0)
(-0.0438318414727 0.298247292286 0)
(-0.0410180423536 0.316089323368 0)
(-0.0381482782304 0.332719629279 0)
(-0.0352449846283 0.348120792759 0)
(-0.0323290272558 0.362284624771 0)
(-0.0294193528962 0.375211380805 0)
(-0.0265331455936 0.38690892574 0)
(-0.0236855855415 0.397391904692 0)
(-0.0208901347431 0.406680916264 0)
(-0.0181583655689 0.414801734821 0)
(-0.0155003302213 0.421784569258 0)
(-0.0129244136096 0.427663391732 0)
(-0.0104377405769 0.432475314565 0)
(-0.00804601485818 0.436260037683 0)
(-0.00575393176759 0.439059339574 0)
(-0.00356498354212 0.440916627563 0)
(-0.0014818648673 0.441876520442 0)
(0.000493758196772 0.441984476989 0)
(0.00236085658617 0.441286463744 0)
(0.00411928580032 0.439828622378 0)
(0.00576932593434 0.43765699549 0)
(0.00731204756804 0.434817303139 0)
(0.00874888560925 0.431354682401 0)
(0.0100819097979 0.427313488396 0)
(0.0113134234014 0.42273710861 0)
(0.0124462700084 0.417667806785 0)
(0.01348342607 0.412146582749 0)
(0.0144283180501 0.406213054889 0)
(0.0152844149857 0.39990535766 0)
(0.0160555546433 0.393260058494 0)
(0.0167455369856 0.386312089449 0)
(0.0173584562937 0.379094695376 0)
(0.0178982961641 0.371639396685 0)
(0.0183692649815 0.363975966344 0)
(0.0187753937632 0.356132422023 0)
(0.0191208730795 0.348135030212 0)
(0.0194096558416 0.340008325594 0)
(0.0196457947328 0.331775139995 0)
(0.0198330528277 0.323456646571 0)
(0.0199752411602 0.315072410494 0)
(0.0200758403735 0.306640453741 0)
(0.0201383383882 0.298177322722 0)
(0.020165866219 0.289698168426 0)
(0.020161535355 0.281216825 0)
(0.0201280901824 0.272745898344 0)
(0.0200682441102 0.264296848557 0)
(0.019984350121 0.255880080011 0)
(0.0198787336965 0.247505020736 0)
(0.019753381873 0.239180206972 0)
(0.0196102702602 0.230913353244 0)
(0.0194510700987 0.222711426095 0)
(0.0192774659833 0.214580700409 0)
(0.0190908797325 0.206526818537 0)
(0.0188927752979 0.198554830373 0)
(0.0186843980841 0.190669236658 0)
(0.0184670636355 0.18287401265 0)
(0.0182419111335 0.175172636149 0)
(0.0180101730587 0.167568096404 0)
(0.0177729420757 0.160062909444 0)
(0.0175314195392 0.152659115437 0)
(0.0172866954924 0.145358284731 0)
(0.0170399747686 0.138161507567 0)
(0.0167923704523 0.131069395024 0)
(0.0165451070052 0.124082065289 0)
(0.0162993279585 0.117199143358 0)
(0.016056276132 0.110419747659 0)
(0.0158171166582 0.103742492108 0)
(0.015583094655 0.0971654762923 0)
(0.0153553746951 0.0906862924866 0)
(0.0151351763747 0.0843020216593 0)
(0.0149236310818 0.0780092472946 0)
(0.0147218953128 0.0718040584539 0)
(0.0145310244269 0.0656820707044 0)
(0.0143520616325 0.0596384353411 0)
(0.0141859249413 0.0536678640091 0)
(0.0140334640747 0.0477646344208 0)
(0.0138953486 0.0419225946289 0)
(0.0137720788391 0.0361351069228 0)
(0.0136638795385 0.0303948999862 0)
(0.0135707843316 0.0246936520726 0)
(0.013492873423 0.0190208937622 0)
(0.0134294543443 0.0133581722351 0)
(0.013323127669 0.00775798957668 0)
(0.01210661317 0.00225354412462 0)
(-0.0818764113597 0.0113063382139 0)
(-0.0907143839271 0.0385673600582 0)
(-0.0903936305647 0.0655143132949 4.11019826484e-27)
(-0.089134921306 0.0925654687256 0)
(-0.0874304694964 0.119117652659 0)
(-0.0853303384658 0.14507558505 0)
(-0.0828643127489 0.170323314313 0)
(-0.0800646641379 0.19475417727 0)
(-0.0769664984506 0.218272260322 0)
(-0.0736067785327 0.240793276356 0)
(-0.0700234515373 0.262244927473 0)
(-0.066254563401 0.282567012501 0)
(-0.0623375702573 0.301711260618 0)
(-0.0583086461048 0.319640944907 0)
(-0.0542022198079 0.336330308078 0)
(-0.0500505035495 0.351763851643 0)
(-0.0458832662156 0.365935518875 0)
(-0.0417275776213 0.378847818871 0)
(-0.0376077973051 0.390510917656 0)
(-0.0335455000201 0.400941736616 0)
(-0.0295596315397 0.410163076129 0)
(-0.0256665563061 0.418202793367 0)
(-0.0218803122731 0.42509303994 0)
(-0.0182127101577 0.430869574217 0)
(-0.0146736184618 0.435571141356 0)
(-0.0112710547912 0.439238923867 0)
(-0.00801145438548 0.44191604809 0)
(-0.004899724141 0.443647144431 0)
(-0.00193948045444 0.444477946857 0)
(0.000866934519932 0.444454931066 0)
(0.00351824074279 0.443624982871 0)
(0.00601423512785 0.442035125004 0)
(0.00835551914646 0.439732125288 0)
(0.0105436138314 0.436762383172 0)
(0.0125807270609 0.433171645962 0)
(0.0144697800907 0.429004809702 0)
(0.0162142162494 0.42430574221 0)
(0.0178180463984 0.419117127346 0)
(0.019285662825 0.413480329136 0)
(0.020621894522 0.407435276143 0)
(0.0218318270906 0.40102036281 0)
(0.0229208662674 0.394272368197 0)
(0.0238945626946 0.387226390165 0)
(0.0247586810739 0.379915795039 0)
(0.0255190285838 0.372372182051 0)
(0.026181527813 0.364625362069 0)
(0.0267520486835 0.356703350819 0)
(0.0272364843712 0.348632375332 0)
(0.0276405878174 0.34043689454 0)
(0.0279700513132 0.33213963178 0)
(0.0282303499144 0.323761620534 0)
(0.028426826155 0.315322259968 0)
(0.0285645432394 0.306839381962 0)
(0.0286483768293 0.298329324981 0)
(0.0286828808425 0.289807016743 0)
(0.0286723876343 0.281286059943 0)
(0.0286208882946 0.272778823394 0)
(0.028532141585 0.26429653208 0)
(0.0284095693145 0.255849359032 0)
(0.0282563728026 0.247446512001 0)
(0.0280754423248 0.239096318714 0)
(0.0278694786367 0.230806303487 0)
(0.0276409142567 0.222583259972 0)
(0.0273920364435 0.214433312821 0)
(0.027124917222 0.20636197414 0)
(0.0268415339119 0.198374187692 0)
(0.0265437046605 0.190474367776 0)
(0.0262332026595 0.182666425852 0)
(0.0259116942606 0.174953792811 0)
(0.0255808438088 0.167339430066 0)
(0.0252422522415 0.159825838066 0)
(0.0248975503374 0.152415055397 0)
(0.0245483366367 0.145108657528 0)
(0.0241962580841 0.137907748267 0)
(0.0238429471192 0.130812953254 0)
(0.0234900895695 0.123824408237 0)
(0.0231393615232 0.116941751579 0)
(0.0227924851544 0.110164113419 0)
(0.0224511665535 0.103490110882 0)
(0.0221171405203 0.0969178413735 0)
(0.0217921107228 0.090444883193 0)
(0.0214777846573 0.0840682951419 0)
(0.0211758173971 0.0777846240953 0)
(0.0208878375476 0.0715899117109 0)
(0.0206153952759 0.0654797086626 0)
(0.0203599794253 0.0594490866523 0)
(0.0201229699149 0.0534926550168 0)
(0.0199056466626 0.0476045691662 0)
(0.0197091509475 0.0417785321335 0)
(0.0195345042831 0.0360077678635 0)
(0.0193826340294 0.0302849697196 0)
(0.0192545451917 0.0246021725122 0)
(0.0191515086715 0.0189506032069 0)
(0.0190715240732 0.0133157479164 0)
(0.0189232893164 0.00777399350573 0)
(0.0170152649535 0.00228602284868 0)
(-0.106720907814 0.0114732266724 0)
(-0.118254653737 0.0393282725805 0)
(-0.117825340269 0.0667546123616 0)
(-0.11616411263 0.0942984048907 0)
(-0.113915558396 0.121318921454 0)
(-0.111146969925 0.147715374399 0)
(-0.107898485253 0.173366551894 0)
(-0.104213375551 0.198161831748 0)
(-0.100138554327 0.222002538449 0)
(-0.0957233305412 0.244802750832 0)
(-0.0910181837863 0.266489568019 0)
(-0.0860736205465 0.287003107106 0)
(-0.0809391980963 0.306296218003 0)
(-0.0756626638884 0.324333965399 0)
(-0.0702892879186 0.341092921853 0)
(-0.0648613147803 0.356560320756 0)
(-0.059417611403 0.370733110699 0)
(-0.0539934192743 0.383616955949 0)
(-0.0486202866854 0.39522521953 0)
(-0.0433260726014 0.405577966491 0)
(-0.0381350969737 0.414701014446 0)
(-0.0330683137136 0.422625056298 0)
(-0.0281435837276 0.429384866948 0)
(-0.0233759159624 0.435018601469 0)
(-0.0187777650192 0.43956717963 0)
(-0.0143592553205 0.443073749579 0)
(-0.0101284392272 0.445583215895 0)
(-0.00609146599881 0.447141820395 0)
(-0.00225278672162 0.447796762326 0)
(0.00138472562299 0.447595851276 0)
(0.00481960720253 0.446587184517 0)
(0.00805173889659 0.444818903607 0)
(0.0110820816366 0.442338741522 0)
(0.0139127268273 0.439194012593 0)
(0.0165466955872 0.43543126356 0)
(0.0189878723191 0.431096099282 0)
(0.0212408689994 0.426233011186 0)
(0.0233109675096 0.420885226089 0)
(0.0252039955636 0.415094575672 0)
(0.0269262812064 0.408901385042 0)
(0.0284845388234 0.402344378323 0)
(0.0298858331422 0.395460600531 0)
(0.031137472508 0.388285354685 0)
(0.0322469791838 0.380852153736 0)
(0.0332219874444 0.373192686951 0)
(0.034070218034 0.365336800547 0)
(0.0347993801298 0.35731249267 0)
(0.0354171495875 0.349145922245 0)
(0.0359310757301 0.34086143186 0)
(0.0363485648656 0.332481583782 0)
(0.0366767944815 0.324027209127 0)
(0.0369227048577 0.31551746849 0)
(0.0370929242024 0.30696992367 0)
(0.0371937716398 0.298400618077 0)
(0.0372311966713 0.289824165136 0)
(0.0372107961252 0.281253841545 0)
(0.0371377701503 0.272701684486 0)
(0.037016954137 0.264178589334 0)
(0.0368527915196 0.255694407123 0)
(0.0366493796023 0.247258038174 0)
(0.0364104573739 0.238877521582 0)
(0.0361394622408 0.230560117295 0)
(0.0358395292978 0.222312381174 0)
(0.0355135545414 0.214140230217 0)
(0.0351642010053 0.206048999123 0)
(0.0347939634415 0.198043486005 0)
(0.0344051765111 0.190127989284 0)
(0.03400007612 0.182306334062 0)
(0.0335808054339 0.174581890663 0)
(0.0331494689852 0.166957584131 0)
(0.0327081334039 0.159435897895 0)
(0.0322588717173 0.152018870529 0)
(0.0318037570886 0.144708089118 0)
(0.0313448961868 0.137504678215 0)
(0.0308844155872 0.13040928797 0)
(0.0304244843489 0.123422080247 0)
(0.0299672938441 0.116542716197 0)
(0.0295150706569 0.109770343899 0)
(0.0290700513538 0.103103589332 0)
(0.0286344873661 0.0965405489361 0)
(0.0282106165759 0.090078786757 0)
(0.0278006620614 0.0837153340819 0)
(0.0274068024089 0.0774466942276 0)
(0.0270311661147 0.0712688499202 0)
(0.0266758024495 0.0651772753626 0)
(0.0263426734865 0.0591669498601 0)
(0.0260336282779 0.0532323742444 0)
(0.0257503973548 0.047367585595 0)
(0.0254945803894 0.0415661715333 0)
(0.0252676649137 0.035821279355 0)
(0.0250710714636 0.0301256372119 0)
(0.0249062635163 0.0244715811798 0)
(0.024774620132 0.0188511896514 0)
(0.0246714533093 0.0132510759359 0)
(0.0244731568433 0.0077504406414 0)
(0.0219596666624 0.00228848711228 0)
(-0.132106239363 0.0116815699602 0)
(-0.14637826342 0.0402975789901 0)
(-0.145827881769 0.0683433229061 0)
(-0.143740567449 0.0965195808212 0)
(-0.140916721445 0.1241394225 0)
(-0.137442011948 0.151095478177 0)
(-0.133368278817 0.177260155904 0)
(-0.128751160874 0.202517931476 0)
(-0.123650709788 0.226766722812 0)
(-0.118129813015 0.24991865914 0)
(-0.112252611599 0.271900233434 0)
(-0.106083055314 0.292652155837 0)
(-0.099683650576 0.312128904691 0)
(-0.0931143974481 0.330298032283 0)
(-0.086431943981 0.347139278314 0)
(-0.0796889347088 0.362643543829 0)
(-0.0729335722093 0.376811773912 0)
(-0.066209355839 0.389653796948 0)
(-0.0595550090452 0.401187163686 0)
(-0.053004545636 0.411436027156 0)
(-0.0465874766645 0.420430096777 0)
(-0.0403290944675 0.428203693054 0)
(-0.0342508295582 0.434794916862 0)
(-0.0283706124432 0.440244936968 0)
(-0.0227032436657 0.444597386797 0)
(-0.0172607153918 0.447897854425 0)
(-0.0120525086852 0.450193444221 0)
(-0.00708582833613 0.451532390274 0)
(-0.00236581871554 0.451963704699 0)
(0.00210426818316 0.451536849973 0)
(0.00632289981678 0.450301430409 0)
(0.0102901735489 0.448306982412 0)
(0.0140075084275 0.445602439326 0)
(0.0174776920499 0.442236257778 0)
(0.0207046528145 0.438255977753 0)
(0.0236933522462 0.433708086416 0)
(0.0264496506434 0.428637849321 0)
(0.0289802027464 0.423089166309 0)
(0.0312923395949 0.417104447791 0)
(0.0333939798513 0.410724509241 0)
(0.0352935252759 0.403988482018 0)
(0.0369997836659 0.396933739409 0)
(0.0385218734119 0.389595837071 0)
(0.0398691534861 0.382008467557 0)
(0.0410511333119 0.374203428877 0)
(0.0420774069982 0.366210607137 0)
(0.0429575670403 0.358057973512 0)
(0.0437011424687 0.349771595551 0)
(0.0443175174648 0.341375663019 0)
(0.0448158756524 0.332892527836 0)
(0.0452051270062 0.32434275788 0)
(0.0454938623342 0.3157452035 0)
(0.045690293136 0.307117075883 0)
(0.0458022209953 0.298474035289 0)
(0.0458369949198 0.289830287635 0)
(0.045801499395 0.281198686783 0)
(0.0457021320865 0.272590840616 0)
(0.0455448121655 0.264017217926 0)
(0.0453349786867 0.255487254152 0)
(0.0450776179554 0.2470094531 0)
(0.0447772800688 0.238591483059 0)
(0.0444381215204 0.230240264903 0)
(0.0440639351066 0.22196205128 0)
(0.0436582020586 0.213762495165 0)
(0.0432241291529 0.20564670775 0)
(0.042764703926 0.197619304733 0)
(0.0422827326273 0.189684441812 0)
(0.0417808923603 0.181845839173 0)
(0.0412617643101 0.174106796492 0)
(0.0407278779252 0.16647019878 0)
(0.0401817354064 0.158938515061 0)
(0.0396258447679 0.151513790505 0)
(0.039062733428 0.14419763423 0)
(0.0384949689039 0.136991203442 0)
(0.0379251611511 0.129895186115 0)
(0.0373559712626 0.122909782726 0)
(0.0367901036271 0.116034689062 0)
(0.036230304238 0.109269080348 0)
(0.0356793447023 0.102611598423 0)
(0.0351400124478 0.0960603418711 0)
(0.0346150890834 0.0896128604854 0)
(0.0341073351072 0.0832661536168 0)
(0.0336194652578 0.077016673393 0)
(0.0331541303622 0.0708603319909 0)
(0.0327138924303 0.0647925134889 0)
(0.0323012067071 0.0588080892003 0)
(0.0319184003909 0.0529014367458 0)
(0.0315676604886 0.0470664619882 0)
(0.0312510250288 0.0412966248658 0)
(0.0309703912231 0.0355849713455 0)
(0.030727539363 0.0299241937956 0)
(0.0305241602328 0.0243066935177 0)
(0.0303614730964 0.0187247202778 0)
(0.0302323985849 0.0131648854781 0)
(0.0299833612174 0.00770454945588 0)
(0.0268883634362 0.002280749464 0)
(-0.158166602107 0.0119365634023 0)
(-0.175238196266 0.0414932011092 0)
(-0.17454923537 0.0703050848059 4.13371764246e-27)
(-0.172004223723 0.0992623076562 0)
(-0.16856412801 0.127620429015 0)
(-0.164334481481 0.155263931932 0)
(-0.159380432759 0.182057470066 0)
(-0.153771687139 0.207879627009 0)
(-0.147583116284 0.232624317918 0)
(-0.14089276596 0.256201511335 0)
(-0.133779873087 0.278537230219 0)
(-0.126323081771 0.299573212983 0)
(-0.11859890589 0.319266247241 0)
(-0.110680448002 0.337587246237 0)
(-0.102636384191 0.354520130986 0)
(-0.0945302047373 0.370060576191 0)
(-0.0864197095395 0.384214674223 0)
(-0.0783567385132 0.396997569453 0)
(-0.0703871263041 0.408432113266 0)
(-0.0625508470388 0.418547587171 0)
(-0.0548823220592 0.427378535021 0)
(-0.0474108379446 0.434963735251 0)
(-0.0401610344098 0.441345329439 0)
(-0.0331534034415 0.446568107086 0)
(-0.026404766886 0.450678930212 0)
(-0.0199286931732 0.453726269737 0)
(-0.0137358501463 0.455759820273 0)
(-0.00783428581538 0.456830162369 0)
(-0.00222966090324 0.456988449398 0)
(0.00307456117347 0.456286101231 0)
(0.00807692226343 0.454774522268 0)
(0.0127778851412 0.452504898717 0)
(0.0171794700696 0.449527615361 0)
(0.0212852917998 0.44589248157 0)
(0.0251003139432 0.441648221675 0)
(0.0286307029525 0.4368423721 0)
(0.0318836783285 0.431521116853 0)
(0.0348673792362 0.42572915283 0)
(0.0375907354985 0.419509574976 0)
(0.0400633543571 0.412903778485 0)
(0.0422954088813 0.405951376015 0)
(0.0442975387601 0.398690128663 0)
(0.0460807492133 0.391155890115 0)
(0.0476563192915 0.383382563906 0)
(0.0490357059759 0.375402074041 0)
(0.0502304561922 0.367244349477 0)
(0.0512521140414 0.358937323001 0)
(0.0521121361955 0.350506945018 0)
(0.0528218036819 0.34197721256 0)
(0.0533921436667 0.333370213613 0)
(0.0538338502465 0.324706186462 0)
(0.0541572181639 0.316003593286 0)
(0.0543720788785 0.307279206771 0)
(0.0544877526359 0.298548208014 0)
(0.054513005904 0.289824293563 0)
(0.0544560269906 0.281119789047 0)
(0.0543244087611 0.272445766635 0)
(0.0541251500502 0.263812163427 0)
(0.0538646640987 0.255227897934 0)
(0.0535488042922 0.246700981878 0)
(0.0531828950635 0.238238624893 0)
(0.0527717770564 0.229847329969 0)
(0.0523198542468 0.221532978026 0)
(0.0518311512397 0.213300900343 0)
(0.051309368679 0.205155938186 0)
(0.0507579444409 0.197102489376 0)
(0.0501801091867 0.18914454209 0)
(0.049578943708 0.181285696518 0)
(0.0489574276039 0.17352917544 0)
(0.0483184866863 0.165877824987 0)
(0.0476650298028 0.158334107184 0)
(0.0469999825161 0.150900085822 0)
(0.0463263095301 0.143577407453 0)
(0.0456470332815 0.136367279107 0)
(0.0449652417121 0.129270444422 0)
(0.044284092479 0.122287159592 0)
(0.0436068076072 0.115417170551 0)
(0.0429366654994 0.108659692469 0)
(0.0422769851479 0.102013392628 0)
(0.04163110896 0.0954763773348 0)
(0.0410023797697 0.0890461835724 0)
(0.040394117827 0.0827197756294 0)
(0.039809593999 0.0764935470279 0)
(0.0392520043168 0.0703633276507 0)
(0.0387244428116 0.0643243960105 0)
(0.0382298772407 0.0583714965033 0)
(0.0377711256025 0.0524988616336 0)
(0.0373508378452 0.0467002392366 0)
(0.0369714820253 0.0409689271586 0)
(0.0366353386624 0.0352978165115 0)
(0.0363445002472 0.0296794573868 0)
(0.036100845212 0.0241061245438 0)
(0.0359054957402 0.018569912098 0)
(0.0357494624156 0.0130570775831 0)
(0.0354505437465 0.00764213651936 0)
(0.0317850811673 0.00226728855104 0)
(-0.185048433513 0.0122424493366 0)
(-0.20499641833 0.0429350513722 0)
(-0.204146694878 0.0726702480553 -4.13151677405e-27)
(-0.201103783292 0.102567653568 0)
(-0.196995538379 0.131812419673 0)
(-0.191949455768 0.160278980902 0)
(-0.186046084513 0.18782266415 0)
(-0.179371361168 0.214315125663 0)
(-0.172017097608 0.239645748905 0)
(-0.164078475327 0.263722271165 0)
(-0.155651602067 0.286470568719 0)
(-0.146831350871 0.307834057092 0)
(-0.13770952325 0.327772740297 0)
(-0.128373342488 0.346261995498 0)
(-0.1189042747 0.363291165425 0)
(-0.109377166213 0.378862021916 0)
(-0.0998596887535 0.392987158658 0)
(-0.0904120765502 0.405688370605 0)
(-0.0810871385523 0.416995077959 0)
(-0.0719305130619 0.426942852284 0)
(-0.0629811236787 0.43557209661 0)
(-0.0542717754596 0.44292691934 0)
(-0.045829826055 0.449054221969 0)
(-0.0376778589536 0.454002996609 0)
(-0.0298343019764 0.457823804997 0)
(-0.0223139478279 0.460568393178 0)
(-0.0151283659723 0.462289389115 0)
(-0.00828621255263 0.463040036429 0)
(-0.00179346812136 0.462873933266 0)
(0.00434637156571 0.461844741598 0)
(0.0101321171336 0.460005997929 0)
(0.0155647050532 0.457410667998 0)
(0.0206469652546 0.4541109484 0)
(0.0253834928252 0.450158168052 0)
(0.0297804400623 0.445602424845 0)
(0.0338453264798 0.440492461497 0)
(0.0375868658098 0.434875515495 0)
(0.0410148092068 0.428797196179 0)
(0.0441398005213 0.42230138122 0)
(0.0469732458802 0.41543012855 0)
(0.0495271908887 0.408223601226 0)
(0.0518142068123 0.400720003986 0)
(0.0538472792735 0.392955531209 0)
(0.0556397017202 0.384964326629 0)
(0.0572049683421 0.376778455617 0)
(0.0585566698664 0.368427890954 0)
(0.0597083880755 0.35994051319 0)
(0.0606735935638 0.35134212651 0)
(0.0614655437213 0.342656490958 0)
(0.0620971864365 0.333905371394 0)
(0.0625810674439 0.325108603224 0)
(0.0629292473728 0.316284174195 0)
(0.0631532268357 0.307448321107 0)
(0.0632638854809 0.298615639413 0)
(0.0632714330205 0.289799203339 0)
(0.0631853773016 0.281010693449 0)
(0.0630145065402 0.2722605285 0)
(0.0627668894953 0.263557998041 0)
(0.0624498895729 0.254911392465 0)
(0.0620701952761 0.246328127184 0)
(0.0616338620077 0.237814858156 0)
(0.0611463665379 0.229377586198 0)
(0.0606126685264 0.221021748297 0)
(0.0600372797307 0.212752294442 0)
(0.0594243351755 0.20457374941 0)
(0.0587776667177 0.196490259182 0)
(0.0581008736352 0.188505622594 0)
(0.0573973908889 0.180623308943 0)
(0.0566705504298 0.17284646305 0)
(0.0559236367005 0.165177899249 0)
(0.0551599326492 0.157620086347 0)
(0.0543827580005 0.150175125357 0)
(0.0535954970845 0.142844722221 0)
(0.0528016184937 0.135630157299 0)
(0.0520046847144 0.128532253676 0)
(0.0512083543375 0.121551345779 0)
(0.0504163756472 0.114687249994 0)
(0.0496325743104 0.107939238355 0)
(0.0488608344066 0.101306016542 0)
(0.0481050754524 0.0947857068162 0)
(0.0473692249499 0.0883758366529 0)
(0.0466571889219 0.0820733332814 0)
(0.0459728201464 0.0758745244636 0)
(0.0453198862985 0.0697751454054 0)
(0.0447020378812 0.063770351786 0)
(0.0441227779132 0.057854738774 0)
(0.043585433458 0.0520223660804 0)
(0.0430931306968 0.0462667895439 0)
(0.0426487735068 0.0405810997044 0)
(0.0422550261364 0.0349579688061 0)
(0.0419142953935 0.0293897206717 0)
(0.0416286747793 0.023868377044 0)
(0.0413993007663 0.0183857061759 0)
(0.0412155846279 0.012927568296 0)
(0.040867402989 0.0075653476454 0)
(0.0366388842403 0.00224969761376 0)
(-0.212912140417 0.012603878042 0)
(-0.235828395703 0.0446472515645 0)
(-0.23479012263 0.0754767050148 0)
(-0.231199143453 0.106487017655 0)
(-0.226358151657 0.136778353544 0)
(-0.220419437522 0.166212920276 0)
(-0.213481688243 0.194634980986 0)
(-0.205649836365 0.221908226612 0)
(-0.197035289936 0.247917097768 0)
(-0.187752803624 0.272567233174 0)
(-0.177917508831 0.295784939842 0)
(-0.167642342752 0.31751623895 0)
(-0.157035902787 0.337725546865 0)
(-0.146200716244 0.356394095243 0)
(-0.135231906365 0.373518169982 0)
(-0.124216236439 0.389107233215 0)
(-0.113231519238 0.40318198722 0)
(-0.10234638028 0.415772440939 0)
(-0.0916203588587 0.426916046473 0)
(-0.0811043157051 0.436655977412 0)
(-0.0708410952794 0.445039618548 0)
(-0.0608663657328 0.45211732213 0)
(-0.0512095417052 0.45794145876 0)
(-0.041894688717 0.462565754459 0)
(-0.0329413223422 0.466044867766 0)
(-0.0243650460334 0.468434132702 0)
(-0.0161780145875 0.469789384213 0)
(-0.00838924820722 0.470166794553 0)
(-0.00100484726127 0.469622678011 0)
(0.00597184188212 0.468213219963 0)
(0.0125400907508 0.465994351466 0)
(0.0187014966239 0.463021119299 0)
(0.0244598671378 0.459347719703 0)
(0.0298209847215 0.455027227894 0)
(0.0347923724958 0.450111288853 0)
(0.0393830746925 0.444649999447 0)
(0.0436034567477 0.438691774416 0)
(0.0474650261825 0.432283239845 0)
(0.0509802725233 0.425469144727 0)
(0.0541625234314 0.418292285113 0)
(0.0570258120623 0.410793437946 0)
(0.0595847522331 0.403011303539 0)
(0.0618544174392 0.394982457022 0)
(0.0638502220143 0.386741309824 0)
(0.065587802237 0.37832008263 0)
(0.0670828972851 0.369748791466 0)
(0.0683512292749 0.36105524855 0)
(0.0694083836833 0.352265079544 0)
(0.0702696907648 0.343401758519 0)
(0.070950110608 0.334486661647 0)