/*--------------------------------*- C++ -*----------------------------------*\
| =========                 |                                                 |
| \\      /  F ield         | OpenFOAM: The Open Source CFD Toolbox           |
|  \\    /   O peration     | Version:  v1906                                 |
|   \\  /    A nd           | Web:      www.OpenFOAM.com                      |
|    \\/     M anipulation  |                                                 |
\*---------------------------------------------------------------------------*/
FoamFile
{
    version     2.0;
    format      ascii;
    class       surfaceScalarField;
    location    "700";
    object      phi;
}
// * * * * * * * * * * * * * * * * * * * * * * * * * * * * * * * * * * * * * //

dimensions      [0 3 -1 0 0 0 0];
oriented        oriented;


internalField   nonuniform List<scalar> 
18240
(
-0.000192446668356
0.000192446466261
-0.000393909010872
0.000201461878576
-0.000593834102941
0.000199924974553
-0.0007905500205
0.000196715387422
-0.000982942874708
0.000192392830016
-0.00117002312433
0.000187079653173
-0.00135090552806
0.000180882476318
-0.00152481069886
0.000173904510979
-0.00169106210406
0.000166251582335
-0.00184909181528
0.000158028991705
-0.00199843289097
0.000149341368716
-0.00213872168744
0.000140288020757
-0.00226968486201
0.000130963593409
-0.00239113956576
0.000121453875557
-0.00250297698721
0.000111837979502
-0.0026051625609
0.000102184697165
-0.00269771791639
9.25560643285e-05
-0.00278072278742
8.30039511159e-05
-0.00285429658978
7.35746776718e-05
-0.00291860300566
6.43054582463e-05
-0.00297383170735
5.52297564314e-05
-0.00302020596216
4.63732661539e-05
-0.00305796449883
3.77597882749e-05
-0.00308737205986
2.94065489291e-05
-0.0031087010959
2.13304981012e-05
-0.00312224499255
1.35428700456e-05
-0.00312829920647
6.05590491593e-06
-0.00312717686048
-1.12337691884e-06
-0.00311918857489
-7.98635210389e-06
-0.00310466018839
-1.45294094086e-05
-0.00308391184804
-2.07461455163e-05
-0.00305727744526
-2.66354032724e-05
-0.0030250819861
-3.21929900694e-05
-0.0029876628948
-3.74200515862e-05
-0.00294534588317
-4.23142495716e-05
-0.00289846799164
-4.68787903261e-05
-0.00284735194302
-5.11129817766e-05
-0.00279233087337
-5.5021880345e-05
-0.00273372124644
-5.86062375349e-05
-0.00267184920825
-6.18727289494e-05
-0.0026070221674
-6.48233194852e-05
-0.00253955666031
-6.74660390392e-05
-0.0024697487646
-6.98038285888e-05
-0.00239790329269
-7.18458002885e-05
-0.00232430323576
-7.35956419054e-05
-0.00224924002527
-7.50632835826e-05
-0.00217298228674
-7.62529733174e-05
-0.00209580681623
-7.71752321133e-05
-0.00201796697947
-7.78347354224e-05
-0.00193972395561
-7.82424127663e-05
-0.00186131522456
-7.84033128934e-05
-0.00178298552124
-7.83286565516e-05
-0.00170495592988
-7.80238953692e-05
-0.0016274538877
-7.75004957872e-05
-0.00155068351497
-7.67644470422e-05
-0.00147485390107
-7.58275081985e-05
-0.00140015136233
-7.46964510755e-05
-0.00132676517133
-7.33834755416e-05
-0.001254862502
-7.18964979991e-05
-0.00118461073471
-7.02484108185e-05
-0.0011161558515
-6.84487219947e-05
-0.00104964052075
-6.6511332797e-05
-0.000985186677052
-6.44477957311e-05
-0.000922908779091
-6.22733019904e-05
-0.000862901208657
-6.00017448252e-05
-0.000805246440103
-5.76496736754e-05
-0.000750007718186
-5.52332316585e-05
-0.000697232327564
-5.27699548078e-05
-0.000646949741734
-5.02775354002e-05
-0.000599170639715
-4.77735311423e-05
-0.000553890306735
-4.52758105185e-05
-0.000511084346301
-4.28004793662e-05
-0.000470716592307
-4.03638145593e-05
-0.000432732495952
-3.79789123544e-05
-0.000397070295793
-3.56588582568e-05
-0.000363652909198
-3.34126512534e-05
-0.00033240088349
-3.12492438251e-05
-0.000303223522592
-2.91731475487e-05
-0.000276032388963
-2.71888311322e-05
-0.000250732519576
-2.52961782492e-05
-0.000227235948891
-2.34946465176e-05
-0.000205454244976
-2.17784969992e-05
-0.000185312622392
-2.01399825506e-05
-0.000166746063126
-1.85637539262e-05
-0.000149717163193
-1.70274556995e-05
-0.000134222563226
-1.54920564853e-05
-0.00012032941097
-1.38917961006e-05
-0.000108246308419
-1.20806944845e-05
-9.85886234859e-05
-9.65632281942e-06
-8.95787735565e-05
-9.00751573707e-06
-7.9402380025e-05
-1.01744829771e-05
-6.83548377955e-05
-1.10447129859e-05
-5.59149710019e-05
-1.24368894757e-05
-4.0912046054e-05
-1.49992749227e-05
-2.17482095372e-05
-1.91590447047e-05
-2.17454531111e-05
-0.000203703256762
0.00039614944874
-0.000419436809602
0.000417195058382
-0.00063282404691
0.000413311946001
-0.000842552328843
0.000406443296664
-0.00104754991662
0.000397390182356
-0.00124680119645
0.000386330556409
-0.00143937410923
0.000373455188613
-0.00162444123441
0.000358971258962
-0.00180128605939
0.000343096249884
-0.0019693073869
0.00032604994737
-0.00212801536811
0.000308049243026
-0.00227702936513
0.000289301657659
-0.00241606832899
0.000270002510094
-0.00254494540649
0.000250330611617
-0.00266355547277
0.000230448066866
-0.00277186903929
0.000210497948505
-0.00286991911484
0.000190606240203
-0.00295779623095
0.000170880786854
-0.00303563597501
0.000151414611517
-0.00310361610483
0.000132285351811
-0.00316194530284
0.000113559246536
-0.00321086265291
9.5290434432e-05
-0.00325062758745
7.75251289343e-05
-0.00328152155307
6.03003982238e-05
-0.00330383880524
4.36482848877e-05
-0.00331788988059
2.75939066913e-05
-0.00332399275971
1.21594601175e-05
-0.00332247772331
-2.63836148091e-06
-0.00331367885774
-1.67843841642e-05
-0.00329793999528
-3.02681150805e-05
-0.00327560533223
-4.30798032655e-05
-0.00324702641757
-5.52140405908e-05
-0.00321255263444
-6.66655783445e-05
-0.00317253885083
-7.74334195248e-05
-0.00312733535212
-8.75163474371e-05
-0.00307729621605
-9.69173525236e-05
-0.00302276871617
-0.000105638854414
-0.00296410241636
-0.000113687424961
-0.00290163808663
-0.000121068694062
-0.00283571750458
-0.000127792348364
-0.00276667194173
-0.000133866739673
-0.00269483263663
-0.000139304144185
-0.00262051892017
-0.000144115110804
-0.00254404928799
-0.000148313962856
-0.0024657292415
-0.000151912938693
-0.00238586284794
-0.000154927903319
-0.0023047403919
-0.000157372344153
-0.00222265026788
-0.000159263243716
-0.00213986655826
-0.000160615006935
-0.00205666106137
-0.00016144542514
-0.00197329094551
-0.000161769627178
-0.00189001066904
-0.000161606046543
-0.00180705988819
-0.000160970507882
-0.00172467498081
-0.000159882089473
-0.00164307742111
-0.000158357477559
-0.00156248457269
-0.000156416598619
-0.00148309876245
-0.000154077389303
-0.00140511697596
-0.000151361054245
-0.00132872088566
-0.000148287404843
-0.00125408507286
-0.000144879577886
-0.00118136827195
-0.000141160078476
-0.00111071978633
-0.000137154772123
-0.00104227222764
-0.00013288972123
-0.000976145910832
-0.000128394241606
-0.000912443387408
-0.000123698546124
-0.00085125181192
-0.000118835651479
-0.000792639593252
-0.000113839766545
-0.000736656998411
-0.000108746883711
-0.0006833352269
-0.000103593812391
-0.000632685762352
-9.84174412434e-05
-0.000584702034883
-9.3254385198e-05
-0.000539358096283
-8.81391574589e-05
-0.000496612692276
-8.31045387988e-05
-0.000456407646114
-7.81791468905e-05
-0.000418673702757
-7.33886778245e-05
-0.000383328702242
-6.87533844183e-05
-0.000350284279306
-6.42901163456e-05
-0.000319443804356
-6.0009918991e-05
-0.000290709201726
-5.592040966e-05
-0.000263978893183
-5.20233011133e-05
-0.00023915458516
-4.83163765161e-05
-0.000216139914404
-4.47904253998e-05
-0.000194847796234
-4.14298772967e-05
-0.000175200940156
-3.82082090432e-05
-0.000157140614077
-3.50858061648e-05
-0.000140628372611
-3.20021249437e-05
-0.000125649239306
-2.88690696126e-05
-0.000112163548577
-2.55643231707e-05
-9.98725305448e-05
-2.19455742123e-05
-8.89095430502e-05
-1.99685418319e-05
-7.79291160853e-05
-2.11527499062e-05
-6.61116568924e-05
-2.28596056217e-05
-5.30384200459e-05
-2.55072718057e-05
-3.7457322239e-05
-3.05769886811e-05
-1.87901038577e-05
-3.78222636121e-05
-4.05335779821e-05
-0.000206659507798
0.000602808663486
-0.000424804851794
0.00063534007854
-0.000640777028762
0.000629283811692
-0.000853010366592
0.000618676307849
-0.00106035477161
0.000604734295478
-0.00126175679783
0.000587732264038
-0.00145626377014
0.00056796189055
-0.00164303629375
0.000545743478049
-0.00182135396126
0.000521413673904
-0.00199061741993
0.000495313122289
-0.00215034492693
0.000467776540896
-0.00230016736858
0.000439123843344
-0.00243981925474
0.000409654228649
-0.00256913016062
0.000379641296903
-0.00268801336485
0.000349331153979
-0.00279645656955
0.000318940976298
-0.00289451056781
0.000288660180467
-0.00298228113485
0.000258651229971
-0.0030599190907
0.000229052579357
-0.00312761426197
0.000199980462208
-0.00318558740558
0.000171532482411
-0.0032340863822
0.000143789424293
-0.00327337980843
0.000116818740373
-0.00330375513868
9.06758275684e-05
-0.00332551361204
6.54070481529e-05
-0.00333896976733
4.10502596939e-05
-0.00334444719145
1.76372932162e-05
-0.00334227902044
-4.806222745e-06
-0.00333280402072
-2.62588425927e-05
-0.00331636771715
-4.67039821192e-05
-0.00329331860753
-6.61282229134e-05
-0.00326400965513
-8.45224140281e-05
-0.00322879441182
-0.000101879967704
-0.00318802883466
-0.000118198257669
-0.00314206728277
-0.000133476862134
-0.0030912646169
-0.000147719100128
-0.00303597207573
-0.000160930156454
-0.00297653967318
-0.000173118707844
-0.00291331199332
-0.000184294909282
-0.00284663090228
-0.000194472094013
-0.00277683129729
-0.000203664631353
-0.00270424413484
-0.000211889707929
-0.00262919216722
-0.0002191650887
-0.00255199326217
-0.000225510986999
-0.00247295614465
-0.000230947764261
-0.00239238396055
-0.000235497893793
-0.00231057004407
-0.000239183638591
-0.00222780165386
-0.000242029098603
-0.00214435578204
-0.000244057903669
-0.00206050297496
-0.000245295327569
-0.00197650321273
-0.000245766039817
-0.00189260970541
-0.000245496257001
-0.00180906487214
-0.000244511603255
-0.0017261039866
-0.000242839267484
-0.00164395129564
-0.000240506033601
-0.00156282336256
-0.000237540403411
-0.00148292535967
-0.000233970863015
-0.00140445394097
-0.000229827924155
-0.00132759374756
-0.000225142689256
-0.00125251963129
-0.00021994874155
-0.00117939341272
-0.000214281042724
-0.00110836530324
-0.000208177565593
-0.00103957098695
-0.000201678498368
-0.000973132169365
-0.000194827454015
-0.000909154122445
-0.000187670862984
-0.00084772545568
-0.000180258540464
-0.0007889163768
-0.000172643060941
-0.000732778010086
-0.000164879462823
-0.000679341749218
-0.000157024404437
-0.000628618654614
-0.000149134932353
-0.00058060026562
-0.000141267402322
-0.000535258606065
-0.000133475587858
-0.000492548543648
-0.000125809689125
-0.00045240857174
-0.000118314413892
-0.000414764301669
-0.000111028608167
-0.000379529664421
-0.000103983917409
-0.000346610765654
-9.72052821461e-05
-0.000315906959482
-9.07102142511e-05
-0.00028731446459
-8.45097346244e-05
-0.000260727121821
-7.86076542241e-05
-0.000236039734085
-7.30010698728e-05
-0.000213148863208
-6.76787317359e-05
-0.000191956417513
-6.26199975408e-05
-0.000172371281928
-5.77910957681e-05
-0.000154313943334
-5.31410614824e-05
-0.000137719708031
-4.85943176051e-05
-0.000122544590169
-4.40422444313e-05
-0.000108769598406
-3.9337362202e-05
-9.64028109396e-05
-3.431056451e-05
-8.52491819009e-05
-3.11202767544e-05
-7.35818366879e-05
-3.28180051908e-05
-6.06426996818e-05
-3.57962595136e-05
-4.58416952724e-05
-4.03054794467e-05
-2.95148067264e-05
-4.69010661338e-05
-1.44469928776e-05
-5.28870865253e-05
-5.49789716726e-05
-0.000210263686746
0.00081307205616
-0.000431965089871
0.000857041143491
-0.00065141565056
0.000848734057222
-0.000866951175085
0.000834211511393
-0.00107735638301
0.00081513919913
-0.00128153128074
0.000791906855393
-0.0014784930509
0.000764923372292
-0.00166738565158
0.000734635790133
-0.00184748424873
0.000701512005234
-0.00201819510637
0.000666023715277
-0.00217905079079
0.000628631988704
-0.00232970259378
0.000589775412526
-0.00246991015053
0.000549861585717
-0.00259953031951
0.000509261270513
-0.00271850493175
0.000468305611159
-0.00282684938285
0.000427285278817
-0.00292464115442
0.000386451850964
-0.0030120101024
0.000346020085465
-0.00308912909058
0.000306171529838
-0.00315620675132
0.000267058096698
-0.00321348053164
0.000228806299618
-0.00326121186596
0.000191520809658
-0.0032996813079
0.00015528830481
-0.00332918562353
0.000120180283304
-0.00335003442223
8.62560678717e-05
-0.00336254855957
5.35646389367e-05
-0.00336705767117
2.21467369027e-05
-0.00336389934562
-7.96419120671e-06
-0.0033534170659
-3.67406644815e-05
-0.00333595978248
-6.41607787206e-05
-0.0033118800258
-9.02073816427e-05
-0.00328153363264
-0.000114868175096
-0.00324527784442
-0.000138135000838
-0.00320347114633
-0.000160004161197
-0.00315647133977
-0.000180475739166
-0.00310463549213
-0.000199553971789
-0.0030483180132
-0.000217246510639
-0.0029878707556
-0.000233564786546
-0.00292364114215
-0.000248523180971
-0.0028559724552
-0.000262139375301
-0.00278520205372
-0.000274433448357
-0.00271166187073
-0.000285428231915
-0.00263567673772
-0.000295148368063
-0.00255756508325
-0.000303620700962
-0.00247763736436
-0.000310873331365
-0.00239619693924
-0.000316936067712
-0.00231353859248
-0.00032183950758
-0.00222994953991
-0.000325615560977
-0.00214570802964
-0.000328296582846
-0.00206108442909
-0.000329915972191
-0.00197633988339
-0.000330507376977
-0.00189172742592
-0.000330105369538
-0.00180749067309
-0.000328744749389
-0.00172386489058
-0.0003264612965
-0.00164107569983
-0.000323291203781
-0.00155934001571
-0.00031927191233
-0.00147886472647
-0.000314441709649
-0.00139984740119
-0.000308840647804
-0.00132247489343
-0.000302510334948
-0.00124692369957
-0.000295494916716
-0.00117335842877
-0.000287841053273
-0.00110193169914
-0.00027959889292
-0.00103278244358
-0.000270822147117
-0.000966035288027
-0.000261568891239
-0.00090179876012
-0.000251901531848
-0.000840164240041
-0.000241887145212
-0.000781204323939
-0.000231597016071
-0.000724971693739
-0.000221106158974
-0.000671498129404
-0.00021049210967
-0.000620793903618
-0.0001998334181
-0.000572848070342
-0.000189207696843
-0.000527628986933
-0.000178689336119
-0.000485086222809
-0.000168347427549
-0.000445152320602
-0.000158243555916
-0.000407745926716
-0.000148430612982
-0.000372774139435
-0.000138951605138
-0.000340135832991
-0.000129839861093
-0.000309723666138
-0.000121118925477
-0.000281426756083
-0.000112803512956
-0.000255131936516
-0.000104899567754
-0.000230725652132
-9.74047078785e-05
-0.000208094669486
-9.03072371557e-05
-0.000187127595317
-8.35847845745e-05
-0.000167715606198
-7.72009068143e-05
-0.000149754362005
-7.11002489116e-05
-0.000133146268942
-6.52004256663e-05
-0.000117806674724
-5.93799106146e-05
-0.000103678783144
-5.34633776817e-05
-9.07864107352e-05
-4.72011681042e-05
-7.87462907586e-05
-4.31586054748e-05
-6.65679146909e-05
-4.49943155155e-05
-5.26229153007e-05
-4.97389483606e-05
-3.72538133878e-05
-5.56722453653e-05
-2.33397036493e-05
-6.0812786246e-05
-1.13216203552e-05
-6.49026929024e-05
-6.62994032706e-05
-0.000215079622498
0.00102815137867
-0.000441718386039
0.00108367959396
-0.000665931844691
0.00107294719015
-0.000885960440505
0.00105423979206
-0.00110051339455
0.001029691843
-0.0013084320788
0.000999825235802
-0.00150869412573
0.000965185125577
-0.0017004223253
0.000926363703091
-0.00188288756942
0.000883976976917
-0.00205550624489
0.000838642127732
-0.00221783279706
0.000790958296216
-0.0023695489762
0.000741491359116
-0.00251045070456
0.000690763104076
-0.00264043405821
0.000639244429494
-0.00275948095061
0.000587352336274
-0.0028676456586
0.000535449838302
-0.00296504226706
0.000483848343342
-0.00305183380013
0.000432811525318
-0.00312822267413
0.000382560348833
-0.00319444299614
0.000333278390862
-0.00325075405005
0.000285117369796
-0.00329743540224
0.000238202210237
-0.00333478280699
0.000192635808733
-0.00336310536558
0.000148502978227
-0.00338272304263
0.000105873938752
-0.00339396508527
6.48069183258e-05
-0.00339716841712
2.53503704802e-05
-0.00339267666988
-1.2455587967e-05
-0.0033808389369
-4.85779744737e-05
-0.00336200901933
-8.29902178506e-05
-0.00333654422816
-0.000115671613435
-0.00330480464939
-0.000146607132104
-0.00326715188738
-0.00017578705151
-0.00322394831348
-0.000203206953183
-0.00317555577091
-0.000228867400326
-0.00312233485001
-0.000252773931883
-0.00306464361897
-0.000274936670893
-0.00300283699657
-0.000295370248173
-0.00293726557993
-0.000314093314754
-0.00286827517346
-0.000331128397456
-0.00279620576059
-0.000346501342048
-0.00272139121787
-0.000360241140651
-0.00264415844821
-0.000372379354786
-0.00256482727713
-0.000382949960472
-0.00248370973687
-0.000391988797022
-0.00240111011982
-0.000399533466553
-0.00231732438964
-0.000405622842245
-0.00223264035464
-0.000410297042406
-0.00214733717445
-0.000413597018873
-0.00206168561308
-0.000415564616642
-0.00197594761119
-0.00041624225895
-0.00189037657465
-0.000415673099771
-0.0018052169785
-0.000413900825417
-0.00172070464169
-0.000410969913391
-0.00163706632245
-0.000406925580236
-0.00155451991313
-0.000401814167025
-0.00147327396816
-0.000395683271514
-0.00139352772808
-0.000388582282565
-0.00131547049825
-0.000380562730775
-0.00123928137954
-0.000371678974108
-0.00116512839164
-0.000361988763771
-0.00109316776696
-0.000351554018586
-0.00102354272406
-0.0003404415073
-0.000956382219055
-0.000328723519485
-0.000891799362279
-0.000316478389292
-0.000829889685467
-0.000303790691458
-0.000770729425194
-0.000290751127109
-0.000714373693416
-0.000277455715118
-0.000660855227475
-0.000264004507382
-0.000610183291087
-0.000250499396942
-0.000562343746372
-0.000237041503791
-0.000517299653722
-0.000223727947755
-0.00047499321475
-0.000210648685611
-0.000435348340735
-0.000197883620234
-0.000398273970927
-0.000185500511009
-0.000363667554382
-0.000173553960538
-0.000331418289032
-0.000162085394206
-0.000301409925134
-0.000151123928816
-0.000273522798554
-0.000140687559681
-0.000247635220736
-0.000130784355208
-0.000223624180681
-0.000121413177047
-0.00020136543618
-0.000112563610334
-0.000180733184464
-0.000104214819971
-0.000161599083971
-9.63329110166e-05
-0.000143830921545
-8.88664085536e-05
-0.000127290717848
-8.17387008067e-05
-0.000111833480331
-7.48352814766e-05
-9.73086449695e-05
-6.79864027372e-05
-8.35515299913e-05
-6.09565798991e-05
-7.05273282908e-05
-5.61810678633e-05
-5.72750211677e-05
-5.82447503737e-05
-4.41036927348e-05
-6.29082067924e-05
-3.07686888578e-05
-6.9005066193e-05
-1.90593415587e-05
-7.25202144228e-05
-9.24066610701e-06
-7.47194386565e-05
-7.55390146349e-05
-0.000221248885021
0.00124939996897
-0.000454273001504
0.00131670337184
-0.000684624669514
0.00130329854038
-0.000910421626727
0.00128003642996
-0.00113027747973
0.00124954738666
-0.00134296024943
0.00121250770118
-0.00154739889565
0.00116962347601
-0.00174269197431
0.00112165649475
-0.00192810857199
0.00106939329845
-0.00210308236532
0.001013615657
-0.00226720024845
0.00095507592915
-0.00242018729306
0.000894478169125
-0.00256188960363
0.000832465197459
-0.00269225658663
0.000769611214599
-0.00281132368206
0.000706419255047
-0.00291919647081
0.000643322473919
-0.00301603656102
0.000580688306099
-0.00310204960847
0.000518824473363
-0.00317747538838
0.000457986059736
-0.0032425799327
0.000398382899341
-0.00329764939008
0.000340186827097
-0.00334298548887
0.000283538347448
-0.0033789021709
0.000228552570496
-0.00340572327663
0.000175324208065
-0.00342378085592
0.000123931689648
-0.0034334140532
7.44403376443e-05
-0.00343496819058
2.69047837397e-05
-0.00342879407654
-1.86293690818e-05
-0.00341524731764
-6.21243395387e-05
-0.00339468762341
-0.000103549454361
-0.00336747797076
-0.00014288074016
-0.00333398379292
-0.000180100712529
-0.0032945719679
-0.000215198202609
-0.00324960987797
-0.000248168289596
-0.00319946430102
-0.00027901213833
-0.00314450043843
-0.000307736866645
-0.00308508082188
-0.000334355263825
-0.00302156442092
-0.00035888552645
-0.00295430566541
-0.000381350840447
-0.00288365371539
-0.000401779006943
-0.00280995166038
-0.00042020193641
-0.00273353598919
-0.000436655227984
-0.00265473598139
-0.000451177644785
-0.00257387337327
-0.000463810714024
-0.00249126192348
-0.000474598243351
-0.00240720724589
-0.000483585990224
-0.00232200651375
-0.000490821256395
-0.00223594842083
-0.000496352653054
-0.00214931298557
-0.000500229792118
-0.00206237160307
-0.000502503159457
-0.00197538691274
-0.000503223913992
-0.00188861290635
-0.000502443880241
-0.00180229482247
-0.000500215471249
-0.00171666927279
-0.000496591821348
-0.00163196411838
-0.000491626863131
-0.00154839856124
-0.000485375636791
-0.00146618293114
-0.000477894565999
-0.00138551865847
-0.000469241992242
-0.00130659786299
-0.000459478697905
-0.00122960307331
-0.000448668702336
-0.00115470645689
-0.000436880044353
-0.00108206910217
-0.000424185812714
-0.00101183970528
-0.000410665081427
-0.000944153225627
-0.000396403980804
-0.000879128930296
-0.000381496456773
-0.000816868379022
-0.000366044898758
-0.000757453003171
-0.000350160060221
-0.000700941818087
-0.000333960472876
-0.000647369289331
-0.000317570667564
-0.000596743824505
-0.000301118648807
-0.0005490472787
-0.000284732067576
-0.000504235601685
-0.000268533921984
-0.00046224109643
-0.000252637872084
-0.000422975700887
-0.000237144065901
-0.000386335412132
-0.000222136313043
-0.000352204629229
-0.000207680652764
-0.000320460340503
-0.000193826032913
-0.000290975146398
-0.000180605824933
-0.000263619395193
-0.000168040362629
-0.000238262022756
-0.000156139045616
-0.000214770548457
-0.000144902215417
-0.000193010010508
-0.000134321888137
-0.000172841170811
-0.000124381550793
-0.000154117496512
-0.00011505457916
-0.000136680626422
-0.000106301351475
-0.000120353190353
-9.8064281184e-05
-0.000104928573333
-9.02580950086e-05
-9.01602157729e-05
-8.2753021717e-05
-7.58424582716e-05
-7.52726955451e-05
-6.20305224958e-05
-6.99913750585e-05
-4.86450980016e-05
-7.16283936053e-05
-3.62276074661e-05
-7.53238506494e-05
-2.58406099608e-05
-7.93903288658e-05
-1.61545582922e-05
-8.22045421547e-05
-7.81858091543e-06
-8.30536591604e-05
-8.33567461796e-05
-0.000228916065874
0.00147831573394
-0.000469887585381
0.001557674582
-0.000707862325032
0.00154127295322
-0.0009407973636
0.00151297115442
-0.00116718436496
0.00147593407608
-0.0013857004808
0.00143102351271
-0.00159521691769
0.00137913961576
-0.00179480684043
0.00132124612863
-0.00198374319726
0.001258329377
-0.00216148800485
0.00119136019706
-0.00232767534583
0.00112126301663
-0.00248209047987
0.00104889306342
-0.00262464721589
0.00097502171133
-0.00275536539393
0.000900329187686
-0.00287434978339
0.000825403461197
-0.00298177132469
0.000750743852936
-0.00307785112962
0.000676767974801
-0.00316284742227
0.000603820655148
-0.00323704524887
0.00053218380645
-0.00330074874294
0.000462086343619
-0.00335427552062
0.00039371359119
-0.00339795287699
0.000327215725518
-0.00343211531951
0.000262715076648
-0.00345710314499
0.000200312137961
-0.00347326165577
0.00014009035271
-0.00348094082021
8.21197011269e-05
-0.00348049507022
2.6459287057e-05
-0.00347228311853
-2.68410144372e-05
-0.00345666777776
-7.77393130766e-05
-0.0034340154893
-0.000126201315717
-0.00340469572749
-0.000172200006756
-0.0033690802565
-0.000215715621138
-0.00332754218996
-0.000256735630991
-0.00328045499607
-0.000295254769929
-0.00322819138349
-0.000331274952967
-0.00317112222233
-0.000364805145335
-0.00310961542885
-0.000395861080994
-0.00304403496332
-0.000424464920667
-0.0029747398529
-0.000450644774944
-0.00290208337531
-0.000474434201966
-0.0028264122969
-0.00049587161588
-0.00274806628533
-0.000514999720938
-0.00266737737717
-0.000531864905022
-0.00258466960857
-0.000546516701135
-0.00250025868357
-0.000559007244013
-0.00241445178212
-0.000569390818986
-0.00232754738377
-0.000577723425058
-0.00223983520603
-0.000584062437632
-0.00215159613919
-0.000588466294202
-0.00206310227552
-0.000590994279073
-0.00197461691994
-0.000591706338535
-0.00188639467884
-0.000590662994303
-0.00179868151567
-0.000587925303169
-0.00171171486967
-0.000583554921252
-0.00162572371843
-0.000577614244237
-0.00154092868002
-0.000570166668345
-0.0014575420167
-0.000561276975691
-0.00137576763306
-0.000551011860416
-0.00129580090191
-0.00053944064314
-0.00121782839648
-0.000526636134682
-0.00114202733919
-0.000512675745376
-0.00106856480173
-0.00049764269005
-0.000997596506187
-0.000481627441163
-0.000929265170078
-0.000464729089134
-0.000863698407309
-0.000447056779396
-0.000801006005418
-0.000428730639954
-0.00074127700248
-0.000409882342614
-0.000684576221175
-0.000390654450962
-0.000630941417665
-0.000371198796982
-0.000580380512945
-0.000351672986961
-0.000532870669716
-0.00033223563322
-0.000488358585907
-0.000313040064689
-0.000446763271726
-0.000294227640619
-0.000407980625049
-0.000275921689232
-0.000371889191014
-0.00025822316391
-0.000338356507772
-0.000241209316676
-0.00030724411318
-0.000224934820828
-0.000278411559626
-0.000209435239569
-0.000251718172019
-0.000194730933687
-0.000227023655222
-0.000180831063902
-0.000204186996709
-0.000167736590884
-0.000183064456418
-0.000155442327145
-0.000163506388573
-0.000143937640418
-0.000145352756223
-0.000133206318029
-0.000128426005372
-0.000123226271113
-0.000112518173162
-0.000113970328041
-9.73648310617e-05
-0.000105409707359
-8.25895716506e-05
-9.75266016739e-05
-6.75291694254e-05
-9.03315192053e-05
-5.31980594395e-05
-8.43209073123e-05
-4.10294087407e-05
-8.37954829747e-05
-3.01961812505e-05
-8.6155443159e-05
-2.16077835163e-05
-8.79770581854e-05
-1.36509642389e-05
-9.01598951348e-05
-6.5158093223e-06
-9.01873269933e-05
-8.98717188721e-05
-0.000238253493213
0.00171656893447
-0.000488897341633
0.00180831809142
-0.000736125461605
0.00178850075717
-0.000977688889081
0.00175453426283
-0.0012119256888
0.00171017056605
-0.00143740229031
0.00165649980884
-0.0016529236729
0.00159466069996
-0.00185753943165
0.00152586159709
-0.00205053667235
0.0014513263362
-0.00223142230437
0.00137224555891
-0.00239989808617
0.0012897385397
-0.00255583174067
0.0012048264739
-0.00269922705226
0.00111841679347
-0.00283019521435
0.00103129713872
-0.00294892900455
0.000944137058425
-0.00305568068059
0.000857495358498
-0.00315074395002
0.000771831095858
-0.00323443992947
0.000687516513248
-0.00330710675424
0.000604850536357
-0.00336909232111
0.000524071847638
-0.00342074960921
0.000445370847813
-0.00346243399785
0.000368900119973
-0.00349450206482
0.000294783185991
-0.00351731137895
0.000223121537451
-0.00353122089803
0.000153999999275
-0.00353659162573
8.74906052982e-05
-0.00353378729245
2.36551782584e-05
-0.00352317478223
-3.74532448974e-05
-0.0035051245343
-9.57892268768e-05
-0.00348001031517
-0.000151315138803
-0.00344820885768
-0.000204001007111
-0.00341009916506
-0.000253824787541
-0.00336606159839
-0.00030077260288
-0.00331647679264
-0.000344838904044
-0.00326172448374
-0.00038602651344
-0.00320218229376
-0.000424346501304
-0.00313822454556
-0.000459817908973
-0.00307022113888
-0.000492467311844
-0.00299853653669
-0.000522328264914
-0.00292352887212
-0.000549440648096
-0.00284554919873
-0.000573849962209
-0.00276494087554
-0.000595606598972
-0.00268203908782
-0.000614765126031
-0.0025971704862
-0.000631383605093
-0.0025106529321
-0.000645522964825
-0.00242279533403
-0.000657246439456
-0.00233389755577
-0.000666619075207
-0.00224425039253
-0.000673707314397
-0.00215413558984
-0.000678578643794
-0.00206382591853
-0.000681301324121
-0.00197358526917
-0.000681944176917
-0.0018836688024
-0.000680576460334
-0.00179432309527
-0.000677267803053
-0.00170578635067
-0.000672088248538
-0.00161828856765
-0.000665108375363
-0.00153205178097
-0.000656399568479
-0.00144729019413
-0.000646034405333
-0.00136421037448
-0.000634087256397
-0.00128301121927
-0.000620635060182
-0.00120388393437
-0.000605758384473
-0.00112701157153
-0.000589542715387
-0.00105256846677
-0.000572080080633
-0.000980718942805
-0.000553470872491
-0.00091161570944
-0.000533825917565
-0.000845397253109
-0.000513268499554
-0.000782184727249
-0.000491936225894
-0.000722077824712
-0.000469982119877
-0.000665150355729
-0.00044757478385
-0.000611445556652
-0.000424896491503
-0.000560972131092
-0.000402139498875
-0.000513701856438
-0.000379499280789
-0.000469569576414
-0.00035716609011
-0.000428476604003
-0.000335314893231
-0.00039029694871
-0.00031409614082
-0.000354885967287
-0.00029362959309
-0.000322088983413
-0.00027400229816
-0.00029174859209
-0.00025527178935
-0.000263709119588
-0.000237471740063
-0.000237818557116
-0.000220618927494
-0.000213928204305
-0.000204719136401
-0.000191890681407
-0.00018977206521
-0.000171556645105
-0.000175774458265
-0.000152770869305
-0.000162721615274
-0.000135367693844
-0.000150607744435
-0.000119165197677
-0.000139427046922
-0.000103955953845
-0.000129177878095
-8.94908084891e-05
-0.000119873179218
-7.54515754262e-05
-0.000111564201994
-6.13933308556e-05
-0.000104388196399
-4.6982524996e-05
-9.87301947828e-05
-3.5108031239e-05
-9.56684444769e-05
-2.56668424141e-05
-9.55950981254e-05
-1.78393443951e-05
-9.58031734466e-05
-1.12602289391e-05
-9.67375724011e-05
-5.01778870103e-06
-9.64282992335e-05
-9.4888800118e-05
-0.000249478840018
0.00196604747408
-0.000511733386409
0.00207057233268
-0.00077003279179
0.00204679983652
-0.00102186685704
0.0020063680151
-0.00126538240902
0.00195368580564
-0.00149901317426
0.00189013026848
-0.0017214911261
0.00181713835195
-0.00193184884913
0.00173621902718
-0.00212940468743
0.00164888189051
-0.00231373478046
0.00155657537699
-0.00248463689443
0.00146064039084
-0.00264209069202
0.00136228002047
-0.00278621827717
0.00126254414308
-0.00291724785203
0.00116232649306
-0.00303548222732
0.00106237123245
-0.0031412730255
0.000963285974079
-0.00323500064358
0.000865558554809
-0.00331705958375
0.000769575317031
-0.00338784842299
0.000675639267318
-0.0034477636183
0.000583986961924
-0.00349719628307
0.000494803464656
-0.00353653118397
0.000408235005091
-0.00356614724093
0.000324399265617
-0.00358641897292
0.000243393329429
-0.0035977183708
0.000165299501235
-0.00360041684229
9.01892237446e-05
-0.00359488693022
1.81254631719e-05