/*--------------------------------*- C++ -*----------------------------------*\
| =========                 |                                                 |
| \\      /  F ield         | OpenFOAM: The Open Source CFD Toolbox           |
|  \\    /   O peration     | Version:  v1906                                 |
|   \\  /    A nd           | Web:      www.OpenFOAM.com                      |
|    \\/     M anipulation  |                                                 |
\*---------------------------------------------------------------------------*/
FoamFile
{
    version     2.0;
    format      ascii;
    class       volScalarField;
    location    "404";
    object      p;
}
// * * * * * * * * * * * * * * * * * * * * * * * * * * * * * * * * * * * * * //

dimensions      [0 2 -2 0 0 0 0];


internalField   nonuniform List<scalar> 
9216
(
274.08350796
274.163437906
274.328826451
274.581087678
274.918798559
275.340379364
275.843859128
276.426937561
277.086999008
277.821180414
278.626377865
279.499319972
280.436566224
281.434583449
282.489733306
283.598349794
284.756714422
285.961134028
287.207903489
288.493384097
289.813954518
291.166090554
292.546305542
293.951232434
295.377554866
296.822092408
298.281723455
299.753474162
301.234434093
302.721849107
304.213030614
305.705451987
307.196651826
308.684334942
310.166270289
311.64039437
313.104704627
314.557366085
315.996600531
317.420795573
318.828390285
320.217986264
321.588230449
322.937927691
324.265921417
325.571207287
326.852812465
328.109909858
329.341696713
330.547508985
331.726700025
332.878754555
334.003168139
335.099560275
336.167555378
337.206894403
338.217317982
339.198676048
340.150813748
341.073678456
341.967209015
342.831439553
343.666392597
344.472179078
345.248895752
345.99672084
346.715816217
347.406418113
348.068744444
348.703080107
349.309689837
349.888897655
350.441005561
350.966366813
351.465310787
351.938209783
352.38541033
352.807293341
353.204212114
353.576545703
353.924643818
354.248873354
354.549570384
354.827079823
355.081714666
355.313788854
355.523583945
355.711375397
355.877407086
356.021912021
356.145096838
356.247162284
356.328311398
356.388829632
356.429880073
356.445745003
274.003612557
274.08390406
274.249635508
274.502896495
274.842041974
275.265414254
275.771001235
276.356461298
277.01914735
277.75615596
278.564353832
279.440430072
280.380918779
281.382250343
282.440766872
283.552770267
284.714529036
285.922322447
287.172438659
288.461215336
289.785029895
291.140337542
292.523654802
293.931596095
295.360851743
296.808224055
298.270600833
299.744991662
301.228497682
302.718348488
304.211868648
305.706515615
307.199843575
308.689541502
310.173394522
311.649323323
313.115343057
314.569603137
316.0103442
317.435938382
318.844844565
320.235649012
321.607019221
322.957744807
324.286690311
325.592836245
326.875231208
328.133033006
329.365460443
330.571834414
331.751529737
332.904016098
334.028810264
335.125516758
336.193780765
337.233328361
338.243920404
339.225392131
340.177608263
341.100501758
341.994030329
342.858214102
343.693093728
344.498766671
345.275347053
346.023000316
346.741904917
347.432285114
348.09437461
348.728447255
349.334782741
349.913695034
350.465500231
350.990542582
351.489164637
351.96173075
352.408599635
352.830145321
353.226732223
353.598733533
353.946508938
354.270420451
354.570812886
354.848027183
355.102383737
355.334193274
355.543743146
355.731305844
355.897128287
356.04143791
356.164434255
356.266289871
356.347135531
356.40702202
356.445777357
356.461615592
273.83744423
273.918883533
274.086146129
274.341708812
274.683895828
275.111003327
275.620959498
276.211353196
276.879467779
277.622325022
278.436721894
279.319275379
280.266456402
281.274631384
282.340089934
283.459080833
284.627832166
285.84258121
287.099587145
288.395155479
289.725644323
291.087484544
292.477180923
293.891329298
295.32661386
296.779822373
298.247840605
299.727666402
301.216401936
302.711267102
304.209590003
305.708819964
307.206516559
308.700362049
310.188149039
311.667792786
313.137317538
314.594868431
316.038696705
317.467171252
318.878762849
320.272055382
321.645729279
322.998572455
324.32946313
325.637380574
326.921387529
328.180640809
329.414373529
330.621905644
331.802626194
332.956003816
334.08156919
335.17892556
336.247731549
337.287711673
338.298639646
339.280348863
340.232716287
341.155672821
342.049187817
342.913279252
343.747998881
344.553442075
345.329733613
346.077037061
346.795541181
347.485468721
348.147063413
348.780598075
349.386362203
349.964669278
350.515844974
351.040233626
351.538187091
352.010070349
352.456251074
352.877104387
353.273003204
353.644322181
353.991428912
354.314687116
354.614448777
354.891056631
355.144837316
355.376103219
355.58514669
355.772241237
355.937636699
356.081559425
356.204207476
356.305747751
356.386306651
356.445950467
356.484599409
356.502629924
273.581971326
273.664696364
273.834353586
274.093516211
274.440447635
274.873367916
275.390111912
275.988163014
276.664693985
277.416612356
278.24060344
279.133174905
280.09069629
281.109438521
282.185606508
283.315371428
284.49489532
285.720355925
286.987963785
288.293980668
289.634730517
291.006612959
292.406109665
293.829794441
295.274336377
296.736507714
298.213184809
299.701354581
301.198113948
302.700675314
304.206364808
305.712626999
307.217022148
308.717230244
310.211047205
311.696388273
313.17128329
314.633879423
316.082435577
317.515324495
318.931026402
320.328130563
321.705328286
323.061414039
324.395277969
325.7059067
326.99237553
328.253849041
329.489573151
330.698875645
331.881158245
333.035897178
334.162635394
335.260983263
336.330611051
337.371249793
338.382684113
339.364753285
340.317344429
341.240393743
342.133880072
342.997826243
343.83229298
344.637380259
345.413221493
346.159984818
346.877867488
347.567096975
348.227925525
348.860630987
349.465511484
350.04288592
350.593088743
351.116470106
351.613390741
352.084221777
352.529339756
352.94912615
353.343962582
353.714230086
354.060304609
354.382556083
354.681344275
354.957017743
355.209910099
355.440338898
355.648602345
355.83497809
355.99972026
356.143057884
356.265191719
356.366291397
356.446491197
356.505884118
356.544448515
356.562951551
273.236114652
273.320486643
273.493429501
273.757539929
274.110988135
274.551883257
275.077928304
275.686459944
276.374496235
277.138786859
277.975861856
278.88207926
279.853668703
280.886771964
281.977478041
283.121854664
284.315974146
285.55593618
286.837885547
288.158027786
289.512640607
290.898084384
292.310809194
293.747361904
295.204390397
296.678648567
298.166998809
299.666415739
301.173987549
302.686918857
304.202531195
305.718265035
307.231679537
308.740453969
310.242386479
311.735394687
313.217513687
314.686895875
316.141808152
317.580631028
319.001855091
320.404079492
321.786007809
323.146446027
324.484297944
325.798562795
327.088330368
328.352778419
329.591167656
330.802839099
331.987209091
333.143766724
334.272069007
335.371738476
336.44245862
337.483971746
338.49607472
339.478617128
340.431497356
341.354661026
342.248097399
343.111838026
343.945953422
344.750551848
345.525776159
346.271802629
346.988837882
347.677117649
348.336903703
348.968482473
349.572161917
350.148269945
350.697151195
351.219165251
351.714683337
352.184086336
352.627761438
353.046100011
353.439494267
353.808335042
354.153008553
354.473894166
354.77136132
355.04576736
355.297454683
355.526748695
355.733955222
355.919358577
356.083219191
356.225771654
356.347222402
356.447747895
356.527492799
356.586568878
356.62497964
356.643572082
272.798093551
272.884554794
273.061728408
273.332218151
273.694065163
274.145227704
274.683232261
275.305221126
276.008008275
276.788136752
277.641934105
278.565564926
279.555078713
280.606452681
281.715628659
282.878544633
284.091160639
285.349480119
286.64956671
287.987557783
289.359674669
290.762230924
292.191638362
293.644412154
295.117174461
296.606657814
298.109707457
299.623283809
301.144464062
302.67044402
304.198539098
305.726185448
307.250940377
308.770483048
310.282613846
311.785254176
313.276445178
314.754346678
316.217235092
317.663501602
319.091649315
320.500290769
321.888144469
323.254031865
324.596873422
325.915685228
327.209574775
328.477737365
329.719451767
330.934076592
332.12104599
333.279866127
334.410111067
335.511419482
336.58349081
337.626082287
338.639005457
339.622123548
340.575348355
341.498637956
342.391993928
343.255459343
344.089116244
344.893083825
345.667516058
346.412599946
347.128553188
347.815622394
348.474080684
349.104225772
349.706377437
350.280875412
350.828076694
351.348353229
351.84208906
352.309677832
352.751519826
353.168019337
353.559581656
353.926610395
354.269504511
354.588655651
354.8844453
355.157242242
355.40739989
355.635253931
355.841119898
356.025291024
356.188036057
356.329597338
356.450188948
356.54999523
356.629170211
356.687837262
356.726009341
356.744541676
272.265633426
272.354682477
272.53711444
272.815533077
273.187810719
273.651708372
274.204523803
274.843149376
275.564138388
276.363771993
277.238122918
278.183114492
279.194573311
280.268274997
281.399982624
282.585478325
283.820588416
285.101203073
286.423291185
287.782911516
289.176220742
290.599479376
292.049055922
293.521430062
295.013194964
296.521059303
298.041848866
299.572508146
301.110101664
302.651815295
304.194957272
305.736958972
307.275375506
308.807886242
310.33229424
311.8465258
313.348629358
314.836774087
316.309247941
317.764455426
319.200914863
320.617255437
322.012213811
323.384630614
324.733446578
326.057698644
327.356515813
328.629115047
329.874797021
331.092942009
332.2830057
333.444515234
334.577065231
335.68031411
336.753980451
337.797839687
338.811720872
339.795503784
340.749116121
341.672530996
342.565764513
343.428873592
344.261953826
345.065137522
345.838591713
346.582516277
347.29714197
347.982728489
348.639562403
349.267955066
349.868240349
350.440772342
350.985922862
351.504078913
351.995639989
352.461015327
352.900621038
353.314877232
353.704205059
354.069023783
354.409747826
354.726783894
355.020528121
355.291363331
355.539656367
355.765755579
355.9699884
356.152659111
356.314046733
356.454403106
356.573951211
356.672884086
356.751363986
356.809521525
356.847374595
356.865771138
271.635914842
271.728108934
271.916933776
272.204985975
272.589921524
273.06924882
273.639974505
274.298675205
275.041577513
275.864637227
276.763613468
277.73413564
278.771761696
279.872027055
281.030484312
282.242734361
283.504449964
284.811392923
286.159426086
287.544521362
288.962764778
290.410359501
291.883627526
293.379010639
294.893071029
296.422491866
297.964077942
299.514756492
301.071578106
302.631717732
304.192475544
305.751277674
307.305676854
308.85335291
310.392112146
311.919886861
313.434734208
314.934834667
316.418489972
317.884120692
319.330263316
320.755567058
322.15879025
323.538796557
324.894550872
326.225115134
327.529643933
328.807380144
330.057650445
331.279860956
332.473492859
333.638098231
334.773295925
335.878767739
336.954254698
337.999553663
339.014514089
339.999035122
340.953062849
341.876587868
342.769642964
343.632301078
344.464673292
345.266907045
346.03918429
346.781719781
347.494759236
348.178577545
348.833476789
349.459784244
350.057850157
350.62804548
351.17075936
351.686396584
352.175374806
352.638121736
353.075072169
353.486664999
353.873340136
354.235535452
354.5736837
354.888209498
355.179526354
355.448033805
355.694114639
355.918132285
356.120428317
356.301320166
356.461098976
356.600027727
356.718339593
356.816236602
356.893889013
356.951433936
356.98889265
357.00710374
270.90551129
271.001477787
271.197967193
271.497556652
271.897627595
272.395367587
272.987416114
273.669954821
274.438805357
275.289524436
276.217490791
277.217981697
278.286237405
279.417513248
280.60711992
281.85045325
283.143014965
284.480426241
285.85843563
287.272922953
288.71990041
290.195512033
291.696032267
293.21786436
294.757538933
296.311713017
297.877169622
299.45081785
301.029693417
302.610959484
304.191907297
305.769957323
307.342659857
308.907695303
310.462873887
312.006135026
313.535546178
315.04930116
316.545717965
318.023236091
319.480413444
320.915922814
322.328548046
323.717179882
325.080811605
326.418534482
327.729533114
329.013080701
330.268534335
331.495330292
332.692979473
333.861062935
334.999227651
336.107182451
337.184694252
338.231584523
339.24772608
340.233040128
341.187493642
342.111096956
343.003901661
343.865998647
344.697516367
345.498619157
346.269505687
347.010407354
347.721586713
348.403335754
349.055974138
349.679847216
350.275323948
350.842794582
351.382668214
351.895370117
352.381338964
352.841023857
353.274881289
353.683371976
354.066957665
354.426097888
354.76124675
355.072849736
355.361340601
355.627138348
355.870644339
356.092239557
356.292282024
356.471104424
356.629011932
356.766280235
356.883153841
356.979844888
357.056531885
357.113357883
357.150349067
357.168334717
270.07031344
270.170768192
270.376368181
270.689652302
271.107653481
271.627152916
272.244328547
272.95487019
273.754100718
274.63709121
275.59876373
276.633978913
277.737607032
278.904582684
280.129944537
281.408862154
282.736652333
284.108787331
285.520897254
286.968768483
288.448339792
289.955697358
291.487069634
293.03882272
294.607456644
296.189602752
297.78202221
299.381605516
300.985372772
302.590474503
304.194192294
305.793940354
307.387266292
308.971851355
310.545510335
312.106190961
313.651972669
315.181064826
316.691804335
318.182652756
319.652192891
321.099124981
322.522262489
323.920527626
325.292946578
326.638644615
327.956841037
329.246844116
330.508045998
331.739917723
332.942004315
334.113920094
335.255344157
336.366016178
337.445732445
338.494342291
339.511744793
340.497885899
341.452755817
342.376386798
343.268851134
344.130259477
344.960759267
345.760533373
346.529798719
347.268804999
347.977833254
348.65719442
349.307227649
349.928298517
350.520796946
351.085134984
351.621744278
352.131073415
352.613584994
353.069752588
353.500057505
353.9049855
354.28502336
354.640655509
354.972360569
355.280608007
355.565854826
355.82854239
356.069093373
356.287908883
356.485365769
356.661814148
356.817575122
356.95293878
357.068162432
357.163469029
357.23904619
357.295044204
357.331494432
357.349216922
269.125434102
269.231205243
269.447584895
269.777043889
270.216171919
270.761234386
271.407828876
272.151033509
272.985558644
273.905887498
274.906397993
275.981462945
277.12552754
278.333165416
279.5991158
280.918305129
282.28585652
283.697090536
285.14752004
286.632841622
288.148925419
289.691804774
291.257666708
292.842843877
294.443808349
296.057167334
297.679660728
299.308160225
300.939669606
302.57132581
304.200399841
305.824298852
307.440567458
309.046887853
310.64108006
312.221101336
313.785044922
315.331138095
316.857739594
318.363336412
319.846540088
321.306082484
322.740811198
324.149684619
325.531766769
326.886221921
328.212309168
329.509376889
330.776857307
332.014261074
333.221172066
334.39724232
335.542187306
336.655781437
337.737854
338.788285421
339.807003986
340.793982926
341.749237974
342.672825236
343.564839471
344.425412599
345.254712497
346.052941872
346.82033728
347.557168063
348.263735286
348.940370438
349.587434033
350.205313873
350.79442314
351.355198121
351.888095743
352.393590762
352.872172789
353.324343039
353.750610966
354.151490719
354.527497556
354.879144176
355.206937099
355.511373047
355.792935459
356.052091093
356.289286811
356.504946538
356.699468432
356.873222287
357.026547175
357.1597493
357.273100122
357.366834979
357.44115149
357.496207384
357.532041247
357.549463372
268.0650867
268.17714722
268.406261279
268.754787644
269.218748459
269.793751626
270.474662745
271.2557983
272.131117246
273.094393588
274.139361031
275.259826665
276.449753921
277.703317509
279.014934859
280.379279012
281.791278053
283.246105438
284.739164997
286.266073401
287.822642314
289.404861649
291.008885
292.631017799
294.267708491
295.915542684
297.571240005
299.231653178
300.893768726
302.554708694
304.211732202
305.862238238
307.503767851
309.134004145
310.750772958
312.352042365
313.935921345
315.500657695
317.044635159
318.566369912
320.064506408
321.537812741
322.985175546
324.405594582
325.798177025
327.162131631
328.496762745
329.801464344
331.075714075
332.319067452
333.531152189
334.711662828
335.860355621
336.977043842
338.061593454
339.113919305
340.13398174
341.121783795
342.077368791
343.000818486
343.892251544
344.751822446
345.579720569
346.376169531
347.141426519
347.875781686
348.579557333
349.253107005
349.896814225
350.511091017
351.09637601
351.653132272
352.181844734
352.683017355
353.157169938
353.604834745
354.02655286
354.422870442
354.794334834
355.141490662
355.464875907
355.76501806
356.042430358
356.297608178
356.531025602
356.7431322
356.934350039
357.105070959
357.255654068
357.386423561
357.497666768
357.589632359
357.662529197
357.71652416
357.751663198
357.768746157
266.882429546
267.001939735
267.246112508
267.617128074
268.11027635
268.720321354
269.441201071
270.266281123
271.188598415
272.201073681
273.296682476
274.468582538
275.710199515
277.015276655
278.377895529
279.792475418
281.253758201
282.756784656
284.296866628
285.869558458
287.470629862
289.096041819
290.741926305
292.404570406
294.08040488
295.76599702
297.458047263
299.153388824
300.848989426
302.54195419
304.2295284
305.909101291
307.578209381
309.234536384
310.875914479
312.500323869
314.105891399
315.690888223
317.253726638
318.792956108
320.307258667
321.795443701
323.256442317
324.689301299
326.093176855
327.467328143
328.811110759
330.123970181
331.405435312
332.655112134
333.87267761
335.057873832
336.210502574
337.330420232
338.417533303
339.471794372
340.493198731
341.481781541
342.437615661
343.360809957
344.251508191
345.109888253
345.936161786
346.730573925
347.493403199
348.224961304
348.925592799
349.595674459
350.235614388
350.845850644
351.426849543
351.979103429
352.503128131
352.999459922
353.468652222
353.911271912
354.327895487
354.719104949
355.085483648
355.427612018
355.746063364
356.041399677
356.314167604
356.564894561
356.794085068
357.002217326
357.189740049
357.357069582
357.504587318
357.632637337
357.74152436
357.831512225
357.902822106
357.955630281
357.989992098
358.006695833
265.569363778
265.697729843
265.959767018
266.357379016
266.884900964
267.536005054
268.303446519
269.179399511
270.155768656
271.224450726
272.377535198
273.607443376
274.907011854
276.269529958
277.688742536
279.158828908
280.674367511
282.230293535
283.821854993
285.444570693
287.094192395
288.766672324
290.458136769
292.164865972
293.883280313
295.609932346
297.341503925
299.074807257
300.806788577
302.534532807
304.255268386
305.966372742
307.665376181
309.349962455
311.017970484
312.667394004
314.296380036
315.903226285
317.486377525
319.044421144
320.576081913
322.080216173
323.555805486
325.001949948
326.417861209
327.802855374
329.156345793
330.477835922
331.766912215
333.023237248
334.24654302
335.436624654
336.593334441
337.716576454
338.80630168
339.862503876
340.885216048
341.874507741
342.830482971
343.753278918
344.643065156
345.500043468
346.324447958
347.11654549
347.8766361
348.60505344
349.302164892
349.968371459
350.604107106
351.209837719
351.786059424
352.333296477
352.852098539
353.343037563
353.806704179
354.243703791
354.654652327
355.040171827
355.400885853
355.737414885
356.050371686
356.340356794
356.607954123
356.853726793
357.078213186
357.281923295
357.465335362
357.62889285
357.773001696
357.898027928
358.004295556
358.092084628
358.161630007
358.21311918
358.246616854
358.262898638
264.116269604
264.255223298
264.538565822
264.967777389
265.535933903
266.235281411
267.057056619
267.991934606
269.030428457
270.163210403
271.381343264
272.676426282
274.040666984
275.466895637
276.948539298
278.479571131
280.05444731
281.668040674
283.315576956
284.992577094
286.694807255
288.418237348
290.159008125
291.913406967
293.677852043
295.448884341
297.2231664
298.997486109
300.768763647
302.534058282
304.29057766
306.035684532
307.766900215
309.48190767
311.178552906
312.854844692
314.508952845
316.139205196
317.744083469
319.322218152
320.872382593
322.393486375
323.884568223
325.34478847
326.773421334
328.169847014
329.533543793
330.864080141
332.161106981
333.424350102
334.653602885
335.848719356
337.00960775
338.136224609
339.22856961
340.286681121
341.310632651
342.300530126
343.256510118
344.178738838
345.067411963
345.922755
346.745024209
347.534507699
348.291526704
349.016436633
349.709627934
350.371526394
351.002592996
351.603323024
352.174244624
352.715916578
353.228925564
353.713882733
354.17141988
354.602185101
355.0068382
355.386045777
355.740476239
356.070794682
356.377657859
356.661709209
356.923574094
357.163855263
357.383128616
357.581939289
357.760798096
357.920178328
358.060512916
358.182191891
358.285560189
358.370916047
358.438509129
358.488538329
358.521079777
358.536894937
262.511656747
262.663368319
262.972305313
263.439304381
264.05575812
264.812030582
265.697394338
266.70063061
267.81054226
269.016344476
270.307924939
271.675985229
273.112085648
274.608619887
276.158745257
277.756289864
279.395652769
281.071707498
282.779714926
284.515247975
286.274128788
288.052377886
289.846174872
291.651830268
293.465768325
295.284520132
297.104725588
298.92314182
300.736655181
302.542292346
304.337233622
306.118822199
307.884567871
309.632151456
311.3594263
313.064417923
314.745321918
316.400500381
318.028477052
319.627931446
321.197692041
322.736728787
324.244145027
325.719169085
327.161145591
328.569526764
329.943863655
331.283797516
332.589051264
333.859421199
335.094768962
336.295013942
337.460126146
338.590119788
339.68504761
340.74499619
341.770082194
342.760449787
343.716269044
344.637735493
345.52507049
346.378522488
347.198368744
347.984917484
348.73851002
349.459522801
350.148368945
350.805499297
351.431402641
352.026605215
352.591669282
353.127190982
353.633797316
354.112142532
354.562903826
354.986776627
355.384469437
355.756698446
356.104181941
356.427634697
356.727762373
357.005256077
357.260787131
357.49500215
357.708518455
357.901919889
358.075753041
358.230523887
358.366694803
358.484682027
358.584853437
358.667526527
358.732967187
358.781387564
358.812875079
358.82817567
260.741696042
260.908934866
261.248906073
261.761467232
262.435728288
263.259542348
264.219622532
265.302349033
266.494425521
267.783347336
269.157680593
270.607178614
272.122774155
273.696489484
275.321301504
276.990990929
278.699994929
280.443274415
282.216200623
284.014461518
285.833986231
287.670885416
289.521405803
291.381898515
293.248801148
295.118633502
296.988005088
298.853630993
300.712351559
302.561150171
304.397171066
306.217732007
308.02032767
309.802635159
311.5625155
313.298013008
315.007352618
316.688935477
318.341333234
319.963281167
321.553670389
323.111539224
324.636064063
326.126549827
327.582420302
329.003208429
330.388546689
331.738157596
333.05184437
334.329481793
335.571007382
336.776412935
337.945736669
339.079056062
340.176481654
341.238151895
342.264229276
343.254897717
344.210361365
345.130844624
346.016593424
346.867877386
347.684992774
348.46826576
349.218055841
349.934758896
350.618809808
351.270684163
351.890899149
352.48001327
353.038625146
353.567371169
354.066922348
354.53798021
354.981272116
355.397545898
355.787564164
356.152098209
356.491921829
356.80780502
357.100507788
357.370774109
357.619326189
357.84685907
358.054035683
358.24148236
358.409784828
358.5594847
358.691076421
358.805004596
358.901661736
358.981386637
359.044462508
359.091114885
359.121444572
359.136180202
258.789580185
258.975951381
259.353982843
259.922035866
260.666075705
261.570568151
262.618867817
263.794303604
265.081011981
266.464483416
267.931837589
269.471878123
271.074992107
272.732958964
274.438721883
276.186159181
277.96987797
279.785039952
281.62722087
283.492299852
285.376373202
287.275687356
289.186588038
291.105485029
293.028834058
294.953136924
296.8749579
298.790951333
300.697892848
302.592706849
304.472490971
306.334530066
308.176299588
309.99547131
311.789914526
313.557694983
315.29707127
317.006489297
318.684575424
320.330128501
321.942110818
323.519638218
325.061969605
326.568496169
328.038730519
329.472295946
330.868915842
332.228403325
333.550651015
334.835621013
336.083335095
337.293865328
338.467325216
339.603861706
340.703648207
341.766878953
342.793764796
343.784530696
344.739414799
345.658669242
346.542562333
347.391382074
348.20544045
348.985078333
349.7306703
350.442629218
351.121409928
351.767512021
352.381481238
352.963909666
353.515434484
354.036735577
354.528531918
354.991577072
355.426653793
355.834568066
356.216142585
356.572209969
356.903605743
357.211161321
357.49569705
357.758015509
357.998895149
358.219084393
358.419296261
358.600203574
358.762434727
358.906570043
359.033138618
359.142615701
359.235420483
359.311914089
359.372398453
359.417114322
359.44617569
359.460292203
256.634636813
256.844936075
257.270283639
257.906730137
258.735836716
259.737450275
260.890492663
262.174413638
263.570232453
265.061148392
266.632765678
268.273024765
269.971946681
271.721288561
273.514183747
275.344812537
277.208126022
279.099628276
281.015211546
282.951033685
284.903425988
286.868821881
288.843701157
290.824550377
292.807843801
294.790050005
296.76766204
298.737243651
300.695476649
302.639206256
304.565470934
306.471513421
308.354786265
310.212954577
312.043897018
313.845704254
315.616673972
317.355303644
319.060282319
320.730481405
322.364944235
323.962874579
325.523624616
327.046682612
328.531660746
329.978283223
331.386374741
332.755849228
334.086698734
335.378982424
336.632815714
337.8483597
339.025811153
340.165393376
341.267348291
342.331930031
343.359400386
344.350026205
345.304078953
346.221836281
347.103585538
347.949628791
348.760289063
349.535917073
350.276898118
350.983658287
351.656669787
352.296454694
352.903587238
353.478694192
354.022453769
354.53559282
355.018882839
355.47313469
355.899192531
356.297926901
356.670227392
357.016994877
357.339133639
357.637543398
357.913111533
358.16670555
358.399166035
358.61130015
358.803875806
358.977616542
359.133197082
359.271239588
359.392310508
359.496917911
359.585509309
359.658470159
359.716122123
359.758721198
359.78639664
359.799836985
254.251069975
254.491834974
254.97695521
255.698861522
256.63284097
257.752382454
259.030535143
260.441829828
261.963547858
263.576352224
265.264377376
267.014935105
268.81800909
270.665684205
272.551608536
274.47053964
276.417991874
278.389979114
280.382835528
282.393092122
284.417387907
286.452399103
288.494778587
290.541108008
292.587874133
294.631483888
296.668315553
298.694794503
300.707468894
302.703076023
304.678579308
306.631173863
308.558286478
310.457574732
312.326928332
314.164467667
315.968536514
317.737692126
319.470695467
321.166500937
322.824244282
324.443229198
326.022913355
327.562894263
329.062895533
330.522753842
331.942406483
333.321879316
334.661274814
335.960760048
337.220554573
338.440918466
339.622140814
340.764529146
341.868400202
342.934072581
343.961861526
344.952076296
345.905020082
346.820992684
347.700295484
348.543238602
349.350149371
350.12138173
350.85732545
351.558414755
352.225135352
352.8580297
353.457699949
354.024808791
354.560078078
355.064285706
355.538260791
355.982877634
356.399048551
356.787716017
357.149844169
357.486410037
357.798394533
358.08677347
358.352508719
358.596539757
358.819775769
359.023088478
359.20730582
359.373206478
359.521515291
359.652899438
359.767965304
359.867255978
359.951249237
360.020355751
360.074918189
360.115209504
360.141373939
360.154076885
251.606131996
251.886527628
252.448583537
253.278950576
254.34382704
255.607890268
257.036405631
258.597709701
260.264692839
262.015357642
263.832625885
265.703655016
267.618941046
269.571423647
271.555716086
273.567507564
275.603137228
277.659313302
279.732940275
281.821015051
283.920556993
286.028545485
288.141852242
290.257175331
292.370999571
294.479621709
296.579234032
298.666048769
300.73642067
302.786943461
304.81449232
306.816214374
308.789511059
310.73203188
312.641679569
314.51661102
316.35522553
318.156149962
319.918227693
321.640508131
323.322232709
324.962818916
326.56184395
328.119028241
329.634219898
331.107380557
332.538572226
333.927944679
335.275722845
336.582193751
337.847693
339.072591042
340.257279774
341.402160042
342.507630727
343.574079977
344.601879171
345.591379968
346.542914772
347.456800531
348.333345764
349.172860195
349.975666393
350.742112306
351.472583864
352.167516344
352.827403899
353.45280629
354.044352854
354.602743383
355.128746557
355.623195954
356.086984384
356.521056592
356.92640095
357.304040224
357.655021896
357.980408065
358.281265248
358.558654114
358.813619454
359.047180566
359.260322378
359.453987497
359.629069337
359.786406356
359.92677733
360.050897589
360.159416041
360.252912791
360.331897307
360.396807262
360.448007123
360.485786672
360.510307106
360.522208121
248.657388681
248.990692569
249.653955162
250.62438369
251.854807922
253.297672371
254.907973924
256.64635056
258.480703322
260.386510684
262.346106815
264.347346333
266.382106296
268.444941301
270.532028235
272.640420493
274.76757178
276.911066717
279.068492114
281.237386703
283.415215621
285.599327719
287.786874804
289.974704482
292.15927532
294.336694538
296.502852031
298.653627442
300.785094801
302.893663469
304.97611661
307.029568492
309.051401457
311.03925443
312.991043738
314.904973045
316.779510772
318.613364908
320.405472405
322.154991498
323.861284982
325.523900392
327.142550736
328.717094831
330.247519505
331.733924614
333.17650961
334.575560882
335.931438879
337.244564057
338.515401674
339.744445836
340.932203581
342.079179878
343.185864366
344.25272073
345.280179332
346.268633835
347.218442037
348.129931206
349.00340745
349.839168774
350.637520559
351.398792539
352.123355478
352.811636483
353.464131318
354.081413245
354.664137674
355.213043151
355.728948911
356.212749944
356.66540984
357.087952128
357.481450301
357.847017132
358.185793426
358.498936567
358.787608844
359.052965789
359.296144643
359.518253361