/*--------------------------------*- C++ -*----------------------------------*\
| =========                 |                                                 |
| \\      /  F ield         | OpenFOAM: The Open Source CFD Toolbox           |
|  \\    /   O peration     | Version:  v1906                                 |
|   \\  /    A nd           | Web:      www.OpenFOAM.com                      |
|    \\/     M anipulation  |                                                 |
\*---------------------------------------------------------------------------*/
FoamFile
{
    version     2.0;
    format      ascii;
    class       volScalarField;
    location    "962";
    object      pa;
}
// * * * * * * * * * * * * * * * * * * * * * * * * * * * * * * * * * * * * * //

dimensions      [0 2 -2 0 0 0 0];


internalField   nonuniform List<scalar> 
9216
(
915.060607178
914.75517177
914.123305766
913.159520075
911.869226468
910.258485252
908.334844989
906.107214757
903.585732356
900.781630388
897.707104382
894.375173677
890.799547066
886.994485046
882.974671847
878.755087584
874.350893966
869.777322338
865.04957741
860.18274419
855.191711212
850.091096755
844.895190783
839.617899023
834.272701478
828.872612002
823.430150761
817.957316804
812.465571963
806.965824185
801.468420416
795.983140745
790.519198869
785.085239792
779.689347896
774.339053766
769.04134575
763.802681011
758.629000985
753.525746438
748.497875576
743.549882108
738.685815087
733.909299126
729.223555162
724.631422028
720.135377426
715.737560117
711.439790431
707.243592408
703.150213246
699.160644779
695.275641372
691.495740216
687.821277289
684.252406084
680.789111405
677.431226296
674.178443604
671.030331034
667.986340581
665.045821796
662.208029321
659.472134583
656.837231769
654.30234825
651.866449394
649.528448054
647.287208633
645.14155595
643.090278935
641.132139144
639.265874384
637.490207078
635.803848023
634.205504713
632.693885345
631.267707113
629.925700482
628.66661739
627.489235723
626.392367297
625.374862413
624.435617424
623.573579182
622.78775194
622.077201394
621.441060436
620.878532028
620.388892251
619.971488413
619.625731396
619.351067268
619.146877101
619.011389741
618.951756807
915.365060301
915.057896511
914.424381158
913.456237342
912.159737009
910.541225555
908.608419719
906.370372438
903.837362511
901.020766811
897.932926515
894.587007659
890.996862531
887.176891525
883.141911156
878.907026699
874.48751453
869.898711597
865.155916458
860.274298423
855.268818628
850.154158996
844.944662391
839.654279669
834.296526582
828.884446342
823.430580522
817.946944477
812.445009751
806.935690128
801.429333741
795.935716646
790.464042994
785.022948206
779.620503932
774.264225665
768.96108377
763.717516186
758.539443129
753.4322834
748.400971933
743.44997879
738.583328671
733.804621764
729.117054404
724.523441002
720.026235134
715.627551816
711.329188351
707.13264629
703.039151416
699.049674801
695.1649514
691.385499706
687.711638555
684.143505001
680.681069078
677.32414969
674.072427238
670.925457481
667.882682107
664.943440685
662.106979389
659.372461302
656.738973622
654.20553664
651.771109824
649.434599837
647.194865893
645.050727175
643.000967817
641.044344014
639.179588927
637.405419702
635.720542481
634.123659463
632.613474111
631.188698283
629.848057643
628.5902988
627.414194846
626.318552389
625.302217073
624.364080332
623.50308471
622.718230124
622.008578767
621.373260634
620.811477824
620.32250935
619.905715723
619.560547029
619.286560976
619.083491618
618.951608702
618.892074623
915.998412786
915.686519959
915.047241765
914.070392711
912.762343857
911.129577539
909.180004815
906.922899063
904.368776817
901.529264629
898.416959301
895.045284048
891.428344368
887.580786526
883.517661181
879.254294114
874.806165581
870.188799378
865.417662215
860.508073729
855.475126937
850.333618946
845.097991123
839.782278314
834.400065992
828.964455004
823.488032672
817.982850197
812.460405102
806.931628993
801.406879368
795.895935514
790.407998444
784.951694239
779.535079608
774.165650991
768.850355376
763.595604011
758.407287098
753.290790971
748.251015694
743.292394774
738.418914789
733.634136802
728.941217228
724.342930185
719.841688869
715.439568132
711.138325675
706.939424179
702.844051701
698.853142753
694.967397346
691.187300516
687.513139587
683.945021783
680.482889425
677.126535421
673.875616305
670.729665583
667.688104678
664.750254275
661.915343408
659.182519077
656.550853821
654.019353967
651.586966097
649.252584334
647.015056098
644.873188818
642.825755343
640.871500401
639.009145948
637.237397608
635.554950152
633.960494041
632.452721123
631.030331317
629.692038511
628.436577326
627.262709133
626.169228775
625.154970547
624.218814711
623.359693263
622.57659606
621.868576217
621.234755732
620.674330569
620.186576186
619.770853574
619.426617687
619.153431033
618.95099861
618.819454678
618.756683925
916.972095032
916.654755965
916.006473012
915.016024434
913.689976566
912.035043542
910.059430982
907.772750065
905.185885846
902.310853424
899.160648507
895.749095007
892.090693047
888.200470892
884.093842913
879.786476111
875.294166181
870.632724685
865.817877319
860.865173993
855.789909865
850.607057457
845.331208403
839.97652469
834.556697695
829.084914944
823.573832944
818.035556271
812.481621427
806.922985919
801.370021172
795.832509892
790.319646998
784.84004307
779.401731425
774.012178123
768.678293625
763.406447167
758.202482289
753.071734564
748.019049988
743.04880514
738.164927564
733.370917554
728.669869755
724.064495817
719.557146495
715.149834461
710.844256207
706.641814336
702.543638626
698.550607179
694.663366065
690.882348806
687.207794148
683.639763497
680.178156517
676.822726314
673.573092762
670.428755412
667.38910463
664.453432405
661.620941554
658.890754736
656.261922093
653.733428891
651.304202031
648.973116745
646.739002418
644.600648766
642.556811344
640.606217553
638.747572136
636.979563247
635.300868138
633.710159417
632.206111
630.787404591
629.452735867
628.200821116
627.03040356
625.940260003
624.929207137
623.996108031
623.139878226
622.359491901
621.653987617
621.022474069
620.464135533
619.978237493
619.564132495
619.221266624
618.949187063
618.747555077
618.61641665
618.55309
918.290142556
917.965798259
917.305206701
916.296133635
914.945444792
913.260191868
911.248990481
908.92191895
906.290371359
903.366898931
900.165047092
896.69919077
892.984371625
889.036140703
884.870408897
880.503307552
875.951060405
871.229868108
866.355805419
861.344731365
856.212211557
850.973452234
845.643244633
840.235918952
834.765306331
829.244708233
823.686871864
818.103971366
812.507593724
806.908729447
801.317767153
795.744492345
790.198090023
784.687148492
779.219668364
773.803073525
768.444224062
763.149431497
757.924475473
752.774622206
747.704643925
742.718839654
737.821056562
733.014712296
728.3028175
723.68799896
719.172522581
714.758316636
710.446994503
706.239877319
702.138015798
698.142211654
694.253037877
690.470858363
686.795846171
683.228000939
679.767164805
676.413037394
673.165189297
670.023074626
666.986042151
664.053345627
661.224152881
658.497554268
655.872570132
653.348157858
650.923218186
648.596601351
646.36711274
644.233518574
642.194551322
640.248915306
638.395292186
636.632346744
634.958732631
633.373098465
631.874093916
630.460376115
629.130616053
627.883505216
626.717762162
625.632139238
624.625429157
623.696471595
622.844159573
622.067445753
621.365348451
620.736957502
620.181439864
619.698045072
619.28611052
618.945066192
618.67443857
618.473855845
618.343322526
618.280078562
919.959205138
919.625998116
918.949640971
917.916674047
916.534373317
914.810245409
912.75344724
910.374669111
907.685969133
904.700595653
901.432806709
897.8976893
894.110982629
890.088908843
885.848013925
881.405020906
876.776696713
871.979733609
867.030645323
861.945677739
856.740733225
851.431307608
846.032438253
840.558661881
835.023980507
829.44183437
823.82508064
818.185977318
812.536171609
806.886692616
801.247947904
795.62972397
790.041190784
784.490906356
778.986828033
773.536324681
768.146191101
762.822664486
757.571442404
752.397702309
747.306122131
742.300901979
737.385786548
732.564088282
727.838710885
723.212173245
718.686633354
714.263912285
709.945517802
705.732667681
701.626312301
697.627156602
693.735681007
689.95216141
686.276687884
682.709182253
679.249414235
675.897016368
672.651497481
669.512254974
666.478585756
663.549696128
660.724710516
658.002679387
655.382586273
652.863354241
650.443851769
648.122898332
645.899269666
643.771702989
641.738902117
639.799542722
637.952277642
636.195742454
634.528561173
632.949352262
631.45673479
630.049334866
628.725792202
627.484766863
626.324946072
625.245051106
624.243844137
623.320135041
622.472788054
621.700728276
621.002947928
620.378512369
619.826565785
619.346336546
618.937142095
618.598392815
618.329594745
618.130353589
618.000653448
617.937777379
921.987725415
921.643596982
920.947777331
919.885300372
918.463969734
916.691876822
914.578868513
912.136410628
909.377398798
906.315956937
902.96723444
899.347205371
895.472474284
891.36009234
887.02738653
882.491804072
877.770773309
872.881581815
867.8412717
862.666551578
857.373723979
851.97862665
846.496585759
840.94237904
835.330206916
829.673670044
823.985752037
818.278806646
812.564548929
806.854050264
801.157737198
795.485393834
789.846168259
784.248578714
778.700527247
773.20931346
767.781650667
762.423683881
757.141009299
751.938695125
746.821303463
741.792913173
736.857143462
732.017178103
727.275790068
722.635366452
718.097933468
713.66518138
709.338489127
705.118948513
701.007387707
697.004393931
693.110335114
689.325380402
685.649519355
682.082579783
678.624244094
675.274064193
672.03147488
668.895805833
665.866292218
662.942084059
660.122254469
657.405806914
654.791681635
652.278761429
649.865876915
647.551811471
645.335305963
643.215063423
641.189753759
639.258018627
637.418476491
635.669727966
634.010361449
632.438959049
630.954102821
629.554381271
628.238396094
627.004769115
625.852149351
624.779220154
623.784706363
622.867381394
622.026074203
621.259676068
620.567147116
619.947522539
619.399918435
618.92353719
618.517672282
618.181711989
617.915142046
617.717550296
617.588906906
617.526572787
924.386095613
924.028786359
923.309501141
922.211450133
920.743097195
918.913267108
916.732667691
914.213727525
911.37037667
908.217815069
904.772282114
901.050831266
897.071114791
892.851182451
888.409296971
883.763768279
878.932807729
873.934402844
868.786212337
863.505480489
858.108969196
852.612905475
847.032941742
841.38412616
835.6808805
829.936983503
824.165558377
818.379063722
812.589287688
806.807345423
801.043680693
795.30806964
789.609629617
783.956827997
778.357497657
772.818852992
767.347508054
761.94949637
756.630292115
751.394832486
746.247541036
741.192351896
736.232734669
731.371719916
726.611925033
721.955580398
717.404555583
712.960385471
708.62429604
704.397229661
700.279869643
696.272663865
692.375847267
688.589463061
684.913382463
681.347322903
677.890864568
674.543465309
671.304473878
668.173141585
665.148632433
662.230031901
659.416354471
656.706550135
654.099510015
651.594071326
649.189021842
646.883104075
644.675019305
642.563431634
640.54697217
638.62424346
636.793824231
635.054274505
633.404141104
631.841963556
630.366280387
628.975635761
627.668586424
626.443708899
625.299606855
624.234918581
623.248324496
622.338554596
621.504395788
620.74469901
620.058386083
619.44445621
618.901992047
618.430165264
618.028241487
617.695584167
617.431657657
617.236032712
617.108665304
617.047008156
927.166837539
926.793854038
926.046718876
924.906467679
923.382380515
921.48419043
919.223666521
916.614417627
913.67163461
910.411821225
906.852529883
903.01210674
898.909451518
894.563795916
889.994503309
885.220891573
880.262080114
875.136861438
869.863596807
864.46013464
858.943749385
853.331097787
847.638188911
841.880364141
836.072283761
830.227917504
824.360537536
818.482713373
812.606308976
806.742482543
800.901690689
795.093694117
789.327568644
783.611717122
777.953887353
772.361190604
766.840122073
761.396582791
756.035902717
750.762864819
745.581730028
740.496262942
735.509758189
730.625067316
725.844626085
721.170482016
716.604322
712.147499798
707.801063204
703.565780645
699.442166985
695.430508293
691.530885349
687.743195686
684.067173994
680.502410753
677.048369017
673.704399308
670.469752649
667.343591789
664.325000759
661.412992889
658.606517487
655.904465386
653.305673579
650.808929171
648.412972875
646.116502254
643.918174914
641.816611804
639.810400774
637.898100495
636.078244827
634.349347678
632.709908381
631.158417591
629.693363661
628.313239469
627.016549626
625.801817987
624.667595406
623.612467614
622.635063161
621.734061307
620.908199792
620.156282377
619.477186091
618.869868091
618.333372063
617.866834056
617.469487718
617.140668525
616.879817262
616.686486079
616.560614307
616.499756514
930.344812425
929.953376144
929.173534392
927.983759436
926.394335675
924.416114879
922.062166064
919.347534446
916.288934825
912.904436028
909.213155835
905.234971222
900.990249373
896.499603038
891.783672603
886.862936402
881.757550181
876.487215961
871.071079645
865.527655669
859.874775694
854.129557181
848.308386793
842.42691337
836.500045748
830.541952042
824.566058673
818.585049111
812.610863387
806.65469974
800.727020964
794.837562531
788.995345088
783.208690863
777.485244196
771.831993007
766.255291931
760.760886601
755.353938821
750.039052517
744.820300399
739.701251286
734.684998026
729.774185954
724.971041734
720.277402487
715.694744996
711.224214809
706.866654986
702.622634269
698.492474352
694.476276029
690.573943901
686.785209443
683.109652181
679.546718863
676.09574049
672.755947202
669.526481013
666.406406523
663.394719709
660.490355019
657.692190978
654.999054564
652.409724625
649.92293461
647.537374866
645.251694774
643.064504918
640.974379504
638.979859172
637.079454332
635.271649095
633.554905868
631.927670597
630.38837868
628.935461475
627.567353373
626.282499336
625.079362821
623.956433985
622.912238077
621.945343893
621.054372207
620.238004052
619.49498878
618.824151781
618.224401788
617.694737677
617.234254698
616.842150061
616.51772754
616.260401409
616.069702838
615.945551199
615.885612681
933.937476008
933.524455931
932.706466512
931.458982373
929.793523793
927.722318992
925.260025407
922.423429751
919.231079455
915.702910153
911.85989203
907.723699774
903.316411104
898.660236627
893.77728267
888.689348144
883.417756234
877.983221183
872.405749596
866.704574268
860.898116787
855.003973289
849.038916345
843.01890543
836.95909932
830.873865779
824.776786802
818.680660263
812.597500537
806.538540894
800.514241288
794.534299394
788.607664046
782.742557721
776.946500001
771.226332572
765.588245443
760.037803833
754.579975582
749.219159033
743.959211461
738.803478072
733.754821588
728.815652355
723.987958909
719.273338837
714.673029791
710.187940417
705.818680963
701.565593253
697.428779741
693.408131267
689.503353241
685.713989907
682.039446479
678.479008924
675.031861296
671.697100568
668.47374901
665.360764207
662.357046939
659.461447094
656.672767969
653.989769199
651.411168694
648.935643873
646.561832538
644.288333653
642.113708325
640.036481161
638.055142233
636.168149727
634.373933411
632.670898922
631.057432915
629.531909014
628.092694523
626.738157814
625.466676288
624.276644803
623.166484452
622.134651551
621.179646732
620.300024001
619.494399653
618.761460918
618.099974255
617.508793179
616.986865555
616.53324026
616.147073192
615.827632327
615.574301951
615.386589211
615.264390299
615.205492908
937.965193215
937.527019795
936.664716442
935.350272378
933.596733641
931.418025658
928.830747586
925.853794739
922.507911817
918.815251266
914.798962915
910.482818608
905.890875279
901.047177537
895.975500083
890.699130359
885.240692209
879.622011259
873.864021929
867.986714194
862.009115579
855.949300926
849.824419972
843.650731754
837.443635999
831.217695034
824.986644539
818.763395849
812.560035009
806.387823934
800.257208428
794.177832537
788.158553042
782.20746989
776.331953154
770.538672345
764.833626142
759.222172107
753.709056339
748.298443277
742.993945852
737.798656171
732.715176796
727.745652619
722.891803254
718.154955831
713.536078014
709.03581103
704.654502399
700.392238074
696.248873556
692.224063628
688.317290267
684.5278884
680.855069145
677.297940359
673.855524288
670.526772333
667.310576929
664.205780733
661.211183311
658.325545642
655.547592763
652.876014963
650.309467893
647.846572007
645.4859117
643.226034503
641.065450617
639.00263307
637.036018667
635.164009899
633.384977874
631.697266319
630.099196642
628.589073988
627.16519423
625.825851768
624.56934803
623.394000519
622.298152281
621.280181631
620.338511992
619.471621709
618.678053694
617.956424784
617.305434687
616.723874428
616.210634193
615.764710504
615.385212699
615.071368364
614.822527971
614.638171515
614.518168517
614.460438032
942.451628737
941.984182807
941.070495023
939.678518687
937.823195278
935.520552643
932.789569465
929.651694934
926.130303678
922.250171471
918.037000455
913.516994769
908.71648677
903.66161179
898.37802962
892.890692206
887.223658674
881.399959554
875.441511529
869.369081663
863.202296136
856.959683622
850.658739093
844.315991515
837.947060401
831.566691695
825.188771706
818.826325333
812.491508584
806.195605252
799.949033939
793.761364374
787.641336904
781.596901555
775.635249975
769.762850035
763.98547956
758.308258895
752.735682691
747.271651396
741.919503
736.68204531
731.561588944
726.559981022
721.678639531
716.918588202
712.280491783
707.764691418
703.371239876
699.099936191
694.950359279
690.921900012
687.013791257
683.225135397
679.55492895
676.002083987
672.565446179
669.243809409
666.035927047
662.940520048
659.95628219
657.081882789
654.315967351
651.657156606
649.104044421
646.655195059
644.309140253
642.064376485
639.919362857
637.872519816
635.922228975
634.06683417
632.304643843
630.633934751
629.052956997
627.559940273
626.153101232
624.830651823
623.590808467
622.431801869
621.351887323
620.349355321
619.422542284
618.569841265
617.789712456
617.080693363
616.441408518
615.870578616
615.367028999
614.929697387
614.557640844
614.250041714
614.006212491
613.825602479
613.708051262
613.651618824
947.424234624
946.922702305
945.94942291
944.467692107
942.494826882
940.049477325
937.153550063
933.831591642
930.110120841
926.01700779
921.580929065
916.830893669
911.795833863
906.504253628
900.983929542
895.261662542
889.363082639
883.312511013
877.132883814
870.845739006
864.471261527
858.028374062
851.534852752
845.00744241
838.461947185
831.913281852
825.375483391
818.861695999
812.384148102
805.954140798
799.582048673
793.277340358
787.048610638
780.90362589
774.849365211
768.892061395
763.03723893
757.289749221
751.653803981
746.133007985
740.730392053
735.448446791
730.289157248
725.254038509
720.344172117
715.56024324
710.902578399
706.371183551
701.965782166
697.685852864
693.530665997
689.499318592
685.590766953
681.803856358
678.137347328
674.589938109
671.160283141
667.847007481
664.648717249
661.564006387
658.591460053
655.729655154
652.977158512
650.332523283
647.794284182
645.360952122
643.031008797
640.802901716
638.675040092
636.645791932
634.71348257
632.876394798
631.132770667
629.480814949
627.918700202
626.444573319
625.056563407
623.752790824
622.531377186
621.390456123
620.3281846
619.34275457
618.432404775
617.595432489
616.830205028
616.135170872
615.508870246
614.949945051
614.457148047
614.029351211
613.665553237
613.364885887
613.126619255
612.95016846
612.835339506
612.780342465
952.914864543
952.373543165
951.331021151
949.745235636
947.636515489
945.026810116
941.941648031
938.40933916
934.460156431
930.125606149
925.437812188
920.428997402
915.131045546
909.575128126
903.791386116
897.808663862
891.654299538
885.353981322
878.931679545
872.409661211
865.808584245
859.147655586
852.444822962
845.716960005
838.980004874
832.249027401
825.538226761
818.860886102
812.229318949
805.654840092
799.147760191
792.717413799
786.372210471
780.11969125
773.966582282
767.918843456
761.981710704
756.159732994
750.4568063
744.876206727
739.420624253
734.092197693
728.892551034
723.822830969
718.88374553
714.075603665
709.398355699
704.851634423
700.434796524
696.146963739
691.987063077
687.953865222
684.046020326
680.262090355
676.600577394
673.059947385
669.638649098
666.335128233
663.147836837
660.075238318
657.115808581
654.268033808
651.530405608
648.901414197
646.379540386
643.963247037
641.650970689
639.441113903
637.332038857
635.322062545
633.409453869
631.592432764
629.869171431
628.237797604
626.696399772
625.243034168
623.875733345
622.592516098
621.391398506
620.270405842
619.227585113
618.261017966
617.368833745
616.549222454
615.800447438
615.120857582
614.508898886
613.963125285
613.482208612
613.064947614
612.710276021
612.417269431
612.185150807
612.013297138
611.901477411
611.848060377
958.960556031
958.372589681
957.249314668
955.542526995
953.276429037
950.477165685
947.174773121
943.402141787
939.194017428
934.586156999
929.614651181
924.315376426
918.723542403
912.873306687
906.797439883
900.527037671
894.091288538
887.517314805
880.830107788
874.052573476
867.205691877
860.308771662
853.379756031
846.435514667
839.492052901
832.56459325
825.667535659
818.814350005
812.017465858
805.288211562
798.63680773
792.072408449
785.603184135
779.236397721
772.978474233
766.835058391
760.811060283
754.910692179
749.137500997
743.494400405
737.983704618
732.607164455
727.366005387
722.260967186
717.292344847
712.460030744
707.76355799
703.202144947
698.774740497
694.48006948
690.316677308
686.282972714
682.377267462
678.597812016
674.942826305
671.410525019
667.999137099
664.706919413
661.532164787
658.473204861
655.528408333
652.696175381
649.974929039
647.363104466
644.859136954
642.46144958
640.168441256
637.97847593
635.889873477
633.900902751
632.009777067
630.214652286
628.513627491
626.904748188
625.386011827
623.955375451
622.610765167
621.350087205
620.171240233
619.072128671
618.05067669
617.104842615
616.232633455
615.432119298
614.701447333
614.038855292
613.44268415
612.911389923
612.443554485
612.037895316
611.693274167
611.40870438
611.183356797
611.016566416
610.908061275
610.856376822
965.604541273
964.96155066
963.743578485
961.895421473
959.446350694
956.427911752
952.875787171
948.82844718
944.325945077
939.408968266
934.118126773
928.493407817
922.573735423
916.396588994
909.997655329
903.410510623
896.666349003
889.793789204
882.818798212
875.764766656
868.652752394
861.501874596
854.329795146
847.153180566
839.988021522
832.849723071
825.752980584
818.711550859
811.738040983
804.843798243
798.038909371
791.33227836
784.731761649
778.244275634
771.875886923
765.631878971
759.516798491
753.534487898
747.688112631
741.980190071
736.412622762
730.986735624
725.703316116
720.562656232
715.564595847
710.708567441
705.993642529
701.4185799
696.981875432
692.681812658
688.516512906
684.483983444
680.582162165
676.808957367
673.162281601
669.640078796
666.240344358
662.961138174
659.800590879
656.756903917
653.828344208
651.013234335
648.309939324
645.716851068
643.232371543
640.854895818
638.582795876
636.414406053
634.348010815
632.381835344
630.514039288
628.742713753
627.065881546
625.481500443
623.987469267
622.581636426
621.261810587
620.025773131
618.871292058
617.796136978
616.798094867
615.87498624
615.024681412
614.245116563
613.534309305
612.890373546
612.311533438
611.796136275
611.342664232
610.949744869
610.616160408
610.340855612
610.122943899
609.96171393
609.856849079
609.807058802
972.897575321
972.189128122
970.859265324
968.844880113
966.182013638
962.909259525
959.069415795
954.707742122
949.870543876
944.604159439
938.954274231
932.965435734
926.680669529
920.14112645
913.385725036
906.45078784
899.369700808
892.17264925
884.886498289
877.53488488
870.138565491
862.716012059
855.284169671
847.85920058
840.456988873
833.093225829
825.783106607
818.540869211
811.379409103
804.310095671
797.342799861
790.486066557
783.747329411
777.133069046
770.648926655
764.29977694
758.089769171
752.022347343
746.100265975
740.325613048
734.6998425
729.223813521
723.897833725
718.721704067
713.694764561
708.815941392
704.083796308
699.496578915
695.052281757
690.748697274
686.583474854
682.554175933
678.65832495
674.893454365
671.257142266
667.747041746
664.360901574
661.096578285
657.952040079
654.925363352
652.014722823
649.218376497
646.534646715
643.961898696
641.498517869
639.142887319
636.893366504
634.748272283
632.70586304
630.764326526
628.921771712
627.176224758
625.525628947
623.967848319
622.500674583
621.1218369
619.829014092
618.619848853
617.49196357
616.442977348
615.470523848
614.572269553
613.745932075
612.989298142
612.30024096
611.676736679
611.116879747
610.618897004
610.181160402
609.802198329
609.480705493
609.215551237
609.005786024
608.85064795
608.749771481
608.702046711
980.899717158
980.11254947
978.649165693
976.437677091
973.523390665
969.954233246
965.782009959
961.060202406
955.842387214
950.181260234
944.128087186
937.73237535
931.041614086
924.100985587
916.952999576
909.637055863
902.188983249
894.640640357
887.019690796
879.349673808
871.650469025
863.939182001
856.231344768
848.542147058
840.887276938
833.282972321
825.745342567
818.289467113
810.928710124
803.674440962
796.536160065
789.521867162
782.638413339
775.891729099
769.286955726
762.828515853
756.52013805
750.364849822
744.364971291
738.522129053
732.837289849
727.310804487
721.942456131
716.731508937
711.676755841
706.776567243
702.028942897
697.431568336
692.981876212
688.677111227
684.514396208
680.490796165
676.603377391
672.849259047
669.225655498
665.729908278
662.35950736
659.112101836
655.98550075
652.977665053
650.086692056
647.31079383
644.648271244
642.097485229
639.656826997
637.324688715
635.099436142
632.979384395
630.962777886
629.047775054
627.232438254
625.514728805
623.892506922
622.363536061
620.925491115
619.575969866
618.312507144
617.132591205
616.033681861
615.013229935
614.068697573
613.197578982
612.397421123
611.665843954
611.000559844
610.399391847
609.860290626
609.381349835
608.960819903
608.597120139
608.288849233
608.034794078
607.833936375
607.685458961
607.588943432
607.543466377
989.682771877
988.799619258
987.17486652
984.727155398
981.514847722
977.598412073
973.041063924
967.906130149
962.255461926
956.148700568
949.643053743
942.79327232
935.651612645
928.267656744
920.687935902
912.955372458
905.108615022
897.181396178
889.202088448
881.193665888
873.174271683
865.158506896
857.159347612
849.190247756
841.266639325
833.405892641
825.62584397
817.943061371
810.371644641
802.922865485
795.605542453
788.426801316
781.392681227
774.508425236
767.778600608
761.207149896
754.797381938
748.551910194
742.472606283
736.560603516
730.816338879
725.239607506
719.829619806
714.585055149
709.504110291
704.584547732
699.823748737
695.218773731
690.766431032
686.463352213
682.306070081
678.291094675
674.414982905
670.674398551
667.066160335
663.587276955
660.234968728
657.006676285
653.900057256
650.912972413
648.043462894
645.289720499
642.650052993
640.122846519
637.706527082
635.39952308
633.200230585
631.106982927
629.118025735
627.231498249
625.445421215
623.757691272
622.166081323
620.668246162
619.261732513
617.943992702
616.712401272
615.56427398
614.496888692
613.507507703
612.593400988
611.751869846
610.980270411
610.276036503
609.636701405
609.059918182
608.543478326
608.085328535
607.683585564
607.336549154
607.042713091
606.800774329
606.609639857
606.468432797
606.376677396
606.333641874
999.333721545
998.331530044
996.508595486
993.773941967
990.204986082
985.879264755
980.87434916
975.26509049
969.122412105
962.513189161
955.500645643
948.144848806
940.503021368
932.629525433
924.575461253
916.387914224
908.108959409
899.774604493
891.413928806
883.0487533
874.694221938
866.360612466
858.056407849
849.792000774
841.582591314
833.447945523
825.409193948
817.485525096
809.69214592
802.039911168
794.536311203
787.187028958
779.99698184
772.970586048
766.11177916
759.424029279
752.910275194
746.572755746
740.412892009
734.431286708
728.627795184
723.001601213
717.551289266
712.274904653
707.16999871
702.23367243
697.462628047
692.853232481
688.401595191
684.103657581
679.955287376
675.952370688
672.090895552
668.367022511
664.777139696
661.317901219
657.986248859
654.779417775
651.694927731
648.730561663
645.884333872
643.154450144
640.539262358
638.037219975
635.646820947
633.366564302
631.194906632
629.130224272
627.170782712
625.314714111
623.560003326
621.904482087
620.345830527
618.881584884
617.50915017
616.225816743
615.028779942
613.91516221
612.882037228
611.926455604
611.045471582
610.236170137
609.495693786
608.8212685
608.210228179
607.660037284
607.168311356
606.732835264
606.351579158
606.022712131
605.74461374
605.515883482
605.335347547
605.2020645
605.115497197
605.075109831
1009.95966051
1008.80683173
1006.73556573
1003.64640526
999.645837718
994.834780867
989.308461614
983.154640605
976.453551188
969.279002009
961.699811531
953.781098117
945.585093032
937.171344319
928.596258991
919.912046746
911.165212527
902.394828713
893.63093168
884.893545838
876.193010737
867.532353488
858.912168338
850.337308211
841.822957364
833.393983701
825.077812866
816.898199499
808.871864057
801.008398775
793.312638423
785.787837732
778.437447076
771.264985788
764.273754511
757.466810218
750.846865339
744.415888759
738.174858357
732.123787426
726.261877306
720.587630238
715.098945106
709.793185776
704.667212573
699.717412491
694.939744807
690.329805677
685.882917582
681.594238924
677.458881568
673.472025134
669.629018733
665.925464864
662.357282662
658.920749819
655.612523535
652.429641912
649.369507786
646.429857624
643.608718232
640.904354327
638.315209889
635.839846371
633.476880634
631.224925525
629.082535662
627.04816083
625.120108778
623.296518654
621.575345403
619.954354562
618.431126026
617.003065014
615.667418415
614.421295082
613.26168911
612.185505568
611.189588346