/*--------------------------------*- C++ -*----------------------------------*\
| =========                 |                                                 |
| \\      /  F ield         | OpenFOAM: The Open Source CFD Toolbox           |
|  \\    /   O peration     | Version:  v1906                                 |
|   \\  /    A nd           | Web:      www.OpenFOAM.com                      |
|    \\/     M anipulation  |                                                 |
\*---------------------------------------------------------------------------*/
FoamFile
{
    version     2.0;
    format      ascii;
    class       volScalarField;
    location    "114";
    object      pa;
}
// * * * * * * * * * * * * * * * * * * * * * * * * * * * * * * * * * * * * * //

dimensions      [0 2 -2 0 0 0 0];


internalField   nonuniform List<scalar> 
9216
(
1007.08807313
1006.78054492
1006.09529489
1005.07501707
1003.71447787
1002.01331948
999.975487096
997.602213314
994.899368076
991.869026116
988.518627862
984.850976906
980.875002333
976.594227533
972.019046722
967.153723678
962.010102
956.5932601
950.916519848
944.985864922
938.816100251
932.41422238
925.796585714
918.971281431
911.956227446
904.760759798
897.404402293
889.897835344
882.262151342
874.509434856
866.662310324
858.734265833
850.749306613
842.722141673
834.67791854
826.632483879
818.611700444
810.632120859
802.719797943
794.891438511
787.172598644
779.579491649
772.136376074
764.858179881
757.766927833
750.875440197
744.202703562
737.758644084
731.558401939
725.608372967
719.919303815
714.493647218
709.337513551
704.449350549
699.830743407
695.476397929
691.383836157
687.544619651
683.952967166
680.598108511
677.471859669
674.561989881
671.858848167
669.349609079
667.024003811
664.869336969
662.875382379
661.030057259
659.323645766
657.745079626
656.285484998
654.934970878
653.685661182
652.528898818
651.457850159
650.465101032
649.544846431
648.690783161
647.898065808
647.161455913
646.476749163
645.839434085
645.256373792
644.740649632
644.295997627
643.913404306
643.584356184
643.309924122
643.09357791
642.930643592
642.813900142
642.732617958
642.676787103
642.642021773
642.624162862
642.617839737
1007.40002695
1007.09210887
1006.42270682
1005.40509712
1004.04355826
1002.34033174
1000.29895285
997.922032517
995.21424211
992.179109059
988.822554335
985.14905085
981.165756663
976.878096072
972.294453292
967.421205068
962.267970293
956.842141735
951.154615721
945.213866526
939.032098305
932.618942326
925.988013378
919.150196193
912.120538128
904.911269442
897.538950484
890.017247981
882.364244804
874.59508113
866.729362213
858.783652749
850.778937361
842.733092151
834.66828567
826.603478192
818.561661033
810.562474217
802.629213705
794.781616356
787.042623108
779.431370229
771.96963649
764.675156637
757.567654591
750.662558532
743.976681793
737.522357331
731.312693021
725.356240361
719.661837256
714.233818657
709.07649217
704.189916431
699.573985345
695.224742543
691.138129538
687.306822671
683.723602621
680.378633445
677.262433761
674.363566559
671.671256807
669.173370341
666.858676682
664.715102695
662.731624711
660.896715596
659.199988089
657.630867725
656.179945009
654.837789383
653.596081479
652.446573416
651.382058198
650.39549278
649.480765871
648.631905936
647.843844952
647.111855634
646.43226878
645.80259631
645.225171313
644.711267002
644.267210214
643.887218335
643.563400429
643.2949007
643.079343775
642.915945904
642.80170554
642.722377024
642.666724327
642.633627071
642.617600034
642.610919095
1008.09675132
1007.77036223
1007.09870567
1006.07857516
1004.71320266
1003.005039
1000.95725697
998.573018926
995.856507353
992.811866033
989.444393232
985.759258741
981.762881083
977.461459522
972.862548532
967.97338362
962.802638138
957.358643121
951.65126726
945.689975838
939.485880886
933.049668898
926.393778478
919.530216427
912.472825196
905.2350001
897.832076549
890.278937126
882.592435282
874.788968116
866.886934187
858.904227421
850.860686525
842.77557917
834.669981402
826.564293021
818.480529902
810.439809574
802.464556879
794.576026219
786.796394673
779.146320648
771.646920053
764.317391823
757.176859728
750.242149527
743.529485307
737.052440363
730.8235132
724.852308382
719.146984044
713.712662772
708.552891343
703.668263573
699.057806827
694.71787081
690.643470018
686.827393281
683.26147784
679.935892248
676.840287554
673.963193328
671.29306193
668.817748248
666.525389964
664.403938516
662.441866857
660.627724142
658.950752294
657.400504082
655.96730807
654.641857436
653.415660864
652.28062566
651.2294101
650.255166125
649.351650714
648.513026721
647.734144946
647.010358744
646.337746301
645.714618892
645.146627504
644.643186502
644.206527778
643.833076021
643.522917477
643.265246552
643.051056869
642.889144087
642.779427493
642.701269845
642.648277053
642.617449101
642.600714109
642.592099241
1009.13604167
1008.80360107
1008.12799357
1007.1029448
1005.73113982
1004.01495307
1001.95737676
999.561752993
996.832101353
993.772789015
990.388905327
986.685864455
982.669832898
978.347275217
973.725437815
968.811832514
963.614798401
958.14294699
952.405761849
946.413005398
940.175369047
933.703854468
927.010457942
920.107509772
913.00841361
905.726921545
898.277921035
890.676687527
882.939672693
875.083736128
867.126898377
859.087587529
850.98536564
842.840118465
834.672758515
826.504400423
818.357026354
810.252580517
802.213562374
794.262150615
786.420740009
778.710993046
771.15428656
763.770826912
756.580035692
749.599703035
742.846309964
736.334246892
730.076149321
724.082196227
718.360498099
712.916500372
707.753415669
702.871856284
698.270277734
693.944767758
689.889578636
686.097030405
682.558084585
679.262354325
676.198652561
673.354983198
670.719058874
668.278303684
666.020260151
663.932574736
662.003288391
660.220770599
658.573973517
657.052381244
655.646148806
654.345998361
653.14336404
652.030217852
650.999227855
650.043615902
649.15711482
648.333937685
647.568817863
646.856803469
646.192746462
645.580010776
645.028824394
644.5417049
644.117188702
643.757300824
643.460184803
643.210842244
643.008400584
642.854112973
642.742925689
642.666926629
642.617061819
642.586570935
642.569253723
642.560553838
1010.52789539
1010.19148455
1009.51088947
1008.47901809
1007.09834242
1005.37115576
1003.30035914
1000.88934433
998.14208229
995.063019204
991.657187377
987.930082121
983.88779402
979.536859569
974.884408604
969.938022945
964.705899975
959.196702032
953.41973631
947.384807971
941.102414536
934.583582701
927.840108016
920.884366188
913.729553166
906.389479162
898.878846554
891.21305135
883.408396669
875.481914862
867.451577097
859.336070198
851.155017614
842.928698709
834.678208831
826.425212648
818.192037997
810.001328816
801.876144507
793.839533157
785.914510996
778.123698092
770.489258434
763.032417693
755.773410326
748.730991036
741.922321632
735.362615559
729.065014978
723.040236284
717.296575529
711.839643231
706.672504095
701.795534486
697.206615873
692.901247629
688.872825818
685.112808396
681.611128856
678.356445911
675.336553821
672.538582664
669.949378117
667.555642365
665.34424145
663.302309243
661.417404363
659.677560271
658.071447218
656.588391112
655.218403593
653.952165485
652.781087695
651.697228336
650.693310973
649.762610691
648.8989001
648.096492256
647.350177096
646.655051873
646.006197701
645.409034832
644.874282528
644.404892092
643.998898398
643.657221437
643.375228685
643.139282073
642.94420105
642.796229158
642.690806581
642.61745661
642.568464789
642.538386991
642.52097674
642.512108155
1012.27574184
1011.93570749
1011.24925126
1010.20886116
1008.81698856
1007.07589018
1004.98843587
1002.5580356
999.788654269
996.684774544
993.251421985
989.494126637
985.418951461
981.032447273
976.341694001
971.354261913
966.078264834
960.522329502
954.695651784
948.607962497
942.269621084
935.691588984
928.885510931
921.863681215
914.639149919
907.225672637
899.637837303
891.891032224
884.001522491
875.986398643
867.86368976
859.652273657
851.371935108
843.043304374
834.687849232
826.327778573
817.986032757
809.685985263
801.451461723
793.306482854
785.275059956
777.380950466
769.647446463
762.096984592
754.750911437
747.629149244
740.74990123
734.129370457
727.781464618
721.717513239
715.94617812
710.473223089
705.301565669
700.431205103
695.859347636
691.580666815
687.587453566
683.869979856
680.416842924
677.215378621
674.252123594
671.513008598
668.983773213
666.650175862
664.498271678
662.514523309
660.685927739
659.00009411
657.445355127
656.01083474
654.686396535
653.462699321
652.331170107
651.283948856
650.313841857
649.414210186
648.578976183
647.802633174
647.080026068
646.406246678
645.776188272
645.198506901
644.688539849
644.243278637
643.85782553
643.535097863
643.26337682
643.035526586
642.853965952
642.72104227
642.620053568
642.548431304
642.501703907
642.469287063
642.45090102
642.441403343
1014.38297335
1014.03905235
1013.34576169
1012.29518926
1010.88982348
1009.13192591
1007.02436936
1004.57058471
1001.77455255
998.64078468
995.174321883
991.38071648
987.266026474
982.836795391
978.100073366
973.063396207
967.734800211
962.122834025
956.236579404
950.085660504
943.680287612
937.031298325
930.150184152
923.049091956
915.740906831
908.239280822
900.558694351
892.7144718
884.722841952
876.600929722
868.366805903
860.039524262
851.639108116
843.186561005
834.703805689
826.213673133
817.739809424
809.306460982
800.938455021
792.660962063
784.499285113
776.478560667
768.623463595
760.957919587
753.504784192
746.285420515
739.31936554
732.624044041
726.21438372
720.102552797
714.297698188
708.805764728
703.629508361
698.768426685
694.218922274
689.974540516
686.026186545
682.362541841
678.970556648
675.835896476
672.943334504
670.277258098
667.822134662
665.562548698
663.483660383
661.571092127
659.811164997
658.190969923
656.69852571
655.322676199
654.053151358
652.880617269
651.796541255
650.793169698
649.863464285
649.000973364
648.199851844
647.454758082
646.760655061
646.112595986
645.507162532
644.955051481
644.472785223
644.053305828
643.690000246
643.383338255
643.124920431
642.912219718
642.746358543
642.620439727
642.523761509
642.454375046
642.409374128
642.376343767
642.357296896
642.347673883
1016.8532693
1016.50495674
1015.8037939
1014.74135117
1013.32019278
1011.54260275
1009.41148081
1006.93029314
1004.10305308
1000.93430716
997.429129391
993.593093756
989.432264986
984.953184285
980.162871412
975.068810374
969.678964525
964.00177952
958.046207546
951.821723271
945.338379442
938.606830126
931.638377032
924.444973139
917.039318138
909.434912373
901.64609351
893.688089689
885.577053444
877.33008927
868.965342066
860.502011307
851.96039195
843.361848596
834.728854961
826.084926715
817.454496759
808.862863948
800.336099167
791.900740949
783.583586184
775.41143755
767.41073786
759.607246357
752.025625559
744.689009196
737.618664336
730.833567101
724.349973773
718.181050001
712.336626873
706.822925546
701.64248681
696.794191082
692.273418243
688.07230641
684.180004202
680.583354113
677.267004472
674.21422028
671.407726741
668.830160304
666.46439399
664.293740642
662.302199471
660.474459948
658.796072734
657.253591806
655.834585448
654.527642311
653.322442203
652.209630547
651.180783216
650.228328908
649.345460429
648.526014852
647.764421445
647.055605403
646.394829321
645.777635167
645.201075406
644.680870631
644.229556691
643.834514939
643.494509933
643.20562872
642.963727032
642.767138818
642.613162289
642.491823141
642.40219416
642.334580128
642.288291641
642.258930521
642.238698443
642.229236275
1019.69078717
1019.33749265
1018.62734857
1017.5513133
1016.11203155
1014.31182935
1012.15364963
1009.64100652
1006.77796642
1003.56912483
1000.01960072
996.13500469
991.921423255
987.385396109
982.533914794
977.374413236
971.914766282
966.163301162
960.128814174
953.820601941
947.248517063
940.422991583
933.355070538
926.056484267
918.539706016
910.818027949
902.905607798
894.81751231
886.569768315
878.179444695
869.66470559
861.044900102
852.340543059
843.573418137
834.766569068
825.944205508
817.131733981
808.355691541
799.643520466
791.023356222
782.523826156
774.173743755
766.001661754
758.035497719
750.302131
742.826959512
735.633346398
728.742168804
722.171387065
715.935520811
710.045258756
704.507165004
699.323579595
694.492586871
690.008300766
685.861225405
682.03849254
678.524126364
675.299712739
672.34583879
669.642708419
667.170741747
664.910991746
662.845297945
660.956420228
659.227941451
657.644588776
656.192244494
654.85805827
653.630408083
652.498889479
651.454241111
650.488235189
649.593530656
648.763679664
647.992870574
647.275908687
646.608059237
645.984923118
645.402294816
644.859217747
644.376161457
643.955387713
643.588420407
643.272966146
643.002861617
642.778024791
642.596468418
642.452477281
642.340134491
642.253585421
642.189496687
642.143189321
642.116437363
642.094670588
642.085576666
1022.90023422
1022.54130546
1021.8210344
1020.72964212
1019.26986532
1017.44408669
1015.25530753
1012.70711003
1009.80362886
1006.5495317
1002.9499977
999.010693899
994.737739649
990.137691964
985.217520982
979.984605712
974.446726126
968.61206848
962.489246833
956.087347705
949.415972965
942.485274933
935.305996112
927.889580711
920.248232923
912.394982426
904.343734497
896.109327922
887.707636418
879.155606645
870.471389077
861.674413882
852.785416964
843.826555071
834.821417878
825.795027943
816.773907166
807.785896704
798.860026602
790.026332571
781.315598006
772.758953887
764.387451255
756.231658798
748.32116982
740.684026977
733.34619556
726.330980837
719.658483441
713.344937757
707.402187548
701.837306338
696.652359439
691.844442428
687.406299925
683.326402379
679.589011248
676.174729443
673.061479922
670.226242192
667.645975823
665.298547805
663.163015729
661.21962224
659.449714234
657.835786386
656.361564868
655.012240042
653.774501081
652.636563894
651.588032931
650.619800097
649.723936506
648.893526067
648.122523159
647.405571124
646.737969878
646.115456692
645.534105467
644.98972908
644.487389933
644.042821786
643.65305939
643.315261518
643.022271066
642.771533998
642.5660495
642.401409238
642.269666267
642.164856664
642.07998051
642.016255716
641.973466197
641.946572973
641.925176549
641.915726385
1026.486894
1026.12164726
1025.39006276
1024.28150001
1022.79880697
1020.9444285
1018.72144643
1016.1335261
1013.18489557
1009.880317
1006.22505864
1002.22486487
997.885912142
993.214787256
988.218457835
982.904251596
977.279843631
971.353262526
965.132904657
958.627611399
951.846665534
944.799865557
937.497620135
929.95101826
922.171928099
914.1730398
905.967932416
897.571172602
888.99839448
880.266362608
871.393091144
862.398036691
853.302080752
844.127693664
834.899043685
825.642023949
816.3842799
807.155102893
797.985398451
788.907364611
779.954211933
771.159819431
762.558275977
754.18327285
746.067562071
738.242459133
730.737078055
723.577744345
716.787260503
710.38414189
704.381806913
698.78800612
693.604411763
688.827154366
684.446922435
680.449549509
676.816490992
673.523973133
670.544799862
667.851106644
665.415867464
663.214021681
661.222475139
659.419971593
657.786551769
656.303416911
654.953155426
653.720148776
652.590690527
651.552883913
650.596406189
649.712568216
648.8938489
648.133798556
647.426954571
646.768576953
646.154590156
645.581422414
645.04582205
644.54483838
644.086352203
643.679542766
643.323100022
643.01375888
642.743885882
642.516874259
642.332178847
642.181727455
642.058754572
641.959942504
641.880781138
641.819115528
641.775776511
641.748461654
641.729276932
641.719078918
1030.45665899
1030.08437691
1029.34025034
1028.21265588
1026.70455747
1024.818485
1022.55761153
1019.92571446
1016.92713686
1013.56676534
1009.84998941
1005.782663
1001.3710542
996.621805355
991.541901283
986.13862796
980.419554467
974.392527926
968.065702896
961.447591328
954.547118961
947.373653156
939.937177263
932.248378368
924.318695308
916.160399742
907.786695957
899.21179373
890.450978155
881.520697716
872.438809396
863.224610543
853.899018282
844.484772945
835.006562567
825.491123059
815.967271656
806.465972806
797.020138093
787.664403619
778.43486719
769.36864886
760.503319783
751.876234609
743.524028641
735.481825645
727.782583581
720.456344457
713.529405413
707.023286114
700.953619798
695.329044954
690.150961102
685.413971602
681.105370775
677.208806477
673.703572903
670.559521945
667.742164807
665.216904645
662.951825914
660.918635147
659.092438662
657.450813507
655.972653638
654.637608899
653.426984106
652.324055716
651.314801966
650.387329291
649.531792641
648.739892431
648.004718621
647.320551569
646.682616789
646.086912051
645.530155227
645.0095709
644.522834519
644.068619341
643.654218556
643.285159734
642.964270615
642.684999546
642.442109596
642.240387944
642.072855534
641.933545346
641.818888218
641.727237888
641.653454284
641.597082508
641.55372609
641.52433539
641.508459891
641.498528833
1034.81603854
1034.43595697
1033.67803121
1032.5294779
1030.99341574
1029.07245972
1026.76990635
1024.08966229
1021.03622384
1017.61463222
1013.83043931
1009.68965039
1005.19866814
1000.36423308
995.193377855
989.693368433
983.871666718
977.735920624
971.294010152
964.554039044
957.524468704
950.214189615
942.632661663
934.790057048
926.697323456
918.36624867
909.809585018
901.041076398
892.075541706
882.929038474
873.619031295
864.164551839
854.586397728
844.907433848
835.152760465
825.349871564
815.528874595
805.722425598
795.965650525
786.296044895
776.752999881
767.37732855
758.210743475
749.294988952
740.671132144
732.378881032
724.455758729
716.93639117
709.851552311
703.226910273
697.08121705
691.424572482
686.257982357
681.573168123
677.352137996
673.577810907
670.229875571
667.268158107
664.646731467
662.321687836
660.255103785
658.415692029
656.777481099
655.317933809
654.015168317
652.84693844
651.792586112
650.833832486
649.956562109
649.149502548
648.40322904
647.710171693
647.064359515
646.460870052
645.895799785
645.366064172
644.869298754
644.403669684
643.967885163
643.561250345
643.190519498
642.86438053
642.581304482
642.331607767
642.116778505
641.935634925
641.783689407
641.657496372
641.554474172
641.470734079
641.402085947
641.349074487
641.309072442
641.278139696
641.265676254
641.255943087
1039.57218586
1039.18351645
1038.41046156
1037.23895989
1035.67227606
1033.71314327
1031.36498854
1028.6318878
1025.51851909
1022.03012661
1018.17246626
1013.95175476
1009.37458552
1004.4478553
999.178694897
993.574384413
987.642294583
981.389853725
974.824595215
967.954166232
960.78643781
953.329702178
945.592805269
937.585294202
929.317528582
920.800774994
912.047234356
903.070083983
893.883595216
884.503233085
874.945893363
865.23008824
855.376317669
845.407345672
835.348473084
825.227928552
815.07698387
804.930060949
794.824825946
784.801879296
774.904374597
765.177577437
755.6679668
746.422405567
737.487241149
728.907415957
720.725843602
712.982681443
705.714505981
698.952709775
692.720947457
687.032154364
681.885030533
677.268243996
673.152569138
669.523200732
666.370909544
663.636121947
661.253878677
659.16692268
657.330418415
655.710947754
654.283749821
653.028316288
651.922729934
650.941970893
650.061961832
649.261560244
648.527802387
647.850578897
647.221086837
646.633021693
646.081430459
645.562477986
645.073366619
644.612054361
644.177182177
643.767864396
643.383717728
643.02552528
642.702341502
642.419346235
642.172146478
641.952512845
641.762370839
641.601730643
641.466839365
641.356879358
641.266602114
641.190736425
641.128266706
641.0793539
641.041247252
641.012849524
641.001110094
640.991886497
1044.73287513
1044.3347476
1043.5452398
1042.34871175
1040.74865373
1038.74791296
1036.35008578
1033.55943526
1030.38087684
1026.81989354
1022.8825163
1018.57523282
1013.90490988
1008.87868027
1003.50384631
997.787767245
991.737740516
985.36097432
978.664574742
971.655630565
964.341300276
956.729100338
948.827109864
940.644153717
932.189950011
923.475154998
914.511360773
905.311137831
895.888048291
886.256743526
876.43329495
866.435462584
856.283091172
845.998541581
835.607108658
825.137456115
814.621906996
804.096788627
793.602388568
783.182786777
772.885613437
762.76119752
752.861705004
743.240000949
733.948522408
725.038256003
716.5581047
708.554738866
701.072116054
694.149977535
687.820806105
682.100585311
676.983818726
672.460057043
668.466425628
664.998984031
662.09617836
659.650783472
657.564136928
655.760290427
654.187674203
652.813825501
651.619108668
650.589608231
649.705564364
648.935974379
648.250763429
647.622248326
647.042317959
646.503438726
645.99734307
645.51916748
645.065599954
644.634008644
644.22295209
643.831578094
643.45953416
643.107210213
642.775433489
642.46680551
642.190361496
641.94852538
641.735872551
641.544704902
641.379868274
641.241918839
641.127527125
641.034870822
640.954932337
640.886051663
640.831392582
640.787983906
640.754376016
640.729138353
640.714394643
640.707349266
1050.30657707
1049.89811316
1049.09069513
1047.86700522
1046.23068733
1044.18476108
1041.73299785
1038.87989342
1035.63063398
1031.99101145
1027.96739312
1023.56662436
1018.79594821
1013.6628468
1008.17490967
1002.33965429
996.16437942
989.656056033
982.821300602
975.666470857
968.197838575
960.42193836
952.345874466
943.977606473
935.326144373
926.401540582
917.214784664
907.777774404
898.103181025
888.204651624
878.097113886
867.797171286
857.323606343
846.697953399
835.945074362
825.093712894
814.177125609
803.233382216
792.305536133
781.441700838
770.694515109
760.120362618
749.778169402
739.727927966
730.029110749
720.7393254
711.913949824
703.606627345
695.870421849
688.757904369
682.316109317
676.567047072
671.496144989
667.113407807
663.249472251
659.929419496
657.363400519
655.302149587
653.586436032
652.118310775
650.843226466
649.736081523
648.789483417
648.006524435
647.373097614
646.844719649
646.380550492
645.93432679
645.515848557
645.123205098
644.745566712
644.380539761
644.027548018
643.684818478
643.352742149
643.031598699
642.722527053
642.427108449
642.14783021
641.88908681
641.658902421
641.457365006
641.273339252
641.111107249
640.973946884
640.858986704
640.767536549
640.688098237
640.616682577
640.559098319
640.514524936
640.477529228
640.448559608
640.42604361
640.410264662
640.40517705
1056.30240646
1055.88259333
1055.05585854
1053.80274028
1052.12717561
1050.03230066
1047.52212741
1044.60140223
1041.27563229
1037.55098187
1033.43423776
1028.93270768
1024.05413355
1018.80650799
1013.19787559
1007.23606372
1000.92846427
994.281836861
987.302222242
979.995035188
972.365386058
964.418483311
956.160207105
947.597492495
938.738608512
929.593065862
920.171354189
910.484655141
900.54469662
890.363786627
879.95531387
869.334216716
858.517666431
847.525784718
836.382387177
825.11589172
813.759987783
802.354320754
790.944913253
779.584168151
768.330648457
757.247936875
746.40319016
735.864996448
725.701082122
715.976283231
706.751744311
698.087463959
690.04665615
682.700377215
676.124292471
670.354382006
665.340701285
661.222880885
657.472781723
654.175752537
652.133805729
650.611222694
649.366349937
648.289517285
647.339933524
646.508029934
645.811670071
645.288608336
644.941491817
644.69151776
644.486639629
644.219603848
643.964706061
643.727121387
643.481061418
643.230073927
642.979044546
642.724982325
642.471530948
642.21973683
641.972927423
641.734023461
641.507774174
641.298764109
641.111556467
640.942610691
640.789049918
640.658153192
640.548432091
640.458489528
640.385853536
640.318062299
640.262042384
640.218191041
640.182301899
640.151705052
640.126055274
640.107553183
640.092701853
640.088797693
1062.73021681
1062.29805328
1061.45042056
1060.16556285
1058.44758817
1056.29982109
1053.72649791
1050.73268039
1047.32423162
1043.507751
1039.29052607
1034.68045601
1029.68594525
1024.31571102
1018.57848451
1012.48265659
1006.03588322
999.244773272
992.114699602
984.649864002
976.853760596
968.729799791
960.282194012
951.516654065
942.440748194
933.063695033
923.39572871
913.447500011
903.229586763
892.752672726
882.028049338
871.068347046
859.888392813
848.506091712
836.943520998
825.227913754
813.392800249
801.479017175
789.535450499
777.619355286
765.796015242
754.137837035
742.722177712
731.628511873
720.934647327
710.712934779
701.028512379
691.943330714
683.529077297
675.879865928
669.137465359
663.373047668
658.378316136
654.877736238
651.071020024
646.638590792
645.759743804
645.149058057
644.547157817
643.941420134
643.346658063
642.786226389
642.319002019
642.094557798
642.174179156
642.345067883
642.597193264
642.495414121
642.402367264
642.336528698
642.221769908
642.080769896
641.933110092
641.765125463
641.588953022
641.40384132
641.216563131
641.030871074
640.856158998
640.693292995
640.544846659
640.409280492
640.291345685
640.191842682
640.109664248
640.044148468
639.988595572
639.936835199
639.897785438
639.864486864
639.835598254
639.811389949
639.791025028
639.775880273
639.763493892
639.760709422
1069.60051716
1069.15479515
1068.28481312
1066.96578177
1065.20213923
1062.9973058
1060.35580484
1057.28305491
1053.78533554
1049.86972297
1045.54408033
1040.81702286
1035.69782322
1030.19621664
1024.32198129
1018.084438
1011.49182014
1004.55073294
997.265784419
989.639595596
981.673359489
973.36790666
964.725080278
955.749069514
946.446919353
936.828108435
926.903232709
916.68267694
906.175894798
895.391407773
884.337708174
873.024256319
861.462589114
849.667499542
837.658155782
825.45955602
813.104097979
800.633096753
788.098026298
775.561234423
763.096005908
750.785340266
738.719833184
726.993360737
715.697046427
704.912475272
694.703676128
685.124559217
676.243291982
668.167673042
661.198085408
655.439456245
649.408936659
648.152391943
644.475208097
644.307551691
644.598203758
644.501767
644.21571165
643.841112985
643.427388355
643.019475245
642.701629165
642.619228983
642.543898141
642.153740147
641.38517336
640.691546695
640.684971104
640.92677355
640.980321062
640.941815875
640.906663661
640.816309426
640.715371415
640.591421073
640.459623259
640.325272833
640.198550141
640.078270088
639.968246079
639.8698672
639.785433035
639.71526731
639.659581725
639.617163517
639.576432972
639.542089821
639.516326591
639.493659251
639.474024362
639.45761728
639.444951803
639.432775388
639.424604132
639.422012624
1076.92455797
1076.4641498
1075.57015876
1074.21453465
1072.4017928
1070.1355095
1067.42047323
1064.26254394
1060.66847323
1056.64584505
1052.20313299
1047.34977195
1042.09614182
1036.4533643
1030.43281353
1024.04531897
1017.30023113
1010.20447073
1002.76181371
994.972792326
986.835266376
978.346163222
969.50378045
960.310200016
950.772442224
940.901405491
930.709243667
920.206828078
909.40231653
898.30145519
886.908872496
875.229718684
863.27123378
851.043768156
838.56220693
825.847787055
812.930288699
799.85032806
786.661250084
773.430588582
760.24061309
747.187617127
734.379274873
721.929649402
709.950305775
698.537025279
687.745293836
677.602581165
668.122429214
659.295644665
651.363502612
646.582945798
646.269896395
646.476083434
645.857017201
645.421109719
645.311851045
645.088532785
644.777884252
644.398060288
643.968376362
643.521786656
643.113655727
642.796889379
642.448767643
642.041844765
641.708632606
641.37651893
640.97131422
640.446594774
639.848250482
639.724711396
639.899924697
639.882465787
639.865196652
639.794679321
639.716898779
639.630784653
639.545576813
639.465589906
639.391540161
639.32711329
639.273112442
639.229495086
639.196895882
639.173005932
639.14801497
639.131118501
639.118139509
639.107278049
639.098555271
639.09155619
639.086343062
639.079388418
639.074999827
639.072423043
1084.71424892
1084.23778638
1083.31843273
1081.92376731
1080.05847455
1077.72608287
1074.93178332
1071.68197543
1067.98395671
1063.84580031
1059.27652934
1054.28643624
1048.88725154
1043.09199932
1036.91437039
1030.36764451
1023.4631834
1016.20890791
1008.60785957
1000.65771787
992.351508949
983.67996346
974.635690205
965.217644334
955.433719215
945.298640272
934.828503959
924.03586371
912.927539896
901.505243496
889.76815374
877.71577325
865.349700243
852.674497127
839.698939038
826.438377007
812.917738073
799.17508003
785.264255036
771.257446941
757.246818667
743.344489089
729.680538689
716.398552867
703.643507418
691.543013711
680.143630717
669.405958852
659.163203796
648.526135016
647.654970096
647.310635553
647.1336863
647.119829099
646.808079443
646.467203294
646.177674668
645.857289964
645.498027772
645.088134434
644.633693229
644.160814008
643.704132615
643.286407439
642.860735133
642.39540004
641.927712024
641.431500899
641.011275514
640.723159601
640.359014651
639.85142804
639.367710829
638.924619164
639.052378626
639.019003609
638.997944927
638.952168465
638.906502916
638.857509513
638.815794993
638.78347352
638.757091647
638.73703803
638.724013292
638.715845747
638.709502479
638.709412822
638.707362482
638.708964006
638.711968958
638.714205953
638.716143339
638.716304526
638.714361795
638.712628927
1092.98222395
1092.48866449
1091.54241988
1090.10658424
1088.18526906
1085.78184552
1082.90205507
1079.55316028
1075.74311179
1071.48031791
1066.77410602
1061.63549186
1056.07773839
1050.11641149
1043.76861109
1037.05147725
1029.97991485
1022.56404623
1014.80672072
1006.7019856
998.235523561
989.388123357
980.142544909
970.492400493
960.448398344
950.033972024
939.273574762
928.183684962
916.769271571
905.025752303
892.944189378
880.516636642
867.738031707
854.605748643
841.120161802
827.287679548
813.125335238
798.665578611
783.960431552
769.085207917
754.141989785
739.260722094
724.599807946
710.34406607
696.694159985
683.86962103
671.898933742
660.636869722
649.254401376
647.788094352
648.110560887
648.225448833
648.174859604
648.056569092
647.772784057
647.449364797
647.100612442
646.718213579
646.301838082
645.846374241
645.359136733
644.856606806
644.358498712
643.878873442
643.398184066
642.893508706
642.3735271
641.840384415
641.330426986
640.85447759
640.358754519
640.015684565
639.670899219
639.226625688
638.77914497
638.248864567
638.301030319
638.288952902
638.288359437
638.262145943
638.249869543
638.241733282
638.240885271