/*--------------------------------*- C++ -*----------------------------------*\
| =========                 |                                                 |
| \\      /  F ield         | OpenFOAM: The Open Source CFD Toolbox           |
|  \\    /   O peration     | Version:  v1906                                 |
|   \\  /    A nd           | Web:      www.OpenFOAM.com                      |
|    \\/     M anipulation  |                                                 |
\*---------------------------------------------------------------------------*/
FoamFile
{
    version     2.0;
    format      ascii;
    class       volScalarField;
    location    "9";
    object      p;
}
// * * * * * * * * * * * * * * * * * * * * * * * * * * * * * * * * * * * * * //

dimensions      [0 2 -2 0 0 0 0];


internalField   nonuniform List<scalar> 
24444
(
12.2665733839
-0.914470428984
-1.52289842902
-0.521565323223
-0.565113482436
-1.49427371357
-2.39340228323
15.4935050563
-5.11301160325
-16.3811605166
-1.74094754699
5.06882514028
5.05376838664
-1.09897953218
0.0716995914624
12.0381384475
-3.67177205743
-1.8119277118
0.970842203787
-0.244953015694
-6.47667209794
16.2970762491
17.3648692906
-0.9676904631
-0.974392683723
-4.85932412851
-4.78487174714
1.44353581088
1.33608805792
-1.33692442194
-9.60447220439
-3.89068058709
-1.48747608716
-12.7562030914
-5.25750363704
-1.32925513558
-0.807684220605
-0.870791768074
-6.64443150577
4.56609714883
-6.56132869804
4.74893564709
-1.71022795742
-1.70595947001
-9.52841917468
-0.828704402168
-0.561913720205
-2.35914918319
-2.73350097555
-1.75282005877
5.49813340388
-0.250683516962
-1.743592616
0.051027196481
-1.54251694585
-0.814688235074
-0.540311415369
-3.74022767717
-12.926840611
-1.36149760625
-1.35140086923
-1.35521179146
-1.64045749579
-1.66041425853
-1.2458490706
-1.71181493542
-1.19545656395
-1.78863552344
-0.812175873796
-1.86707981206
-1.86696771821
3.57983033832
-8.23808213927
-0.776948215598
-1.75540012722
-1.11187735859
-2.46965479928
-1.66393120336
1.05467956251
-1.61508010534
-1.88236235704
-17.6414979845
-2.13578784856
-1.4754096264
-0.052536668824
1.95522390281
15.0197610705
-0.937852461649
-5.3021959809
-0.943145952022
-1.09079977026
0.0903594462929
12.9046414367
-3.73395862258
-0.323835181403
-1.35063873395
-5.53307880277
-0.0459944498151
-1.04557236642
-1.31771463673
-0.941908868582
-0.601542845989
-0.604787223013
-2.45795543645
-2.26384804772
-7.15607911914
-7.19171375925
-1.70567299192
-1.70432041118
-0.906551962644
-1.52280560796
-0.852468378863
4.0297101165
-1.00345545827
-1.35484927716
-5.91473519484
-0.0449599244614
-13.8680838442
-13.6813245286
-0.672018565767
-0.674108099613
-1.82217049661
-1.82096212721
-1.65365209441
-1.65302873198
-1.71591507068
-7.32627368805
-0.570698195501
-1.81136662118
-3.23966112881
-0.640233714863
-1.82530752799
-1.9448192219
3.8553890513
3.83871097184
-4.93895463035
-4.82435667326
-2.74308604407
-1.76937227503
-0.758244759375
10.7985989366
-0.94512938624
-5.0792825491
2.1837732048
-1.8591925684
-1.05072755668
-1.93331933202
-3.40734847073
-0.0302189429403
-1.21399382867
-1.34726497392
-0.679806574911
-0.10984048092
-1.96589186762
-0.185919417257
-2.3331299923
-2.32502962859
-0.716278098287
-0.739762308676
1.2018383333
1.33977318576
-1.57828449104
-1.87049599875
-0.0858869612406
-1.2307560294
-2.23549634311
-2.82443810113
-2.03554183986
-1.97858069463
-1.67700109185
-2.86419120752
-2.00993136571
-1.97642136723
-8.32893823373
-8.21207467506
3.08294153305
3.20834965627
-1.76989957881
-1.76481037
-0.766889931351
-0.760594838027
-9.63264357814
-1.75784919713
0.229419079992
-1.12693779735
-0.692194257524
-1.74561767764
-1.74746688946
0.869924336813
-2.42286342812
-2.41705996797
-1.76651356966
-0.761621338285
0.188698762661
-1.6322171474
-1.59116596479
-0.914738573355
-1.01897221548
-1.25259482197
-0.630016121853
-1.63272639179
-0.390335393212
-1.20225951957
18.8329323375
-4.77488601764
1.82953212665
1.95979676795
-3.74342784051
-3.76407327771
-0.72776730054
-0.0467205361101
-1.90096061235
-2.82597204958
-2.38296175281
-1.18829685273
-1.5294931012
0.972695707015
-2.21547011133
15.4753879976
-5.16267949121
-13.5739860899
-1.86289465171
2.92594143351
-1.26444994681
-1.75004605509
-1.75102214538
1.37104435504
-1.27915027292
2.90859121353
2.81971257802
-4.36780718211
-4.25656722115
0.511830617358
0.58771987137
-0.784771226982
-8.60546524948
4.4839870964
-1.51374104296
-1.11062182062
-1.33633794835
-11.5601623739
-1.67528799139
-0.865451887595
-6.56738749669
-1.75571684821
-2.71751042269
-0.92962900266
-1.79097660223
-0.884940864948
2.10896507682
-0.954528244896
-2.4012772339
-1.63243845517
-1.38619914833
-1.04739258427
-1.75984611964
-1.76042355433
-2.4657906492
-1.74446684674
-1.67004530902
-4.67966952444
1.45268371159
8.29145796115
-0.963649548475
-4.77571956083
-3.62443255423
-0.338039412185
-1.53179936069
-1.74700781447
-1.68149127011
-1.78564317718
-0.726035509854
3.52661937619
-8.39032878348
-0.772877088677
-1.75850625811
-0.651096812209
-8.48549132639
-1.88310624834
-1.83458170668
-10.7779904019
-10.8993320802
-4.65401624556
-1.73366211473
-8.11437575432
-0.800454924593
4.84831081529
3.06942755796
-1.71987807417
-1.9483754332
-1.9731711119
-8.85567965102
-8.5580742179
5.30914103131
-1.67838358958
-0.637187039981
-1.57244061334
-0.507673209576
-0.524722613415
-0.983056909586
-0.96450639064
-4.80339856121
-12.7066574837
-11.9307324843
-2.69977048505
-1.9624984339
-1.96799976661
-2.85572596706
-1.96811322517
-2.26959376159
-7.84882785115
-0.76364696331
-0.342372988879
-3.81066710062
-2.68070028249
-1.57325559723
1.73823574678
0.853394037851
-2.28182949975
-0.416548792822
-0.245585339159
11.1131790772
-0.942332181254
-5.12919970385
-1.05675152587
-1.59175864182
-1.21409216737
-0.849524526498
-0.850888895675
0.0204358193557
-0.0341641466869
-0.632391127451
-1.57100352289
-2.2589222403
-7.60207351208
-7.56418110715
3.6351521551
3.73637580879
-1.74320843723
-1.74448591788
-1.55042470448
-2.48349408284
-8.15396551852
-1.20046665724
-1.63050736524
-1.03739183832
-1.03092687138
-1.40571585273
-1.78847161535
-1.78813802565
-0.816777321611
-1.24348628389
-6.98889046712
-1.84573631268
-0.594875461803
-3.0965044651
-0.0186265378133
-12.1199550001
-1.79995372317
-1.62974488024
-4.31501701992
-4.20200585716
-0.504015732554
0.367394243945
-1.06392084515
0.309936531853
-1.056322379
-1.58398490421
-1.67829921832
-0.672102959302
-0.661875120672
-1.63907657221
-1.79112579303
-0.875051313225
-1.12691462156
-1.44253392989
-1.67585235119
-0.191719229329
-0.207368929173
-1.17310832178
-1.17100442767
-0.650003693343
3.40896219573
8.24601452574
-2.30713049608
7.02197069111
-4.4199446791
-1.73593101847
-1.7368266994
-1.09784895623
-2.03814059913
-0.937164508676
-1.41187797639
-0.442344690706
-0.485146645561
-8.34918122216
-0.13742346452
-12.2325434693
-1.83361741392
-0.963473704432
-4.81921980084
-0.864996075565
-0.875815805098
5.24553547187
-1.03139350028
-4.88880390437
-1.35894512606
-1.39115504927
-1.3832880287
-0.787690661019
-0.781806408101
-0.258726210087
-13.7126508075
-2.64647302017
-2.65761039851
-1.72094710495
-1.49385346986
-1.24101212632
1.8502060477
-6.49933354119
-1.28078198382
-0.731899302062
-4.22285608393
-8.21394555503
-2.44894312528
-2.44045002563
-9.21933487126
-2.83524121061
-1.76819126865
-2.90593791769
-1.29725260519
-3.00041529188
-8.44192980446
-0.0389364134748
0.21750928698
-1.10590408635
-4.74843381782
-4.63042229799
3.34332069499
8.43819923967
5.88801693693
-0.83357258747
-2.6008264456
-1.17947586128
-1.16894169826
-0.474330463613
3.90831903044
-6.64740888059
-1.71983947382
1.60849297033
-2.29890700094
-0.988550555826
-0.156519850017
-0.981751133506
-0.987582008921
23.6409061352
22.2159515937
1.23394648845
1.11098318921
-4.6616717214
-4.74299590211
-0.792204446285
-0.11823318492
-2.10751736062
1.78316544982
2.63674864799
-4.04599747563
-1.85871672966
-1.30718815826
-2.58238527697
1.55557502813
-8.38123491516
-8.76292624175
-1.65439080167
-0.233381383258
-1.74195933998
-0.788239687243
-8.46244233006
4.5919808086
-0.919351350549
-1.20608278096
-1.47929297622
-2.06931647854
-2.08770106164
-0.763221899131
-11.2795557442
-1.84781184517
-1.86983347846
-1.98292982351
-1.9634259582
-1.69452953149
0.918286897177
-1.69707049757
-0.331411095675
-0.344241835037
-1.39391394616
-1.40401676787
-3.25924500074
-1.24450101084
-2.66802810708
-0.868199507105
2.62444125523
-2.19185701454
-1.70291008113
-2.02528550394
-0.90266659897
-6.53988399304
-1.35510440947
-0.930603669391
-6.17899340277
-1.71505317922
-2.25591073165
-9.96799355587
3.82103434877
-9.808360346
3.89724959968
-0.755431048149
-0.758690001246
3.00286286566
3.14057312204
-7.29797630017
-7.22423316176
-1.75436030259
-1.74862373176
-0.308351639495
-1.36582944783
-1.88398082614
-1.53800261511
-0.511599679307
-1.31467127484
1.14518807042
-3.50750267038
2.54683704987
-0.982231607334
-3.95594275295
-0.786594646051
-8.53130961414
4.53080635144
-1.35256922019
-1.68699961134
-1.16520015559
-2.62755536027
-0.852413528732
-1.54984004455
-0.977810634553
-2.8863233539
-14.7308521467
-1.83276386735
-0.653118383936
-1.64416332018
3.58062700822
-10.6653214004
-1.774857566
-0.742081211762
-0.361907954825
-0.382329984977
-11.4713972525
-0.446469362199
-1.39044698568
-1.71674281047
-2.80469544714
-1.76633529903
-2.25395390023
-1.42178118705
-2.26303953005
-1.41936497648
3.85473517582
-5.55816267335
-15.2082407967
-1.83778855895
-0.643633782188
-1.64002975783
-1.59982224675
-1.14193088807
0.17564162714
0.150544991675
0.496760733047
-1.74128119227
-1.84239187342
-1.83486681326
-13.3310189865
-2.20990017798
-1.4452303885
-0.0391765473259
-8.39804685049
-1.4191893712
-0.827013786174
-1.86457069288
-1.84918857112
8.64180637761
-4.72886811855
1.19427267651
-0.349917067074
-1.69061506873
-0.701640323357
-2.03313220629
-0.163173632709
-1.09725940554
8.85974243992
-3.8456406456
-1.27842104977
-1.23574573357
-0.95719972532
-4.69874240177
-4.53286663164
0.204696623192
-1.5154819547
-8.70481874191
-2.08583234224
-2.07222995384
7.21478031193
-5.76380212756
-0.892697525963
-2.96868892861
-2.87856888911
-2.9935098353
-1.08770054023
-0.97112641665
-0.942292968034
10.4294940019
-5.10582437717
-1.48303869489
-3.68495870436
-1.65194057802
2.03451902305
1.90463331813
-2.48230296985
-2.56645056894
-2.49569192256
0.0511394935993
-0.807056267612
-1.11414912633
-2.36166707526
14.6024401697
13.9758946505
-2.8858318076
-2.64502820586
-0.872286672159
0.0423696092941
-0.719922875463
-0.689489830571
-0.680119754824
-0.923175749453
7.55376233454
7.13563565662
-4.33594749906
-4.33425293624
-2.2335265927
-0.876717633771
3.95370679825
-5.6563769312
-0.829633413556
-1.83163015958
-12.4183653555
-1.8172731995
-0.853680862057
-1.28531296473
-9.55333560318
-2.4341285942
-0.764786416367
-1.90065419039
1.4564642881
-0.664088906519
-0.0474747704661
-0.0482663687952
-2.64051351268
-2.6639942119
-1.28882340936
-1.29516137086
14.0909975663
-0.915426401093
-4.40869284671
-1.10811468743
-2.02141921014
2.96539143046
-2.31324455094
2.10582726758
3.39347816663
-5.32990352082
-0.238809322751
-0.385446683254
-0.865322568156
-1.29311961141
-0.509562523888
-7.34740075852
-1.22165409435
-2.59075425219
-2.83961752593
-1.76486742776
-1.84207909051
-0.56808124433
10.542765142
-1.73697566755
-8.22910455248
4.76857519142
-3.45946023962
-1.2983725564
0.667026714493
-1.76517152603
-0.613915321645
-7.41962048507
-0.736646134321
7.31621782857
-5.25457242543
-0.921730408739
-1.7137701741
-7.26269177067
0.211192609021
-1.12535617583
0.241116443368
-1.11268741902
-0.0745459805189
-11.9363750473
-1.84671094449
-1.32659518451
-1.33903327064
-1.73575312214
-8.18641778535
4.80405536356
1.88907354172
-3.04202092374
-1.44382507545
-12.1136502488
-1.79867175155
-4.51869484695
-1.53568452646
8.57111769647
9.03741071082
-5.16455476924
-5.14220913589
-2.69518692887
-1.23687641199
-14.1204364716
-14.1859839459
-1.87213283852
-1.88212532943
10.7405740092
-1.52145669509
-3.00356749078
-0.2093357416
-0.229329070072
-1.23786963168
-1.24316123914
-1.41270622326
0.276979848805
-1.5781768465
2.78308449779
-2.93720599992
7.07604012975
-5.23327326668
-0.921828564536
1.38049705182
-0.621425736232
-1.22591245493
-1.41507843738
-0.917934345116
-14.7825888664
-1.53377475035
-6.75332157899
-3.93744198932
-9.67180384353
-0.568730632779
0.319105934756
-9.87939265504
3.82873352758
-0.75691288128
0.783920706877
2.46010819395
-1.01104955533
-1.27559336812
-1.80519175286
-0.0213595918797
1.42606750273
0.498535388126
1.45899378081
0.786034871337
1.52235386727
-0.777068724251
-0.559839250333
-1.73993725303
-2.7887006749
-1.18642757107
1.07893553997
-9.24966628365
7.06123789916
-6.02438268096
-0.87980140107
-1.28955819242
-9.76524677159
-6.90689845964
3.72072548682
-1.72909655414
-2.24975411539
-1.34127648873
-1.33662497271
-1.58170660041
-1.45362157097
-1.58717065835
-1.13390882048
-1.01461954428
-1.51988674496
-1.53037667224
-0.892205455846
-7.05167818858
-0.730610202261
-0.922685278224
-3.50777407137
-0.498392320729
-1.77573295692
-1.78843683123
-12.5271534956
-12.4688684193
-0.0969318264465
-0.804090892469
-1.52665976308
-1.53398121482
8.55896967769
-0.975069121628
8.78004933178
-0.89442150565
-5.85852834843
-3.35640586628
-3.31085699015
0.0951268841834
0.081505891301
-1.73985588986
-1.74147293249
-1.22502547854
-1.10860451857
-12.3498337075
-1.16697057799
-1.48109785966
0.757923609718
-1.77736008198
-2.36533735735
1.19737318292
-1.61790415879
-0.582555216221
-3.83541290471
-7.89085165381
-0.888387635527
-1.95683695261
-1.26377837751
-0.830184036026
-0.965721613492
-0.327698461906
-1.32055659653
-1.73370691955
-1.73560100434
-0.880603576437
-1.74338955309
-1.73435687337
-3.008929021
4.05914838151
4.31468504123
-5.04093481602
-5.03637065453
-1.11858437975
2.9769079034
3.02307263975
-1.7417846463
-0.788620436879
-8.45774077543
4.58909277561
-1.63167110435
0.19575750653
0.159338067408
-1.14847625638
-1.13794852778
-4.97201256681
-1.237325167
-0.733434896225
-3.74034412209
-1.5247671439
-2.2593808037
-2.06481148972
-0.546753171135
-1.45074824081
-1.91843434727
-1.41585684312
-1.03407019792
-1.43866097097
-0.136450336134
-7.03803137606
-6.97660773726
-1.70653090123
-1.70407816734
-5.8064493292
-5.36658615838
-6.23001530009
0.587142818003
0.649088200796
12.8924305196
-5.32006885948
2.87245418879
-12.4525146051
-8.95462043671
-8.55096122646
6.00188668807
-3.96260233228
1.13196740702
-13.9839583848
-14.4907063774
9.32411116066
-5.19619583101
-0.932197417854
-1.78657782389
3.46973815228
-2.37832707068
-1.55993157004
-9.15587318568
4.14255364755
-7.39691896095
-0.870210526647
-1.83597231027
-0.999529583613
-1.72308084809
-1.9481923184
-2.61100778566
-0.0377543885915
-1.25110008345
-1.7557968902
1.26491712205
-1.44734653437
-2.0554194512
9.02761660342
-0.899265463014
-5.77134917271
-1.17371590516
-0.709155232381
-0.710668738298
-9.41734160667
-0.249381243516
-6.81283096963
-2.7913975587
-3.08591901327
2.91663410465
-7.43460361557
1.24399667673
5.88575130972
-0.827164309865
-3.51463900264
-0.926556954569
-1.28708386507
-1.69766357234
-3.1178392413
-1.12762313432
1.27042895957
1.17036936031
1.32930163667
-0.0292192621585
-4.53817738273
-2.48806357278
-1.34599683681
-0.666762273669
-1.40378806335
-3.44498251158
-1.41994191151
-4.01349597001
5.20427115826
-1.67606034971
-0.831714208418
18.8996024413
-4.83619927126
-8.00375161972
1.09547202799
3.54540591021
3.59768199472
-3.95730188389
-3.91064719814
-0.0924834557261
-1.23652846916
-1.38668052259
-0.974839131564
-0.23107911075
-1.33134902016
-0.0309306052664
-3.44642250565
-2.96502898931
19.3917121694
-0.96297390761
1.53929677501
-4.96744932602
1.37686597983
-1.33644739623
-0.0347176325499
2.03094229781
2.04473439046
-0.632731944056
-4.27836786313
-4.23813826944
-6.95503594059
-1.33979701191
-0.0480488092359
-1.21818931467
-1.44703442679
-5.25495413909
-2.29985031607
-1.40205189305
-1.51983496845
-1.53082313333
-1.56614705809
-0.93697932972
-0.968973995773
20.5646206387
1.44152390128
-4.89559045389
-1.80659918613
-1.32578638348
-1.47027368347
-0.747145530956
-1.71610968392
-0.447631172554
-1.72595080576
-0.803689257411
-0.833816981379
-1.64855627063
-0.926388274361
-0.063393254453
-0.956424760232
-2.39628334343
-0.0023346396248
-2.09739044595
-2.0623780542
-5.66792187511
-1.0086229731
-0.910873904414
-14.2131830512
4.19273105641
-8.0844002939
4.18224053278
-0.790928614515
-1.80980418785
-1.17590646924
-1.61985448006
-4.23946297574
-0.687211947019
-1.5265817929
-0.757871705599
-1.1432443714
-2.07906540691
-1.4988509784
-0.567105327218
-2.15346783933
-8.32125594927
4.5054369302
-0.791915169506
-0.334006861189
-0.343886501425
-0.35391760231
-1.39068949777
-1.38685361983
-1.3957983007
5.60775507697
-0.82553132837
-7.43625566225
-1.69255929826
-0.855713575084
-7.45949274819
5.84612538636
-0.826557323923
-2.68377552264
2.84923111656
-1.60273898355
-3.40843682955
0.000859102442951
-0.686888193277
-1.99619576915
1.99981428581
-1.03854331414
-1.72290611079
-0.84602294618
-2.96785246666
-0.962139854053
-1.5967797945
-0.189672888961
-2.03137678863
-1.52405159048
0.535583186153
-0.792722404258
0.0615390914787
-0.218775730028
-1.11637948958
-1.13013871018
0.801023192028
-2.57751129537
0.93463316547
-3.34142052829
-3.26944099359
0.581279216457
-1.05327383296
-1.52120301568
3.01812186569
3.18334184386
-5.78676953908
-5.76921396751
-4.69120960546
-2.08282704416
-1.58088927189
-11.9143761248
-1.96402611206
4.56219782495
-5.34305104268
-0.680719240423
0.325676750978
-1.08435362907
-2.01131890518
5.82742998354
-5.58060864007
-1.6642326516
-0.989907825133
8.25114696761
-1.6618853424
-8.94515856848
-2.3862148398
-2.40790372749
-1.37079226556
-1.36440237543
0.823200672802
-1.71219468866
-1.70787991018
-1.77980515963
-5.47650789171
-2.47954351864
-0.03855474332
-1.34859469796
2.1511171722
-1.44052314894
-2.56196761815
-11.3267085227
-3.48160911258
-1.79763898959
-1.26202499854
-0.0529604016557
-1.69438338693
-2.57392683258
-2.8932475209
-2.7259129811
-12.0637679642
0.886270312156
-7.95036445766
-0.0819330667488
-1.96849924661
-1.66933987476
-4.09023595173
-1.86199668718
-1.94092774628
5.00308564315
-2.40444727277
-2.3748378975
-1.00246124667
-2.58209893364
1.39976780675
-1.79248901336
-2.59190445988
-0.657642423187
0.476184377597
5.67724241677
-3.92765751996
-0.358354429286
-0.411413515508
-2.05558070389
-1.61739881808
12.300790629
-0.964496209132
-4.86205427356
-0.80013381995
5.73264167027
-0.828003653093
-6.57469350681
4.9380852628
-1.70417177474
-1.02582626817
-1.19965017935
-1.5473955328
-1.72518609417
-2.62285399576
-10.7794043435
3.51661024646
-1.77760294828
-0.738475118304
-2.33845314019
11.0145198189
-0.957661834649
-4.91296503416
-2.35620931628
-1.38120362172
-0.804199962666
-0.38741204223
8.70482319
-0.391901023143
9.20262513344
-5.30745976873
-0.925441457099
-6.02504047811
-5.91380401507
-2.41898231476
-1.86821133268
-9.61305137909
-1.74462396004
-1.89701132386
-1.56149610149
-0.744940608346
-8.09568115761
4.85056604881
-4.27525854227
-1.02224667577
-1.02021328893
7.74605889781
-0.887264252498
-5.92437556599
-0.474570862001
-0.576478466522
11.7855049722
12.5825573913
-11.0576290985
-1.02435733474
-1.38885291118
-1.37740926017
-1.02815539399
0.066948587857
-2.11554969615
-1.48480514471
0.0827574377326
-2.14310662199
-2.12016159619
-2.10203593309
-0.680611219058
-0.665317938125
-1.01618648975
-2.53758853582
-1.94298284481
-3.00668860328
-1.19048977897
-11.4144051601
-1.23305287427
-0.4338705009
-6.48348444889
-11.7285090322
-1.97423603147
-3.11610738451
-0.162350780184
1.14272795624
1.17333809676
-0.346884423487
-1.86321736341
-0.260326179483
-0.541986156013
-2.92878713999
-0.851859957678
-0.7058377126
-0.697067284805
-1.74614283442
-2.71900708136
7.53079032923
6.97229743665
-3.48185374731
-3.42293103342
-0.971727491227
-1.61984997782
1.36287495809
-0.671153384615
-0.067329104506
-2.92737900525
-6.9402853547
3.59234115643
-1.73250340383
-0.505374180924
-0.502247259073
5.18398706287
2.75392100319
-0.958787864089
-1.39007672684
-0.952267050935
-1.50085049591
-0.138100981182
-0.106440070872
-1.16335368072
-1.15559126602
-0.752387159348
-0.751763847042
-2.22593498849
-1.69012595902
-0.169778218765
-13.1609080333
-1.78738102055
-2.49146763433
-2.25680747604
6.62342648103
-0.871709715992
5.18702818763
-1.68356942498
0.625430160553
11.5852645882
-1.61631323134
-1.25426326778
2.11572140239
-0.82735915039
-0.462318493129
-0.678655983513
-0.909281149722
-0.901544605439
-2.24848349417
-0.422660937787
-0.445548670892
-2.10988911154
-3.53085785273
-1.44643073762
-0.866709984653
-1.37098401765
-1.36126609604
-1.82012160365
1.19166975687
1.19295118602
1.87596949988
-1.32973245642
-3.36304205383
-1.00563780844
-1.4130861027
-1.48669131432
-1.49769819948
-0.98741686366
-0.989450111155
-8.50873491403
-1.12257705706
4.19921421548
-9.0627721979
-2.54088219232
-1.67707915404
5.65809822424
-0.493550476106
-1.17772058953
-0.10017300673
-1.90259665329
-1.82546239089
-1.82831399922
-1.19755195078
-0.810715724776
5.14386468978
-1.61819872609
-1.21647277003
-5.01984324478
-10.363263442
3.69369254037
-1.77072957458
-0.748267310637
-6.29417271915
-1.64219499232
-1.35433625259
-2.52302641133
-1.5298089015
-6.44564349178
-0.896898057334
-0.968905932964
-1.19549970323
-1.18730682003
-0.43266767351
-2.021442648
-0.82981116689
-1.9380613811
-2.94013878519
-2.60941700196
-1.03376309545
-1.78815355851
-0.348403833142
-1.89914469055
-0.843949229397
-8.64806036136
4.42925866317
-0.78399132513
12.5753070412
-5.40456196375
-1.55959521368
-1.85478611935
-1.88996444559
-1.89173059267
-0.847196250279
-1.73042018924
-8.02746593049
4.97514845598
-0.838614470098
-0.835801900545
2.44313813427
15.0792766636
-5.26937354587
-15.1383897488
-1.37075599085
-0.75970515999
-0.924877624777
1.48498820032
-1.58795419558
-0.866187375671
-1.71942441554
-2.70434091976
0.290634196292
-1.89526725722
1.59594576738
-17.3621323839
-0.110699148758
-0.949903036541
-3.90156705092
-2.80452006931
-2.08409458056
-1.49758264551
-2.06454528103
-2.05141944315
-1.30250877705
-0.956362707209
-1.73415221329
-1.46833006014
-0.39019369151
-0.400342488212
-3.49888172641
-1.52425225395
-1.16052632221
-1.17917315066
-1.79931539308
-1.575347711
-0.574155995185
0.876855373075
-0.534467080621
-0.72512883656
-2.12457559968
-1.77954006751
-6.07523171569
-1.78186132553
-0.731472594742
-0.861469825613
-1.68485204274
-6.63767043595
-1.73742722499
-1.93919588434
2.09537365515
5.70052142037
-5.68030930248
-11.8288062257
-1.78997592074
-0.719507764466
-1.6780010324
1.23943139943
-1.66681688564
-1.14822676705
-0.689872672884
0.106478890893
-14.5823376321
0.622656250194
14.9053332178
-0.312234686016
-0.546249577482
11.1320735003
-0.952965979739
-4.980898695
-1.76717370533
-7.0159154544
-1.13746721839
-2.57989385395
-5.17992444314
-1.58234506714
-1.6135369147
7.53361184243
-4.23970326391
-1.293817186
0.1220353975
-0.676458821863
7.70286578219
-5.82341826965
-0.891739487307
-1.95296799574
-1.76905510742
-1.67652601406
-0.97934930324
-1.31149381279
-1.31016200757
6.71413136053
-4.03154017584
2.18304165743
-1.1818328623
-1.08943087983
-1.08908502924
0.141496821995
0.152369708668
-1.15306820148
-1.14829587729
-0.177369054621
-6.63957426978
-1.69235116029
-1.6817533297
3.35418307386
-1.49785431806
-1.81745144617
-1.80817706182
3.13721646962
4.63352305079
-0.795155018081
-0.467873175772
6.70339318538
2.54328295514
-3.95800835392
-1.67329945569
-1.6708114489
-0.944573669234
-0.822068080353
-1.34724253052
-0.996091196445
-0.181588486231
-1.70222956587
-1.70952378678
-1.86814864249
-1.87727083417
-1.11081168578
-1.11823199583
-1.78181163267
-0.865973696092
-8.39678896252
-8.52120625715
4.41857698141
4.34937858227
-0.78936716906
-0.786066752629
-1.18927054543
-0.800532667876
-2.55916848666
-1.28467528113
-4.56213592359
-1.88706338379
0.105848121048
-0.499971993715
-0.114264431671
3.98057453582
-4.09840955092
-1.62203803077
-0.424120233555
-3.34368203233
-0.0715110326339
-0.871103510838
-7.53854916487
-1.65295426567
-1.65685218021
-2.2204609995
-0.722665619308
-0.715700319921
-1.31263718323
7.92180031659
-5.7342342375
-0.896999006643
0.949487684109
1.0063499273
5.28558096722
-2.18141436267
1.44774822937
-2.19268329021
-2.21992313932
-0.0193686836357
-7.99314519816
-1.00578550672
-1.23299040248
-1.31870637071
-1.10432490625
-1.90579557429
-7.91322243258
4.91161288125
-0.805064077556
-1.88309948231
-2.70678334842
-1.51816758143
-1.7222505901
6.55330987263
-3.95647441296
-0.0606828451234
-1.42223192045
-11.040966126
-2.26894191938
-1.80517302655
-3.68998348222
-0.446207596982
-2.25519881952
-1.56550949385
-2.72253265681
-9.25280415976
-0.0671471945303
0.978899358096
7.22066320895
-6.06007933259
-0.879032611667
-11.6083278569
-1.84482439646
3.2797173107
3.23585479303
-16.8110547467
-0.301731874454
0.0353566644421
2.06396911902
-1.24805459177
-1.00717529422
-1.0437684062
-2.15833575887
-1.94412489397
-1.95523018615
-2.80237635144
-6.73316584535
-6.63131847505
-8.1055527353
-0.823074527643
5.06942905404
-3.81560232547
-5.16616416823
-1.50550303046
-12.2052650357
-2.23154183942
-0.0540663687204
-1.43614287972
-0.751781072171
10.9991872331
-1.52940148474
-4.73939951539
-0.665026043037
-1.74333753535
-1.59892740383
3.15571441512
-1.57171937066
-1.71107838507
-1.71525950431
1.91199578855
-0.94011456211
1.77122044671
-1.16177809873
-3.13726500671
-1.67264497939
-6.58373204978
-1.23252157749
-1.7222586661
-1.02823007316
-1.58898286008
-1.6652435
4.50356184264
-6.77057099445
-1.71420940323
-9.31320996123
-0.8075505744
-1.51721462026
-1.5170960657
-0.27456393969
0.0521160577222
0.0530861257867
1.59259728497
1.52427036851
0.782136984269
-8.13332696143
4.21137924654
-0.790883974161
-0.933683164953
-0.960513012817
-1.62082555078
-1.6308862914
5.70264410871
5.70865694735
-1.57484765124
-1.54411478618
2.70758454379
2.59100448696
-0.903038679462
11.2578322517
-0.615243624159
-0.707606536701
-1.670926908
-3.03877027424
-1.57618346609
7.87323288502
-1.47282929986
-1.47853935984
-1.99283044357
2.92487536666
-0.952386158788
-1.90728046324
-1.73695245866
-0.944078541405
-1.57974233779
-1.30779893425
-1.32212277065
-1.07673364292
-3.06402623113
-3.08924030605
-9.41136380674
-5.04022726833
-2.04652167873
0.40357130344
-1.73761573197
-12.5352437881
-0.0775831906089
-1.43931469035
-2.22352408194
-0.907108725162
-1.08997861195
-0.799723430831
-0.80370926636
-3.38024030285
0.688944065999
-1.04705481505
-1.05909904771
-1.56923808957
-5.81341944588
-2.46598900906
-0.0376215361797
-1.3528921848
-0.561660695031
-2.12270139172
-2.10791311822
-2.10346183787
-1.7284484435
-7.97833888487
5.0352567298
0.609460552632
-1.0493199804
-2.43647633186
-0.996047940926
-1.01051659811
9.96615443347
-6.60206805917
1.55949331887
0.272360935108
-0.49718834361
-5.40492211889
4.90104025944
-0.597398262771
-6.0881269027
-1.43613947849
-2.20976384683
-1.21073912842
-5.90042678752
-3.93906925634
-1.1998367327
-0.13181018611
1.59489937297
-3.60134483654
-1.68716592189
-0.287136981315
-0.968625169123
-0.812274709061
5.20355600591
-1.02540590198
-1.53745766093
-0.349968489685
-0.642628060496
-4.84172775993
15.9474501217
16.477674714
-4.95857412826
-4.99694281083
-1.76980705525
-0.978956539637
-4.69128793344
-1.59370833669
3.51910306638
-1.72932670262
-1.73316834997
-8.00718937861
-8.11954300605
-0.800096538617
-0.805247629748
4.88500041198
5.00148894239
3.47325289044
-5.43720224712
-2.22491645675
-10.8111739342
-1.73983396796
1.39755179678
2.68152813658
10.7704804694
-0.897904381405
-5.93781741728
-2.07819913415
1.46096363987
-1.91551734335
-1.92008002391
-0.848808364438
-11.9790410946
-0.715915205546
-1.79247576723
-1.67580270105
-1.16466306945
6.5100745333
-3.39242475924
-1.62807427288
-0.988667495728
-0.812240995276
5.19813980906
-0.777883370054
-8.91346847681
4.27357133251
-1.77099301179
14.5051229619
1.10873058225
-0.212876671154
-0.89661127951
-0.892996749603
-0.866089519013
-2.02200381795
4.88237492339
-8.12180537873
-1.73343772658
-0.805482954242
-0.799779877351
-2.25567729925
0.89370171824
-0.166562816509
-0.391794901941
-1.65209957185
-1.61944086776
-0.815897329595
0.186076720234
0.131908418276
-0.970705138451
-0.956326031872
-22.6052753803
-2.04440974069
-0.15759240654
-1.5177489415
-15.8672134395
-1.85769883565
-0.970263605761
-0.893482653596
-3.50686569879
-0.910931648482
-0.83400012903
2.10033410396
-0.7796573059
-8.84643063199
4.29665033957
4.09781034304
-9.4360334383
-0.767106504124
6.37600363826
-1.75653931179
-0.834807731074
-7.24968667177
-1.70646894962
-1.76541105605
-0.611050908029
-1.17950846918
1.08145506816
-0.821841425561
-0.825104162336
-1.74452584331
-0.443782820498
-0.447597519215
-4.90254491381
-0.670925292989
-0.0259546656332
2.37894576673
7.27780354577
-4.52813605596
-1.74723117591
4.40315361399
-8.79076865427
-0.6603177174
-1.19317745353
-0.740424541314
-2.49301538646
-2.45948667195
1.97778625006
-2.33642945546
-14.6920366503
-4.62684345339
-0.827542087019
-4.0518256253
-1.93391627329
-0.0330293680382
-3.88984225851
-2.49181591451
-1.34433833057
-2.59780061746
4.91996810438
-3.75928093866
0.740894632221
0.907884964432
-1.59642736814
-1.60443135968
0.406493437645
1.62971996044
4.73259576142
-5.30056418953
-18.0563550101
-1.60623508057
-1.53397052415
7.05351292982
-6.30558086298
-0.867327465398
0.407367679388
-0.691507678525
-3.13465844371
2.23783481591
-1.59777009011
-1.75654772809
-2.75299851534
8.31912966324
-5.25252749172
-3.11921529112
-3.20345545758
-1.51883979568
-1.51494883421
-2.38672299692
-0.75405556286
1.02783982862
1.01592058739
-6.0227631777
-0.881761412537
7.49687027037
-1.40132685096
-1.45924424952
-1.66034303981
-1.9574186966
-1.96867831559
-0.87075878773
1.23430471344
-1.05915909878
-0.448141219813
-1.39946233725
-0.0704562647684
-3.51128233935
-2.82119372064
-2.59291799661
10.4047213419
-3.34111600153
-2.26556214021
7.57925039848
-1.71934885151
-8.9152428728
8.83867816351
-5.36425527525
-0.920574212217
-1.91551262147
-0.864498987748
-2.28627325019
-0.915816388231
-0.921578775022
-2.05882424962
-0.705913445105
-1.6695596087
-1.56806887424
-3.98985927477
-0.624897272293
-4.13997032934
-2.84753150839