/*--------------------------------*- C++ -*----------------------------------*\
| =========                 |                                                 |
| \\      /  F ield         | OpenFOAM: The Open Source CFD Toolbox           |
|  \\    /   O peration     | Version:  v1906                                 |
|   \\  /    A nd           | Web:      www.OpenFOAM.com                      |
|    \\/     M anipulation  |                                                 |
\*---------------------------------------------------------------------------*/
FoamFile
{
    version     2.0;
    format      ascii;
    class       surfaceScalarField;
    location    "9";
    object      phia;
}
// * * * * * * * * * * * * * * * * * * * * * * * * * * * * * * * * * * * * * //

dimensions      [0 3 -1 0 0 0 0];
oriented        oriented;


internalField   nonuniform List<scalar> 
36474
(
-0.00187001916928
-0.00275189442925
0.00462198748057
5.09832883411e-05
0.000517831961351
-0.000568599599687
-8.98959600232e-05
-0.000566948653555
0.000657445777651
0.000125834534615
0.000902947554118
-0.00102871723235
0.000695475556971
-4.25691841419e-05
-0.000653547321415
-0.000727248008932
0.000863346188078
-0.000135976996437
-0.000110235416398
-0.00109380078207
0.00120434599672
-0.000211368417761
-0.00702675861876
0.0072382129881
0.00100379048046
-0.00174511729593
0.000741588578658
0.00459685912315
0.00309610067583
-0.00769219206117
-0.0010338078299
-0.000154258944444
0.00118803407851
0.00050244504595
0.000964167233228
-0.00146690145187
-0.000645102392754
0.00114752095465
-0.000768580251162
0.000315562290717
0.000452832134277
-0.000864912582301
0.00109257164569
-0.000227404518932
-0.00783301799132
0.000562700663422
0.00727015868493
0.00145751848796
-0.000604672949334
-0.000852726185806
-0.000172568406568
0.000669058866494
-0.000496516949651
-0.00111785332927
0.00268646601688
-0.00156823702686
0.000344189938371
0.000467164729109
-0.000812013136175
-0.00193076204933
-0.00085452229413
0.00278538318962
-0.00968410351911
0.00343402611765
0.00624973701877
-0.010535799011
0.000852100666859
0.000717054484486
-0.000733232022682
1.62075997168e-05
0.00011594203666
0.000601052474298
-0.00162392578889
0.00180584532342
-0.000181751252162
-0.000112069835266
-0.00151191754815
0.00162691275674
-0.00171488982964
8.77709492203e-05
0.000255444853518
0.00137155644933
-0.000783330040287
-0.000162084728888
0.000945060841108
-0.000882677921667
-0.00142523904828
0.00230797776559
-0.0013403924151
-0.000238347224845
0.00157876397793
-0.000850213305485
0.000123124323043
0.00321333516607
-0.00557370277874
0.00235962366413
0.0010594952415
-0.00324844667184
0.00218846151497
0.000708831818632
7.3679381197e-05
-0.000782351026268
-0.000157269132253
0.000226595657075
-6.94456148557e-05
-0.000477030748555
0.000648970037435
-0.000172490574919
-0.00138838379577
0.00208500448591
-0.000696717317306
-0.00225097899537
0.00103244629994
0.0012187408381
0.00018545968826
-0.00157391987917
-0.00196323661801
-0.000287532012376
-0.000723797309558
0.000697277749947
2.62330125885e-05
-0.000268923122646
-0.00045535661282
-0.00240967258864
0.00152703486454
-0.000250433618549
-0.000489379384792
0.000739743097739
0.000759894175399
-0.00103778442816
0.00027823045299
-0.000967500017709
0.00118392633807
-0.000216247377696
0.000574001239086
-0.00129881671579
0.000724700253025
0.00051926394334
-7.2749846247e-06
-0.000512207076984
0.00394843787201
0.00131119018162
-0.0052591928233
0.000923582758286
-0.000580244898289
0.000219411970342
-0.000613606622774
0.000394478389891
0.000663248418726
0.000197216104564
-0.000861162610299
-0.000499493010402
0.000913861008856
-0.000414959676192
-0.00154329735425
0.0012189391444
0.000324799122927
-0.000860845921647
-4.87341270713e-05
0.000909611613514
0.00175926658594
-0.00106865502698
-0.000690412082303
0.00673399124006
-0.00352132320286
0.000723494808622
-0.000146036395504
-0.000577370657878
0.000527181767526
0.000366354025949
-0.000893544701694
-0.000263790144788
0.000790998086605
-0.000760845805743
0.000714724941506
4.60828742213e-05
0.000651896233171
-0.000670448028469
1.84396168392e-05
0.000255790867565
-0.00110180914378
0.00084558776249
-0.000275461661433
-0.000758616525306
-0.00110623825944
0.000129473942058
0.000976269738059
-0.000853102711649
0.000531463069096
0.000321697273877
0.000628774786281
-0.000698939206867
7.01926169337e-05
0.000535233775493
-0.000800191073845
0.000264872809273
-0.000777452430348
0.000158487242666
0.0006189269228
0.00113384428613
0.000339913969079
-0.00147381154641
0.00254679386138
-0.00154970462351
-0.000997126292913
-0.00067020031694
0.000233809067838
0.000436606570396
0.000575911454338
-0.000151449205552
-0.000424577871428
-0.00079675839082
0.000930035330734
-0.000132435923015
-0.00056012779525
-0.000475922108715
0.00103656061752
6.89612778996e-05
0.000583050019976
0.00174442461569
-0.00161221926423
-0.000131905181301
-0.000468095550724
-0.000562314812195
0.00103028739232
-0.000925223123787
9.36918738314e-05
0.000831629542074
0.142727687306
-0.14272729783
0.00093036611377
-0.000930368877948
-0.000555946562073
0.000555948287773
0.00028291622986
0.000602261661711
0.00106942939826
-0.00197446925992
0.000905226484563
-0.0015715957917
0.00719150568921
-0.00561951930729
0.000375903328735
-0.000674586717284
0.000298337535864
-0.000861140677405
0.00196856528296
-0.00110778559348
-0.000598494196262
-0.000334997483487
0.000933651958702
-0.000477605158253
-0.000291030022029
0.000189179661575
-0.00105409835172
-0.00758408791443
-0.000249262892896
0.00102047098478
0.000437325694086
0.00136640071692
-0.000904955472016
-0.000462770746654
0.000468528487297
0.000265281095381
-0.000733827758488
0.00380895406862
0.000982814590742
-0.00479179886399
-0.000235368559446
0.000630362314221
-0.00039452598536
-0.000604087835215
-0.000157902450402
0.000761539872852
-0.000856567217202
1.60327591919e-05
0.000840972546396
-0.000901497490179
0.000372084927468
0.00052888561393
0.000215114210873
0.000879084544562
-0.00109436826507
0.000934438379886
-0.000719371643806
0.000583712146092
-0.0011438463231
-0.000983935857604
-0.000232830370672
0.00121484130579
0.000776377418818
-0.00176779755873
0.0009918581259
0.00153882166441
-0.00076239576827
-0.000301713317825
0.000451679186055
-0.000149773985683
-0.000562227502886
0.0002609602302
0.00060668105137
0.000124851033792
-0.000731233551407
0.000787948897696
-0.000853828788672
6.61962713306e-05
0.000761243560487
-0.000314679028948
-0.000447413975255
-0.0013403548584
0.00463414126195
-0.00329273150024
-0.000651175939855
-7.72861943677e-05
0.000729068635184
-0.000308943562508
0.000777195821862
-0.00272013458108
0.00652862053711
-0.000682775564665
0.00044688868266
-0.00227234190567
-0.00285998376239
0.00513246913371
0.00224765991471
-0.00451982905241
0.000175742257468
0.000555908333515
-0.000731615262629
0.000747852179171
-0.000571872112544
-0.000203205153926
-0.000509699801853
0.000712931674378
0.000500104225956
-0.000703724209717
-0.000106079297036
0.000602921023288
-0.000496585743605
0.000484494751018
-0.000590434494172
-0.000568352042676
0.000493555014005
7.50500470382e-05
-0.00155453179158
0.00175565630942
-0.000200864880392
2.37079021351e-05
0.000736326574064
-0.000544136921282
0.000371378472351
0.000745401246341
0.000613801409862
-0.00135888758353
0.00092257261518
-0.00133428628542
0.000411050614914
0.000806462470118
-0.000306352693508
-0.00101288422517
0.000960847487961
5.184322512e-05
-7.76600888424e-05
-0.00174155153207
0.00181878532312
-0.00206450507699
0.00198691955088
-0.00179092205174
0.00133673453013
0.000454646439438
-0.000851862588766
-0.000939228364887
0.0013126106092
-0.000738823181946
-0.000553100286339
0.000538020125569
1.5088556517e-05
0.0005946658495
-0.000639224654955
4.44231683794e-05
-0.00278916991402
0.00518929664134
-0.00239991899713
-0.000202902739084
-0.000415213584671
0.000618356582538
0.000726367899383
0.000602168080262
-0.0013286898251
0.00140925561982
0.000513628702117
-0.0019237555451
-0.000695136731236
-8.21965626427e-05
-0.000325716339243
-0.000396144421123
0.000721712995818
-0.000695507337051
-0.000317120039978
-0.00474386650958
0.000564253203303
0.00417940402017
0.000702777891138
0.00010895525129
-0.000812174092283
0.000261558374616
0.000492307657352
-0.000753729996489
-0.000198793324786
0.00090768039269
-0.00552613859015
0.00461512264186
0.000911004861348
-0.00373402648662
-0.00179152017744
0.000718522342619
0.000301088720698
-0.0010195108736
-0.000459626142651
0.000974439350611
-0.000514816748451
-0.000281678391772
0.000900764330314
-0.000619439080898
0.000616763677136
-0.00089860937632
0.000721290515372
-0.000855881622355
0.00013679676493
-0.000105877957289
0.000827564271815
-0.00195092813128
0.00235476204853
-0.000403230418814
-8.73879410524e-06
-0.001943237518
0.000783479453056
0.000130157223889
-0.000913347410402
-0.000389874908747
0.00018598692228
0.00064374756278
-0.000829943261857
0.000503094262422
0.000213053842908
-0.000716800709705
0.00107336758626
-0.0010728164099
-1.45446551993e-06
0.00130060292731
-0.000308967877547
-0.000991215215179
-0.000993286150569
0.000243744542838
0.000749413010388
-0.000206430881222
0.000925011671015
-0.000281705034408
0.000504924989246
-0.000223278331619
-0.000744667614431
-0.000441089312758
0.00118565434213
-0.00124947348816
0.000372377177463
0.000877963242034
-0.000334053942592
-0.00091584469362
-0.0011269640466
0.00231197749249
-0.00118499467961
0.000788220280529
-0.00191568791463
-0.002211591012
0.00101665230134
0.00119457303675
-0.00143116948988
-0.00078032929314
-0.000681724276807
0.000656382897614
2.57846570408e-05
-0.000177933538712
-0.000503683803737
-0.000812942138839
0.000231045978548
0.000581957690309
-0.000720018845579
-9.29352072422e-05
-0.00427090992517
0.000899781453785
0.00337138242465
0.000723738074769
-0.000327201006694
-0.000396947127961
0.00090441368499
-0.00135458877046
0.00045158222614
0.000779084417679
-0.000885446562445
0.00010685490012
-0.000660475887873
-8.64534369123e-05
0.000747449014884
0.000548981473694
-3.76426584185e-05
-0.000511292066432
0.000580099330385
-3.11318950592e-05
0.000624801793654
0.000978481005901
-0.00160353318565
-0.000276603153616
0.00118294897306
-0.000905553954708
0.000911835994009
-0.00118816258449
-0.000695162485963
0.000142307527276
0.000710854745553
-0.00011606253552
-0.00140485136731
0.000916383884449
0.000488970129771
-0.000179625667995
-0.00052680052043
0.000706754116715
0.000110026589724
-0.00076285023873
0.000653554660625
0.000548052085995
0.000252393971152
-0.00079965301261
0.000760737646632
0.000212582413287
-0.000972212904942
-0.000868202709681
0.000333794248975
0.000534460319462
0.000705470995781
-0.000922773953676
0.000216520651892
0.000552569334571
-0.000771372639795
0.000219000791598
-0.000347334878331
-0.000576714878535
0.000924941517397
0.00096793243338
-0.000703087748543
-0.000264392426843
-0.000911595159172
-0.00962475947757
0.00139212094395
-0.00150398650398
-0.001837354054
0.00153462873907
0.000302341086527
-0.00165487217236
-0.000182589553853
0.000405899944582
-0.00119783136686
0.000792151536428
0.00129557366969
-0.000889643519652
0.000347017480369
0.00035950600268
-0.000706719201125
0.000519892384977
0.000292123280226
-0.000812012578221
-0.000229784978561
-0.000735171019203
0.000964859414809
0.00351444887608
-0.00282223138294
-0.000693669157293
0.00103524470935
-0.00114540034496
-0.00176513640473
0.00196681066544
-0.00020197834247
0.000780130788674
7.85212933776e-06
0.0012665964957
0.000477666592413
-0.00121561632721
0.000680074192585
0.000535337694462
0.00534736452114
-0.0055587518842
0.00141125200148
-0.000407561388637
0.00500292745036
-0.000892407988646
-0.00411056854887
0.000906848177774
-9.62968400757e-05
-0.000810558269669
0.000444537755651
0.00114473819838
-0.00158962654918
-0.000604403711877
0.00102952117564
-0.000425588114033
0.000176988448463
0.00040337235514
-0.00041725851088
0.000594048913893
-0.000585284264323
0.00178968419534
-0.00120430398393
0.000643213321375
7.21391074771e-05
-0.000714399313287
0.000749123041366
0.00125660910527
-0.00200691910982
0.00226022150366
-0.00151172006056
-0.0017458244491
0.000954788215988
0.000791817506458
-0.0012993466699
-0.000445916637188
-0.0016520839972
0.00060773963443
0.00104464777314
-0.000670245346891
-0.000981405739646
0.000466687982759
-0.000363281554163
-0.000103340327631
-0.00190747224358
0.0015035565985
0.000403981591953
-0.00158963245681
0.00141599610824
0.000173499250936
0.000989612252888
-0.000650529779898
-0.000339114431589
-0.000920833907838
0.00064673513588
0.000273867807219
-0.000851387461105
0.000925014942729
-0.00101320958333
-0.00367566579317
0.00468874766649
0.000595857475003
-0.000880096044803
0.000284447206581
-0.000332990033534
-0.000161869425095
0.00049388631742
0.00107007342928
0.000729305237417
-0.00179842238259
8.4504186902e-05
0.000434465445043
-0.00035591786658
-0.000829494363579
0.0011848327503
-0.000432756085187
-0.000468320007493
-0.000428326304869
-0.000176316360911
0.000604574229576
0.000464649461851
-0.000915243525125
0.000450528302454
-0.000113369306863
0.0015231071732
-0.00022174805946
-0.000552420995321
0.000774805874354
0.00107206520539
-3.69800282879e-05
-0.000462265281343
-0.000142679481786
0.000605643148231
-0.000882104424369
0.000489641603598
0.000392833825243
-0.000774049244329
0.000447929366912
0.000255640377187
0.000169410190999
-0.000424780116891
-0.000199038184386
0.000454560963123
0.000849078203116
0.000203459371145
-0.00105174050886
0.000489469246278
-0.000269987847211
0.00103943555171
-0.00029021728915
-0.000749667959779
-0.00198567715544
0.00325316021319
-0.00126715464105
-0.00155717226778
0.00141992684956
0.000137817284065
-0.00313875555349
-5.39938280809e-05
0.003192575203
0.000872180204989
-0.000199644586363
-0.000671953299751
-0.000754726067021
0.0015090526354
-0.000755385279427
0.00351105177742
-0.00181185037231
-0.00169967956966
0.00040953022557
-0.00117140491956
0.000761021269879
0.000654495024845
-0.000834819190443
0.000180399917079
0.000162021703783
0.000327595652079
0.000302851782012
-0.00047575564274
0.000173034803513
-0.000341450354979
0.000533509158613
-0.000192470561636
0.000370773800289
-0.000576083161796
0.000205937448473
0.00158952801747
-0.000455581564168
0.00147173004166
0.00107459792811
-0.000588284505554
-8.19373651728e-05
0.00055319559702
2.30207860181e-05
0.000408130372532
0.000472237363532
-0.000880098466285
-0.00126636906413
0.00251901812976
-0.00125257619812
-0.000914261141962
0.00120710679911
-0.000292925954033
0.000135511356206
-0.001049673366
0.00103744178608
-0.00353323041207
0.00249590811964
-0.00238413514572
0.00342119193872
0.00055894017377
0.00077655572053
-0.00133545053943
9.54298501106e-05
0.000227851931554
-0.000323262671339
-0.00111847633446
0.000342054978999
0.000776789692595
-0.000164615543083
-0.000210951091015
0.00037556374432
-0.0010248560801
8.8045693175e-05
0.000936947652078
-0.00155472603544
-0.0026690049615
0.00422506787287
0.000378292541688
-0.000182908292732
-0.000195210286351
0.000501845999307
0.000705239768844
-0.00062872641105
0.0011309448377
-0.00371081287297
0.000937426473198
0.00277240800761
-0.000929757217224
-0.00278216842551
0.000769769024608
0.00132569815667
-0.00209652353115
-0.000420120452768
0.00074172559561
-0.000321602564183
-0.000514187015904
-0.00044903478479
0.000963638166804
0.000923725146655
-0.000948792373675
2.51444650953e-05
0.00126442054963
-0.000823168574878
-0.000441090516555
0.00065849383276
0.000606009309118
0.000856254293687
-0.000492578233282
-0.000363984117386
-0.000207706626849
0.000565249131125
-0.000357383586442
0.000561935667741
-0.00147935806481
0.000917673788104
-0.00749808938612
0.0040987096802
0.00339846199591
-0.00405079649691
-0.00344813380387
-0.00101273154159
0.000657056439737
0.000395531838955
-0.00108771083407
0.000692437196749
-0.000597401446389
0.000993628146072
0.0014681721844
-0.000167634190788
0.000297108433955
-0.000871689792308
0.000574915405139
-0.000384006316995
-0.000840959606098
0.00122419111199
0.00144475602981
-0.00116666753061
-0.000278094599549
6.73211923322e-05
0.000638924673583
-0.000706075170837
0.000512160658457
0.000414424203571
-0.000925913110418
-0.00162176754429
0.000356348107901
0.00126518913084
-0.00130669539425
0.000459452950539
0.000846894649211
0.000782721879449
-0.0003928632994
-0.00038978806065
0.00158418779237
-0.000682431235632
-0.000901919340835
0.00172215909754
-0.00164287295531
-7.88576589307e-05
0.0010265356398
-0.00122877488839
0.000202292834527
-0.000351006369806
0.0010494342365
-0.00069949546962
-0.000478114742155
-0.000431724353889
0.000909179236233
0.00170240108642
-0.00449147851217
-0.00068918833834
0.000486334891833
0.00166740547321
-0.000941070591639
-0.000919843602669
0.000902744287264
1.64017216663e-05
-0.000420058595162
0.000530330141621
0.000724521633164
0.000243343173781
0.000165170928733
-0.000798158286392
0.000634060183106
-0.000724313064633
0.000888720356473
0.00100258996428
-5.47692949047e-05
-0.00094807409197
0.0010514219241
-4.98954851048e-05
0.000222155069264
-0.000974304546292
0.000752271387223
0.00069545957891
-0.000765278141397
6.95273454647e-05
0.000689542589904
-0.000643932543659
-0.00112186088516
0.0017656219295
0.00107229607138
-0.00171650939246
-0.00164682053755
0.001791228577
-0.000144495225176
-0.00178419591086
0.000137936145075
0.000211807243367
-0.000598266173578
0.000386837761548
0.000603205936512
-0.000391454652458
-0.000621553195112
0.000902931375529
-0.000279689896556
0.00103143888848
-0.000181906150725
0.00435204805069
0.000178028487624
-0.00452979504685
0.000536363799492
-0.000902629779768
0.000366220112855
-0.000806312211737
0.000626962742387
-0.000381648197815
-0.000538739026893
0.000349206610866
-0.000731794131425
0.000646062626221
0.000189739682737
-0.000835439939342
0.000100677986871
-0.000528926697156
0.00085355194307
-0.000278187476679
-0.000575661449493
0.000731410561729
-0.000102742357327
0.00106934991981
-0.000291758917143
-0.000778290278568
-0.00105639570765
0.00263406433897
-0.00157661203848
0.00018845045709
0.000414419746221
-0.000602559772645
0.000606700110343
-0.001077308087
0.000469490377825
0.00277458389533
0.00073998160371
-0.000638726864029
0.00103863519945
-0.000400137106917
0.000169526466471
0.00260088957286
-0.00277031925108
-0.000169256197167
0.000556553720293
-0.000387455947957
-0.000729689267502
0.000267652598917
-0.00192425205905
0.00122002229575
0.000705233557538
-0.00161647583991
-0.000307877148542
-0.000220258300128
0.000940127808318
-0.000720410632604
0.00154172732595
-0.000780235887597
-0.000760409415909
-0.000865925162093
0.000413746374833
0.000452251761707
0.00126832201282
0.000274036909194
-0.000698984417288
-0.000167041098778
0.000685225650782
-0.000870743372484
0.000186153040644
0.000806801815086
-0.000351114997333
-0.00045590914211
-0.00103181234367
0.00097395551252
5.88325077915e-05
-0.000488738073533
-0.000543578320947
0.000800285655174
-0.000957846026329
0.000157286342092
-0.000679618605592
0.000738040893963
-5.87115138586e-05
-0.000203925245329
-0.000460675322151
0.000665188379897
0.000215458585249
-0.000808353697262
0.000593484980305
0.000666891604615
-0.000707024373062
4.04515843598e-05
-0.000532493095036
0.000250830674262
0.000720563085431
0.000350918049169
-0.00107131188596
0.00105192121569
-0.00033077328332
-0.000106599775979
0.000763897187527
-0.000657572354435
0.000469893944458
-0.000576553541803
-0.000408678754449
0.00106177629423
-0.00065285098414
0.00163361897924
-0.000387400228678
-0.0012462221391
-0.00267284576615
0.000497663512492
0.00217481353535
0.000346863609988
-0.00131469522407
-0.00145440125479
-0.00232181232957
0.00377675467462
-0.00127869124041
0.00163505416909
-0.000357053805422
-2.10658351051e-05
0.000893624793214
-0.000874131313945
0.000784623391505
-0.000805914732006
0.00112542643287
-0.000858449027673
-0.000266702191453
-0.000910611716871
0.00111137417299
-0.000200487768382
0.00047835523864
0.000409354193897
-0.000886930430843
0.00094630027224
-0.000592277910058
-0.000353993764539
0.00139214098047
-0.000475777595229
-0.00091654225054
0.00106175149632
0.000330515585784
-0.00201966520655
0.00267416822751
-0.000654300771353
-0.000998948256006
0.000938475909029
6.11769625823e-05
-0.00214324051524
-0.00176789912359
0.00391099996837
-0.000740610043745
0.000249801295682
0.000490786742686
-0.00061407493016
0.000407062040856
0.00123235657034
-0.000670531389315
0.000874825979774
-0.000113495541031
0.000254744307475
0.000619039294093
-0.000322272650427
0.00426999574098
-0.000224219211015
-0.00154111949402
-0.000928966133506
-0.00103900346969
0.0019686734776
-0.000544112547518
0.000855391766918
-0.000311492189919
-0.000888531081204
0.000219699853387
0.000668933735545
9.49985527053e-05
-0.000983270801605
-0.000734815290618
0.000797861352318
-6.27884246672e-05
-9.907133887e-05
-0.000635814716208
0.000145685585206
-0.00110718956917
0.000961231545042
0.00431530033375
-0.00517715032251
0.00086183911493
0.000178957070981
-0.00141783272109
0.00123911027609
-0.00130679780586
0.00148552968229
0.000303187313877
7.50730261785e-05
2.48189187694e-05
0.000911112009273
-0.000936599698627
-0.000358468760122
0.00069384741517
-0.000335097530146
-0.000559927128365
0.00148641080479
-0.000927768139517
0.00282939694892
-0.000441746093055
-0.00238741903659
0.000867707401011
-0.00118458633805
0.000317599736506
0.00104193726085
-0.000326910693811
-0.000714390762685
0.000370199638497
-0.00154227187648
0.00117247029619
-0.0016322665175
-0.000387184289753
-0.000166935213045
0.00108022225623
-0.000914682448495
0.00088385834305
-0.00105032934714
-7.50109419013e-05
-0.00419594442346
0.000604105176885
0.000914650112076
-0.0015178106998
0.000972811102131
-0.000249169800561
0.00139694052372
-0.000920601955956
-0.000476594562126
-0.000567511852641
-0.000209053381512
0.000777000916497
0.00135571632093
-0.00145690247338
0.000102833287438
0.000969525818385
-0.00223539546515
-0.00282178442881
-0.000781021008004
0.00360254079736
-0.00295409169906
0.000132643059656
-0.00015977434345
-0.000636674583457
-0.00132352566635
-0.000329314893808
0.00165339827054
-0.00155196170022
0.000228632176416
0.00156406489076
6.95465047735e-05
-0.00288827002089
0.00021544710398
0.00172853523708
0.000291035619691
-0.00201996921552
-0.000286647691906
0.000686343555352
-0.000399617742855
-0.000599977665349
-0.000706057243028
-0.000750121538246
0.000832698838067
-8.23597794075e-05
6.19241283466e-05
-0.000812008255706
0.000995446507196
-0.00108691426804
9.14080366387e-05
-0.00169954918638
0.00217033191717
-0.000470723203779
0.000561046505562
0.00101347326731
-0.00157489090989
-0.000197896447862
0.000714743909036
-0.000516798598553
0.00078271186335
0.000801026371718
-8.28028088776e-05
0.00110889880547
-0.00026819456242
0.000754057775476
-0.000485651174914
0.000524071116511
0.000475378862534
-0.000999156965882
0.000839624454865
-0.000516204361313
-0.000323372609828
0.000309224748803
0.000530209064802
0.015134866968
0.00651907866666
-0.0216541745128
0.0136095563633
0.00152491360205
0.00213904999016
-0.00125406448576
-0.000884820728473
0.00065979354794
0.00147932217729
0.00210653500238
-0.000816729007043
-0.00128989089515
0.00118807371582
0.000918595027685
-6.67047676854e-05
0.000583260645329
-0.000517088639407
0.001102719861
-0.000616327722231
-0.000488122402335
0.000250348366372
-0.00112106971719
0.000870935441629
-0.00168723177332
0.0010043866869
0.000964638256101
0.00112507940879
-0.00208977266214
-0.00182269541837
0.000732929086309
0.00109003720562
-0.000590529849058
-0.00020973139964
-4.89693769604e-05
-0.000807775229051
0.00105956341549
-0.0014549897615
0.000395118895255
0.00154191475816
-0.000759629230055
0.0041673635967
-0.00384027762128
-0.000327373700632
0.00309926611302
0.00106828574762
-0.000477412680882
-0.000187570564987
0.000664646216394
-7.3267140242e-05
-0.00067464740146
0.000747272133392
-4.99427464679e-05
-0.000227818949687
0.000277787939817
4.42371092749e-05
0.000242616452433
-0.000286546836627
-0.000152745408712
-0.00107065921023
0.0012234339604
8.03041935498e-05
-0.001074452149
0.000994156471862
-0.000191762871109
0.00073997933742
0.000930404796798
-0.000126209625653
-0.00080267440624
-0.000528018964373
-0.000490514979928
0.00101849981428
0.001182622457
-0.000884665034757
-0.000298255726149
0.000710019737296
0.000472633318644
-0.000138436139383
-0.000579181170618
0.000717049462977
0.0028897646707
-0.000636425143604
-0.00225328013169
0.000948006406393
-0.00022671180793
-0.00072166439798
0.00083008235596
0.000117781428315
-0.00082364957107
0.00112178496926
-0.00115772115896
0.000395336964228
0.000411129479164
0.00147791434511
0.000580696047087
-0.00205772182757
7.99353037399e-05
0.000601787148744
-0.000681568446328
0.000829605587268
8.20071067741e-06
-0.000838687382644
0.00127224270617
-0.000443427983613
0.000967584835256
-0.000523830420039
-0.000444503839495
0.000950629618394
1.71618252622e-05
0.00133989505908
-0.000594303325974
-0.000618447324145
-0.000250027378091
0.00044090108357
-0.00127081670886
-0.000661786242363
0.000184554073464
0.00130696064839
-0.00133897123317
3.17848718871e-05
-0.000605497991705
-0.000610314046174
-0.000628037282141
0.00102313611177
-0.000204900742102
-0.000705861161917
0.000861670450408
-0.000584938431432
-0.000277235447178
0.00234881723474
-0.00348014041339
0.00112976319231
-0.000841773038594
0.000152706421201
0.000689409952124
-0.000801645532172
0.000260343122163
0.000541378828634
-0.00299277963673
-0.00218604910082
0.00517822003741
-0.000359209044999
-0.00020801599574
0.000567759859614
-0.0011897333381
0.00140426060632
-0.000214452380619
-0.00198659185676
-0.000753383522165
0.00273996294397
-0.00161447549084
-0.000126614964904
0.00174112755478
0.000247662202659
-0.00223396788467
-9.67526776371e-05
-0.0015177453708
0.000508923795805
0.000123167412108
-0.000632213550678
-2.04870199712e-05
0.000529559679501
-0.00201668227717
0.00123421109112
0.000782223864908
-0.00102308039084
-0.000993056390195
-0.000776485002275
-0.00126248873762
0.00203970218166
-0.00230940649581
0.00153314756086
-0.000701804797987
9.33984734361e-05
0.000608315340004
-0.000858999708791
0.000156973409908
0.000906072393722
-0.000678869194498
-0.000227784561467
0.000727762055425
-0.000914132816256
0.000186497884148
0.000971018940496
-5.05911231726e-05
-0.000920643803028
0.000241728272055
-0.000741366131477
0.000202098708896
0.000758890162911
-0.00096167106015
0.000454005424217
-0.000734068250297
0.000280035170364
-0.000545798069512
0.00165760494807
-0.00111090255494
0.00115837542386
-0.00128122542377
0.000122383042099
3.67907111365e-05
0.00127032605118
0.000511739062969
-0.000779922834776
0.00184621973559
0.00166503577827
0.000230804181502
0.000235990023535
-0.000966651594423
-0.000940829548814
-0.000958785760936
-0.000630793271754
-0.000938697363952
0.00039449169006
0.000585951746534
-8.07207116275e-05
-0.000505426763812
0.000833615816052
-0.000927788300552
9.40244537077e-05
-0.000385329190908
0.0014451644364
0.000429044058365
0.000416973240868
-0.000846908496454
-0.000298578304804
-0.000436362809957
0.000734348313525
-0.00075926503017
0.000794710851961
-3.49876544982e-05
0.00164290807043
-0.00103908619384
0.00692164346226
-0.0032662176394
-0.00365505595189
0.000860482947844
-0.000254684613113
-0.000606147217511
-0.000885224750918
0.000301068673265
0.000584319484451
-0.0007045244571
0.000205217130235
0.000499454648469
0.000648242630866
-0.00177934804647
0.00113116628583
0.000585610916717
-0.00286452433839
0.00227895134269
0.000258157062024
-0.000594624931539
0.000336331073334
-0.000281454392096
0.000642170338843
-0.000360639429315
-0.000660538477469
0.0010316633346
-0.000371770147222
0.000431772273931
-0.000778425940118
0.00296006775918
-7.03869951947e-05
8.8095568747e-05
-0.000980302875562
0.000893773346952
-0.000842957918028
0.000595234190352
0.000247444114624
0.000576996203096
-0.000736638257898
0.000159774986798
-0.00116347818273
7.7572788496e-05
0.00108592048978
0.0010568324643
-0.000272083788582
0.000441842572321
0.000646980298411
-0.0010890827171
-0.000287420103283
-0.000564643475944
0.000852100391237
-0.000761298049018
0.00120311972988
0.00069283338334
-0.00098070747454
-0.00145396760251
-0.000577199381336
0.0020317635785
0.0018964488532
-0.0014004306323
-0.000496377696004
0.00435243823174
0.00256933816288
0.000670299542471
0.000190282108578
-0.000631822527799
-0.000252854364596
-0.000533416038283
-0.00017124895491
0.000455716680862
0.00021139033433
-0.00073347488491
0.000522431759222
0.00091544408807
0.000341806636937
-0.00125591037792
-0.000356807930944
0.00127238308601
-0.00176153113937
-0.00011354685185
0.00187577801099
-0.000193927830674
-0.000419436080503
-0.000625738120595
-8.93022115436e-06
0.000634973450403
-0.000661789100829
3.61592414307e-05
0.148013340183
-0.148014203497
0.000886462922829
-0.000886595767891
-0.000501421017638
0.000501296409515
0.00025578745921
0.000510853658954
-0.00487815198547
0.00118411126793
0.00369431622966
-1.43776545624e-05
-0.000696787605725
0.000710728319204
0.000508327476506
-0.000697726897474
0.000189197979757
2.46334198914e-05
0.000739681531878
-0.000764098259864
0.000726817473722
-0.000538249432885
0.000272369239158
-0.00341184326184
-0.00142108044926
0.000666250318712
0.00160956191222
0.000294501263467
-0.00190432204607
-0.000378517244707
0.000890900010675
3.08067944495e-06
0.000582514898068
0.000885284034211
-0.000931844923304
4.64535939093e-05
-0.000863391838715
-3.74759833951e-06
0.000867407756075
-0.000413841225777
-0.000468996814026
0.000883519592347
0.000448412869282
-0.00092879561487
0.000480731979091
0.00278155735031
0.00407075023244
-0.00685198345094
-0.00133457036408
-5.86588297386e-06
0.000699765083891
-1.87552332351e-06
-0.000697788654618
-0.000859836071259
0.000687161325708
0.000172805038755
-0.000807353755772
-0.000190536323401
0.000997916328823
-0.00165706565866
0.000232770094957
0.00142364503114
-0.00119111222613
-0.000466385699179
-0.00112556462782
0.0017610709915
-0.000635139413714
-0.000677523424958
-0.000176491465009
0.00494042702228
-0.00392167429551
-0.00101880956517
-0.000892590397566
0.000963293183324
-7.06470182193e-05