/*--------------------------------*- C++ -*----------------------------------*\
| =========                 |                                                 |
| \\      /  F ield         | OpenFOAM: The Open Source CFD Toolbox           |
|  \\    /   O peration     | Version:  v1906                                 |
|   \\  /    A nd           | Web:      www.OpenFOAM.com                      |
|    \\/     M anipulation  |                                                 |
\*---------------------------------------------------------------------------*/
FoamFile
{
    version     2.0;
    format      ascii;
    class       surfaceScalarField;
    location    "99";
    object      phi;
}
// * * * * * * * * * * * * * * * * * * * * * * * * * * * * * * * * * * * * * //

dimensions      [0 3 -1 0 0 0 0];
oriented        oriented;


internalField   nonuniform List<scalar> 
18240
(
-0.000351792058493
0.000352111362226
-0.000736966846198
0.00038554960589
-0.00112182425891
0.000385184345331
-0.00150165399658
0.000380217025135
-0.00187448078517
0.000373143456212
-0.00223842767555
0.000364347629381
-0.00259211742081
0.000353997044397
-0.00293402316354
0.000342321793099
-0.00326315645836
0.00032943165419
-0.00357828980167
0.000315566629811
-0.00387882234773
0.000300821764657
-0.00416380724788
0.000285437617657
-0.0044329962442
0.000269469067943
-0.00468568365012
0.000253162130115
-0.00492197588459
0.000236562562503
-0.00514137961422
0.000219903444677
-0.00534426794888
0.000203148629182
-0.00553025926411
0.000186519478575
-0.0056999534701
0.000169943395229
-0.00585305526113
0.000153662312326
-0.00599036712807
0.000137549260923
-0.00611162015373
0.000121850282521
-0.00621779328857
0.000106396906837
-0.00630859539906
9.14408125116e-05
-0.00638515135763
7.6764647288e-05
-0.00644712277638
6.26564866652e-05
-0.00649576432772
4.8832089343e-05
-0.00653065161219
3.56236217511e-05
-0.00655321759856
2.27356455523e-05
-0.00656294475307
1.05193090698e-05
-0.00656143466207
-1.36624644809e-06
-0.00654798475399
-1.25981474414e-05
-0.00652425021941
-2.3621013438e-05
-0.006489472414
-3.38639795488e-05
-0.00644558612222
-4.38102442347e-05
-0.00639163803253
-5.2971347354e-05
-0.00632968835278
-6.19173738573e-05
-0.00625860156108
-7.0048685764e-05
-0.00618062782165
-7.79942637769e-05
-0.00609446364153
-8.50690122492e-05
-0.00600257892573
-9.19656000852e-05
-0.00590346001533
-9.79745144743e-05
-0.00579972801556
-0.000103883424892
-0.00568969936463
-0.000108846359257
-0.00557618440414
-0.00011374446969
-0.00545730393928
-0.000117675298563
-0.0053360246516
-0.000121596356896
-0.00521024977817
-0.000124564449255
-0.0050830730465
-0.000127586561254
-0.00495221254359
-0.000129664332445
-0.00482083461047
-0.000131886158938
-0.00468649381461
-0.00013317832023
-0.00455241531356
-0.000134684869085
-0.00441599713527
-0.000135307893341
-0.0042804872126
-0.00013621370513
-0.00414317480523
-0.000136270235709
-0.00400729359985
-0.000136675529291
-0.00387007119175
-0.000136261729357
-0.0037347403251
-0.000136208936266
-0.00359850481257
-0.000135366517335
-0.0034645239046
-0.000134931129708
-0.00333001733083
-0.000133737121204
-0.00319808322797
-0.000132946228011
-0.00306600464459
-0.000131413942371
-0.00293676611101
-0.000130299064301
-0.00280771698182
-0.000128492977796
-0.00268176213987
-0.000127052592484
-0.00255638934718
-0.000124926869304
-0.00243434945841
-0.000123161690148
-0.00231324148201
-0.0001207728562
-0.00219561509432
-0.000118761657742
-0.00207921164811
-0.000116178204291
-0.00196641200468
-0.000113936540854
-0.00185510422826
-0.000111190036952
-0.00174743632978
-0.0001087964621
-0.0016414743767
-0.000105947154358
-0.00153915872483
-0.000103424197597
-0.00143872823388
-0.000100511753539
-0.00134189383014
-9.79114136997e-05
-0.00124705383231
-9.50072065244e-05
-0.00115569054918
-9.23953847441e-05
-0.00106641909685
-8.95126639911e-05
-0.000980509418448
-8.68856263039e-05
-0.000896827296792
-8.39856852574e-05
-0.000816524695979
-8.12149591428e-05
-0.00073880995482
-7.807110117e-05
-0.00066501539945
-7.46412357725e-05
-0.000595356635886
-7.00594819925e-05
-0.000532173258831
-6.39595932857e-05
-0.000475049989469
-5.75548210359e-05
-0.000424052901545
-5.17044189532e-05
-0.000370865242768
-5.37576832918e-05
-0.000305641476473
-6.60091407037e-05
-0.00022209308254
-8.45027811985e-05
-0.000115163348154
-0.000108166030098
-0.000115815118806
-0.000388854740121
0.000741312202997
-0.000822997544806
0.000820071807808
-0.0012546739299
0.0008172267693
-0.0016800105004
0.000805936897162
-0.00209711889812
0.000790616592017
-0.00250416085674
0.000771777774216
-0.00289952792429
0.000749728650127
-0.00328164617901
0.000724834686724
-0.00364927562312
0.000697426191868
-0.00400120401313
0.00066789743432
-0.00433659402995
0.000636578321754
-0.00465459510696
0.000603850318211
-0.00495475513585
0.000569997790771
-0.00523655393712
0.000535383372407
-0.00549984032716
0.00050022083354
-0.00574430857416
0.000464806786891
-0.00597009360314
0.000429309513999
-0.00617713142814
0.000394007096722
-0.00636580414127
0.000358997123423
-0.0065361395575
0.000324464522214
-0.00668865368956
0.000290450375366
-0.00682345050897
0.000257133349323
-0.00694115792858
0.000224498453568
-0.00704193967557
0.000192730788242
-0.00712654926878
0.00016177596607
-0.00719515594819
0.000131795782837
-0.00724861906129
0.00010270519296
-0.00728711076279
7.46744826281e-05
-0.00731150213285
4.75447042178e-05
-0.00732193120269
2.15355900976e-05
-0.00731933896379
-3.53381262446e-06
-0.00730383942921
-2.74818060297e-05
-0.0072765171382
-5.05142224232e-05
-0.00723736475456
-7.23725068607e-05
-0.00718750201052
-9.3242469146e-05
-0.00712692249008
-0.00011288115908
-0.00705682395358
-0.000131589268299
-0.0069771336398
-0.0001490475747
-0.006889155014
-0.000165556096462
-0.00679272304455
-0.000180794083952
-0.00668916332307
-0.000195127031355
-0.00657824899027
-0.000208175351262
-0.00646144143719
-0.000220320605448
-0.0063384403546
-0.000231138661627
-0.00621076292141
-0.000241091317799
-0.00607799355604
-0.000249754336985
-0.00594164821671
-0.000257662597888
-0.00580123816371
-0.00026431770864
-0.00565835458839
-0.000270255124313
-0.00551238251904
-0.000275028589881
-0.00536487972103
-0.000279248438493
-0.0052151398661
-0.000282373501278
-0.00506471236195
-0.000285055338795
-0.00491277145882
-0.000286779309769
-0.00476084116427
-0.000288175464092
-0.00460802392564
-0.000288702041464
-0.00445580715989
-0.000289014757371
-0.00430323332914
-0.00028854002103
-0.00415171725859
-0.000287937228589
-0.00400026426371
-0.00028661672188
-0.00385029231669
-0.000285202081345
-0.00370081123063
-0.000283108751753
-0.00355318025049
-0.000280957511933
-0.00340639968165
-0.000278176896166
-0.00326182400499
-0.000275330100722
-0.00311852574211
-0.000271862761648
-0.00297775409422
-0.000268347364396
-0.0028385992045
-0.000264238579563
-0.00270224146407
-0.000260103101795
-0.00256782839006
-0.00025542358136
-0.00243647205275
-0.000250754432817
-0.00230732747765
-0.000245636038441
-0.00218142612528
-0.000240519323812
-0.0020579737167
-0.000235025253525
-0.00193786078572
-0.00022962716231
-0.00182036329143
-0.000223889664967
-0.00170628777325
-0.000218244447602
-0.00159493814365
-0.000212359325112
-0.00148702869389
-0.000206581376206
-0.00138192546026
-0.000200649561157
-0.00128014756646
-0.00019493657735
-0.0011811623966
-0.000189065484173
-0.00108546070279
-0.000183341089585
-0.000992584854843
-0.000177446458407
-0.000902997335301
-0.0001715382858
-0.000816361438289
-0.000165302734462
-0.000733190232831
-0.000158527202463
-0.000653378005239
-0.000150477301821
-0.000577358666933
-0.000140663657977
-0.000504944439355
-0.000130570437476
-0.000434281419712
-0.000123007665461
-0.000366758124105
-0.000121928140299
-0.000295097015806
-0.000138458379915
-0.000210803300081
-0.000169720766583
-0.000107306037595
-0.000212743613204
-0.000223690704269
-0.000395815249716
0.00113747623736
-0.000835618129269
0.00126024754693
-0.00127355853301
0.00125553993392
-0.00170510322875
0.00123785831705
-0.00212812745051
0.00121401426601
-0.0025407383454
0.00118476835475
-0.0029412461463
0.0011506118937
-0.00332810034689
0.00111207267013
-0.00369999262112
0.00106969708699
-0.00405577168474
0.00102406549517
-0.00439453407147
0.000975723471792
-0.00471550870709
0.000925220367347
-0.00501818270302
0.000873059889859
-0.00530213166044
0.000819735514259
-0.0055671720664
0.000765655822652
-0.00581315557966
0.000711202774249
-0.00604013905817
0.000656695539632
-0.00624816547177
0.00060245697667
-0.00643746477983
0.00054870832085
-0.00660824911458
0.000495685175486
-0.00676090965087
0.000443533899758
-0.0068957460003
0.000392420847253
-0.00701325196351
0.000342439952983
-0.0071137901346
0.000293736907929
-0.0071979297796
0.0002463653787
-0.00726610389036
0.000200456450667
-0.00731890557875
0.000155971859275
-0.00735670216792
0.000112977687522
-0.00738016361248
7.14872318788e-05
-0.00738967663984
3.15760546764e-05
-0.00738593123791
-6.78249035466e-06
-0.00736936084115
-4.35041109697e-05
-0.00734068574314
-7.86779254429e-05
-0.00730033408218
-0.000112156829214
-0.00724901827044
-0.000144035105217
-0.00718709214801
-0.000174223498455
-0.00711535225743
-0.000202797909939
-0.00703417717103
-0.000229627121129
-0.00694439334598
-0.000254806938235
-0.00684634435945
-0.000278242433773
-0.00674088300917
-0.000300061192334
-0.00662833207358
-0.000320129795459
-0.00650956906438
-0.00033857291223
-0.0063849366081
-0.000355190273036
-0.00625527641329
-0.000370269075882
-0.00612083394857
-0.000383645307098
-0.00598255736159
-0.000395499282978
-0.0058406308723
-0.000405736662725
-0.00569587112866
-0.000414630968513
-0.0055484263743
-0.000422024496571
-0.00539914854204
-0.000428211896798
-0.00524803399519
-0.000433110694634
-0.00509583618795
-0.000437018343738
-0.00494255360971
-0.000439766348923
-0.00478892963163
-0.000441652196522
-0.00463486812655
-0.000442556423691
-0.00448102955559
-0.000442797016419
-0.00432725619162
-0.000442198341606
-0.00417418185358
-0.000441047623227
-0.00402162912781
-0.000439147012663
-0.00387018964463
-0.000436767777456
-0.00371966864068
-0.000433698386826
-0.00357064059884
-0.000430198700491
-0.00342291903126
-0.000426054554524
-0.0032770638526
-0.000421479851413
-0.00313287851346
-0.000416287214965
-0.00299088646258
-0.000410710212955
-0.00285087684423
-0.000404565125327
-0.00271334366887
-0.00039807669935
-0.00257806028245
-0.000391096168035
-0.00244550946433
-0.000383808981923
-0.0023155457944
-0.000376054709022
-0.00218852621157
-0.000368098517691
-0.00206428922445
-0.000359776037974
-0.00194323838768
-0.000351285816885
-0.00182513805752
-0.000342554482938
-0.0017102596476
-0.000333769628184
-0.0015983846237
-0.000324840014735
-0.00148967295376
-0.000315968026939
-0.00138398601048
-0.000306971439783
-0.00128155747046
-0.000298055677887
-0.0011821337038
-0.00028914073943
-0.00108583830924
-0.000280330946062
-0.000992440455253
-0.00027150114253
-0.000902015682221
-0.000262653120375
-0.000814365301748
-0.000253611063002
-0.000729562475102
-0.000244014103539
-0.000647264240645
-0.000233436754503
-0.0005671025246
-0.000221500404449
-0.00049067086153
-0.000207651839386
-0.000416950340984
-0.000197404554065
-0.000340279123344
-0.000199291680698
-0.000255242718823
-0.000224237638339
-0.000167141833687
-0.000258681106927
-8.3455895095e-05
-0.000297345346552
-0.000307592259212
-0.000402031597697
0.0015398560714
-0.000847972478429
0.00170656194189
-0.00129203131742
0.00169997173075
-0.00172945534515
0.00167565754194
-0.0021579799744
0.00164291362232
-0.00257563530532
0.00160280099639
-0.00298065226358
0.0015560063203
-0.00337146800578
0.00150326922711
-0.00374674740267
0.00144535768803
-0.00410535163306
0.00138305516192
-0.00444638206979
0.00131713996884
-0.00476912946453
0.00124835898807
-0.00507309937273
0.00117742183917
-0.00535794181509
0.00110497627438
-0.00562345728751
0.00103157072786
-0.00586956843862
0.000957720802995
-0.00609635150665
0.000883886845765
-0.00630393950832
0.000810462055463
-0.00649258224141
0.000737769861122
-0.00666255558368
0.000666087612508
-0.0068142366638
0.000595646050689
-0.00694801483694
0.000526642047441
-0.00706432756278
0.000459197984016
-0.00716362659954
0.000393494813551
-0.00724644720082
0.00032964712138
-0.00731323480423
0.000267720487117
-0.007364518406
0.000207734057879
-0.00740080070203
0.000149755316848
-0.00742265915669
9.38424889307e-05
-0.0074306217492
4.00535369317e-05
-0.00742525968271
-1.16292514503e-05
-0.00740707594716
-6.11536965075e-05
-0.00737670918075
-0.00010851207257
-0.00733467511564
-0.000153638962209
-0.00728160874708
-0.00019655351604
-0.00721802885158
-0.000237236493729
-0.00714459565744
-0.00027567183256
-0.0070617922477
-0.000311853284265
-0.00697026050548
-0.000345773536981
-0.00687054440403
-0.000377377663024
-0.00676334007612
-0.00040670283835
-0.00664923591176
-0.000433658766943
-0.00652885855036
-0.000458400440707
-0.00640262590309
-0.000480865262203
-0.00627127217208
-0.000501099214726
-0.00613529108905
-0.000519100452971
-0.00599530814227
-0.000534999318026
-0.00585180935452
-0.000548756499761
-0.00570546563424
-0.000560547947238
-0.00555664834069
-0.000570424879715
-0.0054059393755
-0.000578563959687
-0.00525366547987
-0.000585042704176
-0.00510036186478
-0.000590046373607
-0.00494619799531
-0.000593673258433
-0.0047915922761
-0.000596071018596
-0.00463675518042
-0.000597227528088
-0.00448206496348
-0.000597393313094
-0.00432762575448
-0.000596565297185
-0.00417379049911
-0.00059488264897
-0.00402064942727
-0.000592309299708
-0.00386851332247
-0.000588995746358
-0.00371745428518
-0.000584869578467
-0.00356777210708
-0.000580060927921
-0.00341952492862
-0.000574500530289
-0.00327306709469
-0.000568201340215
-0.00312845951597
-0.000561175478582
-0.00298594216886
-0.000553569260021
-0.00284552808006
-0.000545336313278
-0.00270750626375
-0.00053651260032
-0.0025719019578
-0.000527128050454
-0.00243891925853
-0.000517271455468
-0.00230859906906
-0.00050686631827
-0.00218122953931
-0.000496006441237
-0.00205681270652
-0.000484740798983
-0.00193547733711
-0.000473210272061
-0.00181721672411
-0.000461411216558
-0.00170216410736
-0.000449453027307
-0.00159028379583
-0.000437354941667
-0.00148165880082
-0.000425254746965
-0.00137616857492
-0.000413123120446
-0.0012738338559
-0.000401070941465
-0.00117447379572
-0.000389176820681
-0.00107807700037
-0.000377415035589
-0.000984499238193
-0.000365758752756
-0.000893709313689
-0.000354129288236
-0.000805520038445
-0.000342480131507
-0.000719491897873
-0.000330729289639
-0.000635412468147
-0.000318199287391
-0.000552554147658
-0.000305052785735
-0.000469520596188
-0.000291373018538
-0.00038634170433
-0.000281272534888
-0.000303110404237
-0.000283223585417
-0.000217772330393
-0.000310332260498
-0.000135233671366
-0.000341963731299
-6.63030622314e-05
-0.000367029500747
-0.000374296839925
-0.000410046464856
0.00195025104602
-0.00086449892274
0.00216138464956
-0.00131684373282
0.00215269037459
-0.00176214239032
0.00212133025717
-0.00219799036367
0.00207913672246
-0.00262231572104
0.00202750280477
-0.00303328323057
0.00196735159858
-0.00342928111754
0.00189964699042
-0.00380894976591
0.00182540796725
-0.00417117871015
0.00174566847214
-0.00451509137468
0.00166143920844
-0.00484003465739
0.00157369227094
-0.00514556192019
0.0014833418745
-0.00543136605903
0.00139117736307
-0.00569731667014
0.00129792164582
-0.00594342792211
0.00120423741894
-0.00616981827378
0.00111068664254
-0.00637669109056
0.00101775033325
-0.00656434263895
0.000925841694897
-0.00673312026581
0.000835292639686
-0.00688340363434
0.00074636250943
-0.00701560134979
0.000659281084965
-0.00713020843906
0.000574252859186
-0.00722772809576
0.000491471654863
-0.00730867382743
0.000411057284311
-0.00737350378033
0.00033302527673
-0.00742275736051
0.000257470203227
-0.00745698618377
0.00018447798951
-0.0074767218322
0.000114079995328
-0.00748251302822
4.63583308764e-05
-0.00747494158619
-1.86794276523e-05
-0.00745458764489
-8.09745536366e-05
-0.00742205707794
-0.000140502650876
-0.00737786395671
-0.000197280787371
-0.00732256461438
-0.000251296237057
-0.00725673739907
-0.000302496840754
-0.00718099695141
-0.000350842370942
-0.00709594535152
-0.0003963268208
-0.007002190166
-0.00043895117771
-0.00690033121147
-0.000478654058907
-0.00679092913342
-0.0005155276103
-0.00667451992356
-0.000549490473527
-0.00655175598726
-0.000580598491229
-0.00642320900665
-0.00060885238347
-0.00628954248864
-0.000634224862316
-0.0061513683387
-0.000656747416369
-0.00600933297963
-0.00067653478203
-0.00586393070671
-0.00069368066784
-0.00571569153509
-0.00070834425278
-0.00556512130959
-0.000720582018873
-0.00541274676458
-0.000730567706668
-0.00525896614361
-0.000738488584584
-0.00510420802577
-0.00074451720593
-0.00494880114728
-0.000748833312665
-0.00479305947492
-0.000751616696378
-0.00463719990618
-0.000752933699295
-0.0044815205496
-0.000752971523736
-0.00432620157725
-0.000751826416505
-0.00417149178811
-0.000749586700532
-0.00401757880844
-0.000746258813496
-0.00386465138578
-0.000742010316467
-0.00371288671894
-0.000736761787226
-0.00356250407056
-0.000730619800789
-0.00341365913918
-0.00072355996194
-0.00326671562774
-0.000715405298424
-0.00312166272759
-0.000706524942422
-0.00297857154012
-0.000696999981336
-0.00283758449695
-0.000686696409972
-0.00269895469835
-0.000675555162551
-0.00256277426923
-0.000663751904464
-0.00242920425401
-0.000651321042719
-0.00229842232112
-0.000638155021495
-0.00217061550696
-0.000624352464276
-0.00204581603523
-0.00061010295037
-0.00192409287157
-0.000595524249626
-0.0018055252711
-0.000580588856848
-0.00169024740388
-0.000565364262378
-0.00157826236291
-0.000549987419766
-0.00146954117099
-0.000534641058547
-0.0013640237021
-0.000519314062177
-0.00126170059881
-0.000504078880669
-0.0011625009527
-0.000489063888002
-0.0010663261752
-0.000474282897407
-0.000973016214873
-0.000459759907101
-0.000882300991897
-0.000445537798983
-0.00079390631043
-0.000431567374683
-0.000707537016174
-0.000417794151379
-0.000622519558078
-0.000403918839883
-0.000538325242534
-0.000389954357929
-0.000450733510691
-0.000379676323399
-0.000360413905204
-0.000372314728832
-0.000270611706157
-0.000373721783871
-0.000190438051621
-0.000391176012467
-0.000115125833829
-0.000417980131076
-5.21154092546e-05
-0.000430733648591
-0.00042673993447
-0.000420237124985
0.00237083592387
-0.000885740144084
0.00262726073691
-0.00134879202775
0.00261611507699
-0.00180421280585
0.00257712545499
-0.00224943592121
0.0025247346661
-0.00268226879798
0.00246071200128
-0.00310077371945
0.00238623421352
-0.00350329182646
0.00230254472422
-0.00388846787343
0.00221096558523
-0.0042551961769
0.00211278082489
-0.00460264691115
0.00200927649556
-0.00493024967508
0.00190168467256
-0.00523760066581
0.00179108561052
-0.00552448472163
0.00167845796326
-0.00579088005287
0.00156471734626
-0.00603687704938
0.00145063937658
-0.00626267488825
0.00133689405584
-0.0064685716486
0.00122406219427
-0.00665490251678
0.00111259320648
-0.00682204625404
0.001002863539
-0.00697045671849
0.000895206635177
-0.0071006134055
0.000789879032792
-0.0072130569897
0.000687145225612
-0.00730830315753
0.00058717522273
-0.00738681301976
0.000490032959884
-0.00744913604555
0.000395823673746
-0.00749581862176
0.000304637350806
-0.00752739403613
0.000216548187479
-0.00754445828749
0.000131648675374
-0.00754756597925
4.99810102164e-05
-0.00753731643927
-2.84042615899e-05
-0.00751425563783
-0.000103500306582
-0.00747891348576
-0.000175300498926
-0.00743189287914
-0.000243747382307
-0.00737378538982
-0.000308841365523
-0.00730518423114
-0.000370527318235
-0.00722666575348
-0.000428783644454
-0.00713883763652
-0.000483571659065
-0.00704226794602
-0.000534933971208
-0.00693748879477
-0.000582843849498
-0.00682512963684
-0.000627298431824
-0.00670576039566
-0.000668274000252
-0.00658005749351
-0.000705723052823
-0.00644870895316
-0.000739631979827
-0.00631229210535
-0.000770088286287
-0.00617138088205
-0.000797122588991
-0.00602662570468
-0.000820778484462
-0.00587865872517
-0.000841162124407
-0.00572808302439
-0.000858468217726
-0.00557535784248
-0.000872889230035
-0.00542092931338
-0.000884619771184
-0.00526525703163
-0.000893824408033
-0.00510877056611
-0.000900714256529
-0.00495180009104
-0.00090555839969
-0.00479463160384
-0.000908589864341
-0.00463748578443
-0.000909930286956
-0.0044806240523
-0.000909735124966
-0.00432427178152
-0.000908126738606
-0.00416859135331
-0.000905265527265
-0.00401381035751
-0.000901083068614
-0.00386005951688
-0.000895852947825
-0.0037074905593
-0.000889465797712
-0.0035566760992
-0.000881615512642
-0.00340751786039
-0.000872940785253
-0.00325990696463
-0.000863282725655
-0.00311404190586
-0.000852695165361
-0.00297014825398
-0.000841239780719
-0.00282844093705
-0.000828785930959
-0.0026890955631
-0.000815320619331
-0.00255224588844
-0.000801054656168
-0.00241805833282
-0.000785995781072
-0.00228663138634
-0.000770098950287
-0.00215809222747
-0.000753438759965
-0.00203268678126
-0.000736081445918
-0.00191057279897
-0.000718237086613
-0.00179164794569
-0.000700134306511
-0.00167596379724
-0.000681689537179
-0.0015636534443
-0.00066295581918
-0.00145478637133
-0.000644180737346
-0.00134922414039
-0.000625560211968
-0.00124697299411
-0.000607022492503
-0.00114788075227
-0.00058885408847
-0.00105176587783
-0.000571098849077
-0.00095851526723
-0.000553712024306
-0.000867900825634
-0.000536854358214
-0.000779555268904
-0.000520615734346
-0.000693124554094
-0.000504930770098
-0.000608103499039
-0.0004896514767
-0.000523770180516
-0.000475009309811
-0.000438296713925
-0.000465881708858
-0.000348994558979
-0.000462326335321
-0.000260965550903
-0.00046244822092
-0.000182540690573
-0.000470302208169
-0.000112191993998
-0.000488985790247
-4.63663228371e-05
-0.000497191237552
-0.000473433737546
-0.000432866579498
0.00280405111167
-0.000912128314081
0.0031068922578
-0.00138848241558
0.00309284317997
-0.00185643811239
0.00304545499092
-0.00231322400279
0.00298189575065
-0.0027564856413
0.00290434983845
-0.00318417603946
0.00281430240104
-0.00359459508534
0.0027133432967
-0.00398637050639
0.00260312260751
-0.00435843592232
0.00248523014877
-0.00471004436005
0.00236127146292
-0.0050406772142
0.00223270698299
-0.00535003267475
0.00210083379502
-0.00563805130386
0.00196687294089
-0.0059048075419
0.00183187393358
-0.00615049915962
0.00169673578579
-0.00637544212314
0.00156224668219
-0.0065799933156
0.00142902841742
-0.00676456661852
0.00129758737002
-0.0069296477314
0.00116837191383
-0.00707573931441
0.00104173237346
-0.00720338613783
0.00091796747938
-0.00731317932134
0.000797387980718
-0.00740560029253
0.000680054287417
-0.00748114196038
0.000566041673772
-0.00754038174662
0.0004555399255
-0.00758390374248
0.000348645560703
-0.00761229216504
0.000245432944374
-0.00762613406083
0.00014599722338
-0.00762602029169
5.03843443159e-05
-0.00761247848352
-4.14185840924e-05
-0.00758605953692
-0.000129381397406
-0.00754736666637
-0.000213445407468
-0.00749699323403
-0.000293562938504
-0.00743555373349
-0.000369713736701
-0.00736361157832
-0.00044189343449
-0.00728173325012
-0.000510078308835
-0.00719047704359
-0.000574237276144
-0.00709039606454
-0.000634419706857
-0.0069820570593
-0.000690584094086
-0.0068661353966
-0.000742621289
-0.00674331488104
-0.000790497585558
-0.00661416608549
-0.000834281485035
-0.0064792785586
-0.00087393852784
-0.00633937615494
-0.000909424568148
-0.00619517728001
-0.00094077399833
-0.00604726025558
-0.000968172289028
-0.00589621009321
-0.000991717786651
-0.00574265659564
-0.001011560431
-0.00558717250517
-0.00102795015398
-0.00543030710876
-0.0010411025141
-0.00527243384363
-0.00105136009166
-0.00511390324417
-0.00105895280372
-0.00495508453881
-0.0010641342704
-0.00479626313483
-0.00106721673831
-0.00463766328576
-0.00106838604935
-0.0044794856493
-0.00106781753889
-0.00432186198117
-0.00106570517802
-0.00416499553197
-0.00106213440802
-0.00400915278559
-0.00105697661364
-0.00385490338459
-0.00105019902834
-0.00370217512326
-0.00104233718679
-0.0035505925175
-0.00103338522089
-0.00340036197775
-0.00102340290444
-0.00325159347146
-0.00101232413032
-0.00310470866118
-0.000999894709732
-0.00295992759378
-0.00098637419362
-0.00281721317007
-0.000971892549923
-0.00267688205407
-0.000956079752683
-0.00253913135258
-0.000939268816638
-0.00240409979044
-0.000921523280152
-0.00227203528889
-0.00090269114998
-0.00214295756918
-0.000883072895029
-0.00201690618789
-0.000862716830698
-0.00189413429907
-0.000841617491208
-0.00177483011834
-0.000820069596501
-0.00165898331109
-0.000798187562489
-0.00154653985084
-0.000776067333975
-0.00143749552423
-0.000753907705025
-0.00133192677522
-0.000731822676889
-0.0012297319416
-0.000709919699904
-0.00113080688038
-0.000688486787761
-0.00103497657672
-0.000667639897022
-0.00094197348521
-0.00064742653013
-0.000851560655603
-0.000627978907634
-0.000763494723373
-0.000609394132871
-0.000677246951198
-0.000591894044196
-0.000592287410567
-0.000575332409378
-0.000507641276304
-0.000560380560741
-0.00042473964385
-0.000549507841688
-0.00034217114166
-0.000545628380256
-0.000259287327038
-0.000546027120653
-0.000182442741759
-0.000547794097779
-0.0001156672963
-0.000556445429937
-4.99374184246e-05
-0.000563582463892
-0.000523672088252
-0.00044821003063
0.00325260908617
-0.000944192017985
0.0036032479658
-0.00143668115936
0.00358570532411
-0.00191978154545
0.00352893009575
-0.00239046991787
0.00345295916238
-0.00284618698557
0.00336044337614
-0.0032847745767
0.00325326782054
-0.00370447346629
0.00313342183887
-0.00410391642179
0.00300294717804
-0.00448210083699
0.00286379852492
-0.00483835830595
0.00271791543942
-0.00517228719555
0.0025670253383
-0.00548375947068
0.00241269873608
-0.00577285105521
0.00225636087417
-0.00603977847466
0.00209920167883
-0.00628488634822
0.00194224850686
-0.0065085837078
0.00178635375839
-0.00671134080033
0.00163220072308
-0.00689370314333
0.00148037081476
-0.00705622356072
0.00133131999723
-0.00719947323818
0.00118541668665
-0.00732411868273
0.00104305525032
-0.00743065960641
0.000904379314806
-0.00751961877091
0.000769472607393
-0.00759163547989
0.000638526621637
-0.00764726659638
0.000511648966599
-0.00768711342764
0.000388980249125
-0.00771180138363
0.000270619114958
-0.00772188462639
0.000156589213717
-0.00771789622818
4.69153969236e-05
-0.00770044289659
-5.83417259467e-05
-0.00767012781431
-0.000159155670658
-0.00762756397005
-0.000255457725591
-0.00757330162859
-0.000347263489788
-0.00750790635006
-0.00043453689142
-0.00743198626302
-0.000517232088727
-0.00734609568611
-0.000595378277888
-0.00725076156072
-0.000668973423556
-0.00714657261331
-0.000738003994113
-0.00703419612191
-0.000802352073548
-0.00691421046733
-0.000861996317225
-0.00678719144387
-0.000916907687866
-0.00665384457113
-0.000967024434469
-0.00651488237704
-0.00101230634194
-0.00637095602027
-0.00105277104506
-0.00622270271843
-0.00108846664154
-0.00607086832771
-0.00111947142484
-0.00591614055306
-0.00114593976283
-0.00575921513965
-0.00116801619074
-0.00560061652674
-0.00118611752599
-0.0054408407329
-0.00120049166996
-0.00528035333482
-0.00121150592431
-0.00511950293148
-0.00121951159149
-0.00495857777691
-0.00122481662288
-0.00479784340418
-0.00122776015648
-0.00463751229038
-0.00122857600593
-0.00447771715321
-0.00122752313023
-0.00431871187686
-0.00122466961837
-0.00416089259653
-0.00121996305884
-0.00400463725988
-0.00121328817221
-0.00384938551504
-0.00120555545808
-0.00369516933454
-0.00119670282654
-0.00354220194361
-0.00118654856468
-0.00339074283369
-0.00117510023295
-0.00324102810727
-0.0011623213773
-0.00309305516001
-0.00114818978755
-0.00294697059269
-0.00113282205131
-0.00280314257231
-0.00111612112168
-0.00266172618321
-0.00109793474433
-0.00252302861385
-0.001078439146
-0.00238702884754
-0.00105803030664
-0.00225400095706
-0.00103625676711
-0.00212414048218
-0.00101350149951
-0.0019975813446
-0.000989870628094
-0.00187437556605
-0.000965443250056
-0.00175463169843
-0.0009404556983
-0.00163835831916
-0.00091512295001
-0.00152569792627
-0.000889406670557
-0.0014166768741
-0.000863621960896
-0.00131121769041
-0.000837986130091
-0.00120918973379
-0.000812660082691
-0.00111057346789
-0.000787820824204
-0.00101520804945
-0.000763725639879
-0.000922914430603
-0.00074044144625
-0.000833361330624
-0.000718252869527
-0.000746187035093
-0.000697290898916
-0.000660821556765
-0.000677983781448
-0.00057668844523
-0.000660192778279
-0.000493391494938
-0.000644410130598
-0.00041184930127
-0.000631782856931
-0.000333677532612
-0.000624503113225
-0.000257633466345
-0.000622762473463
-0.00018262318544
-0.000623507102739
-0.000116680024841
-0.000623039359836
-5.32216681526e-05
-0.000627675284032
-0.000577219560768
-0.000466602240306
0.00371956071375
-0.000982612670355
0.00411962847872
-0.00149437222668
0.00409783963671
-0.00199548592415
0.00403041813447
-0.00248260195848
0.00394045094222
-0.0029529277916
0.00383114583173
-0.00340417362365
0.00370489183156
-0.00383452668882
0.00356415471441
-0.00424264529246
0.00341144762078
-0.00462762029061
0.00324915757799
-0.0049889144409
0.0030795962461
-0.00532630702987
0.00290480744125
-0.0056398703335
0.00272665483727
-0.00592984042432
0.0025467273716
-0.00619660214161
0.00236636388656
-0.00644066779624
0.00218671914145
-0.00666261357271
0.00200870954553
-0.00686306830319
0.0018330709622
-0.00704267242148
0.00166039653558
-0.00720207248679
0.00149114827022
-0.00734196936561
0.00132574901514
-0.00746296544401
0.00116449452218
-0.00756563298315
0.00100749841637
-0.00765061117623
0.000854911171717
-0.00771849700863
0.000706882233222
-0.00776993151053
0.000563562961399
-0.00780554567232
0.000425084142149
-0.0078259022773
0.000291475849987
-0.00783156515575
0.000162763074638
-0.00782315284479
3.9024840027e-05
-0.00780125672044
-7.97050344422e-05
-0.00776650717964
-0.00019336151183
-0.0077194536101
-0.00030195641488
-0.00766068195392
-0.000405469388808
-0.00759079651096
-0.00050384562767
-0.0075103281073
-0.000597113309332
-0.00741979959878
-0.000685309663309
-0.007319800326