/*--------------------------------*- C++ -*----------------------------------*\
| =========                 |                                                 |
| \\      /  F ield         | OpenFOAM: The Open Source CFD Toolbox           |
|  \\    /   O peration     | Version:  v1906                                 |
|   \\  /    A nd           | Web:      www.OpenFOAM.com                      |
|    \\/     M anipulation  |                                                 |
\*---------------------------------------------------------------------------*/
FoamFile
{
    version     2.0;
    format      ascii;
    class       surfaceScalarField;
    location    "935";
    object      phia;
}
// * * * * * * * * * * * * * * * * * * * * * * * * * * * * * * * * * * * * * //

dimensions      [0 3 -1 0 0 0 0];
oriented        oriented;


internalField   nonuniform List<scalar> 
18240
(
0.0008506988111
-0.000850651126733
0.0017435482568
-0.000892795270662
0.00263434198268
-0.000890745424123
0.00351796061068
-0.000883563761947
0.00439154810293
-0.000873541186218
0.00525257362973
-0.000860970836674
0.00609866432286
-0.000846046673836
0.00692763257147
-0.000828914385489
0.00773740483626
-0.000809730701122
0.00852609817371
-0.000788640909701
0.00929194761735
-0.00076581040596
0.0100333877873
-0.000741389709519
0.0107489701541
-0.000715545779046
0.0114374418785
-0.00068842367677
0.012097655581
-0.000660179380263
0.0127286417013
-0.000630940825348
0.0133295155716
-0.000600841495468
0.0138995406577
-0.000569982774763
0.0144380387042
-0.000538467196767
0.014944441831
-0.00050636390579
0.0154182119745
-0.000473740278008
0.0158588802212
-0.000440632095558
0.0162659818324
-0.000407072081011
0.0166390812349
-0.000373066158824
0.0169777284751
-0.000338617290566
0.0172814681106
-0.000303708993
0.0175498222324
-0.000268322880204
0.0177822812603
-0.000232430529303
0.017978318039
-0.000196003290392
0.0181373587467
-0.000159013758785
0.0182588318009
-0.000121436259069
0.018342114948
-8.32570402278e-05
0.0183866225731
-4.44664428474e-05
0.0183917313673
-5.0827576424e-06
0.0183569073389
3.48707404126e-05
0.0182816027204
7.53313700892e-05
0.0181654245979
0.000116231470632
0.0180079999371
0.000157452911661
0.0178091844392
0.000198876714808
0.0175688888511
0.000240326202116
0.017287325916
0.000281633412255
0.0169647901203
0.000322570006209
0.0166019407439
0.000362931044551
0.016199529081
0.000402451490139
0.0157587182684
0.000440906188884
0.0152807587408
0.000478008396222
0.0147673485276
0.000513522502349
0.0142202698692
0.000547141847831
0.0136417931735
0.000578609264391
0.0130343017167
0.000607576584765
0.0124007289611
0.000633728533664
0.011744207474
0.000656638005808
0.0110684961742
0.000675891221031
0.0103776857898
0.00069096745003
0.00967652293505
0.000701363251095
0.008970195434
0.000706531024338
0.00826442761856
0.000705981434083
0.00756536712724
0.000699303877107
0.00687936233359
0.000686218247987
0.00621293272701
0.000666700001239
0.00557211632657
0.000641013113246
0.00496250573196
0.000609893866011
0.00438850957916
0.000574164651706
0.00385395753605
0.000534817391072
0.00336130934992
0.000492767001274
0.00291269092157
0.00044881519241
0.00250911010616
0.000403628877242
0.00215064930353
0.000358572448967
0.00183559164116
0.000315050926215
0.00156132947044
0.00027431226032
0.00132424897094
0.000237052141487
0.00112065287448
0.00020361799831
0.000946653371774
0.000173973758023
0.000798732587049
0.000147941851322
0.000673521530528
0.00012520121328
0.000568080870656
0.000105473023602
0.000479589772015
8.84979723504e-05
0.00040554383375
7.40861316565e-05
0.000343599274001
6.19596194646e-05
0.000291857739041
5.17841028096e-05
0.000248658961511
4.32182615916e-05
0.000212704424448
3.59974399137e-05
0.000182882585944
2.98446760391e-05
0.000158495048876
2.44322664475e-05
0.000139494236921
1.90275282925e-05
0.000123643024222
1.58992965797e-05
0.000109170983322
1.45074825255e-05
9.6744974298e-05
1.2484023648e-05
8.51184309509e-05
1.16778314572e-05
7.34281240439e-05
1.17637694736e-05
6.21299913546e-05
1.13718632176e-05
5.13050861144e-05
1.09176643238e-05
3.99294486881e-05
1.14771083295e-05
2.7182677024e-05
1.2861286234e-05
1.30979453157e-05
1.42176670078e-05
1.31678939538e-05
0.000898178106673
-0.0017487779325
0.00185189909442
-0.00184646136172
0.00280040605188
-0.00183919920774
0.00374036164268
-0.00182346475225
0.00466927626973
-0.00180240385687
0.00558464487563
-0.00177628586887
0.00648401121814
-0.00174536275674
0.0073650536273
-0.00170990475101
0.00822558343122
-0.00167021231862
0.0090635878946
-0.001626595303
0.00987720711853
-0.00157938378517
0.0106647690814
-0.00152890392146
0.0114247561924
-0.00147548954077
0.0121558340626
-0.00141945635209
0.0128568104466
-0.00136111494355
0.0135266572741
-0.00130074513264
0.0141644647551
-0.00123861059333
0.0147694566946
-0.00117493486686
0.0153409432528
-0.00110991760078
0.0158783301982
-0.00104371354796
0.016381074326
-0.000976450140709
0.0168486877016
-0.000908210454191
0.0172806998693
-0.000839051416962
0.0176766580919
-0.000768991257149
0.0180361000692
-0.0006980272729
0.0183585507668
-0.000626127927336
0.0186435087101
-0.000553248956291
0.0188904395048
-0.000479330253343
0.0190987781007
-0.000404309298642
0.0192679185693
-0.000328123056672
0.0193972351506
-0.00025071860585
0.0194860700351
-0.000172059766749
0.0195337729473
-9.2132456357e-05
0.0195396828425
-1.09585676437e-05
0.0195031899151
7.14042442187e-05
0.0194237128818
0.000154845363791
0.0193007808503
0.000239208806529
0.019134001627
0.000324272929546
0.0189231612015
0.000409768240055
0.0186681774806
0.000495355618735
0.0183692128273
0.000580656284301
0.0180266061889
0.000665228680804
0.0176409939897
0.0007486103847
0.0172132152517
0.000830290784664
0.0167444392217
0.000909760928759
0.0162360444668
0.000986475545221
0.0156897578529
0.00105990306731
0.0151075193755
0.00112946928821
0.0144916429892
0.00119459953885
0.0138446892898
0.00125464210782
0.013169655297
0.00130890176032
0.0124698775676
0.00135655754062
0.0117492347673
0.0013967027278
0.0110120847635
0.00142829547534
0.0102634171522
0.00145023089243
0.009508794443
0.00146136709369
0.00875436693234
0.00146063500395
0.00800679016184
0.00144712107199
0.00727305667419
0.00142018957826
0.00656035859972
0.00137964808537
0.00587553443592
0.00132607393156
0.0052246093282
0.00126106820174
0.00461244412368
0.00118654663593
0.00404298189408
0.0011045026093
0.00351879127201
0.0010171199166
0.00304203727876
0.000925711035382
0.00261435894955
0.000831382012945
0.00223586470395
0.000737125468414
0.0019046146845
0.00064631229259
0.00161732018831
0.00056161786391
0.00136981838791
0.000484540253705
0.00115779885338
0.000415633961467
0.000976998948236
0.000354761599443
0.000823535383801
0.000301409443686
0.000693876553947
0.000254863354725
0.000584906744443
0.000214464619911
0.000493700540324
0.000179723700681
0.000417519865159
0.000150296530329
0.000353845528479
0.000125659720223
0.000300641800985
0.000105020801253
0.000256218000746
8.76711008328e-05
0.000219168513208
7.30818976815e-05
0.000188245210594
6.0799672457e-05
0.000162315493956
5.04001785549e-05
0.000139747473773
4.16309717914e-05
0.000120785038393
3.49025288823e-05
0.000105453201416
2.98822775567e-05
9.28282231295e-05
2.51606601442e-05
8.1690110512e-05
2.28719749182e-05
7.10525953086e-05
2.24689770641e-05
6.01845578917e-05
2.23182467088e-05
4.94881693185e-05
2.17014352681e-05
3.87332875873e-05
2.23289726305e-05
2.69210309989e-05
2.47872233856e-05
1.3117866958e-05
2.81444772972e-05
2.63434882425e-05
0.000906394116717
-0.00265511968284
0.00186577597602
-0.00280578820348
0.00282099279761
-0.00279436132838
0.00376772473148
-0.00277014202518
0.00470324606201
-0.0027378715764
0.00562496261611
-0.0026979490079
0.00653038197597
-0.00265073010698
0.00741715000171
-0.00259662110486
0.00828306149509
-0.00253607382055
0.00912608366295
-0.00246956795372
0.00994435359603
-0.00239760607817
0.0107361926804
-0.00232069594578
0.0115000945319
-0.00223934631616
0.0122347317704
-0.00215404917531
0.0129389361266
-0.00206527688422
0.0136116982707
-0.00197346556692
0.0142521419247
-0.00187901445833
0.0148595179423
-0.00178227181743
0.0154331749627
-0.00168353729995
0.0159725496227
-0.00158305158818
0.0164771368878
-0.00148100226185
0.0169464787301
-0.00137751780005
0.0173801374505
-0.0012726767475
0.0177776850259
-0.00116650599771
0.0181386822883
-0.00105899234533
0.0184626705398
-0.00095008441094
0.018749158686
-0.000839705420099
0.0189976180242
-0.000727758162054
0.0192074788557
-0.000614138147232
0.0193781291414
-0.000498741408034
0.0195089220408
-0.000381478301113
0.0195991787618
-0.000262283117275
0.0196482083661
-0.000141126664097
0.0196553159683
-1.80303891512e-05
0.0196198353363
0.00010692347606
0.0195411415162
0.000233578355033
0.0194186955743
0.000361697541297
0.0192520589971
0.000490953059942
0.0190409469884
0.000620928295207
0.0187852391165
0.00075111252585
0.0184850350366
0.000880914909813
0.0181406537588
0.0010096659309
0.0177526846635
0.0011366422941
0.0173219687391
0.00126107173292
0.0168496410047
0.00138216229639
0.0163370934851
0.00149910028163
0.0157860136965
0.00161107096802
0.0151983412371
0.00171723556495
0.0145763185129
0.00181672982629
0.0139224649865
0.00190861196704
0.013239661309
0.00199183851627
0.0125311655211
0.00206519885721
0.0118007349052
0.00212729820319
0.011052676317
0.00217653327999
0.0102919565334
0.00221114765152
0.00952422350443
0.00222931648924
0.00875579580158
0.00222928166572
0.00799362901916
0.00220952897438
0.00724518877037
0.00216885672538
0.00651842273628
0.00210666311421
0.00582107452355
0.00202364665879
0.00515954367677
0.00192284343093
0.00453883877988
0.00180746289614
0.00396294008005
0.00168061308133
0.00343380258358
0.00154640719216
0.00295358121824
0.00140604356744
0.00252533157696
0.00125968446914
0.00214952011758
0.00111296478887
0.00182361860609
0.000972211460253
0.00154325821312
0.000841969227533
0.00130336268153
0.00072441880648
0.00109892183997
0.000620059108786
0.000925285988819
0.000528388039252
0.000778358283653
0.000448333862848
0.000654643204642
0.00037858814508
0.000551149120887
0.000317976939641
0.000465062833568
0.00026583416416
0.000393494650651
0.000221890063824
0.000333717031649
0.00018546248933
0.000283733778859
0.000155034844806
0.000242007126879
0.000129427702088
0.000207207887409
0.000107913239931
0.000178145984336
8.98948747581e-05
0.00015384752343
7.47349570404e-05
0.000133305596353
6.22096336738e-05
0.000115641646566
5.26084826608e-05
9.96944529919e-05
4.58755355139e-05
8.54522150701e-05
3.94545810757e-05
7.39280566803e-05
3.44539509471e-05
6.46096745844e-05
3.18557861316e-05
5.42575820916e-05
3.27469979555e-05
4.29203391787e-05
3.3125562369e-05
3.19466113557e-05
3.34002283001e-05
2.08096044291e-05
3.60215110435e-05
1.05171169573e-05
3.85371199063e-05
3.69145747052e-05
0.000914814099037
-0.00356988047912
0.00188217510614
-0.00377309320657
0.00284546181309
-0.00375759234213
0.00380012911673
-0.00372475392688
0.00474332657353
-0.00368101440366
0.00567237311016
-0.00362694151162
0.006584718356
-0.00356302235686
0.00747796304537
-0.00348981361335
0.00834987242703
-0.00340793229892
0.00919839209881
-0.00331803771166
0.0100216522425
-0.00322081776702
0.0108179746499
-0.00311697101303
0.01158586774
-0.00300719363768
0.0123240252304
-0.00289216208329
0.0130313129085
-0.00277252158873
0.0137067598381
-0.00264887072442
0.0143495383827
-0.00252175280014
0.0149589495238
-0.00239164391585
0.015534398464
-0.002258948651
0.0160753765002
-0.00212399309391
0.0165814353147
-0.00198702580486
0.0170521684252
-0.00184821653864
0.0174871875179
-0.00170766245821
0.0178861063249
-0.00156539209984
0.0182485217482
-0.00142137570575
0.0185740021237
-0.0012755331212
0.0188620748481
-0.00112774670477
0.0191122200369
-0.000977871967853
0.0193238656651
-0.000825752131817
0.0194963873819
-0.000671231154242
0.0196291123351
-0.000514170492471
0.0197213259434
-0.000354463217072
0.0197722859135
-0.000192051768058
0.0197812378871
-2.69463261228e-05
0.0197474406096
0.000140758714147
0.0196701903602
0.00031086816251
0.0195488568605
0.000483073100083
0.0193829143455
0.000656939659689
0.0191719843442
0.000831905482802
0.0189158674476
0.00100727914571
0.018614585213
0.00118225070067
0.0182684032312
0.00135590470734
0.0178778620434
0.00152724507472
0.0174437819016
0.0016952177703
0.016967275264
0.00185874098769
0.0164497304724
0.00201672299761
0.0158928094485
0.00216807798641
0.0152984230405
0.00231171617923
0.0146687355194
0.00244652229375
0.0140061634918
0.00257130046818
0.0133134240102
0.00268470883296
0.0125935956357
0.00278517294015
0.0118502370669
0.00287081946406
0.0110875116554
0.00293943881174
0.0103103264535
0.00298853288069
0.00952439860794
0.00301544606178
0.0087362907705
0.00301762707786
0.00795329007549
0.00299273987076
0.00718354687949
0.00293885639522
0.00643628047956
0.00285413378214
0.00572118277229
0.00273899888893
0.00504501962234
0.00259921556232
0.00441293441757
0.00243977421607
0.00382923183202
0.00226449951757
0.00329375116752
0.0020820348925
0.00280828473046
0.00189157648159
0.00237985173485
0.00168814955175
0.0020097282032
0.00148308178915
0.00169392303134
0.00128799901433
0.00142592171166
0.00110994624798
0.00119900320203
0.00095131111556
0.00100712535246
0.000811919411246
0.000845052389355
0.000690443215442
0.000708451957636
0.00058493625907
0.000593944639969
0.000493100063496
0.000498962065227
0.000412982436176
0.000420993679465
0.000343825367402
0.000356824259536
0.000286079813853
0.000303091568312
0.000239220898114
0.000257997511718
0.000200156447114
0.000220388334002
0.000167068291852
0.00018908711765
0.000139244897094
0.000162922434881
0.000116092759616
0.000141122690441
9.65695835608e-05
0.0001230701548
8.03009707e-05
0.000105696682451
7.00250413242e-05
9.02230283219e-05
6.13980112433e-05
7.68992176708e-05
5.28331650695e-05
6.44804653193e-05
4.69323311532e-05
5.26195440065e-05
4.37822313979e-05
4.401714098e-05
4.14246383995e-05
3.37903390233e-05
4.34372045818e-05
2.30323788733e-05
4.42425484002e-05
1.4656604591e-05
4.44846986358e-05
7.49793052758e-06
4.57864066571e-05
4.44550838063e-05
0.000925701982138
-0.00449552811418
0.0019041808532
-0.00475151523856
0.00287843264666
-0.00473178724946
0.00384378846509
-0.00469005336791
0.00479729229458
-0.00463446250268
0.00573616836595
-0.00456576264124
0.00665779036348
-0.00448459034478
0.00755969882022
-0.00439166909763
0.00843961618002
-0.00428779784343
0.00929545976707
-0.00417383073319
0.0101253485127
-0.00405065727306
0.010927606867
-0.00391918152831
0.0117007622094
-0.00378030257124
0.0124435396731
-0.00363489462227
0.0131548507638
-0.00348378922157
0.0138337799241
-0.00332775792117
0.0144795656386
-0.00316749798457
0.0150915804525
-0.00300361963224
0.0156693069021
-0.00283663733227
0.016212313849
-0.00266696356961
0.0167202306653
-0.0024949073045
0.0171927235825
-0.00232067523032
0.0176294719402
-0.0021443774981
0.018030148014
-0.00196603567151
0.0183943982938
-0.00178559407606
0.0187218289276
-0.00160293231921
0.0190119934532
-0.00141788000314
0.0192643845829
-0.00123023194261
0.0194784288862
-0.00103976504818
0.0196534854079
-0.000846255909778
0.0197888483246
-0.000649500922761
0.0198837535637
-0.0004493351106
0.0199373914125
-0.000245655041643
0.0199489238489
-3.84428357894e-05
0.019917509022
0.000172211218303
0.0198423304129
0.000386086286789
0.0197226335872
0.000602811708724
0.0195577656092
0.00082185175835
0.0193472201993
0.00104249783537
0.019090680802
0.00126386838809
0.0187880646681
0.00148492015645
0.018439557399
0.00170446893723
0.0180456417693
0.00192122202281
0.0176071091755
0.00213381635101
0.0171250603995
0.0023408613261
0.0166008863194
0.00254097482515
0.0160362412906
0.00273280819501
0.0154330060443
0.00291504516825
0.0147932610927
0.0030863714308
0.0141192750584
0.00324540307869
0.0134135350859
0.00339057928076
0.012678828424
0.00352002707543
0.0119183918378
0.00363142021276
0.0111361180585
0.003721895964
0.0103367698129
0.00378807154452
0.00952616580248
0.00382628898439
0.00871106220513
0.00383292468655
0.00789916413261
0.00380491206185
0.00709900312954
0.00373920063074
0.00632214301989
0.00363126702932
0.00558235031519
0.0034789915835
0.00488636231336
0.00329544360406
0.0042390316966
0.00308730315767
0.00364684084291
0.00285688311973
0.00310269654996
0.00262628193075
0.00260655142663
0.00238777017518
0.00217680104243
0.00211788487648
0.00181599526659
0.00184386209164
0.00151641703645
0.00158753750813
0.00126732486163
0.00135900040699
0.00105939475879
0.00115921174906
0.000885297620987
0.000985982133422
0.000739142606114
0.000836589690642
0.000616285102797
0.000707782155681
0.000513698426593
0.000595701367689
0.00042982796877
0.000496874611467
0.000363081036093
0.000410592961611
0.000309461887866
0.000339722099991
0.000263694966602
0.000285007538323
0.000224753969577
0.000239132074471
0.000192434904151
0.000199418607155
0.000165759353662
0.000165954124065
0.000143275303196
0.000138608502082
0.000124484844129
0.000115395335467
0.000108999586401
9.58232918672e-05
9.37643515228e-05
8.53068938045e-05
7.95118012941e-05
7.57025562006e-05
6.47954109409e-05
6.76059352089e-05
5.16902842234e-05
6.00979878925e-05
4.001707112e-05
5.55230056904e-05
3.11725828521e-05
5.0338701684e-05
2.43463446094e-05
5.03418420563e-05
1.60571083449e-05
5.26162755036e-05
9.33384446139e-06
5.12812553354e-05
4.65754207257e-06
5.05337967063e-05
4.91510434144e-05
0.000939367700173
-0.00543484022162
0.00193208330062
-0.00574417245695
0.00292031921073
-0.00571996504846
0.00389926451041
-0.00566894099697
0.0048658432488
-0.00560098431536
0.00581716931293
-0.00551703258534
0.00675052251376
-0.0054178884467
0.00766336807068
-0.00530446062462
0.0085533731284
-0.00517775014796
0.00941841969176
-0.00503882582178
0.010256611835
-0.00488879941512
0.011066278876
-0.00472879999305
0.0118459725737
-0.00455994929022
0.0125944604656
-0.00438333703732
0.0133107134006
-0.00419999832189
0.0139938896738
-0.00401089186522
0.0146433140024
-0.00381688158984
0.0152584541156
-0.00361872045759
0.0158388936306
-0.00341703904919
0.0163843043429
-0.00321233777471
0.0168944170476
-0.00300498479749
0.0173689940601
-0.00279521810616
0.0178078026656
-0.00258315299416
0.0182105921353
-0.00236879282024
0.0185770732518
-0.00215204355893
0.0189069020695
-0.00193272994007
0.0191996665767
-0.00171061359775
0.0194548772826
-0.00148541175966
0.0196719606964
-0.00125681739702
0.0198502566184
-0.00102452033155
0.0199890192281
-0.000788231358093
0.0200874225328
-0.000547705314752
0.020144571786
-0.000302769998602
0.0201595210939
-5.33564189174e-05
0.0201312985477
0.00020047120777
0.0200589387385
0.000458485474636
0.0199415234258
0.000720268644794
0.0197782284588
0.000985190803469
0.0195683765306
0.00125239663515
0.0193114913885
0.00152080344139
0.0190073512389
0.00178911364597
0.0186560344858
0.0020558428079
0.0182579540345
0.00231936382221
0.0178138727458
0.0025779637548
0.0173248973676
0.002829908179
0.0167924477449
0.00307350222965
0.0162182047279
0.00330713629454
0.0156040438927
0.00352930007496
0.0149519694876
0.00373855087346
0.0142640685222
0.00393342134451
0.0135425167204
0.00411226549009
0.0127896578064
0.00427303334181
0.0120082146056
0.00441303346097
0.0112015931253
0.00452870276655
0.0103743083648
0.00461557782386
0.00953220068164
0.00466858939259
0.00868248120922
0.00468291864466
0.00783274619457
0.00465482529086
0.0069909914237
0.00458124587498
0.00617191656468
0.00445052891142
0.00540017732748
0.00425098556658
0.00467890289448
0.00401691788582
0.00401182734947
0.0037545741072
0.00341539313025
0.00345346180843
0.0028607595684
0.00318101907101
0.0023404082763
0.00290812441414
0.00190665331423
0.00255159397591
0.00156175818605
0.00218871112173
0.00128835080835
0.0018608880123
0.00106728968601
0.00158002753393
0.000885696196505
0.00134075910947
0.000735308592305
0.00113635388395
0.000609654770431
0.000962216652326
0.000503656398777
0.000813790900721
0.000414810583832
0.00068455836256
0.000343954547822
0.000567758942499
0.0002921599769
0.000462417353104
0.000253648218085
0.000378250276338
0.00021732922606
0.000321364938569
0.000184985137667
0.000271511665994
0.00015888854667
0.000225559997821
0.000138104425623
0.000186767975073
0.000119848668975
0.000156901876357
0.000104320120625
0.000130953196622
8.96428906564e-05
0.000110540641942
7.55082739547e-05
9.94872094117e-05
6.29210559489e-05
8.83419486686e-05
5.15695191125e-05
7.90171552135e-05
3.94412600917e-05
7.22918614391e-05
2.87773709968e-05
6.6252983641e-05
1.90172502059e-05
6.01667824134e-05
1.34015558153e-05
5.60270253334e-05
9.68151373095e-06
5.64035151048e-05
5.30140077339e-06
5.57287195935e-05
2.58117218198e-06
5.33186533847e-05
5.17604601018e-05
0.000956022471727
-0.00639080566728
0.00196617139089
-0.0067542617363
0.00297152126762
-0.00672525523901
0.00396707453344
-0.00666443518356
0.00494960669529
-0.0065834581075
0.00591609762804
-0.00648346608265
0.00686371274843
-0.00636544715744
0.0077898251277
-0.00623051782313
0.00869203417414
-0.00607990529257
0.00956817887054
-0.00591491809486
0.010416345752
-0.00573691534231
0.0112348711829
-0.0055472761238
0.0120223384854
-0.00534736887863
0.0127775693669
-0.00513852194975
0.0134996103973
-0.00492199500804
0.0141877139805
-0.00469895285031
0.0148413149243
-0.00447044151907
0.0154600024488
-0.00423736862664
0.0160434893303
-0.00400048803801
0.0165915786746
-0.00376039071306
0.0171041305169
-0.00351750149881
0.0175810291287
-0.00327208281275
0.0180221530934
-0.00302424404664
0.0184273486664
-0.00277395639255
0.0187964075545
-0.00252107109891
0.0191290487258
-0.00226534028485
0.0194249043454
-0.00200643863874
0.0196835089485
-0.00174398585905
0.0199042918212
-0.0014775695569
0.0200865722587
-0.00120676963995
0.0202295586757
-0.000931185940206
0.0203323516671
-0.000650465537672
0.0203939536922
-0.00036433803078
0.0204132858109
-7.26530810843e-05
0.0203892134808
0.00022458074881
0.0203205820286
0.000527156133324
0.0202062626617
0.000834629508225
0.0200452080159
0.00114628948741
0.0198365160881
0.00146113545159
0.0195794987054
0.00177787085307
0.0192737501456
0.00209491572208
0.0189192085033
0.00241044181867
0.0185162020845
0.00272243186426
0.0180654715854
0.00302876069701
0.0175681602513
0.00332729138448
0.0170257672259
0.00361597358177
0.0164400640029
0.00389292543673
0.01581298273
0.00415647696695
0.0151464910994
0.00440514868514
0.0144424866837
0.00463754766259
0.013702736794
0.0048521480188
0.0129289528367
0.00504697351294
0.0121230200991
0.00521913810993
0.0112875095733
0.00536440125454
0.0104264032715
0.00547688211287
0.00954579164011
0.00554944723665
0.00865363680051
0.00557526255385
0.00775733197671
0.00555140753575
0.006859065999
0.00547968667789
0.00597737385634
0.00533247352543
0.00516775570168
0.00506080486821
0.00441548663666
0.00476936540542
0.00372023716552
0.00444993237572
0.00314010082058
0.00403377542668
0.00257624501702
0.00374495048031
0.00199454589645
0.00348977725438
0.00155184308697
0.00299430740327
0.0012371704364
0.00250329583678
0.00100759548668
0.00209046730068
0.000827513741321
0.00176004998036
0.000680999006281
0.00148728086586
0.000560849589091
0.00125646472155
0.000460610146676
0.00106247814403
0.000373822891263
0.000900572681048
0.00029836693404
0.000760058531045
0.000240217964812
0.000625927905352
0.000208411573589
0.000494258910312
0.000193835917249
0.000392859971035
0.000166827462537
0.000348405441441
0.000139458880574
0.000298940335892
0.000120264848216
0.000244787759704
0.000107569474712
0.000199514677798
9.37072730201e-05
0.000170792683057
8.20664503257e-05
0.000142629751652
6.88625831115e-05
0.000123781135961
5.67867087112e-05
0.000111609616837
4.47809366383e-05
0.000100403108422
3.37925390205e-05
9.00660495319e-05
2.37702611611e-05
8.23776912234e-05
1.62920824634e-05
7.37956239443e-05
9.23706881864e-06
6.7283666837e-05
4.02630405602e-06
6.12989741905e-05
2.98646648632e-06
5.75068709528e-05
1.39805928501e-06
5.737201869e-05
6.17865032559e-07
5.41486720581e-05
5.24057302724e-05
0.000975860124889
-0.00736660713332
0.00200679608556
-0.00778513607805
0.00303254331347
-0.00775094115407
0.00404786947843
-0.00767970056265
0.00504936622557
-0.00758489492073
0.00603385073138
-0.00746789159571
0.00699835010634
-0.00732988872028
0.00794012681752
-0.00717223796907
0.00885669900263
-0.00699642239427
0.00974585493645
-0.00680402043709
0.010605660897
-0.00659666942317
0.0114344635237
-0.00637602853183
0.012230885749
-0.00614374273712
0.0129938173725
-0.00590140695124
0.0137223991122
-0.00565053201977
0.0144160012621
-0.00539251201134
0.0150741960205
-0.00512859512681
0.0156967251902
-0.00485985829039
0.0162834631853
-0.00458718821607
0.016834377969
-0.00431126914562
0.0173494908313
-0.00403257946314
0.0178288381032
-0.00375139639506
0.0182724358446
-0.00346780923861
0.0186802498116
-0.00318173868884
0.0190521706016
-0.00289296097592
0.0193879944966
-0.00260113375211
0.0196874085099
-0.0023058225402
0.0199499790117
-0.0020065262853
0.0201751425399
-0.00170270283365
0.0203621988787
-0.00139379527231
0.0205103069193
-0.00107926257262
0.0206184841948
-0.000758610429986
0.0206856132459
-0.000431433448151
0.0207104561977
-9.74608865851e-05
0.0206916802405
0.000243393662252
0.0206278956324
0.000590979759244
0.0205177077269
0.000944858809698
0.020359782742
0.00130425849289
0.0201529263851
0.00166803879795
0.0198961713093
0.0020346761552
0.0195888679903
0.00240227287555
0.0192307694858
0.00276859809633
0.0188220988705
0.00313116465968
0.0183635852795
0.0034873413913
0.0178564552977
0.00383449417708
0.0173023690821
0.00417013920067
0.0167032979816
0.00449208433601
0.0160613484119
0.00479852335601
0.0153785547404
0.00508805259371
0.0146566602917
0.00535956148626
0.0138969642652
0.00561198536201
0.0131002679979
0.005843817472
0.0122671453258
0.00605242719268
0.0113986536112
0.00623308607387
0.0104977266923
0.00637801081606
0.00957094805029
0.00647642877553
0.00862940129995
0.00651704757203
0.00768094924907
0.00650003970152
0.00670594316947
0.00645494593745
0.00572032065135
0.0063183133857
0.00487790882086
0.00590338635349
0.00408758692318
0.00555973499773
0.00333414529424
0.00520358310458
0.0028412648815
0.00452674485778
0.00228403658266
0.00430224129058
0.00154175921506
0.00423211343859
0.001094372971
0.00344164119507
0.000848782209541
0.00274895454658
0.000699346704628
0.00223985694787
0.000577634734966
0.00188181167256
0.000472101884748
0.00159278715226
0.00038579884642
0.00134281256085
0.00031399832719
0.00113426972793
0.000245872319753
0.000968759050233
0.000176711713889
0.000829230854442
0.000122236755481
0.000680450327914
0.000114745779791
0.000501782294468
0.000142801691733
0.000364818819926
0.000117618450128
0.00037365420296
8.74802276638e-05
0.000329101566417
7.58477030338e-05
0.000256488891973
7.67889313619e-05
0.000198598949676
6.56652094077e-05
0.000181958415613
5.75991097619e-05
0.000150727195571
4.62158270522e-05
0.000135202319455
3.51634708915e-05
0.00012270982441
2.54735207206e-05
0.000110146627599
1.59253457783e-05
9.96757127182e-05
8.57828543085e-06
8.97878210597e-05
2.16399367898e-06
8.02699280713e-05
-9.27679856804e-07
7.04359785309e-05
-3.30046451201e-06
6.37285201504e-05
-3.70027927019e-06
5.79566774628e-05
-2.38516529536e-06
5.61085027697e-05
-1.30641251878e-06
5.3117974805e-05
5.11188127554e-05
0.000999097555753
-0.00836564418004
0.00205438202332
-0.00884035722249
0.00310400675992
-0.00880050258238
0.0041424520964
-0.00871808329174
0.00516608627886
-0.00860846733582
0.00617153046653
-0.00847327511678
0.00715564672707
-0.00831394551982
0.00811556619915
-0.0081320994392
0.00904871160278
-0.00792951129971
0.00995281210522
-0.00770806619978
0.010825911764
-0.00746971606807
0.0116663709689
-0.00721643668634
0.0124728621731
-0.00695018474797
0.0132443585948
-0.00667285623861
0.0139801169194
-0.00638624510106
0.0146796522934
-0.00609200418299
0.0153427069365
-0.00579160839479
0.0159692113877
-0.00548632328183
0.0165592409053
-0.00517717994432
0.0171129676566
-0.00486495979973
0.0176306125637
-0.00455018970177
0.0181123986511
-0.0042331491988
0.0185585097413
-0.00391388815473
0.0189690556407
-0.00359225342014
0.0193440454474
-0.00326792033797
0.0196833676596
-0.00294042608627
0.0199867758985
-0.00260920117984
0.0202538774259
-0.00227359829085
0.020484122977
-0.00193291864965
0.020676796773
-0.00158643888268
0.0208310079516
-0.00123344282439
0.0209456844105
-0.000873254957398
0.0210195737257
-0.000505289535029
0.0210512533092
-0.000129105663603
0.0210391537905
0.000255529861558
0.0209815984368
0.000648573956871
0.0208768611277
0.00104963742777
0.0207232438859
0.00145791980958
0.0205191736554
0.00187215618114
0.0202633149188
0.00229058544737
0.0199546916441
0.00271095043405
0.0195928071268
0.00313054105748
0.0191777455463
0.00354628922209
0.0187102351702
0.00395492001815
0.0181916502087
0.00435315315974
0.0176239337416
0.00473793702352
0.0170094274794
0.00510667944668
0.0163506179376
0.00545743287894
0.0156498026768
0.00578897538211
0.0149087323798
0.00610075770962
0.0141282196661
0.00639262645573
0.0133079069947
0.00666428286039
0.012446293849
0.00691421228977
0.0115415945804
0.00713795840732
0.0105942765762
0.00732553030872
0.0096116559503
0.00745927082934
0.00861529941678
0.00751359712347
0.00762485608562
0.00749077315681
0.00654771890619
0.00753231882665
0.00535092864712
0.00751526873876
0.00452951048559
0.00672492807366
0.00369602399877
0.00639339947743
0.00279382066254
0.00610583053341
0.0027355835995
0.00458513723256
0.00252113995216
0.00451674145439
0.00128905709531
0.00546436008655
0.000958323340725
0.00377257945179
0.000938486566363
0.00276887828627
0.0009755840243
0.00220288990124
0.00100831481094
0.00184913390251
0.000994708672701
0.00160649676149
0.000920531641591
0.00141704642726
0.000797065022342
0.00125784748608
0.000633621840551
0.00113231370271
0.000430916328637
0.00103204620735
0.000221822572553
0.000889672513738
0.000103180096671
0.000620453394274
0.000155091602102
0.000312970148796
8.91320284191e-05
0.000439608183573
3.02656142425e-05
0.000388025230546
2.54438525916e-05
0.000261327205116
5.46354305399e-05
0.000169437482422
3.68448593416e-05
0.000199792192573