/*--------------------------------*- C++ -*----------------------------------*\
| =========                 |                                                 |
| \\      /  F ield         | OpenFOAM: The Open Source CFD Toolbox           |
|  \\    /   O peration     | Version:  v1906                                 |
|   \\  /    A nd           | Web:      www.OpenFOAM.com                      |
|    \\/     M anipulation  |                                                 |
\*---------------------------------------------------------------------------*/
FoamFile
{
    version     2.0;
    format      ascii;
    class       volScalarField;
    location    "145";
    object      alpha;
}
// * * * * * * * * * * * * * * * * * * * * * * * * * * * * * * * * * * * * * //

dimensions      [0 0 -1 0 0 0 0];


internalField   nonuniform List<scalar> 
9216
(
146.760597715
199.999862126
199.999872715
199.999872715
199.999872715
199.99988144
199.99988144
199.99988144
199.99988144
199.99988144
199.999872863
199.999855329
199.999857612
199.999837089
199.999837089
199.999837089
199.999855329
199.999870104
199.999870104
199.999870104
199.999870104
199.999837483
199.999830308
199.999830308
199.999830308
199.999830308
199.999805156
199.999793746
199.999784136
199.999765425
199.999760245
199.999704536
199.999721971
199.999777479
199.999782543
199.999811766
199.999813434
199.999813434
199.999813434
199.999813434
199.999813434
199.99979622
199.999766067
199.999763251
199.999785632
199.999785632
199.999785632
199.999785632
199.999785632
199.999784239
199.999791137
199.999798415
199.999806452
199.999813434
199.999813434
199.999808738
199.999792896
199.999772546
199.99973912
199.999690224
199.999647381
199.999608876
199.999579281
199.999543203
199.999475711
199.999376524
199.999284863
199.999254232
199.999149818
199.999018208
199.998897199
199.998750476
199.998622031
199.998497463
199.998272631
199.997885733
199.997448586
199.996975176
199.996207133
199.994789037
199.991006299
199.952967718
197.732178946
181.215858835
164.279840786
151.12574214
137.15797682
116.957456692
92.8701755309
72.5279456821
54.3928342506
40.3892709671
29.3816383272
19.2734265779
11.5978732992
1.30472414509
199.999853455
199.999880533
199.99988144
199.99988144
199.99988144
199.99988144
199.99988144
199.999872715
199.999872715
199.999872715
199.999872715
199.999872715
199.999856299
199.999838058
199.999838058
199.999838058
199.999844732
199.999845528
199.999845528
199.999837536
199.999863021
199.99985225
199.999835834
199.999817975
199.999810812
199.999810812
199.999810812
199.999810812
199.999810505
199.999783011
199.999760491
199.999760491
199.999760491
199.999760491
199.999760491
199.999760491
199.999760491
199.999740224
199.999740224
199.999721983
199.999721983
199.999721983
199.999721983
199.999691092
199.999691092
199.999691092
199.999691092
199.999691092
199.999691092
199.999691092
199.999691092
199.999691092
199.999691092
199.999664736
199.99964401
199.999641127
199.999620291
199.999585099
199.999476727
199.999380864
199.999303589
199.999239525
199.999179456
199.999150949
199.999077904
199.998927911
199.998764657
199.998708678
199.998720133
199.998761226
199.998707256
199.998526976
199.998313547
199.998080339
199.997790191
199.997373079
199.996986285
199.996953082
199.997071046
199.996268804
199.994775884
199.987888148
199.932091614
194.650314777
179.819495235
164.691799076
151.269322587
129.825552981
109.819012328
85.4517831803
64.463104377
51.6969337035
41.4537759134
26.5529560647
17.5692274435
14.0704259164
199.999872715
199.999882551
199.999878847
199.999884683
199.999872715
199.999872715
199.999872715
199.999872715
199.999872715
199.999872715
199.999863021
199.999863021
199.999863021
199.999863021
199.999817593
199.999835834
199.999835834
199.999835834
199.999835834
199.999835834
199.999835834
199.999835834
199.999835834
199.999810812
199.999810812
199.999786744
199.99976477
199.999742251
199.999742251
199.999742251
199.999721983
199.999721983
199.999691092
199.999691092
199.999691092
199.999691092
199.999691092
199.999691092
199.999691092
199.999691092
199.999691092
199.999691092
199.999656769
199.999656769
199.999609687
199.999609687
199.999567313
199.999567313
199.999529176
199.999476862
199.999476862
199.999476862
199.999476862
199.999476862
199.999476862
199.999476862
199.999476862
199.999455721
199.999398191
199.999289571
199.999190335
199.999111089
199.999037476
199.998947774
199.998804244
199.998601258
199.998382638
199.998201857
199.997999212
199.997713762
199.997404634
199.997348658
199.99694148
199.997097242
199.996625686
199.995942728
199.995419389
199.994895361
199.99411681
199.993432628
199.992207997
199.978407096
199.809346828
191.822361623
177.668334476
161.788840347
141.220344513
131.019135555
116.599540723
88.5275831249
61.65103791
56.1662382862
40.5828668078
31.1492683372
27.51798017
18.3976691851
199.99988144
199.999884683
199.999884683
199.999884683
199.999872715
199.999872715
199.999872715
199.999872715
199.999863021
199.999863021
199.999863021
199.999863021
199.999863021
199.999835834
199.999835834
199.999835834
199.999835834
199.999835834
199.999835834
199.999835834
199.999835834
199.999817593
199.999817593
199.999792572
199.99976477
199.999742251
199.999721983
199.999721983
199.999691092
199.999691092
199.999691092
199.999691092
199.999691092
199.999691092
199.999691092
199.999691092
199.999656769
199.999656769
199.999656769
199.999656769
199.99957155
199.999529176
199.999476862
199.999476862
199.999476862
199.999476862
199.999476862
199.999476862
199.999476862
199.999476862
199.999418736
199.999418736
199.999418736
199.999418736
199.999418736
199.999418736
199.999418736
199.999418736
199.999413456
199.9993327
199.999224685
199.999126049
199.99901957
199.998922695
199.998783093
199.998579448
199.99834175
199.998134839
199.997940669
199.997672119
199.997378826
199.997010855
199.996575492
199.99644824
199.995762224
199.995053589
199.994466531
199.993878534
199.993101901
199.991720019
199.979309741
199.775364726
194.336001304
183.850359989
172.030221526
154.95382928
139.801180699
130.072841581
109.227817276
94.5258196013
76.4085255773
53.1994664062
49.2488398483
40.5109101146
34.1724714001
22.4339512548
199.99988144
199.999884683
199.999884683
199.999878634
199.999872715
199.999872715
199.999872715
199.999863021
199.999863021
199.999863021
199.999863021
199.999863021
199.999835834
199.999835834
199.999835834
199.999835834
199.999835834
199.999835834
199.999835834
199.999817593
199.999817593
199.999817593
199.999792572
199.99976477
199.999721983
199.999721983
199.999691092
199.999691092
199.999691092
199.999691092
199.999691092
199.999691092
199.999656769
199.999656769
199.999656769
199.999656769
199.999656769
199.999618633
199.999529176
199.999476862
199.999476862
199.999476862
199.999476862
199.999476862
199.999418736
199.999418736
199.999418736
199.999418736
199.999418736
199.999418736
199.999418736
199.999418736
199.999354151
199.999354151
199.999354151
199.999354151
199.999354151
199.999354151
199.999354151
199.999244373
199.999142699
199.998994663
199.998832538
199.998710577
199.998566794
199.998319818
199.998147579
199.998023501
199.997785357
199.997498121
199.997232532
199.997036632
199.996598452
199.996016338
199.995198352
199.994523741
199.994416835
199.993885493
199.99311968
199.991710736
199.978090361
199.765856131
193.845640848
179.160354414
163.430612391
145.919659565
130.902549799
122.747620616
118.048521831
96.8399831673
83.9987656371
63.3634378413
48.9886685144
48.7447045777
44.9363600739
32.9815809461
199.99988144
199.999884683
199.999884683
199.999872715
199.999872715
199.999872715
199.999863021
199.999863021
199.999863021
199.999863021
199.999863021
199.99985225
199.999835834
199.999835834
199.999835834
199.999835834
199.999835834
199.999817593
199.999817593
199.999817593
199.999817593
199.999792572
199.99976477
199.999721983
199.999691092
199.999691092
199.999691092
199.999691092
199.999691092
199.999691092
199.999656769
199.999656769
199.999656769
199.999656769
199.999656769
199.999618633
199.999529176
199.999529176
199.999476862
199.999476862
199.999476862
199.999476862
199.999418736
199.999418736
199.999418736
199.999418736
199.999418736
199.999354151
199.999354151
199.999354151
199.999354151
199.999354151
199.99928239
199.99928239
199.99928239
199.999202655
199.999202655
199.999114061
199.999114061
199.999009765
199.998606289
199.998307848
199.998091087
199.997944141
199.997834766
199.99773609
199.997459153
199.99741892
199.997256638
199.997023232
199.99677035
199.996371262
199.995850316
199.995121563
199.99457521
199.994512802
199.99402238
199.993012721
199.992396288
199.991592195
199.978756748
199.504756131
187.396111838
176.720432531
161.732261814
145.512352856
138.269884933
123.078034669
106.132231508
89.6885009455
90.2423595937
78.4306322281
58.8325223722
55.4263851188
54.7322623906
42.1744343024
199.99988144
199.999884683
199.999884683
199.999872715
199.999872715
199.999863021
199.999863021
199.999863021
199.999863021
199.999863021
199.999863021
199.999835834
199.999835834
199.999835834
199.999817593
199.999817593
199.999817593
199.999817593
199.999817593
199.999817593
199.999817593
199.99976477
199.999721983
199.999691092
199.999691092
199.999691092
199.999691092
199.999691092
199.999656769
199.999656769
199.999656769
199.999656769
199.999656769
199.999618633
199.999618633
199.999529176
199.999476862
199.999476862
199.999476862
199.999476862
199.999418736
199.999418736
199.999418736
199.999418736
199.999354151
199.999354151
199.999354151
199.999354151
199.999354151
199.99928239
199.99928239
199.99928239
199.999202655
199.999202655
199.999114061
199.999114061
199.999015624
199.999015624
199.998631837
199.997969797
199.997834766
199.997459153
199.997459153
199.997459153
199.997176837
199.997176837
199.997176837
199.997176837
199.996863152
199.996862307
199.996729243
199.996345107
199.995851762
199.995250398
199.994620853
199.994480607
199.993654536
199.992833967
199.992492237
199.98973394
199.936049328
198.629601975
182.741410258
170.556164454
158.399709139
144.947739758
133.877388937
123.287115744
105.798236788
99.2983658935
86.1473981361
86.5251754908
76.5511090965
64.1953203392
64.188253834
51.0909103244
199.99988144
199.999884683
199.999884683
199.999872715
199.999872715
199.999874989
199.999874989
199.999863021
199.999863021
199.999863021
199.999846605
199.999835834
199.999835834
199.999817593
199.999817593
199.999817593
199.999817593
199.999817593
199.999817593
199.999817593
199.999792572
199.999742251
199.999691092
199.999691092
199.999691092
199.999691092
199.999691092
199.999656769
199.999656769
199.999656769
199.999656769
199.999656769
199.999618633
199.999618633
199.999529176
199.999476862
199.999476862
199.999476862
199.999418736
199.999418736
199.999418736
199.999418736
199.999418736
199.999354151
199.999354151
199.999354151
199.999354151
199.99928239
199.99928239
199.99928239
199.999202655
199.999202655
199.999114061
199.999114061
199.999015624
199.999015624
199.998906249
199.998018124
199.997713238
199.997459153
199.997459153
199.997176837
199.997176837
199.996863152
199.996863152
199.996514613
199.996514613
199.996127348
199.996127348
199.996127348
199.995697053
199.995691323
199.995362504
199.994842883
199.994219785
199.993670338
199.993260185
199.992581047
199.992317698
199.988013518
199.942237715
195.445170537
182.213451299
171.088153203
155.981528303
144.928033748
129.478748194
118.245138046
108.530608247
103.990349338
96.2220648283
86.5277217702
87.6819903159
72.3315072615
73.2111714017
60.2032349646
199.999886532
199.999884683
199.999884683
199.999884683
199.999874989
199.999874989
199.999874989
199.999863021
199.999863021
199.999863021
199.999846605
199.999835834
199.999817593
199.999817593
199.999817593
199.999817593
199.999817593
199.999817593
199.999817593
199.999817593
199.99976477
199.999721983
199.999691092
199.999691092
199.999691092
199.999691092
199.999656769
199.999656769
199.999656769
199.999656769
199.999656769
199.999618633
199.999618633
199.999529176
199.999476862
199.999476862
199.999476862
199.999418736
199.999418736
199.999418736
199.999418736
199.999354151
199.999354151
199.999354151
199.999354151
199.99928239
199.99928239
199.99928239
199.999202655
199.999202655
199.999114061
199.999114061
199.999015624
199.999015624
199.998906249
199.998554316
199.997713238
199.997459153
199.997459153
199.997176837
199.997176837
199.996863152
199.996863152
199.996514613
199.996127348
199.996127348
199.995697053
199.995697053
199.995218948
199.995218948
199.995218948
199.99468772
199.99468772
199.994425151
199.993851352
199.993295621
199.992597211
199.992618013
199.991714661
199.982762402
199.897308948
191.844585883
180.439179846
168.530442478
157.613412105
146.762467779
134.126007778
119.55296424
109.863008754
98.1583694332
102.365673233
96.6866616855
90.081612928
84.9260602555
80.5428887014
68.3376639785
199.999893407
199.999884683
199.999884683
199.999884683
199.999874989
199.999874989
199.999874989
199.999863021
199.999863021
199.999863021
199.999846605
199.999835834
199.999817593
199.999817593
199.999817593
199.999817593
199.999817593
199.999817593
199.999817593
199.999792572
199.999721983
199.999691092
199.999691092
199.999691092
199.999691092
199.999656769
199.999656769
199.999656769
199.999656769
199.999656769
199.999618633
199.999576258
199.999529176
199.999476862
199.999476862
199.999476862
199.999418736
199.999418736
199.999418736
199.999418736
199.999354151
199.999354151
199.999354151
199.999354151
199.99928239
199.99928239
199.999202655
199.999202655
199.999114061
199.999114061
199.999114061
199.999015624
199.999015624
199.998906249
199.998226979
199.997713238
199.997459153
199.997176837
199.997176837
199.996863152
199.996863152
199.996514613
199.996127348
199.995697053
199.995697053
199.995218948
199.995218948
199.99468772
199.99468772
199.994097467
199.994097467
199.994097467
199.994097467
199.99344163
199.993216758
199.992912367
199.992502415
199.992507125
199.991324427
199.976579083
199.649329036
190.911891756
177.989720147
166.803270673
157.839035737
146.938856829
133.631974701
122.276182662
113.051088754
106.253424298
100.139759046
102.500865133
97.8350874755
95.5242576709
87.7487381506
77.378834121
199.999893407
199.999884683
199.999884683
199.999884683
199.999874989
199.999874989
199.999874989
199.999863021
199.999863021
199.999846605
199.999835834
199.999817593
199.999817593
199.999817593
199.999817593
199.999817593
199.999817593
199.999817593
199.999817593
199.999744502
199.999721983
199.999691092
199.999691092
199.999691092
199.999656769
199.999656769
199.999656769
199.999656769
199.999618633
199.999618633
199.999618633
199.999529176
199.999529176
199.999476862
199.999476862
199.999418736
199.999418736
199.999418736
199.999354151
199.999354151
199.999354151
199.999354151
199.99928239
199.99928239
199.99928239
199.999202655
199.999202655
199.999114061
199.999114061
199.999015624
199.999015624
199.998906249
199.998906249
199.998226979
199.997459153
199.997459153
199.997176837
199.997176837
199.996863152
199.996514613
199.996127348
199.995697053
199.995697053
199.995218948
199.99468772
199.99468772
199.994097467
199.994097467
199.99344163
199.99344163
199.99344163
199.992712922
199.992712922
199.992712922
199.992712922
199.992712922
199.992572453
199.99188189
199.990157702
199.963502254
199.417869886
190.604503269
178.119269752
168.070265694
158.023401866
143.614761829
132.720849884
124.432800193
120.091752041
113.733824727
108.97955517
101.480480811
104.351356403
107.410740345
95.5259246149
84.3046379421
199.999893407
199.999884683
199.999884683
199.999884683
199.999874989
199.999874989
199.999874989
199.999863021
199.999863021
199.999846605
199.999835834
199.999817593
199.999817593
199.999817593
199.999817593
199.999817593
199.999817593
199.999817593
199.999797326
199.999721983
199.999691092
199.999691092
199.999691092
199.999656769
199.999656769
199.999656769
199.999656769
199.999618633
199.999618633
199.999618633
199.999529176
199.999529176
199.999476862
199.999476862
199.999418736
199.999418736
199.999418736
199.999354151
199.999354151
199.999354151
199.999354151
199.99928239
199.99928239
199.99928239
199.999202655
199.999202655
199.999114061
199.999114061
199.999015624
199.999015624
199.998906249
199.998906249
199.998226979
199.997459153
199.997176837
199.997176837
199.996863152
199.996863152
199.996514613
199.996127348
199.995697053
199.995218948
199.99468772
199.99468772
199.994097467
199.994097467
199.99344163
199.992712922
199.992712922
199.992712922
199.991903247
199.991903247
199.991903247
199.991003608
199.991003608
199.991003608
199.991003608
199.990947699
199.987834322
199.949574752
199.37121812
191.119508116
178.192944289
169.036607719
157.323153844
144.903013233
136.62543466
129.66960577
122.698921476
118.354321215
113.947240307
110.624263015
105.641395582
112.429825949
102.880006091
89.796462019
199.999908182
199.999899458
199.999884683
199.999884683
199.999874989
199.999874989
199.999874989
199.999863021
199.999863021
199.999846605
199.999835834
199.999817593
199.999817593
199.999817593
199.999817593
199.999817593
199.999817593
199.999797326
199.999744502
199.999721983
199.999691092
199.999691092
199.999691092
199.999656769
199.999656769
199.999656769
199.999618633
199.999618633
199.999618633
199.999576258
199.999529176
199.999476862
199.999476862
199.999418736
199.999418736
199.999418736
199.999354151
199.999354151
199.999354151
199.99928239
199.99928239
199.99928239
199.999202655
199.999202655
199.999202655
199.999114061
199.999114061
199.999015624
199.999015624
199.998906249
199.998906249
199.998599493
199.997459153
199.997176837
199.997176837
199.996863152
199.996514613
199.996127348
199.996127348
199.995619515
199.995218948
199.99468772
199.994097467
199.99344163
199.99344163
199.992712922
199.992712922
199.991903247
199.991903247
199.991003608
199.991003608
199.990004008
199.990004008
199.990004008
199.990004008
199.990004008
199.990004008
199.988329848
199.985308286
199.966909099
199.56940412
187.96250898
177.635240516
170.365634597
157.900423741
149.7010763
141.493261815
133.537957028
126.505285938
122.101728697
117.541521634
114.21249073
112.344730834
115.584398707
109.299477365
94.9810275985
199.999908182
199.999899458
199.999899458
199.999884683
199.999874989
199.999874989
199.999874989
199.999863021
199.999863021
199.999846605
199.999835834
199.999817593
199.999817593
199.999817593
199.999817593
199.999817593
199.999797326
199.999797326
199.999721983
199.999721983
199.999691092
199.999691092
199.999656769
199.999656769
199.999656769
199.999618633
199.999618633
199.999618633
199.999576258
199.999529176
199.999476862
199.999476862
199.999418736
199.999418736
199.999418736
199.999354151
199.999354151
199.999354151
199.99928239
199.99928239
199.99928239
199.999202655
199.999202655
199.999114061
199.999114061
199.999114061
199.999015624
199.999015624
199.998906249
199.998906249
199.998784721
199.997459153
199.997176837
199.997176837
199.996863152
199.996514613
199.996127348
199.995697053
199.995218948
199.99468772
199.994097467
199.994097467
199.99344163
199.992712922
199.992712922
199.991903247
199.991003608
199.991003608
199.990004008
199.990004008
199.990004008
199.988893343
199.988893343
199.988893343
199.988893343
199.98765927
199.987254945
199.985180583
199.976305012
199.92747126
198.58141591
190.206226723
180.784855978
171.927216957
163.931856126
152.300921358
145.023190961
136.640191473
130.158896636
127.830191105
121.903648398
119.042195023
116.379295674
114.59880905
117.694799608
99.6374195496
199.999908182
199.999899458
199.999899458
199.999899458
199.999874989
199.999874989
199.999874989
199.999863021
199.999863021
199.999835834
199.999835834
199.999817593
199.999817593
199.999817593
199.999817593
199.999797326
199.999797326
199.999772304
199.999721983
199.999691092
199.999691092
199.999691092
199.999656769
199.999656769
199.999618633
199.999618633
199.999618633
199.999576258
199.999529176
199.999529176
199.999476862
199.999476862
199.999418736
199.999418736
199.999354151
199.999354151
199.999354151
199.99928239
199.99928239
199.99928239
199.999202655
199.999202655
199.999114061
199.999114061
199.999015624
199.999015624
199.999015624
199.998906249
199.998906249
199.998784721
199.997459153
199.997176837
199.997176837
199.996863152
199.996514613
199.996127348
199.995697053
199.995218948
199.99468772
199.994097467
199.99344163
199.992712922
199.991903247
199.991903247
199.991003608
199.990004008
199.990004008
199.988893343
199.988893343
199.988893343
199.98765927
199.98765927
199.98765927
199.98765927
199.98765927
199.985812853
199.984330567
199.978384208
199.959547001
199.884570763
197.834675589
188.289492112
184.672531011
176.846651346
165.185367179
157.136147569
145.408412406
139.763227719
136.287994155
132.723962004
126.709072158
123.317574324
119.816776187
118.046538285
123.346372054
103.884490982
199.999908182
199.999912755
199.999899458
199.999899458
199.999889764
199.999874989
199.999874989
199.999874989
199.999846605
199.999835834
199.999835834
199.999817593
199.999817593
199.999817593
199.999817593
199.999797326
199.999797326
199.999749785
199.999721983
199.999691092
199.999691092
199.999656769
199.999656769
199.999656769
199.999618633
199.999618633
199.999576258
199.999529176
199.999529176
199.999476862
199.999476862
199.999418736
199.999418736
199.999354151
199.999354151
199.999354151
199.99928239
199.99928239
199.99928239
199.999202655
199.999202655
199.999114061
199.999114061
199.999015624
199.999015624
199.999015624
199.998906249
199.998906249
199.998784721
199.997713238
199.997176837
199.997176837
199.996863152
199.996514613
199.996127348
199.995218948
199.99468772
199.994097467
199.99344163
199.992712922
199.991903247
199.991903247
199.991003608
199.990004008
199.988893343
199.988893343
199.98765927
199.98765927
199.98765927
199.986288077
199.986288077
199.986288077
199.986288077
199.9862631
199.986062655
199.985547538
199.977540515
199.964531758
199.926433857
199.77868603
195.570540619
188.596477362
187.069414855
178.647918217
168.205190113
157.983525332
149.31353527
147.346038129
142.597461446
135.569047416
129.662277805
126.594459854
124.274868542
121.005210516
124.582599903
107.349084366
199.999908182
199.999912755
199.999912755
199.999899458
199.999889764
199.999874989
199.999874989
199.999874989
199.999846605
199.999835834
199.999817593
199.999817593
199.999817593
199.999817593
199.999797326
199.999797326
199.999774806
199.999721983
199.999721983
199.999691092
199.999691092
199.999656769
199.999656769
199.999618633
199.999618633
199.999576258
199.999576258
199.999529176
199.999476862
199.999476862
199.999418736
199.999418736
199.999354151
199.999354151
199.999354151
199.99928239
199.99928239
199.999202655
199.999202655
199.999202655
199.999114061
199.999114061
199.999015624
199.999015624
199.998906249
199.998906249
199.998906249
199.998784721
199.99864969
199.997176837
199.997176837
199.996863152
199.996514613
199.995697053
199.995218948
199.99468772
199.994097467
199.992712922
199.991903247
199.991003608
199.990004008
199.988893343
199.98765927
199.98765927
199.985297476
199.985478749
199.986288077
199.985993458
199.983523029
199.984032804
199.984144342
199.984153171
199.983994688
199.983659485
199.982944551
199.980722161
199.969413559
199.937534811
199.869755543
199.441406915
194.248801375
192.872117615
186.569544006
178.245729783
168.475817893
157.765653172
153.765784333
151.05990622
140.338167181
135.569998415
133.121397991
128.996274766
127.119193122
123.829325019
125.353754871
109.867389439
199.99992148
199.999912755
199.999912755
199.999912755
199.999903061
199.999889764
199.999874989
199.999874989
199.999846605
199.999835834
199.999817593
199.999817593
199.999817593
199.999817593
199.999797326
199.999797326
199.999749785
199.999721983
199.999691092
199.999691092
199.999656769
199.999656769
199.999618633
199.999618633
199.999576258
199.999576258
199.999529176
199.999476862
199.999476862
199.999418736
199.999418736
199.999354151
199.999354151
199.999354151
199.99928239
199.99928239
199.999202655
199.999202655
199.999114061
199.999114061
199.999114061
199.999015624
199.999015624
199.998906249
199.998906249
199.998784721
199.998784721
199.99864969
199.997459153
199.997176837
199.996863152
199.996514613
199.995697053
199.995218948
199.994097467
199.99344163
199.991903247
199.989125038
193.262265682
125.151015951
76.3437323802
62.7946608562
70.2187309099
100.021896403
164.659377316
195.766487032
199.981869663
199.976720405
199.978825664
199.980655574
199.979407928
199.979880935
199.979260294
199.977793387
199.975245484
199.970984062
199.961726045
199.936791083
199.876923822
199.656384232
196.186873963
190.494855812
184.052889838
176.948117951
167.719474454
158.361677182
156.908550762
149.404754079
143.153966265
139.551661714
136.256474408
133.289517937
128.090110844
126.758446484
125.02512045
111.953093288
199.99992148
199.999912755
199.999912755
199.999912755
199.999903061
199.999903061
199.999874989
199.999863021
199.999835834
199.999835834
199.999817593
199.999817593
199.999817593
199.999797326
199.999797326
199.999774806
199.999749785
199.999721983
199.999691092
199.999691092
199.999656769
199.999656769
199.999618633
199.999576258
199.999576258
199.999529176
199.999529176
199.999476862
199.999418736
199.999418736
199.999354151
199.999354151
199.999354151
199.99928239
199.99928239
199.999202655
199.999202655
199.999114061
199.999114061
199.999015624
199.999015624
199.999015624
199.998906249
199.998906249
199.998784721
199.998784721
199.99864969
199.997713238
199.997176837
199.996863152
199.996127348
199.995697053
199.99468772
199.99344163
11.9738547535
0
0
0
0
0
0
0
0
0
0.255110331348
0.839601589594
4.25759670112
12.6938415479
42.9881514681
145.115757388
199.464262978
199.967607885
199.958338091
199.959109421
199.962202694
199.954023806
199.933670189
199.809171864
199.767517489
198.507221043
193.002702759
187.161455195
181.575798214
175.514922861
167.430215437
160.533144948
161.443599996
153.14440605
148.213178342
144.144710184
140.076107111
135.472603653
130.979012157
128.783791059
125.287019605
114.239298936
199.99992148
199.999912755
199.999912755
199.999912755
199.999903061
199.999903061
199.999889764
199.999863021
199.999835834
199.999835834
199.999817593
199.999817593
199.999817593
199.999797326
199.999774806
199.999749785
199.999721983
199.999721983
199.999691092
199.999656769
199.999656769
199.999618633
199.999618633
199.999576258
199.999529176
199.999529176
199.999476862
199.999418736
199.999418736
199.999354151
199.999354151
199.999354151
199.99928239
199.99928239
199.999202655
199.999202655
199.999114061
199.999114061
199.999015624
199.999015624
199.998906249
199.998906249
199.998906249
199.998784721
199.998784721
199.99864969
199.998499655
199.997176837
199.996863152
199.996127348
199.995697053
196.359564119
0
0
0
0
0
0
0
0
0
0
0
0
0
0
0
0.192695957936
0.529378999012
2.35152895315
9.91026133657
40.3035636821
157.018486296
199.787771767
199.895813655
199.864050588
199.79134825
199.439430565
199.222980355
194.753585238
189.551759423
184.139603064
179.185223506
174.012490389
168.114379526
167.488607551
163.203393036
154.924539512
152.040840205
147.912557232
143.304749004
138.965089927
135.48409514
130.252882287
127.779018
116.484734501
199.99992148
199.999912755
199.999912755
199.999912755
199.999903061
199.999903061
199.999889764
199.999863021
199.999835834
199.999835834
199.999817593
199.999817593
199.999797326
199.999797326
199.999774806
199.999749785
199.999721983
199.999691092
199.999691092
199.999656769
199.999618633
199.999618633
199.999576258
199.999529176
199.999529176
199.999476862
199.999418736
199.999418736
199.999354151
199.999354151
199.99928239
199.99928239
199.999202655
199.999202655
199.999114061
199.999114061
199.999114061
199.999015624
199.999015624
199.998906249
199.998906249
199.998784721
199.998784721
199.99864969
199.99864969
199.998499655
199.997176837
199.996863152
199.996127348
199.995218948
0.00270891372647
0
0
0
0
0
0
0
0
0
0
0
0
0
0
0
0
0
0
0.0185723241344
0.299449300541
0.847726447198
3.79606117107
20.9097039712
83.6428348303
193.746312961
199.480193572
196.474686869
191.709886857
190.896847293
185.591018986
180.535976937
176.544660601
172.071772382
167.57928013
167.958592859
162.988250152
157.356977416
154.54409309
150.140474335
145.747049733
141.205080159
138.865599138
132.731406566
130.205473749
118.173367161
199.99992148
199.999912755
199.999912755
199.999912755
199.999903061
199.999903061
199.999889764
199.99985225
199.999835834
199.999835834
199.999817593
199.999817593
199.999797326
199.999774806
199.999749785
199.999721983
199.999721983
199.999691092
199.999656769
199.999656769
199.999618633
199.999576258
199.999576258
199.999529176
199.999476862
199.999418736
199.999418736
199.999354151
199.999354151
199.99928239
199.99928239
199.999202655
199.999202655
199.999114061
199.999114061
199.999015624
199.999015624
199.998906249
199.998906249
199.998906249
199.998784721
199.998784721
199.99864969
199.99864969
199.998499655
199.997459153
199.996863152
199.996127348
199.99468772
0
0
0
0
0
0
0
0
0
0
0
0
0
0
0
0
0
0
0
0
0
0
0
0.186100056801
0.547869830598
2.93237561715
14.6081474504
60.3855848993
176.36464435
185.424915575
181.494369564
176.877525853
177.425240054
173.798586177
169.35825954
165.467113735
166.82829645
161.927401567
161.060294784
152.390860693
149.260935988
146.624056904
142.109294109
139.806672925
135.210658116
130.903971181
118.410941585
199.99992148
199.999912755
199.999912755
199.999912755
199.999903061
199.999903061
199.999889764
199.99985225
199.999835834
199.999835834
199.999817593
199.999817593
199.999797326
199.999774806
199.999749785
199.999721983
199.999691092
199.999656769
199.999656769
199.999618633
199.999576258
199.999576258
199.999529176
199.999476862
199.999418736
199.999418736
199.999354151
199.999354151
199.99928239
199.99928239
199.999202655
199.999114061
199.999114061
199.999114061
199.999015624
199.999015624
199.998906249