/*--------------------------------*- C++ -*----------------------------------*\
| =========                 |                                                 |
| \\      /  F ield         | OpenFOAM: The Open Source CFD Toolbox           |
|  \\    /   O peration     | Version:  v1906                                 |
|   \\  /    A nd           | Web:      www.OpenFOAM.com                      |
|    \\/     M anipulation  |                                                 |
\*---------------------------------------------------------------------------*/
FoamFile
{
    version     2.0;
    format      ascii;
    class       volScalarField;
    location    "557";
    object      pa;
}
// * * * * * * * * * * * * * * * * * * * * * * * * * * * * * * * * * * * * * //

dimensions      [0 2 -2 0 0 0 0];


internalField   nonuniform List<scalar> 
9216
(
915.638852093
915.333232899
914.700984786
913.736612968
912.445527449
910.833786724
908.908936069
906.679882339
904.156759508
901.350798045
898.274189631
894.939952126
891.361790978
887.553966376
883.531160152
879.308353687
874.900707563
870.323456225
865.591804713
860.720843088
855.725461728
850.620285897
845.41960886
840.137345143
834.786979346
829.381535737
823.933540156
818.455003421
812.957393866
807.451632262
801.948072618
796.456508615
790.9861613
785.54568977
780.143185792
774.786194276
769.481710782
764.236206821
759.055630689
753.945437343
748.910591355
743.955600329
739.084519085
734.300985735
729.60822631
725.009092685
720.506066939
716.101300377
711.796616976
707.593552803
703.49335798
699.497035854
695.605343004
691.818827632
688.137827253
684.562505888
681.092849237
677.728700408
674.46975255
671.315582994
668.265643491
665.319292801
662.475784843
659.734299859
657.093930902
654.553713788
652.112612422
649.769547763
647.523382509
645.372949273
643.317035138
641.354409163
639.483807273
637.703959112
636.013573661
634.411365358
632.896040738
631.466323633
630.120943075
628.858657272
627.678242936
626.578517682
625.558330867
624.616583973
623.75222298
622.964256209
622.251748031
621.613833308
621.049711399
620.55865443
620.139995583
619.793117459
619.517397391
619.312028722
619.173859112
619.117649787
915.943486419
915.636139145
915.002243545
914.033514988
912.736224402
911.116715082
909.182700761
906.943231657
904.40858307
901.590129122
898.500207586
895.151982298
891.559302785
887.736568312
883.698593745
879.4604847
875.037517341
870.445030694
865.698324728
860.812572674
855.802738753
850.683510642
845.469235887
840.1738728
834.810943261
829.39349943
823.934090218
818.444741167
812.936932097
807.421587932
801.909065739
796.409153378
790.931064322
785.483446166
780.074380016
774.711393673
769.401466863
764.151049758
758.966071658
753.851963347
748.813668417
743.855668532
738.981996519
734.196263689
729.501673898
724.901052141
720.396858867
715.9912191
711.685936351
707.482521595
703.382206158
699.385969953
695.494552836
691.708481575
688.028079286
684.453490756
680.984689713
677.621502282
674.363612007
671.210581385
668.161854744
665.216777937
662.374599325
659.634487861
656.99553253
654.456759119
652.017128547
649.675552647
647.430891822
645.281970141
643.227572741
641.266460475
639.397367398
637.619015123
635.930110657
634.329360502
632.815469018
631.387152218
630.043136729
628.782173144
627.603035594
626.504534433
625.48551637
624.544876216
623.681557463
622.894562783
622.182954885
621.545865412
620.98249595
620.49212543
620.074112996
619.727911156
619.453093742
619.249469755
619.117501405
619.061391037
916.577214485
916.265138111
915.625481902
914.648051455
913.339216656
911.705457437
909.75468174
907.496159821
904.940404627
902.099039498
898.984657796
895.610680049
891.991209056
888.140889466
884.074770459
879.808177684
875.35659148
870.735537256
865.960483546
861.046753452
856.009443597
850.86335638
845.622938472
840.302231699
834.914828361
829.473837755
823.991855311
818.480941877
812.952604081
807.417784083
801.886849186
796.369589843
790.875217298
785.412369118
779.989112392
774.612955128
769.290854621
764.029233556
758.833992183
753.710527969
748.663750619
743.698104341
738.817584836
734.025763345
729.325804815
724.720492959
720.212248878
715.8031564
711.494980486
707.289192174
703.186986136
699.189304628
695.296853651
691.510125391
687.829412568
684.254828982
680.786321785
677.423689925
674.16659424
671.014573768
667.967053746
665.023359924
662.182724703
659.444299725
656.807160495
654.270317606
651.832720268
649.493266541
647.250806202
645.104150347
643.052073981
641.093325291
639.226628255
637.450691807
635.764212671
634.165884517
632.654401134
631.228465571
629.886793677
628.628123131
627.451217281
626.354873917
625.33792929
624.399266421
623.537819156
622.752579813
622.042603162
621.407013343
620.845008025
620.355865422
619.938950975
619.593730039
619.319788771
619.116890235
618.985259571
618.923315165
917.551470644
917.233949094
916.585291761
915.594267059
914.267440033
912.611521982
910.63471513
908.34662704
905.758138857
902.881261941
899.72898828
896.315138592
892.65421011
888.761229037
884.651608195
880.34101409
875.845242554
871.180106483
866.361333576
861.404476999
856.324835803
851.137387646
845.856729845
840.497031249
835.071990505
829.594803492
824.078135313
818.534100098
812.97424397
807.409534877
801.850354579
796.306496812
790.787167254
785.300987799
779.856002664
774.459689263
769.118968872
763.840221909
758.629302451
753.491556912
748.431841403
743.454542871
738.563598445
733.762518227
729.054405846
724.441982148
719.927606233
715.513299327
711.200765616
706.991415615
702.886386153
698.886562613
694.992597491
691.204930985
687.523807672
683.949295053
680.481298063
677.119575358
673.863751551
670.713331233
667.667709021
664.726181472
661.887955199
659.152157001
656.517840416
653.983994467
651.549549105
649.213382993
646.974328284
644.831177862
642.782689841
640.827594592
638.964599275
637.19239489
635.509661028
633.915073076
632.40730727
630.985048061
629.646993462
628.391862497
627.218400742
626.125387713
625.111642457
624.176030689
623.31747028
622.534937987
621.827474736
621.19419196
620.634276918
620.146999269
619.731717813
619.387889293
619.115079002
618.91297853
618.781661703
618.718536524
918.870288131
918.545763312
917.884802382
916.875160698
915.523702253
913.837475468
911.825092047
909.496626092
906.863467226
903.938162305
900.734252518
897.266109029
893.548770203
889.597784566
885.429061202
881.058730643
876.503016661
871.778121056
866.900120635
861.884877618
856.74796168
851.504584228
846.169542455
840.757173521
835.281316183
829.755280398
824.191822363
818.60312593
813.000788118
807.395810033
801.798591032
796.218927787
790.666016447
785.148456735
779.674260521
774.250863108
768.885135724
763.583401095
758.351449692
753.194558549
748.11751027
743.124614182
738.219727269
733.406276885
728.687282862
724.065381047
719.542845872
715.12161401
710.803306696
706.589252803
702.480510252
698.477887846
694.581965153
690.793112542
687.11150905
683.537160207
680.069913559
676.709474075
673.455417226
670.30720195
667.264181401
664.325613685
661.490670555
658.758446283
656.12796473
653.598186809
651.168016423
648.836307009
646.601866824
644.463465031
642.419836753
640.469689064
638.61170614
636.844555399
635.166892943
633.57736998
632.074638624
630.657358606
629.324203395
628.073867112
626.905070848
625.816569623
624.807158731
623.875680554
623.021030749
622.242164753
621.538103693
620.907940521
620.350845721
619.86607326
619.452966385
619.110963201
618.839600841
618.638519642
618.507727496
618.444459201
920.540314261
920.206929344
919.530209718
918.496684211
917.113626712
915.388539892
913.330576097
910.950420619
908.260126351
905.272936468
902.003104064
898.465711666
894.676494612
890.651671988
886.407787591
881.961563283
877.329765852
872.52908854
867.576047133
862.4868907
857.277525834
851.963453654
846.559717758
841.080862051
835.540896526
829.953270198
824.330849637
818.685902862
813.030087541
807.374443676
801.72938999
796.104724426
790.509628501
784.952671873
779.441823498
773.984463846
768.587399164
763.256877982
757.998608954
752.817780434
747.719080935
742.706720909
737.784455026
732.955605435
728.223085153
723.58942209
719.05678286
714.626996866
710.301579803
706.081757096
701.968486381
697.962479592
694.064223768
690.274001173
686.591907891
683.017871526
679.551667238
676.192932794
672.941181926
669.795816745
666.756138565
663.821357913
660.990603156
658.262928545
655.637321132
653.112707376
650.687958908
648.361898261
646.133304027
644.000916218
641.963441284
640.019557508
638.167920226
636.407167526
634.735925866
633.1528162
631.656460056
630.245486081
628.918536513
627.674274036
626.5113885
625.428603901
624.424685139
623.498444913
622.648750306
621.874529386
621.17477744
620.548563134
619.995034273
619.513423388
619.103052761
618.763338283
618.493791576
618.294022076
618.164010221
618.101019841
922.56998823
922.225685581
921.529512258
920.466489832
919.044419077
917.271386701
915.157234064
912.713421005
909.952836924
906.88959957
903.538852457
899.916564323
896.03933511
891.924212286
887.588520153
883.049704384
878.325192927
873.432274194
868.387992325
863.20905918
857.91178167
852.512003057
847.02505604
841.465725878
835.848221368
830.18615236
824.492512317
818.779665456
813.059337764
807.342611964
801.639926199
795.96107644
790.315222729
784.710895314
779.156008201
773.6578729
768.223214459
762.858189471
757.568405446
752.358941669
747.234370994
742.198782746
737.255806223
732.408634973
727.660051349
723.012451498
718.467870284
714.028006295
709.694246405
705.467690034
701.349172595
697.339288257
693.438411538
689.646717897
685.964202875
682.390699998
678.925897081
675.569351193
672.320501999
669.178683816
666.143136171
663.213013235
660.387392011
657.665279658
655.045619876
652.52729875
650.10914998
647.789959886
645.568472109
643.443392353
641.413393077
639.477118427
637.633189283
635.880208669
634.216767359
632.641449875
631.152840699
629.749530829
628.430124503
627.193246171
626.037547541
624.961714751
623.964475493
623.044606126
622.200938628
621.432367399
620.737855792
620.116442372
619.5672468
619.08947521
618.682424973
618.345488151
618.078153335
617.880008843
617.751021011
617.688534231
924.96969778
924.612218936
923.892591523
922.794011776
921.324940038
919.494195299
917.312478728
914.792211645
911.947316616
908.792986162
905.34545264
901.621763123
897.639564366
893.416901668
888.972034484
884.323270743
879.488821136
874.486673864
869.334489669
864.049516164
858.648519847
853.147733524
847.562816527
841.908824961
836.200189469
830.450698487
824.673485634
818.881020516
813.085102784
807.296859455
801.526746445
795.784552245
790.079406656
784.419789476
778.813545967
773.267902778
767.789486046
762.384341148
757.057953849
751.815272622
746.660731979
741.598276642
736.631386446
731.763101795
726.996049549
722.332469157
717.774238882
713.322901908
708.979692156
704.745559565
700.621194671
696.607052234
692.703373757
688.910208689
685.227434192
681.654773339
678.191811682
674.838012159
671.592728342
668.455216101
665.424643748
662.50010082
659.680605625
656.965111751
654.352513697
651.841651853
649.43131698
647.120254405
644.907168072
642.79072462
640.769557589
638.842271885
637.007448537
635.263649854
633.609424943
632.043315655
630.563862884
629.169613241
627.859126005
626.630980338
625.48378265
624.416174092
623.426838043
622.514507578
621.677972768
620.916087824
620.227777911
619.612045661
619.067977195
618.594747639
618.191625912
617.857978233
617.593270678
617.397073858
617.269341248
617.207513336
927.751958886
927.378811987
926.631348956
925.490590264
923.96581122
922.066737841
919.805131041
917.194590834
914.250298975
910.988750261
907.427488633
903.584852593
899.479735255
895.131362976
890.559095164
885.782247214
880.819937555
875.690959243
870.413675575
865.005938461
859.485027206
853.867604728
848.169687452
842.406625246
836.593087843
830.743055311
824.869810872
818.985935727
813.103305986
807.233092379
801.385764283
795.571095354
789.798174395
784.075417208
778.410584433
772.81080003
767.282571646
761.83181251
756.463864448
751.183521966
745.995057143
740.90224535
735.908391565
731.016357286
726.228587792
721.547139722
716.973708659
712.509656671
708.156039457
703.913632986
699.78295929
695.764311274
691.857776207
688.063257809
684.380496638
680.809088761
677.348502522
673.998093471
670.757117374
667.624741477
664.600054036
661.682072366
658.869749508
656.161979798
653.557603497
651.055410774
648.654145198
646.352507014
644.149156347
642.042716536
640.031777708
638.114900741
636.29062165
634.557456489
632.913906752
631.358465305
629.889622789
628.50587447
627.205727467
625.987708281
624.850370553
623.792302949
622.812137098
621.908555466
621.080299122
620.326175243
619.645064346
619.035927087
618.497810621
618.029854307
617.631294785
617.301469973
617.039822066
616.845903187
616.719651891
616.658613581
930.931625433
930.540033475
929.759882159
928.569626389
926.979544638
925.000479881
922.645491104
919.929612681
916.86954833
913.48335601
909.790143305
905.809778004
901.562619413
897.069273904
892.350377135
887.426404415
882.317510213
877.043396975
871.623212713
866.075475554
860.41802238
854.667977271
848.841734828
842.954953
837.022550799
831.058707413
825.076861118
819.089707846
813.109200575
807.146550814
801.212234873
795.31600184
789.466885997
783.673223093
777.942670854
772.282230356
766.698269131
761.196545365
755.78223307
750.459947969
745.233774165
740.107291411
735.083603063
730.165364487
725.354811946
720.653791695
716.06378923
711.585958371
707.221150061
702.969940517
698.832658552
694.809411711
690.900111026
687.104494067
683.422146164
679.852519565
676.394950498
673.048674043
669.812836897
666.686508066
663.668687682
660.758314084
657.954269437
655.255384111
652.660440112
650.168173813
647.77727828
645.486405413
643.294168153
641.199142914
639.199872434
637.294869144
635.482619132
633.761586778
632.130220033
630.586956372
629.130229329
627.758475609
626.470142639
625.263696521
624.137630238
623.090472059
622.120793972
621.227220115
620.40843502
619.663191649
618.990319045
618.388729601
617.857425749
617.395506094
617.002170843
616.676726142
616.41858783
616.227287696
616.102745401
616.042620033
934.526143773
934.112978182
933.294701938
932.046770561
930.380696409
928.308696846
925.845416831
923.007629752
919.813869472
916.284058451
912.439154573
908.300821547
903.891127717
899.232276164
894.346367627
889.255197451
883.980087233
878.541751592
872.960199356
867.254667327
861.44358274
855.544548941
849.574347101
843.548946596
837.483517208
831.392438693
825.289305813
819.186929851
813.097339033
807.031780792
801.000729429
795.01389703
789.080246765
783.208015311
777.404736218
771.677264882
766.031804664
760.473933774
755.008632599
749.640311596
744.372839658
739.209573138
734.15338539
729.206696909
724.371505871
719.649419035
715.041682742
710.549213893
706.172630546
701.912281949
697.768277576
693.740514946
689.828705795
686.032400384
682.351009632
678.783824931
675.330035468
671.988743087
668.758974649
665.639692078
662.629800211
659.728152744
656.933556505
654.244774413
651.660527399
649.179495667
646.800319567
644.521600413
642.341901462
640.259749331
638.273635969
636.382021366
634.583337047
632.875990416
631.258369941
629.728851151
628.285803389
626.927597236
625.652612501
624.459246673
623.345923711
622.311103031
621.3532886
620.471037959
619.662971115
618.927779133
618.264232378
617.671188248
617.147598397
616.692515234
616.305097829
615.984616812
615.730458357
615.542130672
615.419531343
615.360442294
938.555867093
938.117560883
937.254999586
935.940150332
934.186049173
932.006607811
929.418409918
926.440334313
923.093109088
919.398870667
915.380754089
911.062518091
906.468208549
901.621861245
896.547244407
891.267641348
885.805674094
880.18316864
874.421061872
868.539348162
862.557061264
856.492283906
850.362175264
844.183005182
837.970185419
831.738291345
825.501072521
819.271454772
813.061539077
806.882602514
800.745106214
794.658709499
788.632284313
782.673945518
776.79107784
770.990365074
765.277819794
759.658812988
754.13810371
748.719868815
743.407733133
738.204800101
733.113683075
728.136537173
723.275091713
718.530682991
713.90428735
709.3965542
705.007838812
700.738234451
696.587603553
692.555607455
688.641734367
684.84532511
681.16559642
677.60166147
674.152547561
670.81721087
667.594548352
664.483406908
661.482590088
658.590862572
655.806952834
653.129554316
650.557325559
648.088889632
645.722833308
643.457706249
641.292020596
639.224251133
637.252836299
635.376180119
633.592655202
631.900606787
630.298357858
628.784215258
627.35647672
626.013438723
624.753405018
623.574695716
622.475656758
621.454669661
620.510161327
619.640613853
618.844574113
618.120663081
617.46758468
616.884134163
616.369205818
615.921800059
615.541029749
615.226125439
614.976439957
614.791455062
614.671042168
614.61311563
943.044445147
942.57688307
941.662973359
940.27064473
938.414825384
936.111525972
933.379705725
930.240793409
926.718143233
922.836511531
918.621582659
914.099545216
909.296718574
904.239227865
898.952725478
893.462158745
887.791584806
881.964034707
876.001427936
869.924536512
863.752993523
857.50533639
851.199070479
844.850736672
838.475967691
832.089523809
825.705306493
819.336356439
812.994845809
806.692074745
800.438478234
794.243642311
788.116323347
782.06448712
776.095340635
770.215366719
764.430357639
758.745447682
753.165144848
747.693362368
742.33345038
737.088228249
731.960017506
726.950675606
722.06163025
717.293914345
712.648201245
708.124840219
703.723891662
699.445161815
695.288236383
691.252512675
687.33722964
683.54149545
679.864312107
676.304596907
672.861200467
669.532921371
666.318517418
663.216713735
660.226207992
657.345673123
654.573757956
651.909086258
649.35025463
646.895829787
644.544345625
642.29430054
640.144155309
638.092331861
636.137213136
634.277144204
632.510434688
630.835362555
629.250179194
627.753115735
626.342390471
625.01621726
623.772814735
622.610416163
621.527279769
620.521699339
619.592014962
618.736623683
617.953989978
617.242655847
616.601250454
616.028499145
615.523231845
615.084390605
614.71103648
614.402355338
614.157662521
613.976409498
613.858438538
613.801805738
948.019311252
947.517683817
946.544228323
945.062211714
943.088933996
940.64302326
937.746361735
934.423470509
930.700843281
926.606326556
922.16857563
917.416581139
912.379260274
907.085105351
901.561884695
895.836394225
889.934261989
883.879809965
877.695977656
871.404308664
865.024995707
858.576971189
852.078022807
845.544908551
838.993447215
832.438569377
825.894328739
819.373886782
812.88948955
806.452455783
800.073177711
793.761141355
787.524958506
781.372412154
775.310497572
769.345463184
763.482848561
757.727519555
752.083701695
746.555012878
741.144496376
735.854654535
730.687483476
725.64450866
720.726821384
715.935115927
711.26972736
706.730669625
702.3176737
698.030225236
693.86760123
689.828904961
685.913098675
682.119033278
678.445474655
674.891126148
671.45464706
668.134667046
664.929796591
661.838633724
658.859767431
655.99177814
653.233235907
650.58269679
648.038698096
645.599752993
643.264345131
641.030923664
638.897899195
636.863640885
634.926475051
633.084685345
631.336514633
629.680168521
628.113820505
626.635618593
625.243693258
623.936166551
622.71116215
621.566816185
620.501288564
619.512774661
618.599517078
617.759817389
616.992047561
616.294661027
615.666203143
615.105321032
614.610772591
614.181434755
613.816310823
613.514536604
613.275385654
613.098275976
612.983016563
612.92781446
953.512295179
952.970906221
951.92826579
950.342278567
948.233250759
945.623103767
942.537335152
939.004223098
935.054009631
930.718172431
926.028809967
921.018123582
915.717979691
910.159536716
904.372926629
898.3869886
892.229059067
885.924827572
879.498268525
872.971655481
866.36565514
859.69948533
852.991106619
846.257407336
839.51434192
832.776997828
826.059592756
819.375428951
812.736839186
806.155157466
799.640713404
793.202860137
786.850025274
780.589767449
774.428829798
768.37318862
762.428095562
756.598114627
750.887156053
745.298509466
739.834877558
734.498411106
729.290745265
724.213037178
719.266004587
714.449965502
709.764878653
705.210384682
700.785847577
696.490395931
692.322963165
688.282326038
684.367140436
680.575973797
676.907333406
673.359690192
669.93149767
666.621206072
663.427271725
660.348162081
657.382356796
654.528345519
651.784622986
649.149682213
646.622006438
644.200060597
641.882282933
639.667077378
637.552807159
635.537790059
633.620295546
631.798543992
630.070707956
628.434915568
626.889255821
625.431785673
624.060538698
622.773535103
621.568792843
620.444339589
619.398225305
618.428535172
617.533402644
616.711022362
615.959662786
615.277678289
614.663520643
614.115749666
613.633043079
613.214205299
612.858175384
612.564033773
612.33100753
612.158476971
612.046214839
611.992587625
959.560404211
958.972405566
957.849086113
956.142203346
953.875930091
951.07637492
947.773534726
944.00026015
939.791258909
935.182253304
930.209303882
924.908262083
919.314317935
913.461614614
907.382913271
901.109304561
894.669975862
888.092051721
881.400528582
874.618320068
867.766416151
860.864137648
853.92944209
846.979215541
840.02948161
833.095482561
826.191639107
819.331442316
812.527342971
805.790690324
799.131725424
792.559622182
786.082570221
779.707851031
773.441907557
767.290401695
761.25825998
755.349710289
749.568314326
743.91699964
738.398093475
733.013358771
727.764032292
722.650864251
717.674159325
712.833818806
708.129384066
703.560081085
699.124865831
694.822469721
690.651444347
686.61020425
682.697066719
678.910287471
675.248091488
671.708698295
668.290341492
664.991282392
661.809818066
658.744284141
655.793053047
652.954528363
650.227136197
647.60931439
645.099500529
642.696119551
640.397571831
638.202222361
636.108391701
634.114349055
632.218307837
630.418423821
628.712795927
627.09946951
625.576442009
624.1416707
622.793082286
621.528584058
620.346076307
619.243465716
618.218679398
617.269679352
616.394476954
615.591147351
614.857843374
614.192808921
613.594391473
613.061053789
612.591384479
612.184107628
611.838091216
611.552354194
611.326072314
611.158584763
611.049623652
610.997723096
966.206831598
965.563855284
964.345933148
962.497817296
960.048738903
957.030196475
953.477822167
949.430036266
944.926845224
940.008894684
934.716759138
929.090397086
923.168710657
916.989163885
910.587434092
903.997093164
897.249335235
890.372782627
883.393408811
876.334613395
869.217465464
862.061097707
854.883187878
847.700420838
840.52880784
833.38377636
826.280045226
819.231395035
812.250456302
805.348599143
798.53593228
791.821380847
785.212821612
778.717190592
772.340573215
766.088270996
759.96484781
753.974162349
748.119395327
742.403078432
736.827127485
731.392879729
726.101133954
720.952192603
715.945905102
711.081712703
706.358694927
701.775617927
697.330984337
693.023083973
688.850044
684.809877215
680.900526742
677.11990592
673.465932144
669.936554057
666.52977161
663.243649094
660.076321349
657.025993815
654.090937123
651.269477261
648.559982276
645.960846676
643.470474585
641.087262751
638.809584336
636.635774387
634.564117621
632.592839088
630.720097969
628.943984689
627.262521243
625.673664617
624.175312981
622.765314382
621.441477543
620.20158447
619.043404452
617.964709172
616.963288517
616.036966797
615.183619014
614.401186866
613.68769427
613.041262068
612.460121854
611.942628646
611.487272462
611.09268852
610.757666332
610.481157376
610.262280864
610.100330248
609.994993903
609.944980814
973.502282332
972.793910366
971.464220514
969.450051546
966.787391273
963.514771218
959.674924689
955.313048475
950.475390391
945.208238713
939.557237387
933.566901363
927.280232419
920.738365586
913.980210672
907.042087388
899.957383596
892.756290137
885.465680449
878.109201979
870.707623755
863.279432479
855.841590684
848.410281045
841.001411075
833.630697763
826.313363215
819.063672369
811.894546754
804.817380634
797.842068577
790.977177802
784.230163464
777.607526811
771.114928868
764.757263261
758.538697263
752.462691798
746.532017238
740.748776243
735.114436323
729.6298691
724.295393584
719.110821075
714.075501009
709.188368077
704.447991754
699.85262863
695.400277643
691.088737085
686.915661813
682.878618398
678.975136208
675.202752447
671.559049859
668.041686081
664.648414364
661.377095598
658.225702215
655.192314628
652.275111331
649.472353754
646.782367282
644.203519691
641.734198463
639.37278816
637.117649156
634.967098627
632.919394752
630.972724569
629.125195948
627.374833639
625.719579363
624.157295579
622.685772573
621.302738404
620.00587129
618.792813984
617.66118974
616.608619471
615.632739671
614.731220756
613.901785348
613.14222627
612.45042377
611.824361895
611.262143612
610.76200473
610.322326299
609.941645721
609.618666305
609.352265228
609.141499882
608.985614284
608.884248377
608.836292889
981.506749942
980.719739408
979.256688879
977.045643796
974.13183772
970.56311528
966.391197785
961.669487718
956.451491188
950.789844445
944.735765376
938.338725177
931.646188106
924.703321101
917.552626964
910.233505322
902.781789813
895.22934743
887.603852418
879.928856244
872.224252218
864.507161612
856.793135138
849.097385183
841.435626632
833.824127526
826.279028675
818.815440481
811.446756265
804.184372385
797.037814244
790.015105089
783.123118504
776.367806682
769.754331711
763.287136156
756.969967442
750.805870789
744.797182712
738.945544922
733.251937939
727.71672514
722.339701027
717.120140009
712.056844182
707.148192166
702.392191019
697.786532835
693.328656137
689.015811008
684.845125224
680.813668504
676.91851165
673.156778272
669.525687131
666.02258418
662.644963782
659.390479412
656.256944391
653.242323803
650.344718833
647.562345102
644.893506572
642.336566762
639.889918851
637.55195633
635.32104557
633.195501621
631.173568143
629.253402228
627.433064361
625.710513617
624.083607728
622.550107634
621.107685852
619.753938162
618.486397953
617.302552837
616.199862939
615.175780532
614.227770466
613.353330988
612.550014462
611.815447562
611.147350611
610.543555667
610.002023253
609.520857433
609.098319336
608.732838839
608.423024787
608.167673476
607.965774804
607.816518445
607.71949268
607.673775782
990.29195348
989.409068417
987.784862159
985.337892203
982.126419184
978.210801273
973.654145216
968.519678379
962.86916619
956.762179853
950.255872886
943.404957155
936.261663784
928.875561488
921.293178095
913.557439991
905.70700508
897.775618274
889.791665792
881.778135692
873.753185513
865.731432062
857.725870605
849.749979723
841.819222617
833.951005761
826.163203228
818.47241922
810.89278629
803.435604997
796.109719857
788.922280847
781.879350518
774.986194572
768.247402196
761.666936913
755.248127477
748.993605867
742.905260748
736.984240892
731.230997306
725.645337693
720.226483757
714.973124884
709.883466721
704.955279544
700.185951457
695.572548842
691.111885302
686.800597129
682.635221498
678.612272572
674.728311321
670.980005573
667.364178204
663.877842162
660.518222136
657.282763174
654.169127338
651.1751797
648.298965498
645.538680264
642.892635033
640.359218603
637.936858952
635.623985645
633.418995107
631.32022015
629.325905079
627.434187028
625.643084005
623.950489392
622.354172535
620.851784555
619.440868659
618.118874046
616.883172793
615.731079111
614.659870467
613.666810128
612.749170554
611.904257185
611.129431953
610.422136151
609.779912044
609.200423066
608.681472129
608.221018145
607.817190421
607.468301245
607.17285646
606.929564096
606.737340975
606.595318603
606.503028687
606.459742492
999.94475967
998.942989078
997.120887465
994.387369874
990.819709949
986.495295446
981.491555946
975.883218251
969.741102591
963.132003149
956.119084068
948.762372082
941.119066317
933.243519642
925.186834501
916.996106881
908.713427622
900.374822394
892.009388177
883.638961727
875.278700968
866.938897655
858.628052547
850.356584349
842.139730015
833.997300896
825.950474547
818.018482726
810.216568982
802.555618224
795.043146552
787.684861119
780.485703319
773.450113089
766.582051068
759.885007653
753.361942743
747.015114743
740.845962373
734.855104206
729.042409684
723.407075159
717.947696189
712.662327868
707.548529991
702.603410857
697.823678878
693.205706248
688.745606903
684.439326205
680.282735457
676.271724234
672.402284026
668.670579006
665.073001143
661.606208673
658.267147729
655.053058037
651.961463999
648.990153173
646.137144272
643.400647156
640.779017234
638.270706829
635.874215915
633.58804462
631.410649605
629.340406251
627.375578048
625.514294221
623.754535843
622.09413022
620.530752608
619.061934209
617.685075099
616.397461143
615.196283921
614.078663204
613.041671349
612.082359293
611.197783448
610.385032967
609.641256615
608.963688662
608.34967325
607.796686779
607.302358147
606.864486549
606.481057032
606.150253528
605.870469954
605.640319137
605.45863897
605.324497817
605.237367617
605.196716927
1010.57210617
1009.41991507
1007.34987572
1004.2623812
1000.26371566
995.454592976
989.930056206
983.777712096
977.077672387
969.903654591
962.324413454
954.405027549
946.207708835
937.792002993
929.214327962
920.526913616
911.776290119
903.001555832
894.232770176
885.489975062
876.783521759
868.116446173
859.489355164
850.907126838
842.384990549
833.947874103
825.623264631
817.434969769
809.3997506
801.527228794
793.822262329
786.288128771
778.92830306
771.746329499
764.745533252
757.928995118
751.299450338
744.858888553
738.608305992
732.547731973
726.676381977
720.992770625
715.494807671
710.179866373
705.044815082
700.086047437
695.299528164
690.680857762
686.225362251
681.928202954
677.784494395
673.789418772
669.938327976
666.226827584
662.650840262
659.206647672
655.890911449
652.700674463
649.633344568
646.686663282
643.858662336
641.147610991
638.551957211
636.070265618
633.701155295
631.443240153
629.29507467
627.255107181
625.321642732
623.492816547
621.766578606
620.140688603
618.612720015
617.180071341
615.839982836
614.589557152
613.425783038
612.34556145
611.34573378
610.423111815