/*--------------------------------*- C++ -*----------------------------------*\
| =========                 |                                                 |
| \\      /  F ield         | OpenFOAM: The Open Source CFD Toolbox           |
|  \\    /   O peration     | Version:  v1906                                 |
|   \\  /    A nd           | Web:      www.OpenFOAM.com                      |
|    \\/     M anipulation  |                                                 |
\*---------------------------------------------------------------------------*/
FoamFile
{
    version     2.0;
    format      ascii;
    class       volScalarField;
    location    "401";
    object      pa;
}
// * * * * * * * * * * * * * * * * * * * * * * * * * * * * * * * * * * * * * //

dimensions      [0 2 -2 0 0 0 0];


internalField   nonuniform List<scalar> 
9216
(
980.044041899
979.681817664
978.945840426
977.83296989
976.346874382
974.491854286
972.273293968
969.697604638
966.772123076
963.5050921
959.905546654
955.983300856
951.748820901
947.213221868
942.388131993
937.285704576
931.918478561
926.299410331
920.441734795
914.359020277
908.065032886
901.573815744
894.899557731
888.056695979
881.059788319
873.923635939
866.663157513
859.29352717
851.830047279
844.288295609
836.683993951
829.033156907
821.351950926
813.656838869
805.964426627
798.291593718
790.655323675
783.072813656
775.561286443
768.138072651
760.820403903
753.625463174
746.570160584
739.671148998
732.944584555
726.406105395
720.070578218
713.952038314
708.063422647
702.416472745
697.021458985
691.887059881
687.020096928
682.425427033
678.105730576
674.061477081
670.290821987
666.789702071
663.551873787
660.569151484
657.831572356
655.327741883
653.045082374
650.970231048
649.089309471
647.388292855
645.853222327
644.470480494
643.22691082
642.109989992
641.1078672
640.209459302
639.404438972
638.68328128
638.037220537
637.458265091
636.939132491
636.473243975
636.054646262
635.677994006
635.33846147
635.031704305
634.753734844
634.500249206
634.271821384
634.074599649
633.909912426
633.776119031
633.672340981
633.59514085
633.540301289
633.502577949
633.477227608
633.461778525
633.453968682
633.451230508
980.405783233
980.042405664
979.3051591
978.189219992
976.698809194
974.838369907
972.613377399
970.030305544
967.09656425
963.820456664
960.211095571
956.278356474
952.032785605
947.485555821
942.648372431
937.533437776
932.153360238
926.521132428
920.650047673
914.553695263
908.245887139
901.74067166
895.052271274
888.195114081
881.183781311
874.033053972
866.757867361
859.373368563
851.894874162
844.337933381
836.718284282
829.05191598
821.355019396
813.64404237
805.93562799
798.246656032
790.594164682
782.995371533
775.467574718
768.028148578
760.69442223
753.483647111
746.412853061
739.498786695
732.757746021
726.205488964
719.857046618
713.726600299
707.827272219
702.170970665
696.768160598
691.627686879
686.756543517
682.159709578
677.839964594
673.797800899
670.031352084
666.536445472
663.30668453
660.333654557
657.607139581
655.115438538
652.845670063
650.78414987
648.916718507
647.229088388
645.707100479
644.336967782
643.105423476
641.999856902
641.008373821
640.119858495
639.323981637
638.61121987
637.972832521
637.400852279
636.888039383
636.427853459
636.014395157
635.642370358
635.30703136
635.004150945
634.730004409
634.481405397
634.256126137
634.059819389
633.897393128
633.766769671
633.664274613
633.587692932
633.53432601
633.497729167
633.472766828
633.458133608
633.451107651
633.448252895
981.143142298
980.776597898
980.035105311
978.912796235
977.413928591
975.543004588
973.305596279
970.708282832
967.758594307
964.464955289
960.836611335
956.8835658
952.616500177
948.046711005
943.186030831
938.046771434
932.641651162
926.983749722
921.086446485
914.963390548
908.628452839
902.095713124
895.379426578
888.494027083
881.454106717
874.27443264
866.969936264
859.555739522
852.047149366
844.459688343
836.809089704
829.11132587
821.382598543
813.639360046
805.898291543
798.17631002
790.490529215
782.858245926
775.296878712
767.823928953
760.456894642
753.213204226
746.110105399
739.164571958
732.393168808
725.811932201
719.436210615
713.280515969
707.358336498
701.681954316
696.262227307
691.108376228
686.227749713
681.62561327
677.30495053
673.266330431
669.507832777
666.025078737
662.811337632
659.857735878
657.153513151
654.686344471
652.442693686
650.408216862
648.568149802
646.907673077
645.412201056
644.06761439
642.860412205
641.777821628
640.807852899
639.939336666
639.161931472
638.466126968
637.843225102
637.285317431
636.785242742
636.336546261
635.933425418
635.570683509
635.243677888
634.948287811
634.680903205
634.438452794
634.218046709
634.026760534
633.872284873
633.747985313
633.647964662
633.573608186
633.523085992
633.487739118
633.464370193
633.45091627
633.443767643
633.440203757
982.263595244
981.893375667
981.14534722
980.013234058
978.501379872
976.614389439
974.357974001
971.738873312
968.764797314
965.444360945
961.787010606
957.802951688
953.503069932
948.898858299
944.002340212
938.826002394
933.382726221
927.685732213
921.748524509
915.584851136
909.208664695
902.634100285
895.875453011
888.947172824
881.863856983
874.640258796
867.291291281
859.83204536
852.277799972
844.644044526
836.946490752
829.201092736
821.424054179
813.631841696
805.841180051
798.069050666
790.332668678
782.64945986
775.037013654
767.513033684
760.095263692
752.801410148
745.649041541
738.655484775
731.837700301
725.212154124
718.794668747
712.600267347
706.642993001
700.93571365
695.489897008
690.315367629
685.420040972
680.809659143
676.487543442
672.454406124
668.708247143
665.244370562
662.055511502
659.132078072
656.462449344
654.033319192
651.830102736
649.837409515
648.039513941
646.42077233
644.965943897
643.660418031
642.490352216
641.442749735
640.505490068
639.667338512
638.91794121
638.247816595
637.648334732
637.111684748
636.630827733
636.199444927
635.811879445
635.463079221
635.14853919
634.864250717
634.606667094
634.372498094
634.159898973
633.979024218
633.834103719
633.716433399
633.623585417
633.554214632
633.505015079
633.471696215
633.450189749
633.437244772
633.429970175
633.426387536
983.770144494
983.395202795
982.638334553
981.492933882
979.963481718
978.054734221
975.772593271
973.124019171
970.116966968
966.760313665
963.063779832
959.03784943
954.693686771
950.04305569
945.098239211
939.871965188
934.37733548
928.627764357
922.636922816
916.418694433
909.987138336
903.356464633
896.541016664
889.555265067
882.413806955
875.131375064
867.722849445
860.203276716
852.587889078
844.89212825
837.131667205
829.322431745
821.480618195
813.622708888
805.765477627
797.925989897
790.12158909
782.369873573
774.688656673
767.095914986
759.609718585
752.248149464
745.02920349
737.970682731
731.090074179
724.404420482
717.930177144
711.683057781
705.677858082
699.928254908
694.446569492
689.243491727
684.327765435
679.705849192
675.381585677
671.3559276
667.626780447
664.189003853
661.034566816
658.152863257
655.531066952
653.154482506
651.007013169
649.071759758
647.331625654
645.769822216
644.370225788
643.117591699
641.997655484
640.997161601
640.103848035
639.30641806
638.594515268
637.958707541
637.390465689
636.882122197
636.426812473
636.018410933
635.651463598
635.321119502
635.023060627
634.753428032
634.508746051
634.285229955
634.084588844
633.917561075
633.783792671
633.675368181
633.588687149
633.524384663
633.479412279
633.448607221
633.428221406
633.415803376
633.408622601
633.405047926
985.667439519
985.286575637
984.518495395
983.356213383
981.804400115
979.868015467
977.553210661
974.867232645
971.81835368
968.41579023
964.669617134
960.590678861
956.190499187
951.48119205
946.475374671
941.186085786
935.626709758
929.810909316
923.752567106
917.465738417
910.964614347
904.263497016
897.376784991
890.318969731
883.104640243
875.748496302
868.265366975
860.670234846
852.978262632
845.20482274
837.365527606
829.47625725
821.553186426
813.612807096
805.671943206
797.747757487
789.857745678
782.019718076
774.251764462
766.572203375
758.999513368
751.552249115
744.248942034
737.107990006
730.147536662
723.385344245
716.838657552
710.524057751
704.457295779
698.653095146
693.124905778
687.884595721
682.94206895
678.304824295
673.977487118
669.96140326
666.254379514
662.850679644
659.741208343
656.91399869
654.354653687
652.046615681
649.971693718
648.110892887
646.445249149
644.956472494
643.627337852
642.441858171
641.385312879
640.444197104
639.606133114
638.859786442
638.194816722
637.601864564
637.072542093
636.599382063
636.175758285
635.795805187
635.454340765
635.146785984
634.869086476
634.617634477
634.38920071
634.180217726
633.995260726
633.843618689
633.720163881
633.619946622
633.542108219
633.486262688
633.445025681
633.416494441
633.397873009
633.38511554
633.377816044
633.374131128
987.961304708
987.573222186
986.791446584
985.608532528
984.029391331
982.059242191
979.704550519
976.972923221
973.873029671
970.414511013
966.607884522
962.464444846
957.996163878
953.215591928
948.135761809
942.770098506
937.132335945
931.236443348
925.096562306
918.726956425
912.141973808
905.356023096
898.383562094
891.239098455
883.9372004
876.492516244
868.919800409
861.233944796
853.450013571
845.583280489
837.649268588
829.663786136
821.642964488
813.603290521
805.561632325
797.535255699
789.541827887
781.599406026
773.726407529
765.941561101
758.263837796
750.712363525
743.306315593
736.064807698
729.006767971
722.150814555
715.515129935
709.117331202
702.974325459
697.10213096
691.515637488
686.2282686
681.2515268
676.594398498
672.26268874
668.258371598
664.579172131
661.218560414
658.165941924
655.407568191
652.927148018
650.70571696
648.722200355
646.954707211
645.381776517
643.983222195
642.740534406
641.636942524
640.657312165
639.78796958
639.016500324
638.331582835
637.722910971
637.181214283
636.698293744
636.266958538
635.880901095
635.534593738
635.22320625
634.942509949
634.688789748
634.458760082
634.249412109
634.057990667
633.891169672
633.754965522
633.643571761
633.554652165
633.48705678
633.437016415
633.399555202
633.373316723
633.356460491
633.344135151
633.33697373
633.333415063
990.658840181
990.262154469
989.464062244
988.256564991
986.644870317
984.634517352
982.232358226
979.446441673
976.285923653
972.760964852
968.882623202
964.662742857
960.113842202
955.249003118
950.081763963
944.626018597
938.895923904
932.905818112
926.670152048
920.203434999
913.520196215
906.634962348
899.562250137
892.316572969
884.912459189
877.364479894
869.687283845
861.895637679
854.00446986
846.028917327
837.984375653
829.886545341
821.75148229
813.595643048
805.435923936
797.289690626
789.17479384
781.109567515
773.112805685
765.20371604
757.401849075
749.727004759
742.199120413
734.838146948
727.663921233
720.696043827
713.953766625
707.455891295
701.220664286
695.265646409
689.607505434
684.261684288
679.241857117
674.559158185
670.221171753
666.230901172
662.58600921
659.278929536
656.296800873
653.623547183
651.240935318
649.126989293
647.256562939
645.603691831
644.143586445
642.853752103
641.714303131
640.707770397
639.818769252
639.033645536
638.340107865
637.726925743
637.183822413
636.701596053
636.272290677
635.889106788
635.546159559
635.23834617
634.961281298
634.711175645
634.484740057
634.279102985
634.091569023
633.920468445
633.774069528
633.654026871
633.556389797
633.479197545
633.42045154
633.375445926
633.343098674
633.319191654
633.303104616
633.292844791
633.285848599
633.282593
993.768500473
993.361730023
992.544531618
991.308253292
989.658460368
987.601080536
985.143434425
982.294105303
979.062836576
975.460415331
971.498550335
967.189746642
962.547179112
957.584567671
952.316056548
946.756100486
940.919360487
934.820612232
928.474669674
921.896326252
915.100315038
908.101288302
900.91381555
893.552398058
886.031496948
878.365571567
870.569125113
862.656755208
854.643208052
846.543435383
838.372656255
830.146415264
821.880647995
813.591742063
805.296593259
797.012652071
788.757955263
780.551137003
772.411414666
764.358545353
756.412751765
748.594618689
740.924966011
733.424707785
726.114711426
719.015672032
712.14801583
705.531837479
699.186864663
693.132413552
687.387283535
681.969472702
676.895611555
672.179936796
667.832802112
663.858909248
660.255857199
657.014849008
654.119095881
651.549374579
649.286497501
647.30483718
645.573130539
644.059466185
642.734614256
641.573411867
640.554735541
639.660720494
638.876074856
638.187515091
637.583156545
637.051969027
636.583619313
636.1688426
635.799991576
635.470866706
635.17614744
634.911235431
634.672300749
634.456091938
634.259833919
634.081165011
633.917727941
633.769741395
633.644734541
633.541506455
633.458122415
633.392622455
633.342157016
633.303751392
633.275096532
633.254555164
633.239872153
633.231495899
633.224715309
633.221883871
997.300184841
996.881733168
996.042437226
994.77288059
993.079057639
990.967362942
988.445679558
985.523230953
982.210462906
978.518909943
974.461056392
970.050193791
965.300277651
960.225785893
954.841581864
949.162784711
943.204650671
936.982468757
930.511474619
923.806785598
916.883359236
909.755975764
902.439243502
894.947624165
887.295473868
879.497095042
871.566795035
863.518948462
855.368062193
847.128843046
838.816271746
830.44567449
822.032805823
813.593929057
805.145893871
796.706205044
788.293075102
779.925453431
771.623024392
763.40616848
755.295882938
747.313662761
739.481348695
731.820956269
724.354506505
717.103885379
710.090756959
703.336552963
696.862533796
690.689904118
684.839888865
679.333651073
674.191785478
669.433094437
665.07235181
661.11717072
657.56488533
654.405913038
651.615351919
649.169143047
647.051651026
645.232821338
643.671160756
642.325661435
641.161200155
640.149875335
639.269973049
638.503891413
637.837006998
637.256988231
636.75285674
636.313937642
635.929539391
635.589909771
635.287795324
635.018077003
634.776185208
634.558036808
634.360502953
634.180981696
634.017295083
633.867727207
633.73046501
633.607178809
633.503059706
633.416959853
633.348548887
633.295414485
633.25419315
633.22235246
633.197146165
633.178903065
633.16710885
633.159924014
633.154064258
633.151505962
1001.26534356
1000.8334776
999.968849565
998.661157894
996.916907906
994.743052654
992.148146005
989.142173516
985.736414834
981.943290106
977.776200798
973.24936752
968.377667128
963.176471905
957.661493083
951.848632263
945.75384443
939.393017547
932.781873459
925.935894865
918.870281488
911.599936734
904.139483232
896.503303055
888.705596204
880.76045018
872.681914372
864.484075412
856.181132814
847.787476724
839.317773486
830.787051613
822.210804531
813.605094592
804.986657968
796.373002442
787.782488597
779.234383965
770.748879441
762.347058045
754.050809401
745.88268805
737.865722927
730.02319522
722.378416092
714.95454463
707.774495888
700.86097872
694.236693857
687.924674322
681.948711478
676.333682068
671.10541818
666.289491817
661.907999343
657.973876184
654.482806181
651.428511072
648.76608239
646.462002815
644.520113782
642.903866346
641.552211283
640.409659193
639.433588449
638.594163518
637.870865621
637.24751317
636.710906291
636.250564093
635.85733802
635.521180801
635.23025998
634.973126401
634.743074592
634.537344894
634.352311754
634.18412422
634.03060927
633.889957053
633.760601783
633.641661425
633.532074274
633.433991979
633.350898311
633.283264344
633.230091503
633.188250415
633.15520619
633.129566266
633.109627489
633.094475586
633.084348503
633.07849168
633.074265942
633.071949008
1005.67710454
1005.22992622
1004.33644184
1002.98532795
1001.18369835
998.93917165
996.261099477
993.160370618
989.649250248
985.741202095
981.450706224
976.793074252
971.784264625
966.440699539
960.779085974
954.816243903
948.568946636
942.053779258
935.287022334
928.284567523
921.061870448
913.63394295
906.015382988
898.22043586
890.263077076
882.157105566
873.916237594
865.554195851
857.084794067
848.522022212
839.880141072
831.173782725
822.418075891
813.628778328
804.822416668
796.016422453
787.229252137
778.480476852
769.7908264
761.182172241
752.677436561
744.300420865
736.07555838
728.027611188
720.181353051
712.561301983
705.191579312
698.095979979
691.298312757
684.823055003
678.69630375
672.946892712
667.607266841
662.712998558
658.298952081
654.388650696
650.969559536
648.057984653
645.553322348
643.396846663
641.666433646
640.309145395
639.221246289
638.324135044
637.566800968
636.920571407
636.370474498
635.903309497
635.507848027
635.176748396
634.904601676
634.682729689
634.496274641
634.328746792
634.174141542
634.03592829
633.911343818
633.795473366
633.687789427
633.587529443
633.49346786
633.405934182
633.324587375
633.251887542
633.190667623
633.141732539
633.102465604
633.070961306
633.04595413
633.026968953
633.012310861
633.001697761
632.993687031
632.988745932
632.986590229
632.984894737
1010.55042495
1010.08583904
1009.15962632
1007.75928958
1005.89266554
1003.56816618
1000.79608999
997.588394042
993.958504197
989.921109051
985.491950995
980.687616828
975.525328851
970.022737488
964.197716167
958.068161821
951.651806264
944.966046856
938.0278063
930.853432057
923.458643763
915.858533056
908.067613807
900.099913805
891.969092641
883.688567842
875.271633434
866.731562738
858.081697348
849.335533515
840.506820319
831.609672927
822.658722854
813.669285365
804.657543788
795.640736092
786.637327734
777.66715225
768.751497762
759.913116201
751.17613285
742.565839654
734.108369528
725.830270433
717.758032684
709.917657759
702.334393713
695.032771577
688.03706172
681.37226412
675.065748698
669.149657753
663.66387615
658.658333095
654.191415394
650.310174473
646.963556882
644.274660003
641.9752482
639.921699336
638.45617981
637.451570946
636.703297354
636.102210589
635.591658087
635.152576523
634.788586719
634.489989288
634.244380113
634.048435613
633.905253419
633.81028008
633.741900973
633.670429501
633.589387862
633.52091597
633.460946413
633.398697259
633.337580637
633.278701844
633.219845224
633.163760634
633.110513495
633.063002613
633.023479799
632.991245766
632.965263417
632.944687643
632.928926744
632.917024839
632.907722393
632.901134145
632.89653063
632.89290107
632.892869322
632.891830399
1015.90227196
1015.41794423
1014.45471719
1012.99874362
1011.0587224
1008.64401133
1005.76603343
1002.43800768
998.674724082
994.492303618
989.907959837
984.939762921
979.606406134
973.92697238
967.920700084
961.606750138
955.003980471
948.130739011
941.00468977
933.642687856
926.060717599
918.273901909
910.296581778
902.142452897
893.824735746
885.356349401
876.750062609
868.018608427
859.174767957
850.231445018
841.201757469
832.099158858
822.937616
813.731819789
804.497426764
795.251311915
786.011813243
776.798944489
767.634546988
758.542346555
749.54787847
740.678247234
731.961700939
723.427030209
715.102849457
707.01688442
699.195449777
691.663334647
684.444261719
677.562097357
671.043150502
664.920153383
659.23889534
654.067770197
649.51137344
645.683983385
642.35755836
640.092369325
638.05555571
635.631843405
634.444642357
634.004620115
633.753193455
633.542718536
633.350793184
633.179984095
633.028393953
632.895131864
632.790229896
632.734794632
632.749085647
632.833149763
632.947683876
633.011904247
632.995968053
632.999469183
633.011220232
633.001320143
632.985331395
632.969201211
632.943747929
632.91849692
632.892085329
632.868889506
632.849026541
632.833129452
632.820433712
632.81169415
632.80556617
632.800894108
632.797428101
632.79524723
632.79377384
632.792714063
632.794100032
632.793872475
1021.75183956
1021.24514845
1020.240123
1018.72136602
1016.69860569
1014.18233144
1011.18530343
1007.72223202
1003.80950769
999.464921274
994.707392714
989.556709273
984.033268437
978.157819383
971.951197287
965.434050555
958.626567585
951.548218032
944.217529685
936.651925871
928.867646572
920.87976903
912.702329118
904.348525835
895.830971511
887.16193826
878.353553978
869.417924078
860.367190505
851.213570734
841.969422657
832.647367003
823.26049512
813.822635397
804.348668435
794.854866234
785.35923207
775.88181445
766.444957818
757.073442894
747.794458668
738.637345336
729.633056368
720.813320402
712.209555154
703.851693729
695.767197764
687.980619075
680.513854867
673.387233056
666.621891233
660.244699683
654.299690491
648.868117214
644.139565373
640.400097122
636.298387906
635.215168651
634.191032246
633.702146874
633.588125421
633.586600594
633.556325557
633.482983238
633.380411311
633.262228988
633.141368797
633.028669954
632.935369385
632.875574919
632.851453798
632.825438234
632.708031438
632.452556569
632.320662608
632.412998171
632.551753982
632.60878669
632.63496366
632.667071622
632.668695757
632.673709646
632.671375512
632.670513743
632.669210477
632.669773194
632.671050966
632.674148733
632.677019946
632.679383902
632.682281542
632.685054654
632.687542981
632.689359576
632.691238396
632.692293214
1028.12080773
1027.58878032
1026.536576
1024.94700985
1022.83104746
1020.20053672
1017.06983367
1013.45541352
1009.37554332
1004.84995349
999.899532589
994.546042662
988.811844964
982.719620513
976.292072949
969.551608726
962.520001748
955.218062042
947.665339731
939.87990251
931.878225444
923.675222131
915.28442584
906.718297627
897.988603677
889.106777355
880.084182122
870.93222942
861.662375706
852.286080813
842.814812983
833.26015926
823.634070538
813.94920165
804.219322758
794.459768021
784.687899292
774.923557842
765.189461773
755.511485784
745.918738717
736.443337394
727.119767845
717.983753434
709.070638675
700.4134891
692.0413187
683.978148794
676.242851566
668.849543506
661.808547094
655.129190517
648.825144862
642.89093557
637.329492174
634.712417852
634.420465489
634.470042275
634.364554773
634.230287284
634.149174112
634.098974727
634.036929775
633.951365253
633.83934408
633.7062974
633.561177717
633.411925993
633.269307997
633.144640392
633.038856841
632.930862149
632.796106723
632.661864326
632.600634829
632.595418722
632.489873186
632.23493433
632.24059471
632.375081172
632.394326863
632.4339843
632.450512429
632.470315886
632.486999856
632.503578495
632.518640364
632.532499888
632.543877656
632.554367563
632.564214828
632.572281339
632.578916607
632.583637569
632.586650792
632.588919415
1035.033655
1034.47289069
1033.3674035
1031.69794426
1029.47697216
1026.71797683
1023.43722798
1019.65329651
1015.38664904
1010.65926016
1005.49427275
999.915700626
993.948150434
987.616533313
980.945740022
973.960267096
966.683799678
959.138777398
951.345988279
943.324249588
935.090239025
926.65853001
918.041855774
909.251577492
900.298267992
891.192267104
881.944051813
872.564328751
863.063896134
853.453439512
843.743419293
833.944153211
824.06611491
814.120380411
804.119165151
794.076407315
784.008383604
773.934342712
763.877112424
753.863602708
743.925088198
734.097114532
724.418828791
714.931527356
705.676306209
696.691026862
688.007194228
679.648478315
671.630297811
663.959398098
656.633114823
649.633076097
642.875623609
635.82161921
635.191521566
635.020144364
635.013195593
635.073075657
635.044327342
634.972401059
634.88070617
634.789831148
634.697632245
634.593547974
634.468320752
634.323132043
634.162629986
633.992338254
633.822224086
633.661011402
633.507767625
633.345627158
633.158476113
632.966023651
632.810932101
632.689369306
632.564918098
632.483664546
632.457147746
632.311438001
632.083900611
632.190598283
632.22841879
632.271997511
632.304644765
632.338378469
632.364342165
632.388725113
632.410223829
632.429087998
632.445555174
632.459079962
632.46959073
632.477671711
632.482471485
632.485770193
1042.51803523
1041.9246032
1040.75885269
1038.99913337
1036.65972358
1033.75610986
1030.306875
1026.33309147
1021.85780681
1016.90557887
1011.50210596
1005.67393691
999.448217282
992.85241584
985.913983767
978.659920325
971.116248044
963.307431595
955.255804674
946.981093392
938.500138839
929.826915246
920.972904308
911.947809572
902.760482916
893.419816187
883.935299633
874.317045312
864.575370653
854.720278658
844.761133347
834.706698295
824.565532687
814.346604312
804.059994252
793.717632125
783.334084832
772.927415799
762.520081707
752.139774604
741.82006538
731.600634529
721.526758289
711.647614169
702.012965589
692.668344125
683.649294297
674.979738573
666.672319893
658.729263529
651.138780082
643.832024728
636.28994691
635.351053136
635.633341142
635.77428996
635.832670345
635.852027414
635.824255626
635.763213536
635.677611488
635.581556528
635.476894689
635.357392176
635.216831222
635.056839363
634.879693231
634.688793439
634.492005543
634.295460675
634.098570798
633.891616309
633.666638642
633.435867019
633.22345238
633.028720603
632.836290621
632.666677094
632.529871658
632.413981044
632.354158486
632.247505095
631.997711308
632.062778443
632.122298378
632.178561824
632.210202397
632.247147513
632.278936689
632.30512102
632.327635329
632.346673821
632.361723002
632.373099332
632.38019501
632.384549466
1050.60523617
1049.97455041
1048.74047757
1046.87856718
1044.40532379
1041.3386851
1037.70005837
1033.51352952
1028.80518194
1023.60252782
1017.93411822
1011.82930133
1005.31804452
998.430720741
991.197776139
983.649231852
975.814017386
967.719179493
959.389055424
950.84454033
942.102610213
933.176269956
924.075059525
914.806143213
905.375812483
895.790986581
886.060129522
876.193119418
866.200260733
856.091165225
845.874059774
835.555784046
825.142389761
814.640043198
804.055953419
793.399251065
782.681940148
771.920019412
761.134760003
750.354034256
739.613541141
728.957688222
718.439645428
708.119757721
698.061114331
688.321958759
678.943771656
669.950795804
661.354066275
653.151168474
645.285755127
637.262941429
636.245133568
636.422230636
636.653001161
636.696067875
636.723861188
636.729983543
636.705668738
636.650862965
636.570037753
636.470416585
636.353235929
636.215588435
636.055288331
635.874922548
635.675620546
635.459820395
635.233416161
635.000676744
634.761820563
634.512831286
634.251847471
633.986984403
633.730909512
633.484978661
633.243866314
633.014941486
632.804440249
632.609867702
632.446597006
632.308286347
632.233458404
632.139305673
631.942410967
632.025910111
632.051226335
632.108601508
632.149634325
632.181861583
632.210927763
632.236010045
632.256504914
632.271362638
632.281297435
632.286583596
1059.33073755
1058.65739265
1057.34560607
1055.36765157
1052.74277131
1049.49193379
1045.64004864
1041.2148833
1036.24611208
1030.76459498
1024.80199276
1018.39065004
1011.56358642
1004.35442168
996.797097087
988.925315061
980.771687215
972.366645213
963.737232715
954.905960204
945.889967468
936.70078142
927.344944357
917.825654236
908.145243274
898.307816229
888.320910379
878.19503836
867.941512731
857.570192911
847.088182993
836.499851687
825.807886709
815.014738678
804.123848794
793.140580664
782.073256312
770.934550314
759.743250289
748.526232715
737.320537425
726.175396796
715.15365961
704.331326782
693.792330805
683.617397006
673.855388979
664.529493249
655.645031729
647.151373745
638.55136803
637.521612919
637.723651953
637.844227884
637.837903166
637.794786167
637.773937737
637.748891629
637.706727759
637.64084994
637.55021735
637.436145669
637.298257954
637.135389167
636.94919859
636.741477474
636.512935853
636.267247576
636.008759788
635.740721153
635.463972123
635.177525761
634.882079017
634.5829733
634.287073244
633.996823791
633.712550291
633.438685298
633.178564995
632.931018775
632.70118857
632.49290854
632.323834267
632.191340174
632.128802857
632.029389373
631.853348846
631.972640831
632.0240371
632.059279013
632.095680251
632.127922561
632.154424491
632.173705382
632.186577072
632.19290773
1068.73489211
1068.01247902
1066.61189953
1064.50167852
1061.70438657
1058.24476162
1054.15214966
1049.45891947
1044.19903544
1038.40710073
1032.11803208
1025.36721337
1018.1908196
1010.62601339
1002.71079561
994.483393318
985.981167849
977.239109877
968.288068883
959.152955376
949.851266287
940.392400632
930.778300155
921.005843827
911.07096554
900.97347597
890.720377499
880.324729659
869.800920025
859.160280882
848.408818231
837.547487636
826.574268348
815.486685192
804.283419242
792.964987078
781.53462958
769.999960103
758.375330678
746.68458573
734.964193769
723.267044111
711.666612468
700.260074382
689.164269709
678.504281089
668.335607797
658.669258686
649.453039294
640.176145214
639.113045779
639.395583258
639.488474496
639.329030143
639.16488305
639.044398043
638.962756456
638.891360315
638.814095536
638.719832624
638.602736646
638.459911468
638.289528916
638.091462637
637.869749097
637.62647571
637.362607825
637.082467987
636.789753942
636.487183537
636.175852271
635.855951131
635.528680087
635.197412219
634.866168034
634.537506529
634.213590253
633.897970667
633.593612694
633.30213831
633.026935086
632.770849784
632.540179391
632.341479401
632.189112474
632.071510416
631.994393497
631.902826946
631.909230891
631.935617775
631.982385337
632.023445066
632.056672216
632.081320979
632.097167407
632.104873623
1078.86374352
1078.08468111
1076.58201947
1074.32039692
1071.32623185
1067.62893319
1063.26365393
1058.26871847
1052.68330532
1046.54611094
1039.89521178
1032.76876585
1025.20595283
1017.24765429
1008.93654982
1000.3164728
991.431012078
982.321442563
973.024150609
963.567834054
953.970934891
944.24001269
934.370033602
924.347635478
914.157925244
903.793557091
893.261997107
882.582962577
871.777963472
860.861976059
849.839756641
838.707008232
827.454702107
816.073837184
804.557483104
792.900319802
781.098856317
769.15332348
757.070887609
744.869198864
732.580441169
720.257332136
707.981881379
695.877234597
684.110720051
672.909139038
662.316653518
652.259124501
642.196479242
641.025418545
641.367481345
641.472575416
641.20160019
640.858612097
640.589671991
640.395377484
640.251748558
640.128548079
640.00590695
639.869725258
639.71128045
639.525421502
639.309696592
639.065053814
638.797407316
638.509911299
638.204041511
637.884762741
637.555594968
637.218857399
636.875429027
636.52549404
636.169716329
635.809875275
635.448291087
635.087105407
634.728676394
634.376017903
634.032102916
633.699840114
633.382920821
633.085174807