/*--------------------------------*- C++ -*----------------------------------*\
| =========                 |                                                 |
| \\      /  F ield         | OpenFOAM: The Open Source CFD Toolbox           |
|  \\    /   O peration     | Version:  v1906                                 |
|   \\  /    A nd           | Web:      www.OpenFOAM.com                      |
|    \\/     M anipulation  |                                                 |
\*---------------------------------------------------------------------------*/
FoamFile
{
    version     2.0;
    format      ascii;
    class       surfaceScalarField;
    location    "771";
    object      phi;
}
// * * * * * * * * * * * * * * * * * * * * * * * * * * * * * * * * * * * * * //

dimensions      [0 3 -1 0 0 0 0];
oriented        oriented;


internalField   nonuniform List<scalar> 
18240
(
-0.00035215108538
0.000352118234496
-0.000737743562583
0.000385554552199
-0.00112298253886
0.000385204837913
-0.0015032631039
0.00038024160585
-0.00187649640255
0.000373199926767
-0.00224095895421
0.000364422494659
-0.00259511263732
0.000354121161556
-0.0029376226816
0.000342468735957
-0.00326729873073
0.000329644436022
-0.00358315643934
0.00031581502156
-0.00388434451567
0.000301157485995
-0.00417021721006
0.000285828534312
-0.00444023870388
0.000269992040039
-0.00469406762236
0.000253783230254
-0.00493143954359
0.000237343777112
-0.00515226778965
0.000220781017364
-0.00535650561225
0.000204211137445
-0.00554426705251
0.000187712705937
-0.00571566987702
0.000171377801051
-0.00587097909406
0.000155259056178
-0.00601043082986
0.000139428525608
-0.00613439982473
0.000123917531496
-0.00624320402947
0.000108783005453
-0.00633729638265
9.40397473648e-05
-0.00641704956471
7.97341140713e-05
-0.00648297161729
6.5868499613e-05
-0.00653547057475
5.24821822863e-05
-0.00657509302402
3.95681668308e-05
-0.00660226854377
2.71611013934e-05
-0.0066175701426
1.52468268461e-05
-0.00662143958527
3.85748626022e-06
-0.00661446615659
-7.02844059512e-06
-0.00659709129892
-1.73843569567e-05
-0.0065699101693
-2.72361173793e-05
-0.00653336044983
-3.65567216414e-05
-0.0064880380868
-4.5377066396e-05
-0.00643436972265
-5.36729462992e-05
-0.00637294397324
-6.147990739e-05
-0.00630417036436
-6.87757981935e-05
-0.00622862362172
-7.56001072009e-05
-0.00614669113269
-8.19324287119e-05
-0.00605892797146
-8.78154907351e-05
-0.00596569538527
-9.32303619811e-05
-0.00586752415752
-9.82222999317e-05
-0.00576474648761
-0.000102773478063
-0.00565786521535
-0.000106930876262
-0.00554718174438
-0.000110677443772
-0.00543316856624
-0.000114061126869
-0.00531609565026
-0.000117065287641
-0.00519640370108
-0.000119738070529
-0.00507433163884
-0.000122062998314
-0.00495028801172
-0.000124087775561
-0.00482448190098
-0.000125795867752
-0.00469728998408
-0.00012723396432
-0.00456889333025
-0.000128385417028
-0.00443963766951
-0.000129295507009
-0.00430967821383
-0.000129947488436
-0.00417933083642
-0.000130384941012
-0.00404872712504
-0.000130591204747
-0.0039181543059
-0.00013060804602
-0.0037877223839
-0.000130419130384
-0.00365769086226
-0.000130064375506
-0.00352814984524
-0.000129528122555
-0.00339933179236
-0.000128848521935
-0.00327130809974
-0.000128010924761
-0.00314428438924
-0.000127051797576
-0.00301831405678
-0.000125957850085
-0.00289357581219
-0.000124763972175
-0.0027701053232
-0.000123458483343
-0.00264805399081
-0.000122074733906
-0.00252743974548
-0.000120602843219
-0.00240838624953
-0.000119074620867
-0.00229089355716
-0.000117482044028
-0.00217505717615
-0.000115855289305
-0.00206085920882
-0.000114188173361
-0.00194836687299
-0.000112509104075
-0.00183754444458
-0.00011081361204
-0.00172843102436
-0.000109128137548
-0.00162097352467
-0.000107449753815
-0.00151518357818
-0.000105802716743
-0.00141099160071
-0.000104185411876
-0.00130838286311
-0.000102619664185
-0.00120727263006
-0.000101104916897
-0.00110762149642
-9.96602903657e-05
-0.00100933150253
-9.82859396409e-05
-0.000912341035994
-9.69978527809e-05
-0.000816541959279
-9.5796190952e-05
-0.00072185494957
-9.46925597549e-05
-0.000628168688098
-9.36843961999e-05
-0.000535399882849
-9.2772588696e-05
-0.000443463549974
-9.19355483654e-05
-0.000352344224549
-9.11215988392e-05
-0.000262169942834
-9.01749007504e-05
-0.000173615575011
-8.85548566021e-05
-8.94981009192e-05
-8.41173314749e-05
-8.94984170767e-05
-0.000389253429169
0.000741336033746
-0.000823836744237
0.000820099296376
-0.00125594647844
0.000817276689901
-0.00168175403794
0.000806010012185
-0.00209932864777
0.000790736791606
-0.0025068941714
0.00077194845023
-0.00290278702514
0.000749976362717
-0.00328552072915
0.000725162393306
-0.00365378328294
0.000697869414117
-0.00400646929179
0.000668460456192
-0.0043426506539
0.000637301359495
-0.00466160183244
0.000604738594776
-0.00496275453507
0.000571107406395
-0.00524572308055
0.000536710136185
-0.00551024735642
0.000501830947486
-0.0057562229971
0.000466714554835
-0.00598363578001
0.000431587174583
-0.00619260015438
0.000396634609122
-0.00638328707657
0.000362028466851
-0.00655597304164
0.000327902306965
-0.00671096221587
0.000294382104028
-0.00684864687156
0.000261559383773
-0.0069694238081
0.000229525162329
-0.00707376615696
0.000198339374394
-0.00716213362287
0.000168067801324
-0.00723505508094
0.000138747504388
-0.00729303205769
0.000110426534771
-0.00733663127022
8.31253841029e-05
-0.00736638087266
5.6879404921e-05
-0.00738287188575
3.16964965077e-05
-0.00738664631989
7.6020755139e-06
-0.00737830908884
-1.54061779672e-05
-0.00735841106228
-3.73106340245e-05
-0.00732756392461
-5.81227417038e-05
-0.00728631481462
-7.7832398227e-05
-0.00723527103638
-9.64591488333e-05
-0.00717496931555
-0.000113999456074
-0.00710600588591
-0.000130480308227
-0.00702890042522
-0.000145904228926
-0.00694423126626
-0.000160304776374
-0.00685249505749
-0.000173689744101
-0.00675424628478
-0.000186098199963
-0.00664995365572
-0.000197542239945
-0.00654014301123
-0.000208065218718
-0.00642525142217
-0.000217682460602
-0.00630577253103
-0.000226440307056
-0.00618210937597
-0.000234356184762
-0.00605472114674
-0.000241478112692
-0.00592397570924
-0.000247824547112
-0.00579029675238
-0.000253443968245
-0.0056540169888
-0.000258354903072
-0.00551552464575
-0.000262605233705
-0.0053751182495
-0.000266212802293
-0.00523315143883
-0.000269224068956
-0.00508989022755
-0.000271655674246
-0.0049456551314
-0.000273552101063
-0.00480068171934
-0.000274928558211
-0.00465525910674
-0.000275827293231
-0.00450959458725
-0.000276262122628
-0.00436394759731
-0.000276273071987
-0.00421849913331
-0.000275872853939
-0.00407348039192
-0.000275099513303
-0.0039290476584
-0.000273965112941
-0.00378540491455
-0.00027250609821
-0.00364268479558
-0.000270734422688
-0.00350106457959
-0.000268685362083
-0.00336065378479
-0.000266371276826
-0.00322160305482
-0.000263826652548
-0.00308399886898
-0.00026106467133
-0.00294796495587
-0.000258119285387
-0.00281356454636
-0.000255004741687
-0.00268089403573
-0.000251754546557
-0.00254999309657
-0.000248384064587
-0.00242093040307
-0.000244926264586
-0.00229372186554
-0.000241397490302
-0.00216840829279
-0.000237829921171
-0.00204498189959
-0.000234240586731
-0.00192345584628
-0.000230660500131
-0.00180379912385
-0.000227106967357
-0.00168599794675
-0.000223609377985
-0.00156999903436
-0.000220184833998
-0.00145576287136
-0.000216860592085
-0.00134321538435
-0.000213653017695
-0.0012322931134
-0.000210586673508
-0.00112290323204
-0.000207676559174
-0.00101496071947
-0.000204943803423
-0.000908356643835
-0.000202401044796
-0.000802987366678
-0.000200064518259
-0.000698730421836
-0.000197942036348
-0.00059546413661
-0.00019604071209
-0.00049304452817
-0.000194356138138
-0.000391293197527
-0.000192874533416
-0.000289906018663
-0.000191562564488
-0.000188114824753
-0.000190346379282
-8.38656970824e-05
-0.000188366678722
-0.000173363929732
-0.000396212020186
0.00113751221335
-0.000836439167825
0.00126028790213
-0.00127480593825
0.00125560517438
-0.00170679826918
0.00123796359651
-0.0021302848876
0.00121418499988
-0.00254339830974
0.00118502293373
-0.00294443312945
0.00115097264
-0.00333187229405
0.00111256234286
-0.00370439387862
0.00107035228703
-0.00406088455688
0.00102491160613
-0.00440042798279
0.000976805909422
-0.00472230718202
0.000926577956932
-0.00502598096089
0.000874742173333
-0.00531108145981
0.000821770532609
-0.00557738384466
0.000768094262949
-0.0058248039301
0.000714094350744
-0.00605336506346
0.00066010927579
-0.00626319924014
0.000606428421891
-0.00645451359404
0.000553303967311
-0.00662759685285
0.000500945265915
-0.00678278640376
0.000449533123246
-0.00692048063763
0.000399213544162
-0.00704110658551
0.000350113081022
-0.00714513783979
0.000302330955336
-0.0072330621598
0.000255954759019
-0.00730540423613
0.000211050492229
-0.00736269254653
0.000167678341287
-0.0074054861197
0.000125880634678
-0.00743433996288
8.56977612621e-05
-0.0074498350943
4.71542524674e-05
-0.00745254226623
1.02749563459e-05
-0.00744305470821
-2.49299971463e-05
-0.00742194986741
-5.84484343364e-05
-0.00738982445535
-9.02831398644e-05
-0.00734725420542
-0.000120434128434
-0.00729483100591
-0.000148915925599
-0.00723312100066
-0.000175739369081
-0.00716270363625
-0.000200929720534
-0.00708412837857
-0.000224507716975
-0.00699795540451
-0.000246508175995
-0.00690471123281
-0.00026696042015
-0.0068049308605
-0.000285907296993
-0.00669911268578
-0.000303385132418
-0.00658776183353
-0.000319443044873
-0.00647134465859
-0.000334122561877
-0.00635033299271
-0.000347477159577
-0.00622515857388
-0.000359551720455
-0.00609625789444
-0.000370402182639
-0.00596402680386
-0.000380074979959
-0.00582886563794
-0.000388626731324
-0.00569113429332
-0.000396103835588
-0.00555119727788
-0.000402562081247
-0.00540937945499
-0.000408046527534
-0.00526601067057
-0.000412610958066
-0.00512138241444
-0.000416298200206
-0.00497579165567
-0.000419159297417
-0.0048294985751
-0.000421234372041
-0.00468276927725
-0.000422571428329
-0.00453583480258
-0.000423207872887
-0.00438893238513
-0.000423188811642
-0.00424226587875
-0.000422549292671
-0.00409604529205
-0.000421331994911
-0.00395044882638
-0.000419570263026
-0.00380566044524
-0.000417305047403
-0.00366183366497
-0.000414568761177
-0.00351912699248
-0.000411401373546
-0.00337766966976
-0.000407835131739
-0.00323759484504
-0.000403909691231
-0.00309900741654
-0.000399657723608
-0.00296201486911
-0.000395119019176
-0.00282669740054
-0.000390327021716
-0.00269313637154
-0.000385321834743
-0.00256138683174
-0.000380137712575
-0.00243150357356
-0.000374814950214
-0.00230351618731
-0.000369388375864
-0.00217745270596
-0.000363898100107
-0.00205331724969
-0.000358379042433
-0.00193111127174
-0.000352870548846
-0.00181081385327
-0.00034740698901
-0.00169240054704
-0.000342026240039
-0.00157582632661
-0.000336761374954
-0.0014610420377
-0.000331648025602
-0.00134798000468
-0.000326717175234
-0.0012365680832
-0.000322001392402
-0.00112671787839
-0.000317528714519
-0.00101833637011
-0.000313327731451
-0.000911316607263
-0.000309422506353
-0.000805546616003
-0.000305836441928
-0.000700901820803
-0.00030258820108
-0.000597249580797
-0.000299694459566
-0.000494439224007
-0.00029716753617
-0.000392294737719
-0.000295020432335
-0.000290588066992
-0.00029327065262
-0.000189029789126
-0.000291904513638
-8.77987247012e-05
-0.000289597311842
-0.000261162874371
-0.000402416910285
0.00153989329393
-0.000848762066469
0.00170659505783
-0.00129323160592
0.00170003631023
-0.0017310831994
0.00167577673165
-0.00216005091476
0.00164311420662
-0.00257817543488
0.00160310878508
-0.002983695317
0.00155645383107
-0.00337505964051
0.0015038877463
-0.00375093568091
0.00144618939919
-0.00411021339523
0.00138415012067
-0.00445199743726
0.00131855077094
-0.00477559915605
0.00125014020448
-0.00508051797882
0.00117962159966
-0.00536642712573
0.00110763998443
-0.00563315031966
0.00103477790839
-0.00588064663586
0.000961550831286
-0.00610898701357
0.000888410062872
-0.00631834180852
0.000815743357885
-0.00650895961567
0.00074388226878
-0.00668115919203
0.000673105103289
-0.00683531143128
0.000603646105411
-0.00697183589489
0.000535698554198
-0.00709118564958
0.000469423992978
-0.00719384779321
0.000404954107929
-0.00728033032773
0.000342399054462
-0.0073511657321
0.000281847553245
-0.00740689890914
0.000223374058729
-0.00744809286399
0.000167037076146
-0.00747531693678
0.000112885340604
-0.00748915388202
6.09546937153e-05
-0.00749018793761
1.12736476123e-05
-0.00747901257184
-3.61406909868e-05
-0.00745621810119
-8.12769722996e-05
-0.00742240039362
-0.000124134843722
-0.00737814794001
-0.000164719222276
-0.00732405108307
-0.000203045317229
-0.00726068859027
-0.000239132950109
-0.00718863754863
-0.00027301172328
-0.00710845967871
-0.000304715036175
-0.0070207118391
-0.000334285315528
-0.00692593223085
-0.00036176775766
-0.00682465150764
-0.000387215590457
-0.0067173790099
-0.000410683596307
-0.00660461444126
-0.000432233410219
-0.00648683425594
-0.000451926913202
-0.00636450384254
-0.000469831570454
-0.00623806415427
-0.000486013773163
-0.00610794430185
-0.000500544230641
-0.00597454849559
-0.000513491352815
-0.00583826893642
-0.000524926697683
-0.00569947311049
-0.000534918465989
-0.00555851683554
-0.000543537009051
-0.00541573193036
-0.000550848514716
-0.00527143926905
-0.000556920565618
-0.00512593682649
-0.000561816069572
-0.00497951257243
-0.000565598856365
-0.00483243288241
-0.000568327903397
-0.00468495511464
-0.000570062935533
-0.00453731637115
-0.000570858964238
-0.004389745602
-0.00057077184414
-0.00424245270902
-0.000569853132043
-0.00409564005655
-0.000568155530339
-0.00394949192936
-0.000565728042538
-0.00380418535479
-0.00056262122821
-0.00365987994927
-0.000558882628565
-0.00351672800575
-0.000554561751105
-0.00337486479085
-0.000549705729276
-0.0032344178808
-0.000544363969572
-0.00309549798705
-0.000538584024687
-0.00295820756095
-0.000532415850703
-0.00282263223804
-0.000525907882536
-0.00268884874177
-0.000519110875606
-0.00255691702838
-0.000512074193961
-0.00242688753192
-0.000504849230096
-0.00229879408251
-0.000497485925737
-0.00217266052464
-0.000490035782657
-0.00204849445662
-0.000482548646223
-0.00192629324957
-0.00047507532765
-0.00180603863977
-0.000467664679022
-0.00168770215935
-0.000460365850991
-0.00157124058529
-0.000453225683908
-0.00145660078436
-0.000446290620857
-0.00134371600723
-0.000439604430799
-0.00123251013009
-0.000433209789665
-0.00112289474615
-0.000427146340426
-0.00101477274002
-0.000421451950692
-0.000908036045233
-0.000416161121969
-0.000802568321518
-0.000411305981703
-0.000698242869514
-0.000406915158121
-0.000594923658938
-0.000403014998698
-0.000492462720013
-0.000399630009195
-0.000390698834227
-0.0003967858381
-0.000289459352716
-0.000394510630549
-0.000188615607404
-0.000392748679022
-8.8647484513e-05
-0.000389565625239
-0.000349810090421
-0.000410416928239
0.00195027460426
-0.000865252736757
0.00216139264767
-0.00131798785741
0.00215273329037
-0.00176368789808
0.00212143840766
-0.00219995218689
0.00207934012746
-0.00262471571551
0.00202783378302
-0.00303614438251
0.0019678438937
-0.00343264486767
0.00190034943972
-0.00381287080746
0.001826376454
-0.00417572190787
0.00174696212921
-0.00452033349619
0.00166312318575
-0.00484606185419
0.00157582917976
-0.00515246325474
0.00148598356551
-0.00543927288001
0.00139440998631
-0.00570638046757
0.00130184587231
-0.00595380908042
0.00120893966934
-0.00618169242475
0.00111625369644
-0.00639025724198
0.00102426837075
-0.00657980482276
0.000933390191157
-0.00675069843544
0.000843959032125
-0.00690334953685
0.000756257756562
-0.00703821003632
0.000670519660005
-0.00715576251289
0.000586937408289
-0.00725651628595
0.000505668960634
-0.00734100043596
0.000426844713192
-0.00740976241575
0.000350571273988
-0.00746336266904
0.000276936583253
-0.0075023746628
0.000206011658639
-0.00752738015214
0.000137854041476
-0.00753896986011
7.25080189181e-05
-0.00753773887279
1.00069930845e-05
-0.00752428727815
-4.96274695041e-05
-0.00749921560524
-0.000106383032371
-0.00746312566096
-0.000160258617703
-0.00741661561568
-0.000211262227411
-0.00736028105346
-0.000259412224914
-0.00729470988756
-0.000304735535482
-0.0072204836336
-0.000347268729414
-0.00713817239826
-0.000387056047138
-0.00704833644784
-0.000424150338192
-0.00695152137419
-0.000458610894193
-0.00684826002854
-0.000490504263638
-0.00673906796822
-0.000519901947772
-0.00662444578959
-0.000546881129445
-0.00650487490318
-0.000571522293967
-0.00638082027024
-0.00059390993527
-0.00625272654476
-0.000614130179658
-0.00612102118209
-0.00063227151563
-0.00598611093569
-0.000648422481898
-0.00584838528646
-0.000662672476848
-0.00570821328073
-0.00067510957758
-0.00556594720023
-0.000685821462876
-0.00542191968334
-0.000694893410506
-0.00527644754328
-0.000702409373377
-0.00512982911739
-0.000708450201722
-0.00498234811952
-0.000713094883216
-0.00483427112892
-0.000716419006388
-0.00468585136439
-0.000718496169176
-0.0045373262431
-0.000719396684848
-0.00438892096552
-0.000719189122085
-0.00424084606674
-0.000717939217166
-0.00409330073099
-0.000715711496289
-0.0039464703036
-0.000712568341679
-0.00380052928176
-0.000708571615706
-0.00365563877146
-0.000703781806995
-0.00351194914815
-0.000698259582835
-0.0033695974967
-0.000692064949961
-0.00322870996551
-0.000685258660463
-0.00308939923994
-0.000677901331188
-0.00295176664601
-0.00067005466105
-0.00281589973906
-0.000661780483976
-0.00268187421819
-0.000653141773588
-0.00254975169884
-0.000644201626682
-0.00241958150234
-0.000635024065971
-0.00229139868298
-0.000625672977633
-0.00216522573805
-0.00061621273298
-0.00204107093004
-0.000606707113074
-0.00191892994998
-0.000597219785782
-0.00179878456563
-0.000587813256936
-0.00168060424673
-0.000578549232714
-0.00156434514
-0.000569487631192
-0.00144995165313
-0.000560686859641
-0.00133735574486
-0.000552202915236
-0.0012264784403
-0.000544089596085
-0.00111722939579
-0.000536397715219
-0.00100950828863
-0.000529175273496
-0.000903204582353
-0.000522466832873
-0.000798198642529
-0.000516313728204
-0.000694361614603
-0.0005107538094
-0.000591556184814
-0.000505821966204
-0.000489636629009
-0.000501550737259
-0.000388451662554
-0.000497972288395
-0.00028785112553
-0.000495112892403
-0.000187732362031
-0.000492867305685
-8.85554519503e-05
-0.000488742044477
-0.000438365857163
-0.000420589260393
0.00237082833767
-0.000886453153166
0.00262721900322
-0.00134986913854
0.0026161111638
-0.00180566154106
0.00257719272787
-0.0022512667463
0.00252490707592
-0.00268449166155
0.00246102036097
-0.00310341358609
0.00238672731954
-0.00350638972093
0.00230328694162
-0.00389206131387
0.00221200923414
-0.00425934728234
0.00211420913552
-0.00460742859362
0.00201116535103
-0.00493572627735
0.00190408757992
-0.0052438750049
0.00179409284642
-0.00553169512302
0.00168219055057
-0.00579916433365
0.00156927540652
-0.00604639124025
0.00145612684239
-0.00627359087417
0.00134341353684
-0.00648106373692
0.00123170144582
-0.00666917751966
0.00112146420249
-0.00683835264764
0.00101309447153
-0.0069890501378
0.00090691566595
-0.00712176284164
0.000803192948776
-0.00723700812973
0.000702143485833
-0.00733532325307
0.000603945129286
-0.00741726116564
0.000508743979657
-0.00748338833854
0.000416660145297
-0.00753428217002
0.000327792522552
-0.0075705298982
0.000242221928349
-0.00759272648709
0.000160013682383
-0.00760147377574
8.12188774151e-05
-0.00759737837203
5.87576249017e-06
-0.00758105029977
-6.59907695932e-05
-0.00755310078816
-0.000134367077861
-0.0075141410231
-0.000199252250028
-0.00746477936097
-0.000260656990881
-0.00740562009576
-0.000318603865861
-0.00733726060278
-0.000373126574069
-0.00726029021365
-0.000424269892882
-0.00717528746081
-0.000472088695528
-0.00708281920274
-0.000516647682685
-0.00698343810985
-0.000558020154452
-0.00687768214284
-0.000596287564473
-0.0067660723699
-0.000631538110718
-0.00664911285296
-0.000663866185995
-0.00652728884873
-0.00069337087716
-0.00640106711944
-0.000720155388751
-0.00627089452733
-0.00074432553281
-0.00613719875054
-0.000765989201002
-0.0060003872565
-0.000785254925803
-0.00586084838003
-0.000802231464071
-0.00571895063137
-0.00081702649545
-0.00557504406717
-0.00082974637616
-0.00542945987038
-0.000840495037906
-0.0052825119253
-0.000849373957357
-0.00513449658156
-0.000856481300005
-0.0049856943231
-0.000861912137444
-0.00483636961585
-0.000865757863949
-0.00468677255485
-0.000868106662215
-0.00453713869023
-0.000869043183961
-0.0043876905392
-0.000868649232819
-0.00423863730255
-0.000867003667018
-0.00409017615577
-0.000864183229979
-0.00394249179784
-0.000860262597135
-0.00379575747285
-0.000855315261171
-0.00365013433768
-0.000849413631047
-0.0035057722144
-0.000842629869086
-0.00336280880677
-0.0008350359493
-0.00322137022397
-0.000826704358675
-0.00308157011142
-0.000817708046431
-0.00294351001783
-0.000808120930222
-0.00280727852404
-0.000798017699303
-0.00267295153401
-0.000787474105245
-0.00254059148517
-0.000776566619868
-0.00241024763943
-0.000765372523504
-0.0022819554441
-0.000753969444989
-0.00215573687922
-0.000742435285345
-0.00203160001399
-0.000730847684128
-0.001909539446
-0.000719283825703
-0.00178953607485
-0.000707819878529
-0.00167155764542
-0.000696530731276
-0.00155555873642
-0.000685489446125
-0.00144148140249
-0.000674766965126
-0.00132925535747
-0.000664431610192
-0.0012187986938
-0.000654548793618
-0.00111001822576
-0.000645180594138
-0.00100281024922
-0.000636385509571
-0.000897061008044
-0.000628218156832
-0.000792647482216
-0.00062072915038
-0.000689437952445
-0.000613965000045
-0.000587292977079
-0.00060796837202
-0.000486067015087
-0.000602778472991
-0.000385610387963
-0.000598430610913
-0.000285775274564
-0.000594948528123
-0.000186453950072
-0.000592189267706
-8.80643321929e-05
-0.000587132072127
-0.000526429962005
-0.000433197425312
0.00280399057461
-0.000912795157137
0.00310677890055
-0.00138948572371
0.00309276404666
-0.00185777843111
0.00304544747911
-0.0023149020994
0.00298199276229
-0.00275850633061
0.00290458642877
-0.00318656263004
0.00281474533067
-0.00359737403711
0.00271405986004
-0.00398957523413
0.00260417178561
-0.0043621195295
0.00248671456783
-0.00471425488698
0.00236326169086
-0.0050454930925
0.0022352865548
-0.00535557467414
0.0021041350677
-0.00564443321938
0.00197100955166
-0.00591216054647
0.00183696310578
-0.00615897520904
0.0017029017438
-0.00638519440959
0.00156959295417
-0.00659121072944
0.00143767791906
-0.00677747273862
0.00130768641971
-0.00694447023829
0.00118005219975
-0.00709272267281
0.00105512846877
-0.00722277119764
0.00093320195805
-0.00733517277731
0.000814505782804
-0.00743049676384
0.000699230050081
-0.00750932237187
0.000587530848775
-0.00757223758613
0.000479536941908
-0.00761983807607
0.00037535501659
-0.00765272678887
0.000275073067211
-0.00767151300209
0.000178762833167
-0.00767681163037
8.64809648679e-05
-0.00766924207653
-1.72973353375e-06
-0.00764942664206
-8.58415318502e-05
-0.00761798864495
-0.000165839725204
-0.00757555106852
-0.000241723781283
-0.00752273407124
-0.000313507199423
-0.00746015309264
-0.000381217293673
-0.00738841652163
-0.000444894797752
-0.00730812379582
-0.000504593452711
-0.0072198632133
-0.000560379271616
-0.00712421024823
-0.00061232977989
-0.00702172567088
-0.000660532992814
-0.00691295421131
-0.000705086391013
-0.00679842308859
-0.000746095707486
-0.00667864109298
-0.000783673742385
-0.00655409756432
-0.000817939064299
-0.00642526191471
-0.000849014773498
-0.00629258306014
-0.000877027218698
-0.00615648936909
-0.000902104802002
-0.00601738851532
-0.000924376795285
-0.0058756678118
-0.000943972271685
-0.00573169443417
-0.000961019099172
-0.00558581607462
-0.00097564307056
-0.005438361455
-0.00098796714026
-0.00528964121086
-0.000998110819821
-0.00513994859415
-0.00100618971435
-0.00498956047266
-0.00101231522823
-0.00483873809614
-0.00101659442855
-0.00468772808399
-0.00101913007539
-0.00453676312863
-0.00102002080268
-0.00438606284797
-0.00101936143856
-0.00423583431008
-0.00101724344167
-0.0040862726566
-0.00101375543402
-0.00393756137633
-0.00100898379086
-0.0037898726517
-0.00100301326992
-0.00364336735686
-0.000995927626891
-0.00349819513732
-0.000987810217766
-0.00335449416811
-0.000978744517738
-0.00321239102575
-0.000968814587492
-0.00307200028083
-0.000958105401178
-0.00293342425596
-0.000946703109466
-0.00279675255348
-0.000934695130656
-0.00266206180077
-0.00092217018867
-0.00252941520823
-0.000909218168468
-0.00239886239235
-0.000895929953067
-0.00227043904381
-0.000882397083006
-0.00214416689083
-0.000868711442389
-0.00202005352573
-0.00085496478143
-0.00189809254278
-0.000841248313003
-0.0017782635465
-0.000827652161486
-0.0016605324701
-0.00081426492535
-0.00154485176235
-0.000801173107233
-0.00143116087416
-0.000788460688878
-0.00131938660562
-0.000776208587237
-0.00120944373472
-0.000764494276548
-0.00110123549935
-0.000753391308339
-0.00099465434228
-0.000742969015884
-0.000889582526609
-0.000733292140723
-0.000785892975051
-0.000724420657643
-0.000683450171644
-0.000716409613275
-0.000582111262117
-0.000709309031412
-0.000481727237631
-0.000703163807293
-0.000382145841967
-0.000698013670208
-0.000283214980837
-0.000693881464161
-0.000184812898623
-0.000690591362654
-8.73271119958e-05
-0.000684617513831
-0.000613757567053
-0.000448520211923
0.00325247575333
-0.000944814639437
0.0036030364533
-0.00143761014855
0.00358552196693
-0.00192101216208
0.00352881195646
-0.00239198833091
0.00345293116005
-0.00284799576757
0.00336055599814
-0.0032868830104
0.00325359449367
-0.00370689761257
0.00313403621886
-0.00410668022797
0.0030039159204
-0.00448524152765
0.00286523720539
-0.00484192683131
0.00271990808749
-0.00517637284065
0.00256969348841
-0.00548846140687
0.00241618433229
-0.00577827351104
0.00226078222112
-0.00604604667541
0.00210469665237
-0.00629213704921
0.00194895242241
-0.00651698759199
0.00179440368344
-0.00672110207182
0.00164175257879
-0.00690502512224
0.00149156961281
-0.00706932729939
0.00134431459672
-0.00721459485557
0.00120035630253
-0.00734142297536
0.00105999052376
-0.00745041205853
0.000923455472118
-0.00754216590841
0.000790944771173
-0.00761729145197
0.000662617531456
-0.00767639909812
0.000538606088845
-0.00772010348101
0.000419021274603
-0.00774902402202
0.000303955939933
-0.00776378521068
0.000193486831648
-0.00776501636878
8.76754806691e-05
-0.0077533506974
-1.34314700253e-05
-0.00772942458557
-0.00010980307398
-0.00769387556711
-0.00020142350474
-0.0076473404425
-0.000288292960514
-0.00759045314389
-0.000370427808925
-0.0075238424973
-0.000447860484418
-0.00744812985243
-0.000520639179575
-0.00736392688906
-0.000588827338369
-0.00727183337863
-0.000652502847314
-0.00717243526584
-0.000711757105896
-0.00706630275852
-0.000766693817736
-0.00695398883199
-0.000817427757912
-0.00683602775699
-0.000864083301893
-0.0067129340968
-0.000906793029418
-0.00658520171866
-0.000945696133244
-0.00645330329795
-0.00098093698809
-0.00631768980957
-0.00101266356169
-0.00617879051547
-0.00104102605794
-0.00603701290483
-0.00106617543409
-0.00589274311708
-0.0010882622085
-0.00574634627457
-0.00110743517293
-0.00559816726927
-0.00112384044888
-0.00544853140786
-0.00113762048034
-0.0052977454619
-0.0011489134152
-0.00514609851258
-0.00115785245121
-0.00499386313261
-0.00116456560142
-0.00484129629267
-0.00116917543884
-0.00468864052258
-0.00117179926313
-0.00453612472929
-0.0011725492373
-0.00438396518726
-0.00117153291525
-0.00423236613625
-0.00116885370256
-0.00408152048344
-0.00116461164051
-0.00393161009465
-0.00115890406523
-0.00378280614837
-0.00115182649815
-0.00363526910104
-0.00114347334709
-0.003489148704
-0.00113393873817
-0.00334458369109
-0.00112331710589
-0.00320170153224
-0.00111170382571
-0.00306061794446
-0.00109919558065
-0.00292143649675
-0.00108589070594
-0.00278424806889
-0.00107188927957
-0.00264913043097
-0.00105729315623
-0.00251614776877
-0.00104220579124
-0.00238535034402
-0.00102673199821
-0.00225677417524
-0.00101097756157
-0.00213044085106
-0.000995048787888
-0.0020063574177
-0.000979051984235
-0.00188451638106
-0.000963092884138
-0.00176489581697
-0.000947276067849
-0.00164745956757
-0.000931704336863
-0.0015321575627
-0.000916478138798
-0.0014189261969
-0.000901694949479
-0.0013076888338
-0.000887448748664
-0.00119835634098
-0.00087382945446
-0.00109082774965
-0.000860922483754
-0.000984990928297
-0.000848808273776
-0.000880723391824
-0.000837561955401
-0.000777893153745
-0.000827252998766
-0.000676359679777
-0.000817944960635
-0.000575975007028
-0.000809695338722
-0.000476585487297
-0.00080255540091
-0.000378032596218
-0.000796568512709
-0.000280155910995
-0.000791758776724
-0.000182823427901
-0.000787924806969
-8.63991362757e-05
-0.00078104257556
-0.000700156588358
-0.00046689599463
0.00371933723182
-0.000983194558244
0.00411929780359
-0.0014952314888
0.00409752194217
-0.00199660600821
0.00403014916921
-0.0024839595381
0.00394024734909
-0.00295451743475
0.00383107632186
-0.00340598888861
0.00370502821218
-0.00383657088219
0.00356458022509
-0.00424493181505
0.00341223866212
-0.0046301742621
0.00325044118753
-0.0049917829224
0.00308147807849
-0.0053295650942
0.00290743672105
-0.0056435890767
0.00273016919792
-0.00593412571713
0.00255127950638
-0.00620159564518
0.00237212709688
-0.00644652465593
0.00219384176681
-0.00666950722013
0.0020173465199
-0.0068711786461
0.00184338416997
-0.007052194453
0.00167254560517
-0.00721321663154
0.00150529694473
-0.00735490492937
0.00134200488135
-0.00747791269295
0.00118295865489
-0.00758288549927
0.00102838885562
-0.007670462228
0.000878482272476
-0.00774127708334
0.000733393469152
-0.00779596240462
0.000593252799416
-0.00783515113909
0.000458171807957
-0.00785947905444
0.000328246069566
-0.00786958598077
0.000203556476869
-0.00786611638117
8.41691215952e-05
-0.00784971864351
-2.98653694892e-05
-0.00782104487567
-0.000138512381271
-0.00778074849386
-0.000241754746194
-0.00772948236789
-0.000339593239505
-0.00766789644328
-0.000432047139626
-0.00759663524956
-0.000519154307423
-0.00751633533362
-0.000600970923385