/*--------------------------------*- C++ -*----------------------------------*\
| =========                 |                                                 |
| \\      /  F ield         | OpenFOAM: The Open Source CFD Toolbox           |
|  \\    /   O peration     | Version:  v1906                                 |
|   \\  /    A nd           | Web:      www.OpenFOAM.com                      |
|    \\/     M anipulation  |                                                 |
\*---------------------------------------------------------------------------*/
FoamFile
{
    version     2.0;
    format      ascii;
    class       volVectorField;
    location    "576";
    object      Ua;
}
// * * * * * * * * * * * * * * * * * * * * * * * * * * * * * * * * * * * * * //

dimensions      [0 1 -1 0 0 0 0];


internalField   nonuniform List<vector> 
9216
(
(-0.00663156727149 0.00663497859972 0)
(-0.00681715647843 0.0206919437491 2.38235062138e-27)
(-0.00680275589467 0.0348278085544 -4.59052277499e-31)
(-0.00675421554984 0.0489539271589 0)
(-0.00668640314426 0.062933543975 0)
(-0.00660073649627 0.076731303108 0)
(-0.00649876628572 0.0903076019988 0)
(-0.00638136901783 0.103625800321 0)
(-0.00624963313721 0.116651525672 0)
(-0.00610435080984 0.129352916146 0)
(-0.00594667136618 0.141700503684 0)
(-0.00577739476375 0.153667449798 0)
(-0.00559770913836 0.165229380162 0)
(-0.00540836065903 0.176364525085 0)
(-0.00521049881849 0.187053463669 0)
(-0.00500473845769 0.197279162971 0)
(-0.00479211501562 0.207026640493 0)
(-0.00457304671498 0.216282917831 0)
(-0.00434839730944 0.22503662845 0)
(-0.00411834685035 0.233277915936 0)
(-0.0038835589714 0.240998020959 0)
(-0.00364396668522 0.248189158509 0)
(-0.00340003770996 0.254844124191 0)
(-0.00315148207839 0.260956187518 0)
(-0.00289860814435 0.266518751809 0)
(-0.00264095687392 0.271525291913 0)
(-0.00237873832946 0.275969097 0)
(-0.00211139960316 0.279843274915 0)
(-0.001839133038 0.283140597014 0)
(-0.00156138653855 0.285853570706 0)
(-0.00127842281968 0.287974452564 0)
(-0.000989767841044 0.289495312185 0)
(-0.000695856126302 0.290408173084 0)
(-0.000396434287518 0.290705279043 0)
(-9.2205219067e-05 0.290379285679 0)
(0.000216788025968 0.289423595201 0)
(0.000529494564509 0.28783266584 0)
(0.000845498183108 0.285602390708 0)
(0.00116335242526 0.282730484836 0)
(0.0014822343928 0.279216865798 0)
(0.00180029918086 0.275064073903 0)
(0.00211632550861 0.270277605094 0)
(0.00242810400397 0.264866334742 0)
(0.00273404449522 0.258842778454 0)
(0.00303160919868 0.252223523966 0)
(0.00331884654205 0.245029438759 0)
(0.00359288660269 0.237286164155 0)
(0.00385137092809 0.229024327207 0)
(0.00409104743399 0.220280153564 0)
(0.00430909126144 0.211095705235 0)
(0.00450186980012 0.20151956267 0)
(0.00466618452095 0.191606946908 0)
(0.00479829296537 0.181420172883 0)
(0.00489510864388 0.171028262495 0)
(0.00495351060203 0.160506646999 0)
(0.00497145948353 0.149935812862 0)
(0.00494748239438 0.139399897294 0)
(0.00488156387378 0.128984347744 0)
(0.0047746430652 0.118773668997 0)
(0.00462924363674 0.108848611805 0)
(0.0044488948789 0.0992836450287 0)
(0.00423844081928 0.0901443804407 0)
(0.00400319217876 0.081485881255 0)
(0.00374902820496 0.0733515410243 0)
(0.00348198370464 0.0657726026587 0)
(0.00320847489736 0.0587674177091 0)
(0.00293465234213 0.0523414312419 0)
(0.0026661246118 0.0464878427822 0)
(0.00240739721489 0.041189498879 0)
(0.00216185975269 0.0364211218403 0)
(0.00193174063023 0.0321518394074 0)
(0.00171837185595 0.0283472212068 0)
(0.00152237297993 0.0249710358192 0)
(0.00134385130807 0.0219863895043 0)
(0.00118251777626 0.0193567256878 0)
(0.00103770625874 0.0170465354544 0)
(0.000908481154859 0.0150220976733 0)
(0.000793665622809 0.0132519460362 0)
(0.000692013353517 0.0117072205462 0)
(0.000602159264155 0.0103617895855 0)
(0.000522702899138 0.00919239750161 0)
(0.000451929688289 0.00817888426599 0)
(0.000387280672851 0.00730560614814 0)
(0.000321976215872 0.00655949898307 0)
(0.000254955542229 0.00586710936251 0)
(0.000235920987042 0.00545299822328 0)
(0.000226860308211 0.00494792094695 0)
(0.00020024457607 0.00452071284279 0)
(0.000203718297908 0.00415314091127 0)
(0.000222024554262 0.00372573664244 0)
(0.000223949661436 0.00329365730238 0)
(0.000228782737469 0.00283057157199 0)
(0.000260469690689 0.00232538388166 0)
(0.000296728766501 0.00177087082486 0)
(0.000336400520561 0.00109771048968 0)
(0.000361925852519 0.00035275995632 0)
(-0.0207213678446 0.0068577477556 0)
(-0.0218761174902 0.0219788981527 0)
(-0.021801870095 0.0370123056994 -2.44881732874e-27)
(-0.0216151843671 0.0520481321629 0)
(-0.021361166968 0.0669161811329 0)
(-0.0210448102945 0.0815867917807 0)
(-0.0206699113184 0.0960195524274 0)
(-0.0202397968059 0.110175981919 0)
(-0.0197583399092 0.124019689062 0)
(-0.0192291414126 0.137516802509 0)
(-0.018656417712 0.150636057699 0)
(-0.0180439218154 0.163348959458 0)
(-0.0173959593789 0.175629733626 0)
(-0.0167161352178 0.187455362658 0)
(-0.0160085306913 0.19880542421 0)
(-0.0152763026632 0.209662016799 0)
(-0.0145230301401 0.220009503439 0)
(-0.0137511824936 0.229834349394 0)
(-0.0129636365113 0.239124799372 0)
(-0.0121620289209 0.247870660156 0)
(-0.0113484414158 0.256062949297 0)
(-0.0105236483327 0.263693662793 0)
(-0.00968896014771 0.270755437613 0)
(-0.0088443735606 0.277241344698 0)
(-0.00799055899223 0.283144603462 0)
(-0.00712691644155 0.288458433012 0)
(-0.00625368821457 0.293175847501 0)
(-0.00536992582384 0.297289587698 0)
(-0.00447571069892 0.300792014799 0)
(-0.00357004111298 0.303675138632 0)
(-0.00265314413228 0.305930597257 0)
(-0.00172426389236 0.307549869226 0)
(-0.00078407929786 0.308524336781 0)
(0.000167551739314 0.308845523815 0)
(0.00112917373586 0.308505358646 0)
(0.00210003409987 0.307496507911 0)
(0.00307764500917 0.305812733171 0)
(0.00406013498468 0.303449295005 0)
(0.0050438337685 0.300403375606 0)
(0.00602565969174 0.296674501708 0)
(0.00700075325033 0.292264981413 0)
(0.00796486728356 0.287180291044 0)
(0.0089120594903 0.281429483919 0)
(0.00983702533658 0.275025511819 0)
(0.0107328441892 0.267985605546 0)
(0.0115931804592 0.260331557897 0)
(0.0124100889422 0.252090139009 0)
(0.0131760326421 0.243293423081 0)
(0.0138818132936 0.233979325961 0)
(0.0145184401886 0.22419203386 0)
(0.0150753631863 0.213982647592 0)
(0.0155423457545 0.203409580053 0)
(0.0159082547931 0.192538997719 0)
(0.0161631081349 0.181444709674 0)
(0.0162975213754 0.170207768147 0)
(0.0163048097933 0.158915212815 0)
(0.0161807150283 0.147658348476 0)
(0.015925046821 0.136530273272 0)
(0.0155411625519 0.125623218537 0)
(0.0150370189467 0.115025485658 0)
(0.0144242753746 0.104818427203 0)
(0.0137184398473 0.0950734325348 0)
(0.0129367400769 0.0858499227269 0)
(0.0120976217619 0.0771946213493 0)
(0.0112203200348 0.0691411833383 0)
(0.010325240573 0.0617091656851 0)
(0.00943225348851 0.0549034828642 0)
(0.00855923635171 0.0487151881509 0)
(0.00772049594586 0.0431237565151 0)
(0.00692648983735 0.0380999887152 0)
(0.00618394746555 0.0336089889549 0)
(0.00549667621644 0.029612563344 0)
(0.00486630136769 0.0260710151766 0)
(0.00429290697387 0.0229442769858 0)
(0.00377536905948 0.0201927809359 0)
(0.00331141226529 0.0177782028432 0)
(0.00289784157008 0.0156642580494 0)
(0.00253077428122 0.0138172633276 0)
(0.00220608947396 0.0122064281286 0)
(0.00191947586564 0.0108038877506 0)
(0.00166663395791 0.00958460608953 0)
(0.00144297991378 0.00852603300933 0)
(0.00124326155739 0.00760709468499 0)
(0.00105889502932 0.00680854998961 0)
(0.000885913920822 0.00604859948011 0)
(0.000782428556114 0.00538031273302 0)
(0.000691886259867 0.00485361528262 0)
(0.000607320032577 0.00443333806846 0)
(0.000601857667359 0.00399981902189 0)
(0.000646184088412 0.00364775982059 0)
(0.000670433561413 0.00327344490275 0)
(0.000708798590241 0.00278737495025 0)
(0.000780244409755 0.00226918881119 0)
(0.000961833693994 0.00179829203341 0)
(0.00117628091205 0.00115080525305 0)
(0.00106519063263 0.000315947902618 0)
(-0.0350174137719 0.00691315834389 0)
(-0.0369903630315 0.0221617991841 0)
(-0.0368384098952 0.0372875464969 -2.45217152717e-27)
(-0.0365172451535 0.0524330164746 0)
(-0.0360889414786 0.0674086164037 0)
(-0.0355585747863 0.0821832940627 0)
(-0.0349309489081 0.0967156635086 0)
(-0.0342113929521 0.110966711145 0)
(-0.0334059379021 0.124899661076 0)
(-0.0325208299862 0.138480331169 0)
(-0.0315627720738 0.151677274116 0)
(-0.0305383736929 0.164461896216 0)
(-0.029454454603 0.176808460493 0)
(-0.0283174312318 0.188694070659 0)
(-0.0271336944303 0.200098550971 0)
(-0.0259089510694 0.211004314673 0)
(-0.0246486899037 0.221396140087 0)
(-0.0233574963636 0.231260947251 0)
(-0.0220396180205 0.240587500477 0)
(-0.0206982679634 0.249366128842 0)
(-0.0193362960471 0.257588395477 0)
(-0.0179554891933 0.265246805576 0)
(-0.0165573450932 0.272334488545 0)
(-0.0151423685052 0.278844937971 0)
(-0.0137109344578 0.284771746913 0)
(-0.0122625725338 0.290108414336 0)
(-0.010796902024 0.29484816268 0)
(-0.00931289654547 0.298983832851 0)
(-0.00780987609122 0.302507800782 0)
(-0.00628674784924 0.305411969137 0)
(-0.00474306202582 0.307687812288 0)
(-0.00317820097239 0.309326464566 0)
(-0.00159247041471 0.310318867886 0)
(1.37033941404e-05 0.31065600929 0)
(0.00163869180272 0.310329189751 0)
(0.00328050723127 0.309330364421 0)
(0.00493574072016 0.307652522959 0)
(0.00660046196224 0.305290115121 0)
(0.00826921150775 0.302239497328 0)
(0.00993596702133 0.298499386557 0)
(0.0115932066248 0.294071308378 0)
(0.0132329204049 0.28896001108 0)
(0.0148457256638 0.283173856561 0)
(0.016421858671 0.276725153186 0)
(0.0179502851668 0.26963047983 0)
(0.0194195799135 0.261910968535 0)
(0.02081697921 0.253592642194 0)
(0.0221290957787 0.244706768675 0)
(0.023340957211 0.235290358579 0)
(0.0244366585997 0.225386725511 0)
(0.0253986397334 0.215046210837 0)
(0.0262086131486 0.204326877028 0)
(0.0268475279764 0.193295160294 0)
(0.0272971811641 0.182026123974 0)
(0.027541107493 0.170603193208 0)
(0.0275667121209 0.159117001936 0)
(0.0273663803982 0.147663435337 0)
(0.0269390219453 0.136340898774 0)
(0.02629032432 0.12524732825 0)
(0.0254336526612 0.114476827397 0)
(0.0243895501498 0.104116069162 0)
(0.0231854251574 0.0942403246706 0)
(0.0218515583872 0.0849110145385 0)
(0.0204190708338 0.076176227374 0)
(0.0189208883972 0.0680710974107 0)
(0.0173927135864 0.0606157430547 0)
(0.0158699879807 0.0538134061606 0)
(0.0143841858629 0.0476512817105 0)
(0.01296007906 0.0421037067083 0)
(0.0116150590204 0.0371362320339 0)
(0.0103598461373 0.0327093958086 0)
(0.00920005554944 0.028781507861 0)
(0.00813780482067 0.0253103492791 0)
(0.00717289784794 0.0222539745238 0)
(0.00630328057498 0.0195711867618 0)
(0.00552497364936 0.0172221919326 0)
(0.00483223869417 0.0151695607239 0)
(0.00421824650322 0.0133789434664 0)
(0.00367581498032 0.0118192580498 0)
(0.00319771848021 0.0104625708317 0)
(0.00277694102717 0.00928390525912 0)
(0.00240686714439 0.00826088006715 0)
(0.00208163848109 0.00737274924349 0)
(0.00179679939545 0.00660442017621 0)
(0.00155619705798 0.00586891831863 0)
(0.00137540570213 0.0052461461869 0)
(0.00122719848786 0.00482507501479 0)
(0.00106846921085 0.00423492317131 0)
(0.000974953744735 0.00372519100946 0)
(0.00101047484161 0.00341078936562 0)
(0.00115162148245 0.00315230623246 0)
(0.00118184099425 0.00251865751494 0)
(0.00134299757548 0.00207325258077 0)
(0.00156549787822 0.00150984434592 0)
(0.00175979241307 0.00090690938198 0)
(0.00171279892773 0.000280066865385 0)
(-0.0495108312735 0.00697072375307 0)
(-0.0523239493489 0.022365905719 0)
(-0.0521066117208 0.0376158062347 2.45184743556e-27)
(-0.0516481430257 0.0528906553436 0)
(-0.0510374149895 0.0679919953791 0)
(-0.0502820910958 0.0828875599514 0)
(-0.049388868705 0.0975347987587 0)
(-0.0483653950726 0.111893880336 0)
(-0.0472201956375 0.125927430548 0)
(-0.0459623429659 0.139600845628 0)
(-0.0446013629353 0.152882441597 0)
(-0.0431468927954 0.165743554476 0)
(-0.0416086139325 0.178158556146 0)
(-0.0399958990498 0.190104815341 0)
(-0.0383177833854 0.201562581543 0)
(-0.0365826196077 0.212514821842 0)
(-0.0347981072621 0.22294699163 0)
(-0.0329709771148 0.232846771837 0)
(-0.0311070987251 0.242203757645 0)
(-0.0292112137365 0.25100913431 0)
(-0.0272871351239 0.259255328906 0)
(-0.0253375382629 0.266935674534 0)
(-0.0233642511873 0.274044076811 0)
(-0.0213680970593 0.280574716453 0)
(-0.019349259768 0.286521775773 0)
(-0.0173071594203 0.29187921723 0)
(-0.0152408710124 0.296640598484 0)
(-0.0131490154215 0.300798946611 0)
(-0.0110302150372 0.30434667602 0)
(-0.00888299149122 0.307275559359 0)
(-0.00670626633257 0.30957678845 0)
(-0.00449922614644 0.311241031919 0)
(-0.00226185844955 0.312258599191 0)
(5.15511232856e-06 0.312619679042 0)
(0.00229993808384 0.312314624086 0)
(0.00461955726831 0.311334308218 0)
(0.00695956300582 0.309670539077 0)
(0.00931420178256 0.307316518911 0)
(0.0116760443967 0.304267332672 0)
(0.0140363026252 0.300520444306 0)
(0.0163845640568 0.296076178099 0)
(0.0187091991328 0.290938159665 0)
(0.02099716343 0.285113704199 0)
(0.0232344109591 0.278614135338 0)
(0.025405655689 0.271455052739 0)
(0.0274946529924 0.263656559077 0)
(0.0294837964468 0.255243510033 0)
(0.0313541728854 0.246245828848 0)
(0.0330850006403 0.236698981174 0)
(0.034653596472 0.226644644332 0)
(0.0360349974727 0.216131626719 0)
(0.0372023916315 0.205216953467 0)
(0.0381276753166 0.193966990773 0)
(0.0387831454528 0.182458261809 0)
(0.0391435690627 0.170777567346 0)
(0.0391890403966 0.159020948733 0)
(0.0389074080274 0.147291373857 0)
(0.038296093662 0.13569540541 0)
(0.0373626677205 0.124339891029 0)
(0.0361261602685 0.113328141969 0)
(0.0346169817307 0.102755696309 0)
(0.0328775753028 0.0927038069939 0)
(0.0309532451368 0.083235712417 0)
(0.0288871839177 0.074400861936 0)
(0.0267258688875 0.0662375486126 0)
(0.0245229767834 0.0587678783971 0)
(0.0223330475264 0.0519925476272 0)
(0.0202037082925 0.0458919273722 0)
(0.0181710045752 0.0404313775173 0)
(0.0162586642419 0.0355675992885 0)
(0.0144799886595 0.0312538615545 0)
(0.0128408804094 0.0274433018075 0)
(0.0113428010798 0.0240903431854 0)
(0.00998475219141 0.0211506768443 0)
(0.00876368697783 0.0185808829419 0)
(0.00767370873543 0.0163388862605 0)
(0.00670590502506 0.0143854888198 0)
(0.00584981590399 0.0126855043521 0)
(0.00509478178912 0.0112076915575 0)
(0.00443039485619 0.00992430279805 0)
(0.00384662766022 0.00881086842682 0)
(0.0033344082909 0.00784595590453 0)
(0.00288624723332 0.00701055948355 0)
(0.0024991695739 0.00629318543219 0)
(0.00216290230663 0.00556989464684 0)
(0.00194098983372 0.0050728421921 0)
(0.00173813683224 0.00456240832994 0)
(0.00154812473914 0.00397897972069 0)
(0.00146761353335 0.00357777407886 0)
(0.00141197616223 0.00305589665458 0)
(0.00150324841643 0.0026173132659 0)
(0.00175733497277 0.00230873302943 0)
(0.00183809514146 0.00167389080017 0)
(0.00206725598266 0.00116488950621 0)
(0.0022988350896 0.000705973092792 0)
(0.00228654505035 0.000231084598108 0)
(-0.06415138777 0.00704507247737 0)
(-0.0678010449886 0.0226356230699 0)
(-0.0675168897308 0.0380577796011 0)
(-0.066917850589 0.053507317184 0)
(-0.0661198875817 0.068777710724 0)
(-0.065133455522 0.0838354780346 0)
(-0.0639674841337 0.0986366804365 0)
(-0.0626321523281 0.113140396309 0)
(-0.0611387380987 0.127308419641 0)
(-0.0594993056805 0.141105564562 0)
(-0.0577264551134 0.154499815442 0)
(-0.0558330015991 0.16746241907 0)
(-0.0538317361293 0.179967899079 0)
(-0.0517351125502 0.191994001435 0)
(-0.0495550382321 0.203521566949 0)
(-0.0473025918803 0.214534341365 0)
(-0.0449878702154 0.22501872227 0)
(-0.0426197650109 0.234963457392 0)
(-0.0402058945311 0.244359298402 0)
(-0.0377524667008 0.253198629466 0)
(-0.0352643163369 0.2614750789 0)
(-0.0327448670413 0.26918313591 0)
(-0.0301962749674 0.276317781461 0)
(-0.0276194782414 0.282874152683 0)
(-0.0250144244928 0.288847245256 0)
(-0.0223801783012 0.294231666598 0)
(-0.0197152004266 0.299021438042 0)
(-0.0170174854897 0.30320985274 0)
(-0.0142848723103 0.306789385803 0)
(-0.0115152011641 0.309751647927 0)
(-0.00870666715446 0.312087451585 0)
(-0.00585795530567 0.313786844277 0)
(-0.00296863852562 0.314839279381 0)
(-3.93553894828e-05 0.315233857679 0)
(0.00292783587979 0.314959628501 0)
(0.00592930656176 0.31400597373 0)
(0.00895956136799 0.312363062641 0)
(0.0120111849701 0.310022365536 0)
(0.0150746722951 0.306977204226 0)
(0.018138526808 0.303223312787 0)
(0.0211892510656 0.29875937581 0)
(0.0242115922306 0.293587510234 0)
(0.0271886413415 0.287713662314 0)
(0.0301021141282 0.281147900032 0)
(0.0329323919779 0.273904605074 0)
(0.0356586234581 0.266002591064 0)
(0.0382584820889 0.257465214572 0)
(0.0407078982503 0.248320570874 0)
(0.0429804577448 0.238601903179 0)
(0.0450468827011 0.228348346609 0)
(0.0468744901696 0.217606116114 0)
(0.0484272198925 0.206430135451 0)
(0.0496663541233 0.19488595119 0)
(0.0505525606129 0.183051498623 0)
(0.0510491794386 0.171018001751 0)
(0.051126611231 0.158889178714 0)
(0.0507664046071 0.146778246244 0)
(0.0499637194308 0.134803336797 0)
(0.0487269201503 0.123084000211 0)
(0.0470807444232 0.111737185759 0)
(0.0450660298398 0.100872985124 0)
(0.0427475336996 0.0905815712703 0)
(0.0401894527749 0.080925120517 0)
(0.0374431467435 0.0719528956051 0)
(0.0345663024087 0.0637105129028 0)
(0.0316358927431 0.0562261528656 0)
(0.0287324861989 0.0494970089016 0)
(0.0259242554779 0.0434917830491 0)
(0.0232594240547 0.0381609132857 0)
(0.0207663890527 0.0334472049518 0)
(0.0184582469221 0.0292933682031 0)
(0.0163384045228 0.0256458698698 0)
(0.0144057544317 0.0224555869767 0)
(0.0126580055395 0.0196760633607 0)
(0.0110916091207 0.0172612024926 0)
(0.00969884344859 0.0151653433679 0)
(0.0084664101258 0.0133464917061 0)
(0.00737898552258 0.0117685485631 0)
(0.00642188159792 0.010400481972 0)
(0.00558127026161 0.0092149888715 0)
(0.00484356910169 0.00818842721579 0)
(0.00419648087321 0.00730094775541 0)
(0.00362938933112 0.00653776944055 0)
(0.00313831981796 0.00587768200446 0)
(0.00272121743781 0.0052244228869 0)
(0.00250736486618 0.00483058726154 0)
(0.00232166467639 0.00432938466379 0)
(0.00210960238912 0.00376642256999 0)
(0.00189817264977 0.00312369486468 0)
(0.00188443189711 0.00269962675539 0)
(0.00190244396386 0.00217317326958 0)
(0.00216583277374 0.00184983616968 0)
(0.00246093761583 0.0014457551438 0)
(0.0025251209449 0.000914953593219 0)
(0.00265100863497 0.000530346406081 0)
(0.00263466088922 0.000175548195427 0)
(-0.0789891249224 0.0071377880279 0)
(-0.0834822337795 0.0229763398373 0)
(-0.0831279860813 0.0386188741458 0)
(-0.0823830162233 0.0542907725215 0)
(-0.0813906801373 0.0697758353853 0)
(-0.0801643689557 0.0850391960393 0)
(-0.0787155164699 0.100035253225 0)
(-0.0770570993437 0.114721726126 0)
(-0.0752034449333 0.129059351276 0)
(-0.0731698778168 0.14301220067 0)
(-0.070972371724 0.156547836444 0)
(-0.0686271803027 0.169637400202 0)
(-0.0661504926563 0.182255621531 0)
(-0.0635580774752 0.194380749176 0)
(-0.0608649686745 0.205994404439 0)
(-0.0580851518326 0.217081362112 0)
(-0.0552313129883 0.227629262072 0)
(-0.052314604608 0.237628261711 0)
(-0.0493444970824 0.247070638554 0)
(-0.0463286624527 0.255950360168 0)
(-0.0432729600706 0.26426263717 0)
(-0.0401814572123 0.272003480782 0)
(-0.0370565510487 0.279169281768 0)
(-0.0338991095807 0.285756429154 0)
(-0.0307086960747 0.291760978705 0)
(-0.0274837850419 0.297178379708 0)
(-0.0242220410037 0.302003259812 0)
(-0.0209205683713 0.3062292681 0)
(-0.0175762174437 0.309848973691 0)
(-0.0141858577688 0.312853801261 0)
(-0.0107467321006 0.315234097322 0)
(-0.00725671483935 0.316979131938 0)
(-0.00371472975595 0.318077272356 0)
(-0.000121070723191 0.318516224786 0)
(0.00352222334484 0.318283352148 0)
(0.00721106733716 0.317366091693 0)
(0.0109390255016 0.315752464864 0)
(0.0146971340145 0.31343166457 0)
(0.0184737687268 0.310394694961 0)
(0.0222546816543 0.306635028045 0)
(0.0260231048961 0.302149232205 0)
(0.0297600163749 0.296937522005 0)
(0.0334444259767 0.291004181721 0)
(0.0370537276832 0.284357826028 0)
(0.0405639300506 0.277011488274 0)
(0.0439497698448 0.268982564389 0)
(0.0471845126212 0.260292693153 0)
(0.0502394678096 0.250967711505 0)
(0.0530831147626 0.241037878074 0)
(0.0556800243852 0.230538602195 0)
(0.0579897358376 0.219511909687 0)
(0.0599661187562 0.208008789423 0)
(0.0615578141743 0.196092332656 0)
(0.0627106030919 0.183841116307 0)
(0.0633722689549 0.171351669731 0)
(0.0634995948361 0.158738239779 0)
(0.0630655655767 0.146128553108 0)
(0.062062555592 0.133655989395 0)
(0.0604975424567 0.121456974942 0)
(0.0584001218249 0.109667295028 0)
(0.0558189200882 0.0984225070314 0)
(0.0528593599907 0.0878272331388 0)
(0.0496138642206 0.0779313220997 0)
(0.0461271886409 0.0687777097192 0)
(0.0424596695192 0.0604302932017 0)
(0.0387237575847 0.0529340563801 0)
(0.0350401647457 0.0462808971314 0)
(0.0315049910368 0.0404188457652 0)
(0.0281789457051 0.0352734894488 0)
(0.0250911491865 0.030766402705 0)
(0.0222492312214 0.0268258625496 0)
(0.0196492230418 0.0233908001963 0)
(0.0172843396216 0.0204099387502 0)
(0.0151508457329 0.0178365274245 0)
(0.0132469047185 0.0156217169359 0)
(0.0115640359115 0.0137136842226 0)
(0.0100818523646 0.0120656299602 0)
(0.00877773249874 0.0106409774016 0)
(0.00763243739919 0.00940997991284 0)
(0.00662901863822 0.00834599526806 0)
(0.00574957924729 0.00742608368124 0)
(0.00497800028992 0.00663174129161 0)
(0.00429974217337 0.00595106310136 0)
(0.00370759420389 0.00534143980736 0)
(0.00324582427793 0.00477081272041 0)
(0.00300557164913 0.00435969038314 0)
(0.00274957676115 0.00379007043123 0)
(0.0026115370937 0.00335487341301 0)
(0.00251502741669 0.0028892300557 0)
(0.00249236664986 0.00243099407637 0)
(0.00233984854401 0.00180591849995 0)
(0.00246264188171 0.00138268206615 0)
(0.00283140430741 0.00112253334781 0)
(0.00294745023091 0.000757002745725 0)
(0.00297146991985 0.000422375828336 0)
(0.00295812779117 0.000139671990031 0)
(-0.0940702290663 0.00725043556879 0)
(-0.0994177514401 0.0233922201764 0)
(-0.0989888490819 0.0393045155854 2.46968911426e-27)
(-0.0980907866315 0.0552483246247 0)
(-0.0968947916405 0.0709955032793 0)
(-0.0954173734655 0.0865094922654 0)
(-0.0936727480155 0.101742669904 0)
(-0.091677007118 0.116651096413 0)
(-0.0894478759754 0.131194212693 0)
(-0.0870042899394 0.145335183501 0)
(-0.0843659589733 0.159041060158 0)
(-0.0815529234117 0.172282869458 0)
(-0.0785851191165 0.185035615158 0)
(-0.0754819486074 0.197278193711 0)
(-0.0722618777559 0.208993224745 0)
(-0.0689420555955 0.220166798151 0)
(-0.065537982517 0.230788141552 0)
(-0.0620632267654 0.240849215899 0)
(-0.0585292182043 0.250344251474 0)
(-0.0549451161364 0.25926924218 0)
(-0.0513177756588 0.267621420226 0)
(-0.0476517969945 0.275398736435 0)
(-0.043949669759 0.282599370723 0)
(-0.0402119801407 0.289221293956 0)
(-0.0364376823202 0.295261895242 0)
(-0.0326243944298 0.300717680757 0)
(-0.0287687238546 0.305584041999 0)
(-0.0248665905907 0.309855086467 0)
(-0.0209135698822 0.313523524574 0)
(-0.0169052359953 0.316580584019 0)
(-0.0128375598955 0.319016071201 0)
(-0.00870724718658 0.32081832884 0)
(-0.00451223006081 0.321974405658 0)
(-0.000252097953408 0.322470289477 0)
(0.00407144029498 0.322291238928 0)
(0.00845412851163 0.321422239583 0)
(0.0128887780643 0.319848582541 0)
(0.0173649911047 0.317556550251 0)
(0.0218690017441 0.314534180884 0)
(0.0263836942291 0.310772065266 0)
(0.0308887858391 0.306264114379 0)
(0.0353611956483 0.301008223469 0)
(0.0397755300765 0.295006755454 0)
(0.0441046343764 0.288266777782 0)
(0.0483200615323 0.280800015992 0)
(0.0523923348589 0.272622542138 0)
(0.0562908105271 0.263754287224 0)
(0.0599830188707 0.254218562329 0)
(0.063433375822 0.244041874046 0)
(0.0666013292802 0.233254418637 0)
(0.0694391660821 0.221891709833 0)
(0.0718901037206 0.209997771346 0)
(0.0738876731862 0.197630056743 0)
(0.0753580208574 0.184865637171 0)
(0.0762266675112 0.171806731414 0)
(0.0764303420149 0.158582253745 0)
(0.0759304887221 0.14534101269 0)
(0.07471898173 0.132235136732 0)
(0.072795934625 0.119421397839 0)
(0.0701943486337 0.107058394271 0)
(0.0669514282429 0.0953320341795 0)
(0.0632643361014 0.0843763117034 0)
(0.0592790161484 0.0741927581391 0)
(0.0549847143653 0.0647985401281 0)
(0.0504193286254 0.0563069457093 0)
(0.0457628274574 0.0488065225868 0)
(0.0412053712077 0.0422781174566 0)
(0.0368822997326 0.0366304392752 0)
(0.0328643315408 0.0317469527992 0)
(0.0291723461251 0.0275173849742 0)
(0.0257990314121 0.0238513542317 0)
(0.0227247360798 0.0206809083034 0)
(0.0199316823062 0.0179571534311 0)
(0.0174155810316 0.0156385798014 0)
(0.0151830199133 0.0136743476351 0)
(0.0132288529378 0.0120002502946 0)
(0.0115186822393 0.0105601544751 0)
(0.010017282657 0.00931910741185 0)
(0.0087011740358 0.0082517481895 0)
(0.00755247409348 0.00733211533345 0)
(0.00654743533738 0.0065373940429 0)
(0.00566594896735 0.00585099953109 0)
(0.00489005036933 0.00526399723164 0)
(0.00420923245686 0.00471343230647 0)
(0.00376353912635 0.00426059127973 0)
(0.00349718652813 0.00382947379499 0)
(0.00325829998476 0.00335373464973 0)
(0.003044763706 0.0028559507149 0)
(0.00298623990918 0.00244196543341 0)
(0.0028867927153 0.00194465299158 0)
(0.0029332701192 0.00156364634207 0)
(0.00283567465119 0.00107810177673 0)
(0.00299087425967 0.000795341028579 0)
(0.00323579988345 0.000589709307392 0)
(0.0032251343518 0.000329043622302 0)
(0.00321155576447 0.00010878072729 0)
(-0.109444264917 0.00738424232303 0)
(-0.115660139687 0.023887765205 0)
(-0.115150968672 0.0401215022023 -2.46931007355e-27)
(-0.114090847173 0.0563891798551 0)
(-0.112679586058 0.0724481575967 0)
(-0.110937090761 0.0882597885538 0)
(-0.108880701776 0.10377400742 0)
(-0.106530015688 0.118944875338 0)
(-0.103906576894 0.133730278675 0)
(-0.101033365406 0.148092300475 0)
(-0.097934268391 0.161997392465 0)
(-0.0946335471709 0.175416464179 0)
(-0.0911553103965 0.188324876665 0)
(-0.0875229974018 0.200702342572 0)
(-0.083758882805 0.212532731214 0)
(-0.0798836102589 0.223803778192 0)
(-0.0759157742074 0.234506700394 0)
(-0.0718715648037 0.244635722834 0)
(-0.0677645006349 0.254187529869 0)
(-0.0636052638489 0.263160662387 0)
(-0.0594016553153 0.271554889163 0)
(-0.0551586686855 0.279370586365 0)
(-0.0508786800776 0.286608158519 0)
(-0.0465617283726 0.293267529991 0)
(-0.0422058633539 0.29934772461 0)
(-0.0378075257899 0.304846538533 0)
(-0.033361940308 0.309760297665 0)
(-0.0288635016527 0.314083683401 0)
(-0.0243061616343 0.317809611112 0)
(-0.0196838227264 0.320929120641 0)
(-0.0149907867733 0.323431425195 0)
(-0.0102221572932 0.32530380621 0)
(-0.00537442919686 0.326531765909 0)
(-0.000446031858243 0.327099235281 0)
(0.00456208072002 0.326988911112 0)
(0.00964585604244 0.326182751482 0)
(0.0147976257487 0.324662636804 0)
(0.0200057077025 0.322411183367 0)
(0.0252541767073 0.319412678028 0)
(0.0305228644171 0.315654076533 0)
(0.0357876158621 0.311125982626 0)
(0.0410208170795 0.30582350057 0)
(0.0461921454256 0.29974684148 0)
(0.0512694527946 0.292901567501 0)
(0.056219608439 0.285298391348 0)
(0.0610090831935 0.276952513983 0)
(0.0656039990722 0.267882583651 0)
(0.0699693824409 0.25810949999 0)
(0.0740673924221 0.247655442256 0)
(0.0778544250405 0.23654369318 0)
(0.0812772404672 0.224800049034 0)
(0.0842687186293 0.212456740806 0)
(0.0867447591078 0.199559782531 0)
(0.088605016974 0.186179730495 0)
(0.0897416733082 0.172423683857 0)
(0.0900593993989 0.158441803071 0)
(0.0895044997102 0.144416964215 0)
(0.0880811011193 0.130521226352 0)
(0.0857685515943 0.116932143901 0)
(0.0826067597743 0.103822596174 0)
(0.0785344453989 0.0914922466085 0)
(0.0739904244017 0.0801545253331 0)
(0.0692503077506 0.0696514293349 0)
(0.0640903304706 0.0599178202245 0)
(0.058463310422 0.051208256835 0)
(0.052708451796 0.0437199677426 0)
(0.0471453022161 0.0374002312303 0)
(0.0419620899044 0.0320776582712 0)
(0.037227976208 0.0275633895871 0)
(0.0329360866526 0.0237009714866 0)
(0.0290484331907 0.0203781462948 0)
(0.0255160559266 0.0175233720971 0)
(0.0223003178389 0.0151007252017 0)
(0.0193990030333 0.0130878139359 0)
(0.0168449947523 0.011434935396 0)
(0.0146496322834 0.0100492933751 0)
(0.0127449093327 0.00885401473566 0)
(0.0110707603372 0.00782343557544 0)
(0.00960322152494 0.00694514648547 0)
(0.00833171612381 0.00619223721783 0)
(0.00722138119608 0.00553953789132 0)
(0.0062483661784 0.00497415195641 0)
(0.00539338698672 0.00448794305714 0)
(0.00464027043103 0.00400295895586 0)
(0.00423536839702 0.00365454948636 0)
(0.00392996999485 0.00322971004869 0)
(0.00374565383705 0.00285181895353 0)
(0.00355468309973 0.00240865337802 0)
(0.00341859873162 0.00197745622412 0)
(0.0032718757574 0.00153132651845 0)
(0.00322638014118 0.00117162083515 0)
(0.00328018357704 0.000879376555406 0)
(0.00320282859431 0.000573995547999 0)
(0.00345962627069 0.000419256478722 0)
(0.00341932884498 0.0002484297562 0)
(0.00339425124707 7.88857893462e-05 0)
(-0.125163997 0.00754051852654 0)
(-0.132264808406 0.0244682530322 0)
(-0.131668564054 0.0410781509968 0)
(-0.130435431273 0.057724684524 0)
(-0.128794716428 0.0741478864079 0)
(-0.12677009943 0.0903065720551 0)
(-0.12438247648 0.106147746667 0)
(-0.121655428614 0.121623092914 0)
(-0.11861483038 0.136688659778 0)
(-0.115288232134 0.151305263392 0)
(-0.111704228665 0.165438666403 0)
(-0.107891827793 0.179059665919 0)
(-0.103879825683 0.192144079392 0)
(-0.0996961924665 0.204672629504 0)
(-0.0953674748976 0.216630724665 0)
(-0.0909182270596 0.228008129174 0)
(-0.0863704887671 0.2387985196 0)
(-0.0817433370309 0.248998929361 0)
(-0.077052541523 0.258609094374 0)
(-0.0723103524978 0.267630724735 0)
(-0.0675254436879 0.276066740267 0)
(-0.0627030170442 0.283920516116 0)
(-0.0578450594399 0.291195186834 0)
(-0.052950720693 0.297893049659 0)
(-0.0480167698967 0.304015091945 0)
(-0.043038080916 0.309560645196 0)
(-0.0380081083992 0.314527147133 0)
(-0.0329193336352 0.318909978304 0)
(-0.0277636867302 0.322702342019 0)
(-0.0225329701615 0.325895128583 0)
(-0.0172193463426 0.32847694024 0)
(-0.0118157950128 0.330433895185 0)
(-0.00631681272851 0.331749739755 0)