/*--------------------------------*- C++ -*----------------------------------*\
| =========                 |                                                 |
| \\      /  F ield         | OpenFOAM: The Open Source CFD Toolbox           |
|  \\    /   O peration     | Version:  v1906                                 |
|   \\  /    A nd           | Web:      www.OpenFOAM.com                      |
|    \\/     M anipulation  |                                                 |
\*---------------------------------------------------------------------------*/
FoamFile
{
    version     2.0;
    format      ascii;
    class       surfaceScalarField;
    location    "950";
    object      phi;
}
// * * * * * * * * * * * * * * * * * * * * * * * * * * * * * * * * * * * * * //

dimensions      [0 3 -1 0 0 0 0];
oriented        oriented;


internalField   nonuniform List<scalar> 
18240
(
-0.000192378246662
0.000192378191448
-0.000393768125239
0.000201389808929
-0.000593620398472
0.000199852219497
-0.000790262548905
0.000196642077234
-0.0009825812608
0.000192318662192
-0.0011695859544
0.000187004616915
-0.00135039220461
0.000180806204753
-0.00152421933115
0.000173827046349
-0.00169039188868
0.000166172516627
-0.00184834040341
0.000157948431019
-0.0019975993064
0.000149258867168
-0.00213780314775
0.000140203754119
-0.00226868025629
0.00013087707825
-0.00239004570792
0.000121365360918
-0.00250179267625
0.000111746944249
-0.00260388423983
0.000102091469447
-0.00269634434277
9.2460085656e-05
-0.00277925007376
8.29056335566e-05
-0.00285272351001
7.34734265924e-05
-0.00291692538841
6.42017778557e-05
-0.00297204840827
5.51230185149e-05
-0.00301831258593
4.62640742633e-05
-0.00305596006267
3.76474846685e-05
-0.00308525201641
2.9291847822e-05
-0.00310646471666
2.12127182252e-05
-0.00311988767127
1.34228465919e-05
-0.00312582058495
5.93294273864e-06
-0.00312457238303
-1.24831150517e-06
-0.00311645837561
-8.11396645801e-06
-0.00310179990134
-1.46585847623e-05
-0.00308092226875
-2.08775786333e-05
-0.00305415456602
-2.67678133066e-05
-0.00302182744524
-3.23270530333e-05
-0.00298427324685
-3.75543080298e-05
-0.00294182382807
-4.24493361303e-05
-0.00289481088628
-4.70130492518e-05
-0.0028435637994
-5.12469885821e-05
-0.0027884101404
-5.51537627414e-05
-0.00272967354102
-5.87364843869e-05
-0.00266767440625
-6.19992329731e-05
-0.00260272781998
-6.49464539863e-05
-0.00253514446314
-6.75834472763e-05
-0.00246522857554
-6.99157372123e-05
-0.00239327906649
-7.19495892274e-05
-0.00231958753635
-7.36913614373e-05
-0.00224443955196
-7.5148051392e-05
-0.0021681127238
-7.63266409118e-05
-0.00209087810256
-7.72346719075e-05
-0.00201299830114
-7.78795961844e-05
-0.00193472895507
-7.82693769659e-05
-0.00185631687571
-7.84118568711e-05
-0.00177800150419
-7.83153790915e-05
-0.001700013078
-7.79881881187e-05
-0.00162257399566
-7.74390630217e-05
-0.00154589697686
-7.66767672049e-05
-0.00147018624441
-7.5710683059e-05
-0.00139563565656
-7.45503258536e-05
-0.0013224296108
-7.32059639364e-05
-0.00125074113619
-7.16882059819e-05
-0.00118073244073
-7.00085804743e-05
-0.00111255297894
-6.81791913876e-05
-0.00104633961713
-6.62132153707e-05
-0.000982214751392
-6.41245991548e-05
-0.00092028616268
-6.19284156128e-05
-0.000860645352391
-5.9640553556e-05
-0.000803367292126
-5.72778684235e-05
-0.000748509241392
-5.48578097509e-05
-0.00069611071211
-5.23983290404e-05
-0.00064619306637
-4.99174253625e-05
-0.000598760021704
-4.74328468596e-05
-0.00055379821128
-4.49616133491e-05
-0.000511278380062
-4.25196447609e-05
-0.000471156815076
-4.01213912419e-05
-0.000433377083789
-3.77795614487e-05
-0.000397871962159
-3.55049687924e-05
-0.000364565364169
-3.33064454536e-05
-0.000333374346417
-3.11908813903e-05
-0.00030421095612
-2.91632509624e-05
-0.000276984141538
-2.72266890255e-05
-0.000251601563308
-2.53824452752e-05
-0.000227971673971
-2.36297701228e-05
-0.000206006025621
-2.19655178343e-05
-0.000185622447139
-2.03834657123e-05
-0.000166749343873
-1.88729755079e-05
-0.000149332527491
-1.74167131503e-05
-0.000133346079731
-1.59863183345e-05
-0.000118812215177
-1.4533769913e-05
-0.000105840266464
-1.29718113754e-05
-9.47761885139e-05
-1.10639909067e-05
-8.57058355495e-05
-9.07021704127e-06
-7.63474535867e-05
-9.35827889794e-06
-6.59062073547e-05
-1.04411033136e-05
-5.41299844193e-05
-1.17760987446e-05
-3.99396531283e-05
-1.41901840995e-05
-2.15423377544e-05
-1.83970901102e-05
-2.15422108394e-05
-0.000203631331174
0.000396009461987
-0.000419287897296
0.000417046307823
-0.00063259784315
0.000413162102562
-0.000842248114413
0.000406292280628
-0.00104716705148
0.000397237537603
-0.00124633849089
0.000386175987883
-0.00143883057504
0.000373298228519
-0.00162381525456
0.00035881165693
-0.00180057633491
0.000342933538138
-0.00196851190232
0.000325883929128
-0.00212713254739
0.00030787945522
-0.0022760568256
0.000289127962861
-0.0024150042553
0.000269824453124
-0.00254378708373
0.000250148119955
-0.00266230088822
0.000230260696466
-0.00277051518547
0.000210305697668
-0.00286846382947
0.000190408680455
-0.00295623625975
0.000170677995541
-0.00303396906113
0.000151206182315
-0.00310183880169
0.00013207145127
-0.00316005532433
0.000113339499705
-0.00320885642627
9.50651106914e-05
-0.00324850287533
7.72938970875e-05
-0.00327927473747
6.00636466543e-05
-0.00330146779218
4.34057418742e-05
-0.00331539110574
2.73460996701e-05
-0.00332136438331
1.1906195552e-05
-0.00331971635805
-2.89639369828e-06
-0.00331078306684
-1.70472752226e-05
-0.00329490671642
-3.05349877524e-05
-0.00327243368487
-4.33506197006e-05
-0.00324371384128
-5.54877042107e-05
-0.00320909900426
-6.69418904877e-05
-0.00316894232261
-7.77110306939e-05
-0.00312359678741
-8.77948617035e-05
-0.00307341474029
-9.71951299148e-05
-0.00301874644813
-0.000105915259836
-0.00295993974994
-0.00011396048565
-0.0028973387125
-0.00012133748849
-0.00283128343356
-0.000128054526288
-0.00276210879876
-0.000134121041655
-0.00269014445178
-0.000139547796579
-0.00261571366273
-0.000144346464044
-0.00253913346063
-0.000148529779755
-0.00246071360951
-0.000152111133872
-0.00238075688234
-0.000155104751122
-0.00229955812901
-0.000157525297876
-0.00221740465691
-0.000159388098697
-0.00213457536582
-0.000160708772112
-0.00205134118909
-0.000161503488505
-0.00196796426389
-0.000161788647277
-0.0018846983766
-0.000161581179467
-0.00180178812991
-0.000160898279842
-0.00171946932582
-0.000159757756818
-0.00163796808429
-0.00015817783354
-0.00155750108736
-0.000156177545188
-0.00147827459899
-0.000153776619466
-0.00140048449068
-0.000150995912662
-0.00132431511717
-0.000147857366819
-0.0012499390587
-0.000144384455706
-0.0011775158349
-0.000140602187729
-0.00110719134857
-0.000136537497957
-0.00103909648795
-0.000132219222382
-0.000973346356147
-0.000127678328609
-0.00091003892581
-0.000122947743119
-0.000849254281138
-0.000118062286937
-0.000791053623
-0.000113058231554
-0.000735478882425
-0.000107972845372
-0.000682552446051
-0.000102843637761
-0.000632277511289
-9.77075681764e-05
-0.000584638795335
-9.26001237386e-05
-0.000539603790755
-8.75544531678e-05
-0.000497124397115
-8.26006006911e-05
-0.00045713885923
-7.77649234106e-05
-0.00041957390067
-7.30697640608e-05
-0.000384346868814
-6.85333205771e-05
-0.000351367871429
-6.41697325941e-05
-0.000320541758592
-5.9989221258e-05
-0.000291770046948
-5.5998265343e-05
-0.000264952738746
-5.2199618289e-05
-0.000239990251842
-4.85921273649e-05
-0.000216785524875
-4.5170113227e-05
-0.000195246679781
-4.19221860845e-05
-0.00017529043525
-3.88290928247e-05
-0.00015684679068
-3.58602387328e-05
-0.000139864820437
-3.29681638304e-05
-0.000124318050629
-3.00804230136e-05
-0.000110199846911
-2.70898891717e-05
-9.74205371203e-05
-2.38431891784e-05
-8.61054071681e-05
-2.0385227687e-05
-7.52006708519e-05
-2.02628988391e-05
-6.37856535291e-05
-2.18559942469e-05
-5.11569876469e-05
-2.44046382315e-05
-3.60520315258e-05
-2.92950083694e-05
-1.80527651703e-05
-3.63961887586e-05
-3.95948843224e-05
-0.000206587688416
0.000602597088754
-0.000424656466739
0.000635115020711
-0.000640551587842
0.000629057158707
-0.000852707218561
0.000618447845405
-0.00105997315466
0.000604503409262
-0.00126129563397
0.000587498401302
-0.0014557219179
0.000567724448612
-0.00164241227681
0.000545501950139
-0.0018206462896
0.000521167487849
-0.00198982425047
0.000495061824684
-0.00214946445433
0.000467519597011
-0.00229919741612
0.000438860859961
-0.0024387577378
0.000409384714003
-0.00256797460553
0.000379364923917
-0.00268676144796
0.000349047479732
-0.00279510556058
0.000318649747784
-0.00289305794881
0.000288361011543
-0.00298072396583
0.000258343951724
-0.00305825471181
0.000228736873684
-0.00312583957811
0.000199656258875
-0.00318369967672
0.000171199546739
-0.00323208242493
0.000143447802895
-0.00327125687785
0.000116468302113
-0.00330151004379
9.03167598808e-05
-0.0033231436941
6.50393485914e-05
-0.00333647192772
4.06742845493e-05
-0.00334181896967
1.72531989926e-05
-0.00333951753088
-5.19787651693e-06
-0.00332990713462
-2.66577041536e-05
-0.00331333291049
-4.71092503487e-05
-0.00329014424695
-6.65393091385e-05
-0.00326069375434
-8.49382288279e-05
-0.00322533602583
-0.000102299637221
-0.0031844267271
-0.000118620353926
-0.00313832142707
-0.000133900171142
-0.00308737477633
-0.000148141796521
-0.00303193941195
-0.000161350623688
-0.00297236524486
-0.000173534658664
-0.00290899846711
-0.000184704254416
-0.00284218097601
-0.000194872011947
-0.00277224950896
-0.000204052484217
-0.00269953522103
-0.000212262066118
-0.00262436295761
-0.000219518688728
-0.00254705098401
-0.000225841720353
-0.00246791038846
-0.00023125167493
-0.00238724494538
-0.000235770144844
-0.00230535062735
-0.000239419544027
-0.00222251557058
-0.000242223088015
-0.00213901966476
-0.00024420458724
-0.00205513457985
-0.000245388486182
-0.00197112339543
-0.000245799720764
-0.00188724063969
-0.000245463826649
-0.00180373191185
-0.000244406875416
-0.00172083387437
-0.000242655663085
-0.0016387738128
-0.000240237740662
-0.00155776951097
-0.000237181692293
-0.0014780286826
-0.000233517271084
-0.0013997486514
-0.000229275765551
-0.00132311558701
-0.00022449023296
-0.00124830391894
-0.000219195923112
-0.00117547533044
-0.000213430558939
-0.00110477787757
-0.000207234731035
-0.00103634476188
-0.000200652106232
-0.000970293226795
-0.000193729630362
-0.000906723260964
-0.000186517469189
-0.000845716509148
-0.000179068799892
-0.000787335235198
-0.000171439266491
-0.000731621661902
-0.000163686184071
-0.000678597652228
-0.000155867418362
-0.000628264942214
-0.000148040057114
-0.000580605911534
-0.000140258942639
-0.00053558492872
-0.000132575234828
-0.000493150177161
-0.000125035161932
-0.000453235824568
-0.000117679097148
-0.000415764369419
-0.000110541050728
-0.000380648977435
-0.000103648554104
-0.000347795694856
-9.70228648156e-05
-0.000317105444319
-9.06793281705e-05
-0.000288475813955
-8.46277567463e-05
-0.000261802652486
-7.88726439768e-05
-0.000236981575903
-7.3413070704e-05
-0.000213909472435
-6.82420848117e-05
-0.000192486204609
-6.33453251523e-05
-0.000172616674114
-5.86984954689e-05
-0.000154213588013
-5.42632003917e-05
-0.000137201258281
-4.99803684959e-05
-0.000121521086708
-4.57604713201e-05
-0.000107141216035
-4.14696356721e-05
-9.4065699194e-05
-3.69185898283e-05
-8.25469961562e-05
-3.19038148983e-05
-7.11128485959e-05
-3.16969283552e-05
-5.85581537131e-05
-3.44105665249e-05
-4.41612777916e-05
-3.88014010217e-05
-2.8269799322e-05
-4.51863758875e-05
-1.36763069563e-05
-5.09895534737e-05
-5.32711270007e-05
-0.000210192402734
0.000812789429753
-0.000431817884594
0.000856740436865
-0.00065119199412
0.000848431202982
-0.000866650422951
0.000833906208635
-0.00107697772224
0.0008148306435
-0.00128107365725
0.000791594271004
-0.00147795525609
0.000764605982751
-0.00166676624214
0.000734312871235
-0.0018467816518
0.000701182833343
-0.0020174075206
0.000665687629059
-0.0021781763125
0.000628288325481
-0.00232873909769
0.000589423581508
-0.00246885543807
0.000549500991988
-0.00259838197795
0.000508891401217
-0.00271726050608
0.000467925946799
-0.00282550621295
0.00042689539349
-0.00292319657189
0.000386051311171
-0.003010461245
0.000345608565495
-0.0030874731259
0.00030574869746
-0.00315444066854
0.000266623744484
-0.00321160139365
0.00022836021745
-0.00325921657782
0.000191062932898
-0.00329756689958
0.000154818572759
-0.00332694899523
0.000119698804826
-0.00334767265949
8.57629657162e-05
-0.00336005865507
5.30602335674e-05
-0.00336443687427
2.16313757075e-05
-0.00336114485989
-8.48993256905e-06
-0.00335052643543
-3.72761656136e-05
-0.00333293056746
-6.47051542693e-05
-0.00330871022502
-9.07596822693e-05
-0.00327822133687
-0.0001154271463
-0.00324182169762
-0.000138699299853
-0.00319986997756
-0.000160572095661
-0.00315272466417
-0.000181045499575
-0.00310074312347
-0.000200123350123
-0.00304428060528
-0.000217813147347
-0.0029836893975
-0.000234125869309
-0.00291931794031
-0.00024907570622
-0.00285151011516
-0.000262679828525
-0.00278060450226
-0.000274958079376
-0.00270693382749
-0.000285932719337
-0.0026308243752
-0.000295628109392
-0.00255259559286
-0.000304070466542
-0.0024725596495
-0.000311287571102
-0.00239102117861
-0.000317308563276
-0.00230827695699
-0.000322163701254
-0.00222461575404
-0.000325884220512
-0.00214031809627
-0.000328502161739
-0.00205565618364
-0.000330050308691
-0.00197089369888
-0.000330562101784
-0.00188628574462
-0.000330071669529
-0.00180207864889
-0.000328613845452
-0.00171850986683
-0.000326224311062
-0.00163580772211
-0.000322939736456
-0.00155419120256
-0.000318798053961
-0.001473869561
-0.000313838739742
-0.00139504191831
-0.00030810322613
-0.00131789663475
-0.000301635319808
-0.00124261062833
-0.000294481724017
-0.00116934843575
-0.000286692532809
-0.00109826118385
-0.000278321756881
-0.00102948532027
-0.000269427733304
-0.000963141277868
-0.000260073431501
-0.000899332005756
-0.000250326493953
-0.000838141567746
-0.000240258989824
-0.00077963384627
-0.000229946739615
-0.000723851575958
-0.000219468210203
-0.000670815820324
-0.000208902935488
-0.000620526074717
-0.00019832957256
-0.000572961071702
-0.000187823725754
-0.000528080305266
-0.000177455792172
-0.000485826178197
-0.000167289092621
-0.000446126563098
-0.000157378527265
-0.000408897535739
-0.000147769905546
-0.000374046012247
-0.000138499914953
-0.000341472125753
-0.000129596598278
-0.000311071229087
-0.000121080078357
-0.000282735526812
-0.000112963318049
-0.000256355347331
-0.000105252685524
-0.000231820120803
-9.79481621576e-05
-0.000209019097832
-9.10429741022e-05
-0.000187841882984
-8.45224088225e-05
-0.000168178815891
-7.83614329677e-05
-0.000149921321263
-7.25205670662e-05
-0.000132962508105
-6.69390549461e-05
-0.000117199093951
-6.1523758895e-05
-0.000102538734165
-5.61298711427e-05
-8.89199643946e-05
-5.0537241524e-05
-7.64119012827e-05
-4.44117632914e-05
-6.44291129856e-05
-4.3679603597e-05
-5.08055356261e-05
-4.80340302857e-05
-3.59093901869e-05
-5.36974423043e-05
-2.23454391544e-05
-5.87502391701e-05
-1.07336019067e-05
-6.26012949157e-05
-6.40046753817e-05
-0.000215009101415
0.00102779846926
-0.000441572793499
0.00108330406401
-0.000665710616703
0.00107256896062
-0.000885662931868
0.00105385845842
-0.00110013875689
0.00102930640326
-0.00130797924911
0.000999434698035
-0.0015081618535
0.000964788522216
-0.00169980915534
0.000925960108202
-0.00188219187924
0.000883565492762
-0.00205472622067
0.000838221906129
-0.00221696647842
0.000790528519407
-0.00236859422552
0.000741051264993
-0.00250940525895
0.000690311962499
-0.0026392954924
0.000638781572079
-0.00275824673644
0.000586877129152
-0.00286631312154
0.000534961717363
-0.00296360865416
0.000483346783702
-0.00305029623074
0.000432296082635
-0.00312657821726
0.000382030625952
-0.00319268861565
0.000332734085694
-0.00324888669263
0.000284558238944
-0.00329545193789
0.000237628123776
-0.00333268012858
0.000192046711117
-0.00336088032504
0.000147898950302
-0.0033803725635
0.000105255155601
-0.00339148609554
6.41737186975e-05
-0.00339455797572
2.47032117928e-05
-0.00338993189532
-1.3116055066e-05
-0.00337795715047
-4.92509493195e-05
-0.0033589876727
-8.36746685117e-05
-0.00333338106094
-0.000116366326766
-0.00330149761588
-0.000147310621301
-0.00326369933139
-0.000176497610054
-0.00322034889527
-0.000203922554191
-0.00317180865996
-0.000229585752468
-0.00311843965353
-0.000253492370317
-0.00306060059415
-0.000275652215046
-0.00299864698311
-0.000296079484215
-0.0029329302327
-0.000314792454327
-0.00286379690141
-0.000331813152387
-0.00279158798166
-0.000347166984795
-0.00271663830755
-0.000360882373193
-0.00263927601709
-0.000372990371884
-0.00255982213177
-0.000383524317168
-0.00247859018025
-0.000392519479392
-0.00239588592681
-0.000400012765873
-0.00231200712681
-0.000406042441018
-0.0022272433692
-0.000410647909411
-0.00214187592627
-0.000413869525722
-0.00205617767043
-0.000415748476165
-0.00197041297713
-0.000416326695655
-0.00188483767129
-0.000415646865607
-0.00179969893561
-0.000413752459473
-0.00171523523269
-0.000410687881059
-0.00163167615664
-0.00040649866694
-0.00154924225767
-0.000401231795265
-0.001468144752
-0.000394936074592
-0.0013885851486
-0.000387662646044
-0.00131075470434
-0.000379465567441
-0.0012348337284
-0.000370402490669
-0.00116099065681
-0.000360535383109
-0.00108938091814
-0.000349931262627
-0.00102014554658
-0.000338662862531
-0.000953409590032
-0.00032680913665
-0.000889280347937
-0.000314455479767
-0.000827845552551
-0.000301693524512
-0.000769171648458
-0.000288620384434
-0.000713302368563
-0.000275337232656
-0.000660257860135
-0.000261947193967
-0.000610034569505
-0.00024855262124
-0.000562606075687
-0.000235251989018
-0.000517924892488
-0.000222136757718
-0.000475925124218
-0.000209288655935
-0.000436525670777
-0.000196777790576
-0.000399633578356
-0.000184661819669
-0.000365147166621
-0.00017298616122
-0.000332958654813
-0.000161784953584
-0.000302956200415
-0.000151082384597
-0.000275025343489
-0.000140894031654
-0.000249049914504
-0.000131227975279
-0.000224912428108
-0.000122085511485
-0.000202493961
-0.000113461306111
-0.000181673449708
-0.000105342786942
-0.0001623262453
-9.77085057698e-05
-0.00014432161149
-9.05250706988e-05
-0.000127518623263
-8.37419144486e-05
-0.000111759818382
-7.72824354312e-05
-9.68628239621e-05
-7.10267409154e-05
-8.261272458e-05
-6.47872224364e-05
-6.88307501117e-05
-5.81936258224e-05
-5.56607676357e-05
-5.68494775122e-05
-4.25837509343e-05
-6.11109445924e-05
-2.95884157596e-05
-6.66926916809e-05
-1.82987990036e-05
-7.00397788025e-05
-8.80462840144e-06
-7.20953821007e-05
-7.28092611211e-05
-0.000221179355436
0.00124897776298
-0.000454129442844
0.00131625408582
-0.00068440651944
0.00130284597189
-0.000910128215174
0.00127958008869
-0.0011299079319
0.00124908605474
-0.00134251347473
0.00121204017569
-0.00154687360525
0.00116914858771
-0.00174208668136
0.00112117311943
-0.00192742160853
0.00106890035527
-0.00210231188279
0.00101311211597
-0.00226634423561
0.000954560808107
-0.00241924357513
0.000893950540778
-0.00256085586151
0.000831924185568
-0.00269113035444
0.000769056002225
-0.00281010236822
0.000705849080735
-0.00291787735456
0.0006427366422
-0.00301461681607
0.000580086184495
-0.00310052629904
0.000518205505805
-0.00317584549651
0.000457349764614
-0.00324084035466
0.000397728886197
-0.00329579696814
0.000339514796037
-0.00334101700876
0.000282848109426
-0.00337681439911
0.00022784404806
-0.00340351295995
0.000174597459454
-0.00342144476529
0.000123186911127
-0.00343094898594
7.36778916028e-05
-0.00343237102209
2.61252024158e-05
-0.00342606176469
-1.9425355559e-05
-0.00341237696478
-6.29357896918e-05
-0.00339167648592
-0.000104375185006
-0.00336432352876
-0.000143719318503
-0.00333068376573
-0.000180950415631
-0.00329112439416
-0.00021605700937
-0.00324601313714
-0.00024903383519
-0.00319571720529
-0.0002798817042
-0.00314060226185
-0.000308607329313
-0.00308103140564
-0.000335223082098
-0.00301736421183
-0.000359746683931
-0.00294995583682
-0.000382200829845
-0.00287915621782
-0.000402612766264
-0.00280530936072
-0.000421013830612
-0.0027287527363
-0.000437438979963
-0.00264981676683
-0.000451926316734
-0.00256882441543
-0.000464516636764
-0.00248609085284
-0.000475253002342
-0.00240192321035
-0.000484180360714
-0.00231662039049
-0.000491345204487
-0.0022304729439
-0.000496795290748
-0.00214376298309
-0.000500579411547
-0.00205676414266
-0.000502747231889
-0.00196974155537
-0.000503349187471
-0.00188295185413
-0.000502436460737
-0.00179664316578
-0.000500061029803
-0.00171105510419
-0.000496275813028
-0.00162641872155
-0.000491134906841
-0.00154295641849
-0.000484693943085
-0.00146088176002
-0.000477010563523
-0.0013803991881
-0.000468145035222
-0.00130170356194
-0.000458160995713
-0.0012249795076
-0.000447126333905
-0.00115040049742
-0.000435114167106
-0.00107812764458
-0.000422203877232
-0.00100830814873
-0.000408482106847
-0.00094107341942
-0.000394043605223
-0.00087653688915
-0.000378991740508
-0.000814791648859
-0.000363438491651
-0.000755908075217
-0.000347503683392
-0.000699931742027
-0.000331313294789
-0.000646881955487
-0.000314996715756
-0.000596751281155
-0.000298683040943
-0.000549506361537
-0.00028249666663
-0.000505090129563
-0.000266552761651
-0.000463425261599
-0.000250953312126
-0.000424418396491
-0.000235784458762
-0.000387964480869
-0.00022111555408
-0.000353950624742
-0.000206999848577
-0.0003222591033
-0.00019347631765
-0.000292769421991
-0.000180571916153
-0.000265359548706
-0.000168303761237
-0.00023990642102
-0.000156680962453
-0.000216285775784
-0.000145706019037
-0.000194371248648
-0.000135375696759
-0.000174032611782
-0.000125681289425
-0.000155132817858
-0.000116608166489
-0.000137523133524
-0.000108134623343
-0.000121034729003
-0.000100230188653
-0.000105463284993
-9.28537508965e-05
-9.05389772362e-05
-8.59509235947e-05
-7.58673454381e-05
-7.94587365567e-05
-6.08230071463e-05
-7.32378531795e-05
-4.71973168834e-05
-7.04750692733e-05
-3.50938450189e-05
-7.32143249861e-05
-2.48038309322e-05
-7.69826247982e-05
-1.54838505398e-05
-7.93596923733e-05
-7.39486455428e-06
-8.01842968577e-05
-8.02040842005e-05
-0.000228847737565
0.00147782543869
-0.000469746513908
0.00155715279743
-0.000707647916577
0.00154074730904
-0.000940508932612
0.00151244103946
-0.00116682100035
0.0014753980572
-0.001385261057
0.00143048016716
-0.00159470010206
0.0013785875677
-0.00179421110183
0.00132068405423
-0.00198306681821
0.00125775600689
-0.00216072908774
0.00119077432089
-0.00232683182598
0.00112066348207
-0.00248116012988
0.00104827878066
-0.00262362765895
0.000974391651057
-0.00275425410677
0.000899682386865
-0.00287314411021
0.000824739021612
-0.00298046847952
0.000750060949506
-0.00307644821178
0.000676065855548
-0.00316134141902
0.000603098652592
-0.00323543305335
0.000531441339532
-0.00329902715805
0.000461322932466
-0.0033524412803
0.000392928861145
-0.00339600265225
0.000326409425466
-0.00343004574397
0.000261887085474
-0.00345491082399
0.000199462486679
-0.00347094319722
0.000139219233468
-0.00347849284792
8.12274932521e-05
-0.00347791426128
2.55465689963e-05
-0.00346956621987
-2.77734415485e-05
-0.00345381165221
-7.86903992886e-05
-0.00343101713931
-0.000127169737244
-0.00340155234699
-0.000173184147099
-0.00336578926186
-0.000216713533993
-0.0033241012803
-0.000257745020624
-0.00327686219198
-0.000296272949674
-0.0032244450967
-0.000332298821586
-0.00316722130367
-0.000365831140344
-0.00310555924905
-0.000396885150096
-0.00303982347253
-0.000425482469089
-0.00297037367487
-0.00045165063085
-0.00289756388164
-0.0004754225574
-0.00282174171802
-0.000496835986142
-0.00274324780374
-0.000515932879936
-0.00266241525949
-0.000532758839908
-0.00257956932283
-0.00054736254528
-0.00249502705779
-0.000559795231675
-0.00240909715154
-0.000570110223296
-0.00232207978133
-0.000578362522588
-0.002234266545
-0.000584608466073
-0.00214594043999
-0.000588905446197
-0.00205737588582
-0.000591311705772
-0.00196883877657
-0.000591886206042
-0.0018805865583
-0.000590688577273
-0.00179286831655
-0.000587779158238
-0.00170592486518
-0.000583219138727
-0.00161998881465
-0.000577070818762
-0.00153528460117
-0.000569398004183
-0.00145202844013
-0.00056026655777
-0.00137042816813
-0.000549745125278
-0.00129068291402
-0.000537906052283
-0.00121298254122
-0.000524826493032
-0.0011375067788
-0.000510589700108
-0.00106442396937
-0.000495286441202
-0.000993889356247
-0.000479016460532
-0.000926042867247
-0.000461889821019
-0.000861006405098
-0.00044402792089
-0.000798880732095
-0.000425563874868
-0.000739742187818
-0.000406641938327
-0.000683639579723
-0.0003874156138
-0.000630591797118
-0.000368044219078
-0.000580586686347
-0.00034868788133
-0.000533581771555
-0.000329501326989
-0.000489507038058
-0.00031062725783
-0.000448269626454
-0.000292190503533
-0.000409759684754
-0.000274294200632
-0.000373856266847
-0.000257018787043
-0.000340432296027
-0.000240423650788
-0.000309358019823
-0.000224550435579
-0.00028050304588
-0.000209426741102
-0.000253737252203
-0.000195069410768
-0.000228930867257
-0.000181487207252
-0.000205953777001
-0.000168682970738
-0.000184674012766
-0.000156655324357
-0.000164955292545
-0.000145399874051
-0.000146653392094
-0.000134909933147
-0.000129610751635
-0.000125177130827
-0.000113647760419
-0.000116193049306
-9.85472262937e-05
-0.000107954155807
-8.40238315372e-05
-0.000100474193931
-6.96638784923e-05
-9.38185719813e-05
-5.47412526216e-05
-8.81603708596e-05
-4.07432086172e-05
-8.44730164937e-05
-2.95054787702e-05
-8.44519698981e-05
-2.07257916429e-05
-8.57622416199e-05
-1.30124472737e-05
-8.70729697606e-05
-5.89871972887e-06
-8.7297953354e-05
-8.61027669535e-05
-0.000238186601565
0.00171601197873
-0.000488759205386
0.00180772533583
-0.000735915486628
0.00178790352514
-0.000977406350036
0.00175393183754
-0.0012115696383
0.00170956128028
-0.00143697155521
0.00165588201893
-0.00165241686906
0.00159403281645
-0.0018569549734
0.00152522209358
-0.00204987278371
0.0014506737523
-0.00223067702942
0.00137157850191
-0.00239906929811
0.00128905568621
-0.00255491715114
0.00120412656947
-0.00269822421849
0.00111769865446
-0.00282910154759
0.00103055965247
-0.00294774177625
0.000943379187187
-0.00305439703086
0.000856716141671
-0.00314936089408
0.00077102965691
-0.00323295436727
0.000686692064766
-0.00330551547819
0.000604002390223
-0.0033673920279
0.000523199423035
-0.00341893690977
0.000444473684883
-0.00346050543207
0.000367977890994
-0.00349245411479
0.000293835712705
-0.00351514048768
0.000222148805719
-0.00352892348687
0.0001530021804
-0.00353416411827
8.64680743516e-05
-0.00353122613836
2.26085407062e-05
-0.00352047648515
-3.85231408082e-05
-0.00350228568179
-9.68812464172e-05
-0.00347702761549
-0.000152427844586
-0.00344507917581
-0.000205132625147
-0.00340681956627
-0.000254973178733
-0.00336262939175
-0.000301935227217
-0.0033128895823
-0.00034601278755
-0.00325798022105
-0.000387208207605
-0.00319827933773
-0.000425532044266
-0.00313416172531
-0.000461002778858
-0.00306599782538
-0.000493646380597
-0.00299415271855
-0.000523495744347
-0.0029189852421
-0.000550590035071
-0.00284084724717
-0.000574973976656
-0.00276008299638
-0.000596697120119
-0.00267702869584
-0.000615813123428
-0.00259201214932
-0.0006323790678
-0.00250535252038
-0.000646454829328
-0.00241736018674
-0.000658102517833
-0.0023283366724
-0.000667385989628
-0.00223857464476
-0.000674370437704
-0.00214835796577
-0.000679122059942
-0.00205796178905
-0.000681707807546
-0.00196765269476
-0.000682195214974
-0.00187768885708
-0.000680652318736
-0.00178832023481
-0.000677147672414
-0.00169978877808
-0.000671750475141
-0.00161232863243
-0.000664530830406
-0.00152616632426
-0.0006555601645
-0.00144152088742
-0.000644911830935
-0.00135860389443
-0.00063266193904
-0.00127761931537
-0.000618890434078
-0.00119876313527
-0.000603682459083
-0.00112222260361
-0.000587129998138
-0.00104817501574
-0.000569333778477
-0.0009767858681
-0.000550405338656
-0.000908206303492
-0.00053046910165
-0.000842569758228
-0.000509664168373
-0.00077998789117
-0.000488145436659
-0.000720546003444
-0.000466083516941
-0.000664298433787
-0.00044366287676
-0.000611264665379
-0.000421077688475
-0.00056142707812
-0.000398525182459
-0.000514731318385
-0.000376196817944
-0.000471089867457
-0.000354268459345
-0.000430388677826
-0.00033289146637
-0.000392495675846
-0.000312186996559
-0.000357269174214
-0.000292245102848
-0.000324564439681
-0.000273128215347
-0.000294237617279
-0.000254877100661
-0.000266147451541
-0.000237516757622
-0.000240155642093
-0.000221061076659
-0.000216126405646
-0.000205516302856
-0.000193925318858
-0.000190883919015
-0.000173417318415
-0.000177163187202
-0.000154463838253
-0.000164353218389
-0.000136919218986
-0.000152454417747
-0.000120626605957
-0.000141469610776
-0.000105413098988
-0.000131406425194
-9.10837066429e-05
-0.000122283419363
-7.7414543824e-05
-0.000114143232473
-6.41533231655e-05
-0.000107079674775
-5.10344461147e-05
-0.000101279138273
-3.83269965155e-05
-9.71803706689e-05
-2.75769654531e-05
-9.52019153499e-05
-1.88193695367e-05
-9.4519759817e-05
-1.15185496006e-05
-9.43737243933e-05
-4.6453718986e-06
-9.41710618746e-05
-9.07480991454e-05
-0.000249413608089
0.00196542552518
-0.000511598676905
0.00206991034023
-0.000769827967767
0.00204613275072
-0.00102159116442
0.00200569496913
-0.00126503484784
0.00195300489855
-0.00149859251664
0.00188943962262
-0.00172099592535
0.00181643616008
-0.00193127745381
0.00173550355699
-0.00212875525415
0.00164815148768
-0.002313005284
0.00155582846686
-0.00248382513915
0.00145987547667
-0.00264119431853
0.0013614956843
-0.00278523477166
0.00126173904336
-0.00291617455052
0.00116149936737
-0.00303431632397
0.00106152089715
-0.00314001157595
0.000962411330589
-0.00323364057384
0.000864658592399
-0.003315597694
0.000768649123123
-0.00338628139826
0.000674686033556
-0.00344608803382
0.00058300599848
-0.00349540861751
0.000493794209584
-0.00353462782724
0.000407197042781
-0.00356412451087
0.000323332339789
-0.00358427312649
0.000242297366122
-0.00359544562539
0.00016417462577
-0.00359801339097
8.90357880325e-05
-0.00359234897241
1.69440722633e-05
-0.00357882724325