/*--------------------------------*- C++ -*----------------------------------*\
| =========                 |                                                 |
| \\      /  F ield         | OpenFOAM: The Open Source CFD Toolbox           |
|  \\    /   O peration     | Version:  v1906                                 |
|   \\  /    A nd           | Web:      www.OpenFOAM.com                      |
|    \\/     M anipulation  |                                                 |
\*---------------------------------------------------------------------------*/
FoamFile
{
    version     2.0;
    format      ascii;
    class       surfaceScalarField;
    location    "553";
    object      phia;
}
// * * * * * * * * * * * * * * * * * * * * * * * * * * * * * * * * * * * * * //

dimensions      [0 3 -1 0 0 0 0];
oriented        oriented;


internalField   nonuniform List<scalar> 
18240
(
0.00134750497147
-0.00134731896424
0.00282275041852
-0.00147502661231
0.00429692343099
-0.00147398295213
0.00575238202112
-0.00145523413829
0.00718105276456
-0.0014284888639
0.00857625847926
-0.0013949773231
0.00993186175023
-0.00135543008446
0.011242496963
-0.00131040388962
0.0125031772429
-0.00126051632507
0.0137097337397
-0.00120632332011
0.0148583594011
-0.00114847161184
0.0159461154605
-0.00108752208604
0.0169703804606
-0.00102412127093
0.0179294116226
-0.000958797429952
0.0188217039253
-0.000892159390979
0.0196466070314
-0.000824670617318
0.0204036044965
-0.000756875587864
0.0210929884349
-0.000689153677822
0.0217150702534
-0.000621971308931
0.0222709143228
-0.000555616971477
0.0227614903491
-0.00049047691698
0.0231884654604
-0.000426752075107
0.0235533073667
-0.000364754364193
0.0238581319881
-0.000304606473574
0.0241047641894
-0.000246556077429
0.0242956360605
-0.000190659385936
0.0244328112387
-0.000137110477034
0.0245189276586
-8.59102827268e-05
0.0245561902885
-3.72090378521e-05
0.0245473522555
9.03719913164e-06
0.0244946833247
5.27115515046e-05
0.0244009750051
9.38999815608e-05
0.02426848086
0.000132526240774
0.0240999616353
0.000168702896403
0.023897615211
0.000202368245913
0.0236641306875
0.000233659813984
0.0234016047954
0.000262537991748
0.0231126111507
0.000289160222349
0.0227991113991
0.000313502475644
0.0224635324673
0.000335736553544
0.0221076765603
0.000355849881951
0.0217338010263
0.000374024007425
0.0213435322004
0.000390254460188
0.0209389428598
0.000404728551032
0.0205214740706
0.00041744674892
0.0200930056105
0.000428598332672
0.0196547903876
0.000438185950465
0.0192085134304
0.00044639748257
0.0187552425151
0.000453235088443
0.0182964716539
0.000458882058651
0.0178330918733
0.000463337854331
0.0173664152813
0.000466778533897
0.0168971689857
0.000469198938038
0.0164264960981
0.000470765663688
0.0159549760456
0.000471467715602
0.0154835989903
0.000471460795367
0.0150128149186
0.000470727398373
0.0145434782365
0.000469411521565
0.0140759283383
0.000467489324931
0.0136109012898
0.000465093148509
0.0131486438741
0.000462193544545
0.0126897895997
0.00045891178776
0.0122345086191
0.000455214218062
0.011783345481
0.000451212225802
0.0113364067841
0.000446869587088
0.0108941584149
0.00044228916938
0.0104566532359
0.000437434083523
0.0100242857049
0.000432400176258
0.0095970614688
0.000427151630303
0.00917530751979
0.000421778544985
0.00875898596543
0.000416247761311
0.00834835794422
0.000410644676952
0.00794334346657
0.000404939935898
0.00754413747284
0.000399214822169
0.00715061795244
0.000393444584081
0.0067629125021
0.000387706614889
0.0063808565899
0.000381981083986
0.00600450904914
0.000376341266416
0.00563366258032
0.000370772248704
0.0052683065356
0.000365342650926
0.00490819147456
0.000360042101431
0.00455323764819
0.000354933695083
0.00420315561025
0.000350010962161
0.00385779882218
0.000345330273847
0.00351684225998
0.000340887882012
0.00318007813574
0.000336731348402
0.00284715532055
0.000332856657329
0.00251781971851
0.000329296471763
0.00219172229625
0.000326033837742
0.00186862136544
0.000323056306195
0.00154830458746
0.000320257178251
0.00123087594879
0.000317380639456
0.00091713641965
0.000313687698467
0.000610461045485
0.00030662675233
0.000323834022589
0.000286567776285
0.000323801821653
0.00148972821758
-0.00283684416356
0.00315270079763
-0.0031377763867
0.00480657163764
-0.00312763975914
0.00643665794683
-0.00308509735158
0.00803551379266
-0.00302713407856
0.00959622517572
-0.00295546654618
0.0111121699571
-0.00287116851707
0.0125773290174
-0.00277534252074
0.0139862169431
-0.00266920308464
0.0153340982615
-0.00255398688466
0.0166168220526
-0.0024310002081
0.0178310280572
-0.00230151392413
0.0189739204844
-0.00216682526092
0.0200434778213
-0.00202814505413
0.0210381770246
-0.00188667754893
0.0219572139227
-0.00174350305953
0.0228001876933
-0.00159967634982
0.0235673381634
-0.00145610570815
0.0242592000833
-0.00131366875025
0.0248768624473
-0.00117308759904
0.0254216007462
-0.00103505976752
0.0258951614714
-0.000900128398156
0.0262993784645
-0.000768825276885
0.0266364832366
-0.000641534722773
0.0269087092028
-0.000518645669779
0.0271186262127
-0.000400408230463
0.0272687346999
-0.000287092470728
0.0273618213326
-0.000178837492757
0.0274005441187
-7.58153844415e-05
0.0273878052049
2.19264738583e-05
0.0273263254439
0.000114297678497
0.027219039062
0.000201327431566
0.0270686715987
0.000282989962825
0.0268781304642
0.000359375626047
0.0266500702302
0.00043051474584
0.026387304549
0.000496547528902
0.0260923719347
0.000557546982368
0.0257679523766
0.000613692220206
0.0254164320503
0.000665089523595
0.0250403243051
0.000711947185643
0.0246418355041
0.000754395961681
0.0242232883018
0.000792664628985
0.0237866903849
0.000826900536914
0.0233341579499
0.000857345082537
0.0228674889588
0.000884155072296
0.0223885849247
0.000907577317175
0.0218990303002
0.000927771464047
0.0214005107555
0.000944983054297
0.0208944001135
0.00095936852115
0.0203821734344
0.00097116608383
0.0198650028379
0.000980523563376
0.0193441637027
0.000987666610357
0.0188206404459
0.000992730005004
0.018295524217
0.000995922714187
0.0177696296082
0.000997363267303
0.0172438822034
0.000997241209316
0.0167189469556
0.000995657109678
0.0161956040509
0.00099277992926
0.0156743896723
0.000988692117931
0.015155958693
0.000983542440127
0.0146407384195
0.000977396563541
0.0141292768046
0.000970384826703
0.0136219098654
0.00096255863692
0.0131190942352
0.000954032688667
0.012621088923
0.000944847461631
0.0121282712408
0.000935105363709
0.0116408337356
0.000924839586769
0.0111590826617
0.000914143695496
0.0106831509147
0.000903047112232
0.0102132783939
0.000891637671051
0.00974954191317
0.000879944017091
0.00929211687143
0.000868050705409
0.00884102507146
0.000855987835616
0.00839637720435
0.000843838287082
0.00795813959359
0.000831634943087
0.00752635699148
0.00081945970281
0.00710093917059
0.000807348676292
0.00668186354034
0.000795382617864
0.00626898254683
0.00078360049974
0.00586220556412
0.000772081032514
0.0054613279447
0.000760865019453
0.00506619162124
0.00075002760906
0.00467653668219
0.000739609818762
0.00429214010096
0.000729681110166
0.00391269061753
0.000720280332367
0.00353790509297
0.000711467990262
0.0031674274155
0.000703276398034
0.00280092163893
0.000695750199711
0.00243799301271
0.000688903669703
0.00207824913592
0.000682745424695
0.0017212125996
0.000677236651221
0.0013662447724
0.000672294472721
0.00101212469121
0.000667752044295
0.000655381394401
0.000663316467272
0.000285762212418
0.000656134169739
0.000609537053375
0.00151604251258
-0.00435268034716
0.00320029607602
-0.00482180948311
0.00487791633617
-0.00480504028499
0.00653163025349
-0.00473859041872
0.00815326910441
-0.00464855566677
0.00973557414241
-0.00453755271988
0.011271771706
-0.00440715207698
0.0127556927564
-0.00425904763103
0.0141817915474
-0.00409509192974
0.0155452410617
-0.00391722431136
0.0168418949033
-0.00372744905581
0.0180683528324
-0.00352776449013
0.0192218808663
-0.00332015402762
0.0203004586523
-0.00310652102032
0.0213026687145
-0.00288869485284
0.0222277347723
-0.00266837358691
0.0230753897964
-0.00244714576675
0.0238459135694
-0.00222644093779
0.0245399885011
-0.00200756588273
0.0251587433979
-0.00179166155579
0.0257036041793
-0.00157975105631
0.0261763487011
-0.00137270014145
0.0265789572362
-0.00117127313591
0.0269136804068
-0.000976093739388
0.0271828913857
-0.000787705125532
0.0273891664965
-0.000606528211264
0.0275351392411
-0.000432923193051
0.0276235916132
-0.000267144056536
0.0276573090735
-0.000109400493712
0.0276391805177
4.01912766971e-05
0.0275720541579
0.000181546524717
0.0274588439908
0.000314664138141
0.0273023874087
0.000439559137587
0.0271055574552
0.000556322309571
0.0268711198794
0.00066505496963
0.0266018510017
0.000765923329296
0.0263003962516
0.00085909455456
0.0259693922725
0.000944793360129
0.0256113271083
0.00102323776369
0.0252286653187
0.00109469649953
0.0248237100342
0.00115942480675
0.0243987302682
0.00121772243832
0.0239558253133
0.00126986971722
0.0234970534578
0.00131618572219
0.0230242990112
0.00135696472358
0.0225394017912
0.00139253430081
0.0220440272879
0.00142319240477
0.021539796269
0.00144926510761
0.021028158339
0.0014710444922
0.0205105210773
0.00148884594638
0.019988127367
0.00150294722079
0.0194621833694
0.0015136451112
0.0189337396728
0.00152119595776
0.0184038174118
0.00152587171079
0.0178732933625
0.00152790221175
0.0173430233937
0.00152753050506
0.0168137313473
0.00152495710433
0.0162861290583
0.00152039447979
0.0157608090032
0.00151401351182
0.0152383600944
0.00150599690515
0.0147192639181
0.00149648787223
0.0142040056629
0.0014856422661
0.0136929740125
0.00147357953442
0.0131865666365
0.00146043321211
0.0126850937491
0.00144630407691
0.0121888778008
0.00143130871924
0.0116981609977
0.00141553487929
0.0112131989192
0.00139908772808
0.0107341722633
0.00138204733001
0.0102612742954
0.00136451238829
0.00979462731616
0.00134655987058
0.0093343638778
0.00132828593976
0.00888054839577
0.00130976778933
0.00843325216749
0.00129110160737
0.0079924806865
0.00127236676358
0.00755824245011
0.00125366063293
0.00713048241272
0.00123506528715
0.00670914459269
0.00121667910113
0.00629411216029
0.00119858616072
0.00588526376144
0.0011808845374
0.00548242059398
0.00116365861041
0.00508539635218
0.00114700393906
0.00469395164568
0.00113100269356
0.00430783735723
0.00111574497237
0.00392675656014
0.00110130744628
0.00355040092503
0.0010877708905
0.00317841986025
0.00107520196836
0.00281044837215
0.00106366654426
0.00244608032373
0.00105321459133
0.00208487952083
0.00104388968527
0.00172633792314
0.00103572067416
0.00136983384923
0.00102874329312
0.00101450698073
0.00102302579316
0.000659171737338
0.00101859532558
0.000304211358303
0.0010110383107
0.000913722399438
0.00153937719587
-0.00589184949842
0.00324665492195
-0.0065288640878
0.00494742535978
-0.00650558887923
0.00662361066673
-0.00641455375957
0.00826657787933
-0.00629130291082
0.00986873824295
-0.00613949364782
0.0114231020421
-0.00596129881951
0.012923334968
-0.00575906438328
0.0143637982741
-0.00553534203116
0.0157396001715
-0.0052928141858
0.0170465944512
-0.00503423486
0.0182813966817
-0.00476235971544
0.0194413469407
-0.00447990139691
0.0205245005018
-0.0041894734068
0.0215295652049
-0.00389356300057
0.0224558768877
-0.00359449067054
0.0233033216962
-0.00329440108319
0.0240723058139
-0.00299523771847
0.0247636719508
-0.00269875020637
0.0253786714602
-0.00240648160037
0.0259188824011
-0.00211978845109
0.0263861897275
-0.00183983641584
0.0267827093812
-0.00156762797215
0.0271107789513
-0.00130400112277
0.0273728889772
-0.0010496594893
0.0275716834587
-0.000805169747907
0.0277098970948
-0.000570990617406
0.0277903634287
-0.000347466972249
0.0278159561565
-0.000134856719116
0.0277896029375
6.66781706445e-05
0.0277142298251
0.000257046289616
0.0275927784099
0.000436239351294
0.0274281537684
0.000604300460383
0.027223245939
0.000761343983311
0.0269808796681
0.000907527960537
0.0267038399934
0.00104306691447
0.0263948238628
0.00116820748053
0.0260564690669
0.00128324220847
0.0256913082135
0.00138848562996
0.0253018002323
0.00148428881675
0.0248902864961
0.00157101592554
0.0244590244364
0.00164905930236
0.0240101457292
0.00171881641849
0.023545691658
0.00178070530285
0.0230675733932
0.00183514183428
0.0225776088625
0.00188255531225
0.0220774851795
0.00192336609896
0.0215687967816
0.00195800126176
0.0210530100568
0.00198687269526
0.0205315025103
0.00201039284555
0.0200055295506
0.00202895348451
0.0194762643331
0.00204294162407
0.0189447665602
0.0020527191995
0.0184120225743
0.00205863928683
0.0178789159008
0.0020610269005
0.0173462670398
0.00206019561759
0.0168148053951
0.00205642966568
0.0162852081982
0.00205000095192
0.0157580734305
0.00204115248075
0.0152339573014
0.0020301156983
0.0147133478126
0.00201709519614
0.0141967003195
0.00200228616103
0.0136844114852
0.00198586019797
0.0131768525584
0.00196798261639
0.0126743436013
0.00194879917435
0.0121771842983
0.00192845288458
0.0116856284939
0.00190707144661
0.0111999124759
0.00188478328049
0.0107202299932
0.00186170546488
0.0102467581035
0.00183795874209
0.00977963295334
0.00181365582364
0.00931897334558
0.00178891519072
0.00886485761452
0.00176384972037
0.00841734512733
0.00173857917311
0.00797645461534
0.00171321915573
0.00754218380218
0.00168789226281
0.00711448952019
0.00166271746421
0.00669330563884
0.00163781991172
0.0062785252639
0.00161332087383
0.00587001706625
0.0015893462505
0.00546760977855
0.00156601720002
0.00507110696087
0.0015434574067
0.00468027393377
0.00152178453883
0.00429485089904
0.00150111629638
0.00391454225998
0.00148156281523
0.0035390277781
0.00146323150806
0.00316795381998
0.00144622057724
0.00280094143137
0.00143062290064
0.00243757736799
0.0014165213275
0.00207741542174
0.00140399387726
0.00171996365367
0.00139311603117
0.00136467590984
0.00138397546559
0.00101095901267
0.00137668542399
0.000658394930342
0.00137110433293
0.000308804605534
0.00136057360928
0.00122249865748
0.00156933317386
-0.00746097223002
0.00330846876342
-0.00826777631292
0.00504050678096
-0.0082374021258
0.00674673611463
-0.00812055949431
0.00841808306685
-0.00796242733812
0.0100465864073
-0.00776777577066
0.0116249710666
-0.00753946397544
0.0131466905393
-0.00728056597645
0.0146059724408
-0.00699440827378
0.0159978527316
-0.00668448086121
0.0173181804433
-0.00635435166148
0.0185636133429
-0.00600758414946
0.019731587162
-0.00564766989067
0.0208202827189
-0.00527796646861
0.0218285710782
-0.00490165242004
0.0227559635988
-0.00452168742359
0.0236025442827
-0.00414078991994
0.0243689134573
-0.0037614185417
0.0250561174809
-0.00338577014255
0.0256655952388
-0.00301577903913
0.0261991132603
-0.00265313070414
0.0266587214513
-0.00229927285618
0.0270466982444
-0.00195543782599
0.0273655179427
-0.00162265809227
0.0276178062488
-0.00130179007755
0.0278063177095
-0.000993527870155
0.0279338990183
-0.000698423770992
0.0280034732959
-0.000416897583132
0.0280180081123
-0.000149253165261
0.0279805041071
0.00010431596319
0.0278939663094
0.000343712486421
0.0277613948765
0.000568934558149
0.0275857612238
0.000780052455429
0.0273700016857
0.000977217216971
0.0271169951134
0.00116064278832
0.0268295612838
0.00133060438998
0.0265104406163
0.0014874263973
0.0261622955342
0.00163148097846
0.0257876927013
0.00176317681197
0.0253891067954
0.00188295860393
0.0249689048568
0.00199129650917
0.0245293521042
0.00208868633004
0.0240725982246
0.00217563944755
0.0236006850132
0.00225268342978
0.0231155345073
0.00232035227751
0.0226189583581
0.00237918729864
0.022112647843
0.00242972762218
0.0215981848911
0.00247251128607
0.0210770339293
0.00250806607849
0.0205505544526
0.002536910964
0.0200199946388
0.00255954746359
0.0194865052251
0.00257646160305
0.0189511346282
0.00258811608121
0.0184148437699
0.00259495299686
0.0178785023542
0.00259738707579
0.0173429041377
0.00259580934456
0.0168087638576
0.0025905815673
0.0162767323915
0.0025820409577
0.0157473938493
0.00257049586504
0.0152212800605
0.00255623142474
0.0146988673387
0.00253950635664
0.0141805898411
0.00252055934872
0.0136668356838
0.00249960672745
0.0131579588487
0.00247684923318
0.0126542744404
0.0024524702265
0.0121560690068
0.00242664250244
0.0116635949537
0.0023995267046
0.0111770792959
0.00237127781077
0.0106967173554
0.00234204345209
0.0102226801164
0.00231196979763
0.00975510749226
0.00228119957716
0.00929411452813
0.00224987716011
0.00883978454502
0.002218146169
0.0083921744874
0.00218615367609
0.00795130830157
0.00215404740772
0.00751718169775
0.0021219790491
0.00708975605667
0.00209010110903
0.006668962846
0.00205856941198
0.00625469832255
0.00202753975465
0.00584682775684
0.0019971696845
0.00544518109044
0.00196761509834
0.00504955705377
0.00193903143817
0.00465971985635
0.00191157039162
0.00427540315785
0.00188538062438
0.00389630769543
0.00186060474562
0.00352210491688
0.00183737975494
0.00315243526163
0.00181583454672
0.00278691083846
0.00179609049632
0.00242511405258
0.00177826053137
0.00206659887027
0.00176245124503
0.00171089023971
0.00174876608368
0.00135749482925
0.00173731443163
0.00100593107645
0.00172819566114
0.000655911013284
0.00172106612144
0.000309171383768
0.00170725468486
0.00153164336276
0.00160720986211
-0.00906796956592
0.00338752821966
-0.0100478668323
0.00515979717153
-0.0100094442556
0.00690453487952
-0.00986507072088
0.00861214479043
-0.0096698122441
0.0102742215785
-0.0094296287899
0.011883136354
-0.00914815667296
0.0134320823073
-0.0088292916003
0.0149151212792
-0.0084772290518
0.016327209519
-0.00809635311543
0.0176641975916
-0.00769112634655
0.0189228128456
-0.00726598865715
0.0201006217317
-0.00682527107458
0.021195981806
-0.00637312187381
0.0222079798433
-0.00591344923567
0.0231363665061
-0.00544987626429
0.0239814828687
-0.00498571228539
0.0247441897363
-0.00452393513542
0.0254257939264
-0.00406718821211
0.0260279827106
-0.00361778571987
0.0265527591086
-0.00317772944878
0.0270023888456
-0.00274872920216
0.0273793496702
-0.0023322299517
0.0276862930128
-0.00192943721058
0.0279260067319
-0.00154134447244
0.0281013884317
-0.00116875488203
0.0282154170653
-0.000812302768778
0.028271132832
-0.000472468477984
0.0282716131299
-0.000149593762432
0.0282199556579
0.000156108282981
0.0281192571431
0.000444540605817
0.027972597889
0.000715718502628
0.0277830247465
0.000969744992895
0.027553538559
0.00120681787557
0.0272870787076
0.00142721182968
0.0269865150234
0.00163127236319
0.0266546349627
0.0018194055052
0.0262941383614
0.00199207178719
0.025907627129
0.00214977709069
0.0254976022799
0.00229306774045
0.0250664556905
0.00242252232344
0.0246164690306
0.0025387475682
0.0241498073441
0.00264237078223
0.0236685197238
0.00273403617712
0.0231745346816
0.00281439765977
0.0226696625607
0.00288411538772
0.0221555927316
0.00294384880129
0.0216338977611
0.00299425339057
0.0211060324678
0.0030359740601
0.0205733398154
0.00306964226102
0.0200370517412
0.00309586992718
0.0194982965903
0.00311524727295
0.0189581014729
0.0031283376506
0.0184174008835
0.00313567635158
0.0178770401491
0.00313776670816
0.0173377847054
0.00313508017941
0.0168003240731
0.00312805391643
0.0162652811818
0.00311709224327
0.0157332162593
0.0031025657052
0.015204635592
0.00308481386272
0.0146799947794
0.00306414564929
0.0141597064327
0.00304084320141
0.0136441423811
0.00301516317701
0.0131336399779
0.00298734121819
0.0126285030453
0.00295759379757
0.0121290066675
0.00292612285042
0.0116353968598
0.00289311769316
0.0111478939197
0.00285875939296
0.0106666909873
0.00282322237146
0.0101919561872
0.00278667816514
0.00972383037253
0.00274929643139
0.00926242837971
0.00271124788467
0.00880783631333
0.00267270456288
0.00836011227538
0.00263384185589
0.00791928355139
0.00259483801178
0.0074853471473
0.00255587529438
0.00705826719514
0.00251713881516
0.00663797557643
0.00247881693633
0.00622436979589
0.00244109957803
0.00581731388183
0.00240417803438
0.00541663688508
0.00236824293969
0.00502213415368
0.00233348368333
0.00463356651237
0.00230008623056
0.0042506619055
0.00226823232888
0.00387311519647
0.00223809739808
0.00350059008215
0.00220984975624
0.00313271942059
0.002183648898
0.00276910741189
0.00215964518728
0.00240933050771
0.00213797898645
0.00205294060319
0.00211878203681
0.00169947059713
0.00210217879272
0.00134844263304
0.00208828565422
0.000999394162488
0.0020771850269
0.0006520195607
0.00206838444973
0.000307870902114
0.00205134696217
0.00183948490235
0.00165383671788
-0.0107215904677
0.00348511355994
-0.0118789148612
0.00530711017997
-0.0118312103478
0.00709934296113
-0.0116570743654
0.00885156268255
-0.0114218037697
0.0105548207585
-0.0111326601927
0.0122010598814
-0.0107941707097
0.013783163658
-0.0104111721696
0.0152950026947
-0.00998884696581
0.0167314520132
-0.00953258365492
0.0180883813292
-0.00904783943538
0.0193626233927
-0.00854001729371
0.0205519236106
-0.00801436084486
0.0216548762119
-0.00747586725695
0.0226708495126
-0.00692921869511
0.0235999049944
-0.00637873152411
0.0244427122611
-0.00582832306296
0.0252004643551
-0.00528149471432
0.025874795219
-0.00474133061616
0.0264677034063
-0.00421050972919
0.0269814830017
-0.00369132919669
0.0274186646102
-0.00318573551329
0.0277819655626
-0.00269536017533
0.028074250191
-0.00222155587885
0.0282984973155
-0.00176543039405
0.0284577744026
-0.00132787571346
0.0285552148564
-0.000909591875382
0.0285939982026
-0.000511105551045
0.0285773305189
-0.000132784819478
0.0285084260808
0.000225148807203
0.0283904891588
0.000562608522571
0.0282266983306
0.0008796350921
0.0280201881879
0.00117637576551
0.0277740379949
0.00145308345211
0.0274912578113
0.00171010227491
0.0271747783444
0.00194785688089
0.0268274413948
0.00216684243329
0.0264519924943
0.0023676155185
0.0260510738078
0.00255078560942
0.0256272189252
0.0027170074055
0.02518284764
0.00286697349854
0.0247202624845
0.00300140768258
0.0242416451586
0.00312105829816
0.0237490547214
0.00322669201913
0.0232444256851
0.00331908748039
0.0227295679538
0.00339902927686
0.0222061667166
0.0034673017343
0.0216757842599
0.00352468309426
0.0211398617548
0.00357193952558
0.0205997229913
0.00360981971896
0.0200565780387
0.00363904946664
0.0195115287639
0.00366032706288
0.0189655741094
0.00367431890199
0.0184196170228
0.00368165615688
0.0178744708759
0.00368293184312
0.0173308672157
0.00367869914848
0.0167894626586
0.00366947024393
0.0162508467554
0.00365571643061
0.0157155486533
0.00363786873853
0.0151840443722
0.00361631978127
0.0146567625823
0.00359142590684
0.0141340907219
0.00356351041588
0.0136163794274
0.00353286682574
0.0131039471289
0.00349976292942
0.0125970828896
0.00346444460959
0.0120960493644
0.00342714015983
0.0116010840624
0.00338806408032
0.0111124007792
0.00334742111211
0.0106301894916
0.00330540952391
0.0101546165559
0.00326222443738
0.00968582359919
0.00321806026826
0.00922392687394
0.0031731130777
0.00876901556392
0.00312758200131
0.00832115071504
0.00308167054055
0.00788036337755
0.0030355869781
0.00744665349201
0.00298954466264
0.00701998822098
0.00294376153135
0.00660030109534
0.00289845954747
0.00618749080862
0.00285386353168
0.00578142082715
0.00281019996357
0.00538191880885
0.00276769535718
0.00498877678214
0.00272657466551
0.0046017512481
0.00268705944597
0.00422056394109
0.00264936610757
0.00384490257533
0.00261370411391
0.00347442218273
0.00258027434193
0.00310874654196
0.00254926759963
0.00274747010107
0.00252086338983
0.00239016087585
0.00249522929263
0.00203636368159
0.00247252009216
0.00168560469577
0.00245287752435
0.00133740253507
0.00243642986393
0.000991282725815
0.00242325047633
0.000646883833957
0.0024127232151
0.000305630378291
0.00239253991773
0.0021450880341
0.00171002614437
-0.012431398097
0.00360277006899
-0.0137714244022
0.00548468454889
-0.0137128915707
0.00733403036778
-0.0135061872628
0.0091397450596
-0.0132272870495
0.0108922206996
-0.0128849057357
0.0125828893668
-0.0124846109947
0.0142042768246
-0.0120323331053
0.0157500439024
-0.0115343896892
0.0172149930354
-0.0109973107848
0.0185950436174
-0.0104276706643
0.0198871831222
-0.00983194025557
0.0210893987179
-0.00921636300766
0.0222005952186
-0.00858685355492
0.0232205024921
-0.00794891929637
0.0241495772347
-0.0073076032094
0.0249889014327
-0.00666744811736
0.0257400824647
-0.00603248055973
0.0264051570379
-0.0054062142524
0.0269865039675
-0.00479166998079
0.0274867671251
-0.0041914102198
0.0279087921741
-0.00360758294173
0.0282555758546
-0.00304197102287
0.0285302286122
-0.00249604053128
0.0287359462807
-0.00197098494696
0.0288759895698
-0.00146776078199
0.0289536661451
-0.000987115371915
0.0289723148271
-0.000529606176007
0.0289352883937
-9.56155821292e-05
0.0288459367504
0.000314638139677
0.0287075866188
0.000701091012105
0.0285235309057
0.00106381798443
0.0282970069349
0.00140302154158
0.0280311849583
0.00171902205004
0.0277291555912
0.00201224290903
0.0273939202615
0.00228319832709
0.0270283822491
0.00253248126095
0.0266353401632
0.00276075333768
0.0262174814099
0.00296873488335
0.0257773776116
0.00315719673697
0.0253174797242
0.00332695182052
0.0248401149224
0.00347884805422
0.0243474831672
0.00361376066662
0.0238416555564
0.0037325855202
0.0233245724857
0.00383623164396
0.0227980436777
0.00392561461646
0.0222637481846
0.00400164913984
0.021723236343
0.00406524245964
0.0211779318404
0.00411728711994
0.0206291357444
0.00415865470251
0.0200780306795
0.00419018918504
0.0195256868445
0.00421270153586
0.0189730680655
0.00422696428448
0.0184210394067
0.00423370759783
0.0178703745469
0.00423361565474
0.0173217643034
0.00422732471517
0.016775824559
0.00421542168203
0.0162331048617
0.00419844438558
0.0156940960488
0.00417688237875
0.0151592380972
0.00415117930983
0.0146289266842
0.00412173565638
0.0141035196239
0.00408891274077
0.0135833418194
0.004053036835
0.0130686898804
0.00401440416581
0.0125598352093
0.00397328568194
0.0120570266947
0.00392993231829
0.0115604919631
0.00388457970687
0.0110704383159
0.00383745302806
0.0105870524257
0.00378877106154
0.0101104998911
0.00373875011007
0.00964092381377
0.00368760697695
0.00917844345728
0.00363556166509
0.00872315220441
0.00358283908941
0.00827511582382
0.00352967047259
0.00783437028237
0.00347629380155
0.00740092006549
0.0034229540199
0.00697473623845
0.00336990238884
0.00655575516644
0.00331739569548
0.0061438771089
0.00326569476596
0.00573896556603
0.00321506297057
0.00534084657348
0.0031657641764
0.00494930878654
0.00311806084722
0.00456410353026
0.00307221172757
0.00418494564206
0.00302846982645
0.00381151426152
0.00298708011329
0.00344345443211
0.00294827764787
0.00308037868648
0.00291228555961
0.00272186964374
0.00287931359234
0.00236748252734
0.00284955633489
0.00201674915596
0.00282319262438
0.00166918392239
0.0028003840803
0.00132428673294
0.00278126871825
0.000981554747952
0.00276592107775
0.000640587420783
0.00275363286338
0.000302718135721
0.00273035144366
0.00244777573564
0.00177672986512
-0.0142079053206
0.00374240898841
-0.0157368676056
0.00569532323864
-0.0156655680433
0.00761218351919
-0.0154228112371
0.00948093301847
-0.0150958012023
0.0112911713277
-0.014694910292
0.0130337335953
-0.0142269411533
0.0147007428797
-0.0136991122486
0.0162856423662
-0.0131190612019
0.0177831847062
-0.0124946276103
0.019189386647
-0.0118336497471
0.0205014571515
-0.0111437908486
0.0217177064088
-0.010432395461
0.0228374410222
-0.0097063747653
0.0238608501578
-0.00897211854956
0.0247888859429
-0.00823543292415
0.0256231423334
-0.00750150232783
0.0263657358232
-0.00677487604755
0.0270191930783
-0.00605947772305
0.0275863492604
-0.00535863687316
0.0280702618653
-0.00467513803207
0.0284741419374
-0.00401128298552
0.0288013042315
-0.00336895802189
0.0290551336402
-0.00274969963132
0.0292390649664
-0.0021547508875
0.02935656991
-0.00158510550492
0.0294111472953
-0.00104153760815
0.0294063117639
-0.000524620789342
0.0293455802522
-3.47393911838e-05
0.0292324551398
0.000427902538837
0.0290704041651
0.000863276014955
0.0288628490958
0.0012715016229
0.0286131437014
0.00165285021168
0.0283245611992
0.00200772236569
0.0280002831465
0.00233663350133
0.0276433899323
0.00264019866079
0.027256853672
0.0029191194241
0.0268435318534
0.00317417171482
0.0264061624871
0.00340619567865
0.0259473593723
0.00361608604519
0.0254696084749
0.00380478389892
0.0249752643084
0.00397326830111
0.024466547436
0.00412254874687
0.0239455421281
0.00425365709505
0.0234141952926
0.00436764003507
0.0228743157938
0.00446555090701
0.0223275752198
0.00454844196934
0.02177550927
0.0046173560932
0.0212195207226
0.00467331900265
0.0206608831759
0.00471733121284
0.0201007463741
0.00475036079564
0.0195401422871
0.00477333626675
0.0189799925763
0.00478714068365
0.0184211165824
0.00479260632286
0.017864240303
0.00479051090902
0.0173100054824
0.00478157476202
0.016758979167
0.00476645966639
0.0162116628897
0.00474576878721
0.01566850178
0.00472004824908
0.0151298928497
0.00468978965495
0.0145961927492
0.0046554339946
0.0140677243697
0.00461737619977
0.0135447826154
0.00457597066548
0.0130276388614
0.00453153701242
0.0125165444624
0.00448436632894
0.0120117329716
0.00443472722934
0.0115134214646
0.00438287192829
0.0110218107533
0.00432904176262
0.0105370848919
0.00427347236126
0.0100594098579
0.00421639800856
0.00958893179356
0.0041580554267
0.00912577474572
0.00409868663194
0.00867003824987
0.00403854112967
0.00822179472109
0.00397787718983
0.00778108694829
0.00391696250787
0.00734792564027
0.00385607403997
0.00692228728327
0.00379549735971
0.00650411221696
0.00373552533144
0.00609330317373
0.00367645649081
0.00568972411766
0.00361859289668
0.00529319964391
0.00356223789652
0.00490351468636
0.00350769351209
0.00452041483003
0.00345525794142
0.00414360689945
0.00340522280992
0.00377276014954
0.00335787072018
0.00340750774361
0.00331347266297
0.00304744886467
0.00327228584984
0.00269215101663
0.00323455144049
0.00234115367599
0.00320049299734
0.00199397139635
0.0031703140204
0.00165009705711
0.00314419603685
0.00130900957876
0.00312229630489
0.000970179710361
0.003104695309
0.000633160114515
0.00309059013843
0.000299222200268
0.00306422667365
0.00274696998346
0.00185510402213
-0.0160627834694
0.00390639899694
-0.017787920253
0.0059425013972
-0.0177014293001
0.00793823970997
-0.0174183087453
0.00988034961062