/*--------------------------------*- C++ -*----------------------------------*\
| =========                 |                                                 |
| \\      /  F ield         | OpenFOAM: The Open Source CFD Toolbox           |
|  \\    /   O peration     | Version:  v1906                                 |
|   \\  /    A nd           | Web:      www.OpenFOAM.com                      |
|    \\/     M anipulation  |                                                 |
\*---------------------------------------------------------------------------*/
FoamFile
{
    version     2.0;
    format      ascii;
    class       volVectorField;
    location    "345";
    object      U;
}
// * * * * * * * * * * * * * * * * * * * * * * * * * * * * * * * * * * * * * //

dimensions      [0 1 -1 0 0 0 0];


internalField   nonuniform List<vector> 
9216
(
(0.00271326478029 -0.00271566865388 0)
(0.00286077671772 -0.00876390723529 1.17095913721e-27)
(0.00285268152971 -0.0149064371285 1.84321012202e-31)
(0.0028154626024 -0.0210495513812 0)
(0.00276378977809 -0.0270900105031 0)
(0.00269911935079 -0.0330035996716 0)
(0.00262314400785 -0.0387645203794 0)
(0.00253720049358 -0.0443498405389 0)
(0.00244259801196 -0.0497394112098 0)
(0.00234059901902 -0.0549158727166 0)
(0.00223247874841 -0.0598646013251 0)
(0.00211942940456 -0.0645736645595 0)
(0.00200262103744 -0.0690336792038 0)
(0.00188309507644 -0.0732376749191 0)
(0.00176184982463 -0.0771808770626 0)
(0.00163972941673 -0.0808605212694 0)
(0.00151753545945 -0.0842756080362 0)
(0.00139590842079 -0.0874267125083 0)
(0.00127546280458 -0.0903157487441 0)
(0.00115665642403 -0.0929458047206 0)
(0.00103994633581 -0.0953209376611 0)
(0.000925641656512 -0.0974460478303 0)
(0.000814078143657 -0.099326711988 0)
(0.000705451485713 -0.100969097407 0)
(0.000600009802862 -0.10237983028 0)
(0.000497865330767 -0.103565943626 0)
(0.00039920493432 -0.104534772935 0)
(0.000304079323777 -0.105293929312 0)
(0.000212632851019 -0.10585121361 0)
(0.000124870743146 -0.106214607657 0)
(4.09115245261e-05 -0.10639219043 0)
(-3.92854085369e-05 -0.1063921887 0)
(-0.000115652827669 -0.106222810036 0)
(-0.000188264878044 -0.105892255572 0)
(-0.000257050048787 -0.10540874204 0)
(-0.000322110233507 -0.104780458832 0)
(-0.000383400376473 -0.10401551056 0)
(-0.000441054779566 -0.103121926753 0)
(-0.000495045877712 -0.102107598358 0)
(-0.000545535490714 -0.100980293168 0)
(-0.000592509540186 -0.0997475959595 0)
(-0.000636153506 -0.0984169278494 0)
(-0.000676462947434 -0.0969954909434 0)
(-0.000713642946766 -0.0954902921761 0)
(-0.000747694314185 -0.0939080928076 0)
(-0.000778837120031 -0.092255436361 0)
(-0.000807073150172 -0.0905386039039 0)
(-0.000832633012117 -0.088763646126 0)
(-0.000855515180654 -0.0869363441897 0)
(-0.000875956359396 -0.085062244764 0)
(-0.000893948195874 -0.0831466268624 0)
(-0.000909729823172 -0.0811945391172 0)
(-0.000923283129085 -0.0792107718304 0)
(-0.000934846539576 -0.0771998945317 0)
(-0.00094439056855 -0.0751662333044 0)
(-0.000952151000886 -0.0731139072955 0)
(-0.000958086323167 -0.0710468102686 0)
(-0.00096242850994 -0.0689686436243 0)
(-0.000965124884099 -0.0668829022806 0)
(-0.000966403653235 -0.0647929026728 0)
(-0.000966202719653 -0.0627017721558 0)
(-0.000964747066703 -0.0606124696413 0)
(-0.000961968084238 -0.0585277792001 0)
(-0.000958088753326 -0.056450322242 0)
(-0.000953037133307 -0.0543825552592 0)
(-0.000947035216488 -0.0523267719412 0)
(-0.000940011305934 -0.0502851065916 0)
(-0.000932187294724 -0.0482595259732 0)
(-0.000923494790248 -0.0462518390922 0)
(-0.000914155577792 -0.0442636781723 0)
(-0.000904107307782 -0.0422965168041 0)
(-0.000893570989165 -0.0403516407072 0)
(-0.000882492072825 -0.038430175071 0)
(-0.000871089027431 -0.0365330453073 0)
(-0.000859316272671 -0.0346610152184 0)
(-0.000847387331041 -0.0328146388923 0)
(-0.000835265813383 -0.0309943099119 0)
(-0.00082315711673 -0.0292002050428 0)
(-0.000811033795413 -0.0274323451759 0)
(-0.000799089630073 -0.0256905321262 0)
(-0.000787305154727 -0.02397442077 0)
(-0.000775858565621 -0.022283449921 0)
(-0.000764736791988 -0.0206169258512 0)
(-0.000754097662971 -0.0189739491897 0)
(-0.000743930771077 -0.0173535103814 0)
(-0.000734364896739 -0.015754417291 0)
(-0.000725379532989 -0.0141754096074 0)
(-0.000717045276462 -0.0126151071065 0)
(-0.000709267947504 -0.0110721831944 0)
(-0.00070190286845 -0.00954544070676 0)
(-0.00069438254193 -0.00803429895478 0)
(-0.000685316915304 -0.00653979598329 0)
(-0.000669988738418 -0.00507023810589 0)
(-0.000634729787515 -0.00361781978539 0)
(-0.000626661038914 -0.002135199255 0)
(-0.00106898679824 -0.00106876074489 0)
(0.00878386466926 -0.00289088031144 0)
(0.00971271092106 -0.0097829210638 0)
(0.00969052186997 -0.0166622711695 -1.22964185524e-27)
(0.00956128382012 -0.0235472307914 0)
(0.00938242400179 -0.030307832713 0)
(0.00916129381771 -0.0369223828362 0)
(0.00890230366369 -0.0433635014699 0)
(0.00860965460056 -0.0496059937427 0)
(0.0082876659288 -0.0556274959163 0)
(0.00794064257904 -0.0614087112124 0)
(0.00757288860975 -0.0669334316069 0)
(0.00718850521129 -0.0721884869066 0)
(0.00679143374489 -0.077163598355 0)
(0.0063852632607 -0.0818511992549 0)
(0.00597333490412 -0.0862461976211 0)
(0.00555856610782 -0.0903457404626 0)
(0.00514361434377 -0.0941489483277 0)
(0.00473070735645 -0.0976566772621 0)
(0.00432185503359 -0.100871269279 0)
(0.0039186710573 -0.103796345654 0)
(0.00352262124835 -0.10643659686 0)
(0.00313482364297 -0.108797621552 0)
(0.0027563246666 -0.110885762404 0)
(0.00238786860878 -0.112707990836 0)
(0.002030197245 -0.114271784045 0)
(0.00168378359172 -0.115585047474 0)
(0.00134915405739 -0.116656023069 0)
(0.00102658473113 -0.11749323854 0)
(0.000716447968429 -0.118105435784 0)
(0.000418871821778 -0.118501535419 0)
(0.000134115734061 -0.118690581424 0)
(-0.000137820653036 -0.118681675548 0)
(-0.000396798559682 -0.118484008434 0)
(-0.000642924946821 -0.118106837629 0)
(-0.000876123517063 -0.117559354819 0)
(-0.00109659626958 -0.116850713503 0)
(-0.00130435029559 -0.115989977851 0)
(-0.00149968036562 -0.114986111849 0)
(-0.00168266277057 -0.113847935718 0)
(-0.00185367352628 -0.112584116829 0)
(-0.00201284629054 -0.111203129503 0)
(-0.00216062588987 -0.109713250175 0)
(-0.0022971901379 -0.108122521931 0)
(-0.00242303863936 -0.106438754605 0)
(-0.00253837863471 -0.104669494765 0)
(-0.00264374920746 -0.102822031019 0)
(-0.00273937197094 -0.100903369844 0)
(-0.0028258102403 -0.098920245958 0)
(-0.00290328540308 -0.0968791039255 0)
(-0.00297237055507 -0.0947861130259 0)
(-0.00303327411335 -0.0926471543305 0)
(-0.00308656664443 -0.0904678390961 0)
(-0.00313243334371 -0.0882535005546 0)
(-0.00317143258547 -0.086009214526 0)
(-0.00320371972652 -0.0837397950524 0)
(-0.00322983491694 -0.0814498156501 0)
(-0.00324990082865 -0.0791436076277 0)
(-0.00326443688092 -0.0768252802372 0)
(-0.00327353445244 -0.0744987206929 0)
(-0.00327769344759 -0.0721676115254 0)
(-0.00327697880866 -0.0698354313082 0)
(-0.00327187480587 -0.0675054676865 0)
(-0.00326242778399 -0.0651808183781 0)
(-0.00324911221303 -0.0628643987803 0)
(-0.00323196503311 -0.0605589430533 0)
(-0.00321145696508 -0.0582670056363 0)
(-0.00318762508056 -0.0559909629714 0)
(-0.00316094163177 -0.0537330088707 0)
(-0.00313145200508 -0.0514951576224 0)
(-0.00309963299785 -0.0492792335248 0)
(-0.00306554451132 -0.0470868766767 0)
(-0.00302966828143 -0.0449195274577 0)
(-0.00299208202352 -0.0427784361118 0)
(-0.00295326964538 -0.0406646430221 0)
(-0.00291332732474 -0.038578993368 0)
(-0.00287273577412 -0.0365221142246 0)
(-0.00283160759933 -0.0344944350159 0)
(-0.00279041261779 -0.0324961622644 0)
(-0.00274927591455 -0.0305273065046 0)
(-0.00270864724303 -0.0285876555554 0)
(-0.00266865843805 -0.0266768079614 0)
(-0.00262972858319 -0.0247941454111 0)
(-0.00259198866791 -0.0229388728882 0)
(-0.00255581406692 -0.0211099911383 0)
(-0.00252132221712 -0.019306343599 0)
(-0.00248882240965 -0.017526590254 0)
(-0.0024583858549 -0.015769261888 0)
(-0.002430191636 -0.0140327357798 0)
(-0.00240413795951 -0.0123152879458 0)
(-0.00237999760775 -0.0106150340878 0)
(-0.00235687159049 -0.00892983844071 0)
(-0.00233266574392 -0.00725674001639 0)
(-0.00230201649798 -0.00559039479737 0)
(-0.00224904541162 -0.00390938027472 0)
(-0.00216873347424 -0.00216427225069 0)
(-0.00213265610216 -0.000624364919133 0)
(0.015037144052 -0.00293674272527 0)
(0.0166501448626 -0.00994367554337 0)
(0.0165897861041 -0.0169132281235 -1.22760064653e-27)
(0.0163591482967 -0.0238987976608 0)
(0.0160478979115 -0.0307563468211 0)
(0.0156658098482 -0.0374626703828 0)
(0.0152193923383 -0.043989351525 0)
(0.0147155768629 -0.0503106431674 0)
(0.0141616922271 -0.0564038595138 0)
(0.0135651877024 -0.0622495667901 0)
(0.0129334614312 -0.0678315884219 0)
(0.0122736313834 -0.0731369238918 0)
(0.0115924430861 -0.0781555811706 0)
(0.0108961081742 -0.0828803606134 0)
(0.0101902989697 -0.0873065958577 0)
(0.00948005020618 -0.091431884717 0)
(0.00876982736204 -0.0952558092652 0)
(0.00806347082281 -0.0987796726884 0)
(0.0073643147571 -0.102006245053 0)
(0.00667514873474 -0.104939540167 0)
(0.00599836449142 -0.107584609374 0)
(0.00533591393513 -0.109947370598 0)
(0.00468946725712 -0.112034454022 0)
(0.00406035345998 -0.113853080625 0)
(0.00344972069329 -0.115410952229 0)
(0.00285845251462 -0.116716168936 0)
(0.0022873276693 -0.117777151479 0)
(0.00173691071388 -0.118602585 0)
(0.00120771268471 -0.119201361471 0)
(0.000700057558948 -0.119582538632 0)
(0.000214245749903 -0.119755294733 0)
(-0.000249592967737 -0.119728895555 0)
(-0.000691325621105 -0.119512651117 0)
(-0.00111099483981 -0.1191158919 0)
(-0.00150863249289 -0.118547925226 0)
(-0.00188444000516 -0.117818011058 0)
(-0.00223858971934 -0.116935323918 0)
(-0.00257142626202 -0.115908929171 0)
(-0.00288325041355 -0.11474774959 0)
(-0.00317453394316 -0.113460544754 0)
(-0.00344568738833 -0.112055881306 0)
(-0.00369728889973 -0.110542116643 0)
(-0.0039298361442 -0.108927374108 0)
(-0.00414398946564 -0.107219531882 0)
(-0.00434030832271 -0.105426203669 0)
(-0.00451950912423 -0.103554733089 0)
(-0.00468218685067 -0.101612180296 0)
(-0.00482908777391 -0.0996053219451 0)
(-0.00496081702822 -0.0975406434443 0)
(-0.00507812631409 -0.0954243439215 0)
(-0.00518160836212 -0.093262333763 0)
(-0.00527199943052 -0.0910602438498 0)
(-0.00534986169507 -0.0888234273137 0)
(-0.00541590013339 -0.0865569717273 0)
(-0.0054706340487 -0.0842657041102 0)
(-0.00551472749384 -0.0819542047288 0)
(-0.00554865119021 -0.0796268137886 0)
(-0.00557302527437 -0.0772876451177 0)
(-0.00558827302512 -0.074940593374 0)
(-0.00559497410488 -0.072589346167 0)
(-0.00559351155249 -0.0702373903262 0)
(-0.00558443322818 -0.0678880210083 0)
(-0.00556809375701 -0.0655443463836 0)
(-0.00554502126188 -0.0632092929456 0)
(-0.00551555612424 -0.0608856080012 0)
(-0.00548021974669 -0.0585758607005 0)
(-0.00543935243535 -0.056282442751 0)
(-0.00539348050749 -0.0540075654802 0)
(-0.00534295597536 -0.051753259219 0)
(-0.00528831823457 -0.0495213669607 0)
(-0.00522993880213 -0.0473135436918 0)
(-0.00516837364635 -0.0451312477397 0)
(-0.00510401660224 -0.0429757410109 0)
(-0.0050374385393 -0.0408480790404 0)
(-0.00496905349978 -0.0387491134965 0)
(-0.00489944088093 -0.0366794820656 0)
(-0.00482902841999 -0.0346396139305 0)
(-0.00475839379701 -0.0326297202749 0)
(-0.00468796862343 -0.0306498035506 0)
(-0.00461831590087 -0.0286996492772 0)
(-0.00454985880604 -0.0267788392014 0)
(-0.00448313058323 -0.0248867446641 0)
(-0.00441853138881 -0.0230225437496 0)
(-0.00435654680927 -0.0211852162219 0)
(-0.00429753461678 -0.0193735637618 0)
(-0.00424190670806 -0.0175862051715 0)
(-0.00418994404567 -0.0158215962244 0)
(-0.00414193197089 -0.0140780162344 0)
(-0.00409799280607 -0.0123535654862 0)
(-0.00405815759419 -0.0106460905178 0)
(-0.00402221316476 -0.00895303024018 0)
(-0.00398979057172 -0.00727097973032 0)
(-0.00396058810308 -0.00559478719885 0)
(-0.00393495888899 -0.00391329027793 0)
(-0.00390941539732 -0.00223195520177 0)
(-0.00360788528684 -0.000629094841637 0)
(0.0214382316075 -0.00298202981375 0)
(0.0237561069973 -0.0100939115557 0)
(0.0236668864164 -0.0171588657985 1.22702994158e-27)
(0.0233328018507 -0.0242405524544 0)
(0.0228828057499 -0.0311888697503 0)
(0.0223313585852 -0.037979117787 0)
(0.0216879064723 -0.0445817027252 0)
(0.0209625380535 -0.0509701724584 0)
(0.0201659134089 -0.0571214897519 0)
(0.019308883918 -0.0630161676367 0)
(0.0184021771363 -0.0686382292993 0)
(0.0174561063907 -0.0739750763976 0)
(0.0164803776773 -0.0790172741644 0)
(0.0154839201166 -0.0837582838133 0)
(0.014474816886 -0.0881941606493 0)
(0.0134602426972 -0.0923232428774 0)
(0.0124464929559 -0.0961458422026 0)
(0.0114389940251 -0.0996639534967 0)
(0.010442393001 -0.102880986448 0)
(0.00946060287526 -0.105801529409 0)
(0.00849691821045 -0.108431141846 0)
(0.00755406471805 -0.110776180704 0)
(0.00663431625905 -0.112843652933 0)
(0.0057395297459 -0.114641096999 0)
(0.00487125029575 -0.116176483673 0)
(0.00403072293268 -0.117458138281 0)
(0.00321898204272 -0.118494674313 0)
(0.00243683924216 -0.11929494118 0)
(0.00168495946864 -0.119867976657 0)
(0.000963828741297 -0.120222968162 0)
(0.000273821612274 -0.120369212444 0)
(-0.000384841916015 -0.12031609401 0)
(-0.00101203041142 -0.120073024085 0)
(-0.00160776146876 -0.11964942743 0)
(-0.00217213327995 -0.119054708537 0)
(-0.00270538374469 -0.118298217504 0)
(-0.00320781791326 -0.11738921736 0)
(-0.0036798743028 -0.116336855569 0)
(-0.00412204548076 -0.115150133591 0)
(-0.00453494766458 -0.11383788172 0)
(-0.00491923452087 -0.112408732572 0)
(-0.00527567033961 -0.110871100442 0)
(-0.0056050374481 -0.109233159834 0)
(-0.00590821340131 -0.107502830223 0)
(-0.00618607260972 -0.105687760393 0)
(-0.00643956821071 -0.10379531912 0)
(-0.00666962870955 -0.101832585572 0)
(-0.00687724506757 -0.0998063458749 0)
(-0.00706336313053 -0.0977230893986 0)
(-0.00722897651156 -0.0955890108232 0)
(-0.00737501566589 -0.0934100116989 0)
(-0.00750244688866 -0.0911917071288 0)
(-0.00761215880263 -0.0889394316323 0)
(-0.00770506775373 -0.086658249292 0)
(-0.00778200249553 -0.084352962615 0)
(-0.00784381586608 -0.0820281246061 0)
(-0.00789126824411 -0.0796880490906 0)
(-0.00792514519421 -0.0773368231113 0)
(-0.00794614015711 -0.0749783171172 0)
(-0.00795497717461 -0.0726161960204 0)
(-0.00795229297285 -0.070253927792 0)
(-0.00793876360863 -0.0678947918624 0)
(-0.00791498601085 -0.06554188507 0)
(-0.00788160685957 -0.063198126481 0)
(-0.00783920350835 -0.0608662601586 0)
(-0.00778841335075 -0.0585488561599 0)
(-0.00772981423053 -0.0562483102678 0)
(-0.00766405233175 -0.0539668414782 0)
(-0.00759172236977 -0.0517064893647 0)
(-0.00751349232439 -0.0494691089404 0)
(-0.00742998415892 -0.0472563667968 0)
(-0.00734189377484 -0.0450697344892 0)
(-0.00724987333876 -0.0429104847072 0)
(-0.00715464525908 -0.0407796844517 0)
(-0.00705688761572 -0.0386781925101 0)
(-0.00695734103149 -0.0366066535381 0)
(-0.00685669885214 -0.0345654977986 0)
(-0.00675570607954 -0.0325549370057 0)
(-0.00665505605555 -0.0305749670307 0)
(-0.00655548053518 -0.0286253660204 0)
(-0.00645765444581 -0.0267057002811 0)
(-0.0063622762179 -0.0248153247669 0)
(-0.00626998189438 -0.0229533919449 0)
(-0.00618141444442 -0.02111885415 0)
(-0.0060971478385 -0.0193104741112 0)
(-0.0060177436431 -0.017526826959 0)
(-0.00594368501555 -0.0157663081579 0)
(-0.00587541951007 -0.0140271269186 0)
(-0.00581330687298 -0.0123072955078 0)
(-0.00575766347256 -0.0106045854609 0)
(-0.00570877517712 -0.00891645823732 0)
(-0.00566708457195 -0.00723992559905 0)
(-0.00563357315154 -0.00557144792227 0)
(-0.0056095236251 -0.00390555184754 0)
(-0.00557429907977 -0.00226526252823 0)
(-0.00504162368581 -0.000658518504272 0)
(0.027945998307 -0.00304149459469 0)
(0.0309706043232 -0.0102914308929 0)
(0.030849913172 -0.0174887363472 0)
(0.0304070451681 -0.0246996105406 0)
(0.0298110228149 -0.0317690983381 0)
(0.0290814398021 -0.0386707892592 0)
(0.0282311741545 -0.0453736571569 0)
(0.0272739029585 -0.051850335731 0)
(0.0262240028781 -0.0580773458062 0)
(0.0250960503308 -0.0640351779244 0)
(0.0239043765456 -0.0697081878153 0)
(0.0226626932642 -0.0750843920126 0)
(0.0213838198516 -0.0801551793315 0)
(0.020079486095 -0.0849149705972 0)
(0.0187602311446 -0.0893608524662 0)
(0.0174353582062 -0.0934922099403 0)
(0.0161129631833 -0.0973103736094 0)
(0.0147999891678 -0.100818295735 0)
(0.0135023293694 -0.104020261073 0)
(0.0122249275981 -0.106921637703 0)
(0.010971907085 -0.109528666373 0)
(0.00974667589727 -0.111848288107 0)
(0.00855204903176 -0.113888004554 0)
(0.00739033436883 -0.115655768267 0)
(0.00626343151626 -0.117159895962 0)
(0.00517288855755 -0.118409001578 0)
(0.00411997379715 -0.119411942468 0)
(0.00310570397644 -0.120177776484 0)
(0.00213089314107 -0.120715724519 0)
(0.00119615877383 -0.121035137959 0)
(0.000301955403702 -0.121145463257 0)
(-0.00055143265632 -0.121056230635 0)
(-0.00136386128748 -0.120776980432 0)
(-0.00213534736919 -0.120317269678 0)
(-0.00286604048171 -0.119686628367 0)
(-0.00355623988835 -0.118894526476 0)
(-0.00420636679524 -0.117950342308 0)
(-0.00481698141584 -0.116863331886 0)
(-0.00538875155316 -0.115642598756 0)
(-0.00592246885771 -0.114297066625 0)
(-0.00641901345338 -0.112835453155 0)
(-0.00687936962919 -0.111266247294 0)
(-0.00730458704815 -0.109597688436 0)
(-0.00769579659888 -0.107837749575 0)
(-0.00805416907497 -0.105994122603 0)
(-0.00838093207634 -0.104074207784 0)
(-0.00867732711509 -0.10208510551 0)
(-0.00894462845537 -0.100033612133 0)
(-0.0091840996195 -0.0979262179277 0)
(-0.00939701498913 -0.095769108794 0)
(-0.0095846166081 -0.0935681698176 0)
(-0.00974813926382 -0.0913289920164 0)
(-0.00988876843299 -0.0890568803982 0)
(-0.0100076694191 -0.0867568644523 0)
(-0.0101059471152 -0.0844337093336 0)
(-0.0101846795199 -0.0820919285472 0)
(-0.0102448797654 -0.0797357964992 0)
(-0.0102875339772 -0.0773693615334 0)
(-0.0103135656251 -0.0749964581035 0)
(-0.0103238772125 -0.0726207184112 0)
(-0.0103193166133 -0.0702455824764 0)
(-0.0103007216122 -0.0678743068287 0)
(-0.0102688874922 -0.0655099713039 0)
(-0.0102246130475 -0.0631554838611 0)
(-0.0101686684892 -0.0608135834361 0)
(-0.0101018413904 -0.0584868405844 0)
(-0.0100249039695 -0.056177656595 0)
(-0.0099386574659 -0.0538882604564 0)
(-0.00984389811993 -0.051620704961 0)
(-0.0097414587906 -0.0493768610103 0)
(-0.00963217335681 -0.0471584120497 0)
(-0.00951691477336 -0.0449668471357 0)
(-0.00939655810598 -0.0428034550856 0)
(-0.00927201469203 -0.0406693177338 0)
(-0.00914419443957 -0.0385653052287 0)
(-0.00901403607554 -0.036492070764 0)
(-0.00888246961915 -0.034450048026 0)
(-0.00875044293931 -0.0324394482886 0)
(-0.00861888541517 -0.0304602607393 0)
(-0.00848873103298 -0.0285122524305 0)
(-0.00836088417612 -0.0265949716275 0)
(-0.00823623943738 -0.0247077505915 0)
(-0.00811565031267 -0.0228497116562 0)
(-0.00799994573174 -0.021019772184 0)
(-0.00788990230427 -0.0192166520437 0)
(-0.00778625783837 -0.0174388787786 0)
(-0.00768968869368 -0.0156847936439 0)
(-0.00760082338078 -0.013952552018 0)
(-0.00752023365126 -0.0122401224771 0)
(-0.00744846729746 -0.0105452775021 0)
(-0.00738609399071 -0.00886558725978 0)
(-0.00733383272791 -0.00719843633044 0)
(-0.00729267733779 -0.00554115704086 0)
(-0.00726235865632 -0.00388981879069 0)
(-0.00720831733226 -0.00226952037337 0)
(-0.00647810814797 -0.00066603325218 0)
(0.0345983077675 -0.00311684049634 0)
(0.0383405806298 -0.0105442835953 0)
(0.0381838074847 -0.0179134028776 0)
(0.0376241347763 -0.0252907661445 0)
(0.0368717139593 -0.0325157248622 0)
(0.035951768296 -0.0395597729385 0)
(0.0348811713666 -0.0463901457153 0)
(0.0336777453386 -0.0529783759258 0)
(0.0323601000849 -0.0593004972673 0)
(0.0309469836657 -0.0653370661622 0)
(0.0294566998029 -0.0710729700761 0)
(0.0279066357654 -0.0764971222837 0)
(0.0263129181978 -0.0816020698023 0)
(0.0246901858963 -0.0863835539418 0)
(0.023051476818 -0.0908400565319 0)
(0.0214082028336 -0.0949723590084 0)
(0.0197702027533 -0.098783133225 0)
(0.0181458427057 -0.102276576811 0)
(0.0165421569304 -0.105458098839 0)
(0.0149650003976 -0.108334057762 0)
(0.0134192132484 -0.110911548938 0)
(0.0119087729295 -0.113198237705 0)
(0.0104369415899 -0.11520223138 0)
(0.00900638849641 -0.116931984 0)
(0.00761930150991 -0.118396226328 0)
(0.00627746974894 -0.119603915189 0)
(0.00498235647967 -0.120564195621 0)
(0.0037351451236 -0.121286371491 0)
(0.00253678090725 -0.121779880029 0)
(0.00138799021181 -0.122054268164 0)
(0.00028930221568 -0.122119162932 0)
(-0.000758949526153 -0.121984273219 0)
(-0.00175660489234 -0.1216592965 0)
(-0.0027036923852 -0.12115395653 0)
(-0.00360041091608 -0.120477939838 0)
(-0.00444713421803 -0.119640868301 0)
(-0.00524439789149 -0.118652266074 0)
(-0.00599289950508 -0.117521527398 0)
(-0.00669348208854 -0.116257885342 0)
(-0.00734713132235 -0.114870382698 0)
(-0.00795495529471 -0.113367844883 0)
(-0.00851817927873 -0.111758855898 0)
(-0.00903812260794 -0.110051737002 0)
(-0.00951619207045 -0.10825452896 0)
(-0.00995385706559 -0.10637497741 0)
(-0.0103526428298 -0.104420521996 0)
(-0.0107141051112 -0.102398288681 0)
(-0.0110398243781 -0.100315085741 0)
(-0.0113313811614 -0.0981774027829 0)
(-0.0115903523422 -0.0959914131362 0)
(-0.0118182882543 -0.0937629788651 0)
(-0.012016712011 -0.0914976586231 0)
(-0.012187099335 -0.0892007175423 0)
(-0.0123308817792 -0.0868771392294 0)
(-0.0124494300956 -0.084531638972 0)
(-0.0125440618987 -0.0821686781128 0)
(-0.012616029021 -0.0797924786796 0)
(-0.0126665297715 -0.0774070381423 0)
(-0.0126967002528 -0.0750161433946 0)
(-0.0127076307393 -0.0726233838342 0)
(-0.0127003603064 -0.0702321627715 0)
(-0.0126758962944 -0.0678457071203 0)
(-0.0126352110801 -0.065467074779 0)
(-0.0125792630639 -0.0630991598088 0)
(-0.012508994047 -0.0607446950951 0)
(-0.012425350023 -0.058406252762 0)
(-0.0123292776202 -0.0560862422954 0)
(-0.0122217430518 -0.0537869067654 0)
(-0.0121037263563 -0.051510317395 0)
(-0.0119762373349 -0.0492583668808 0)
(-0.0118403068814 -0.047032761933 0)
(-0.0116969992714 -0.0448350153309 0)
(-0.0115474004767 -0.0426664381624 0)
(-0.0113926268252 -0.0405281322996 0)
(-0.0112338107705 -0.0384209839281 0)
(-0.0110721063491 -0.0363456578351 0)
(-0.0109086732309 -0.0343025934266 0)
(-0.0107446796984 -0.0322920017882 0)
(-0.0105812859745 -0.0303138649024 0)
(-0.010419645442 -0.028367935923 0)
(-0.0102608882005 -0.0264537417493 0)
(-0.010106121199 -0.0245705864421 0)
(-0.00995641288551 -0.0227175567852 0)
(-0.00981279284063 -0.020893528213 0)
(-0.00967623846877 -0.0190971723062 0)
(-0.00954767524207 -0.0173269639236 0)
(-0.00942796756328 -0.0155811892015 0)
(-0.00931792332086 -0.0138579527168 0)
(-0.00921829603537 -0.0121551860107 0)
(-0.00912980624811 -0.0104706589183 0)
(-0.0090531739268 -0.00880201107443 0)
(-0.00898917127302 -0.00714680021627 0)
(-0.00893855927192 -0.00550262717832 0)
(-0.00889977322671 -0.00386573345445 0)
(-0.00882794356876 -0.0022605830604 0)
(-0.0079204742944 -0.000665319050934 0)
(0.0414321764014 -0.00321017406767 0)
(0.0459079762149 -0.0108581825789 0)
(0.0457086794844 -0.0184411828394 1.21744943183e-27)
(0.045021342738 -0.0260251412463 0)
(0.0440987228546 -0.0334422671748 0)
(0.0429723436735 -0.040661424086 0)
(0.0416637914385 -0.0476477389548 0)
(0.0401957546574 -0.0543714705511 0)
(0.0385917477244 -0.0608081775841 0)
(0.0368752706111 -0.0669386547013 0)
(0.0350690684205 -0.0727486183113 0)
(0.0331945498731 -0.078228262012 0)
(0.03127137707 -0.0833717230817 0)
(0.0293172159689 -0.088176511018 0)
(0.0273476312243 -0.09264293939 0)
(0.0253760965047 -0.096773592333 0)
(0.0234140954046 -0.100572846172 0)
(0.0214712819007 -0.104046457732 0)
(0.0195556795075 -0.10720122293 0)
(0.0176738944591 -0.110044703944 0)
(0.0158313309566 -0.112585019054 0)
(0.0140323919938 -0.114830687285 0)
(0.0122806624046 -0.116790518477 0)
(0.0105790642898 -0.118473539482 0)
(0.00892998803075 -0.11988894718 0)
(0.00733539351161 -0.121046080118 0)
(0.00579688922467 -0.12195440136 0)
(0.00431578630123 -0.122623486811 0)
(0.00289313765777 -0.123063014395 0)
(0.00152975971553 -0.123282751223 0)
(0.000226248597471 -0.123292531462 0)
(-0.00101702283124 -0.123102273835 0)
(-0.00219988010022 -0.122721858771 0)
(-0.00332236964135 -0.12216121076 0)
(-0.00438474200553 -0.12143020467 0)
(-0.00538745382788 -0.120538647155 0)
(-0.0063311596673 -0.119496240362 0)
(-0.00721670619764 -0.118312547754 0)
(-0.00804511935805 -0.116996960998 0)
(-0.00881759399372 -0.11555866887 0)
(-0.00953547652141 -0.114006628632 0)
(-0.0102002509298 -0.11234954049 0)
(-0.0108135182242 -0.110595825359 0)
(-0.0113769802486 -0.10875360631 0)
(-0.0118924174654 -0.10683069369 0)
(-0.0123616721439 -0.104834574121 0)
(-0.0127866259862 -0.102772403233 0)
(-0.0131691841311 -0.10065100217 0)
(-0.013511254022 -0.0984768576246 0)
(-0.0138147315381 -0.0962561253086 0)
(-0.0140814823765 -0.0939946365437 0)
(-0.014313331531 -0.0916979077453 0)
(-0.0145120483794 -0.0893711523637 0)
(-0.014679340595 -0.0870192949262 0)
(-0.0148168439264 -0.0846469866509 0)
(-0.0149261213433 -0.0822586221313 0)
(-0.0150086581105 -0.0798583564697 0)
(-0.0150658664319 -0.077450122287 0)
(-0.0150990857631 -0.0750376460035 0)
(-0.0151095924804 -0.0726244628001 0)
(-0.0150986046037 -0.0702139297634 0)
(-0.0150672952139 -0.0678092367309 0)
(-0.0150168000081 -0.0654134145981 0)
(-0.0149482325602 -0.0630293407547 0)
(-0.0148626926772 -0.0606597417292 0)
(-0.0147612813209 -0.05830719291 0)
(-0.014645107677 -0.0559741158049 0)
(-0.0145153017308 -0.0536627728178 0)
(-0.014373018362 -0.0513752603284 0)
(-0.0142194461407 -0.0491135000977 0)
(-0.0140558074577 -0.0468792300448 0)
(-0.0138833628978 -0.0446739943084 0)
(-0.0137034072402 -0.0424991337569 0)
(-0.0135172695699 -0.0403557767099 0)
(-0.0133263056883 -0.0382448310236 0)
(-0.0131318947199 -0.0361669771108 0)
(-0.0129354289325 -0.0341226629023 0)
(-0.0127383079235 -0.0321121002281 0)
(-0.0125419270158 -0.0301352633742 0)
(-0.0123476701446 -0.0281918892718 0)
(-0.0121568979444 -0.0262814797509 0)
(-0.0119709403614 -0.0244033054223 0)
(-0.0117910854363 -0.0225564112497 0)
(-0.0116185725944 -0.0207396235527 0)
(-0.0114545832099 -0.0189515580894 0)
(-0.0113002358908 -0.0171906294018 0)
(-0.0111565807086 -0.0154550611596 0)
(-0.0110245992065 -0.0137428978607 0)
(-0.0109052064849 -0.0120520207612 0)
(-0.0107992609215 -0.0103801692808 0)
(-0.0107075775716 -0.00872497379699 0)
(-0.0106309355884 -0.00708400895762 0)
(-0.0105699154088 -0.00545487445172 0)
(-0.0105220799723 -0.00383359894772 0)
(-0.0104337005553 -0.00224376375321 0)
(-0.00935615569696 -0.000661044789723 0)
(0.0484886819363 -0.00332360615041 0)
(0.0537179425112 -0.011239762684 0)
(0.0534677609052 -0.0190825883435 -1.21680069826e-27)
(0.0526386773446 -0.0269167778765 0)
(0.0515280435592 -0.0345656422857 0)
(0.0501746278046 -0.0419947633234 0)
(0.0486056875835 -0.0491667447654 0)
(0.046849723851 -0.0560504266873 0)
(0.044936022089 -0.0626209880038 0)
(0.0428935707506 -0.0688597520117 0)
(0.0407501354487 -0.0747536973115 0)
(0.0385315585099 -0.080294820175 0)
(0.0362612905582 -0.0854794103719 0)
(0.0339601359427 -0.090307306639 0)
(0.0316461813108 -0.0947811830743 0)
(0.0293348678779 -0.0989059021516 0)
(0.027039168434 -0.102687955398 0)
(0.0247698309534 -0.106135000506 0)
(0.0225356580173 -0.109255494283 0)
(0.0203437953464 -0.112058414487 0)
(0.0182000114745 -0.114553059712 0)
(0.0161089538435 -0.116748914662 0)
(0.0140743741956 -0.118655567549 0)
(0.0120993173456 -0.120282666862 0)
(0.010186273655 -0.121639905585 0)
(0.00833729497879 -0.122737022436 0)
(0.00655407914965 -0.123583811206 0)
(0.00483802599681 -0.124190131341 0)
(0.00319027227047 -0.124565914758 0)
(0.00161170900045 -0.124721164753 0)
(0.000102996092055 -0.124665944718 0)
(-0.00133546212999 -0.124410410862 0)
(-0.00270347996297 -0.123964652517 0)
(-0.00400112164248 -0.123338827672 0)
(-0.00522869303618 -0.122543033272 0)
(-0.00638674045093 -0.12158729521 0)
(-0.00747604466549 -0.120481527681 0)
(-0.00849761281762 -0.119235496308 0)
(-0.00945266557193 -0.11785878233 0)
(-0.0103426226602 -0.116360749017 0)
(-0.0111690843253 -0.114750510932 0)
(-0.0119338121103 -0.113036906664 0)
(-0.0126387064476 -0.111228475328 0)
(-0.0132857846792 -0.109333437148 0)
(-0.0138771567896 -0.107359678185 0)
(-0.0144150026018 -0.105314739326 0)
(-0.0149015475014 -0.103205809401 0)
(-0.0153390405264 -0.101039722431 0)
(-0.0157297316966 -0.0988229587609 0)
(-0.0160758525351 -0.0965616499756 0)
(-0.0163795964946 -0.0942615872532 0)
(-0.0166431033548 -0.0919282329289 0)
(-0.0168684441686 -0.0895667348135 0)
(-0.0170576109026 -0.0871819428856 0)
(-0.0172125071711 -0.0847784277285 0)
(-0.0173349441844 -0.0823605002015 0)
(-0.0174266380747 -0.0799322315657 0)
(-0.0174892125902 -0.077497473483 0)
(-0.0175242030228 -0.0750598770184 0)
(-0.0175330651291 -0.0726229101344 0)
(-0.0175171846333 -0.0701898728449 0)
(-0.0174778908266 -0.067763909742 0)
(-0.0174164696464 -0.0653480192157 0)
(-0.0173341795549 -0.0629450594378 0)
(-0.0172322655601 -0.0605577506808 0)
(-0.0171119746274 -0.0581886744479 0)
(-0.0169745679435 -0.0558402692473 0)
(-0.0168213333411 -0.0535148238441 0)
(-0.0166535936139 -0.0512144680449 0)
(-0.0164727142125 -0.048941162058 0)
(-0.0162801063565 -0.0466966846078 0)
(-0.0160772292962 -0.0444826208622 0)
(-0.0158655880314 -0.0423003504086 0)
(-0.0156467304795 -0.0401510361421 0)
(-0.0154222405401 -0.0380356142874 0)
(-0.0151937312449 -0.0359547860987 0)
(-0.0149628344735 -0.0339090114547 0)
(-0.0147311915288 -0.0318985044968 0)
(-0.0145004410117 -0.0299232315454 0)
(-0.0142722082447 -0.0279829110667 0)
(-0.0140480927221 -0.0260770159713 0)
(-0.0138296576307 -0.0242047777268 0)
(-0.0136184181098 -0.0223651925966 0)
(-0.0134158319453 -0.0205570293493 0)
(-0.0132232897986 -0.0187788387486 0)
(-0.0130421082348 -0.0170289643517 0)
(-0.0128735233191 -0.0153055552301 0)
(-0.012718687506 -0.0136065809928 0)
(-0.0125786681346 -0.0119298500492 0)
(-0.0124544489296 -0.0102730327709 0)
(-0.0123469302141 -0.0086336996621 0)
(-0.0122569130283 -0.00700934991194 0)