/*--------------------------------*- C++ -*----------------------------------*\
| =========                 |                                                 |
| \\      /  F ield         | OpenFOAM: The Open Source CFD Toolbox           |
|  \\    /   O peration     | Version:  v1906                                 |
|   \\  /    A nd           | Web:      www.OpenFOAM.com                      |
|    \\/     M anipulation  |                                                 |
\*---------------------------------------------------------------------------*/
FoamFile
{
    version     2.0;
    format      ascii;
    class       volVectorField;
    location    "220";
    object      U;
}
// * * * * * * * * * * * * * * * * * * * * * * * * * * * * * * * * * * * * * //

dimensions      [0 1 -1 0 0 0 0];


internalField   nonuniform List<vector> 
9216
(
(0.0027147511496 -0.00271709871646 0)
(0.00286237855653 -0.00876830257195 1.17566868925e-27)
(0.0028542981306 -0.0149139088371 1.84411026838e-31)
(0.00281716173812 -0.021060194483 0)
(0.00276552622978 -0.0271040014777 0)
(0.00270098866532 -0.0330210857256 0)
(0.00262507945386 -0.038785762392 0)
(0.00253932099204 -0.0443750748745 0)
(0.00244481576022 -0.0497689901879 0)
(0.00234305518849 -0.0549501262948 0)
(0.00223506386933 -0.0599039767613 0)
(0.00212230637149 -0.0646185861299 0)
(0.0020056576589 -0.0690846868873 0)
(0.00188647434 -0.0732952835927 0)
(0.00176541558488 -0.0772457136496 0)
(0.00164368386335 -0.0809331822162 0)
(0.00152169739509 -0.0843567943111 0)
(0.00140049741104 -0.08751708796 0)
(0.00128027180126 -0.0904160723837 0)
(0.00116192173082 -0.0930567891532 0)
(0.00104543474053 -0.0954433781185 0)
(0.000931604681721 -0.0975806841506 0)
(0.000820256627937 -0.0994743537468 0)
(0.000712112058271 -0.101130488696 0)
(0.000606868141053 -0.102555770315 0)
(0.000505202016854 -0.103757158255 0)
(0.000406711748636 -0.104742029834 0)
(0.000312050983286 -0.105517915078 0)
(0.000220738776664 -0.106092642641 0)
(0.000133418236558 -0.106474108388 0)
(4.9548531918e-05 -0.1066704088 0)
(-3.02366553764e-05 -0.106689669055 0)
(-0.000106560670889 -0.106540121482 0)
(-0.000178799585944 -0.106229862416 0)
(-0.000247599686779 -0.105767100838 0)
(-0.000312334652409 -0.105159928439 0)
(-0.000373703738864 -0.104416425374 0)
(-0.000431090660893 -0.10354452055 0)
(-0.000485233925339 -0.102552064634 0)
(-0.000535525029961 -0.101446718208 0)
(-0.000582734674861 -0.100236006311 0)
(-0.000626262645783 -0.0989272365304 0)
(-0.000666903158061 -0.0975275317736 0)
(-0.00070406309718 -0.0960437769241 0)
(-0.000738552254683 -0.094482632977 0)
(-0.000769784367518 -0.0928505155658 0)
(-0.000798575269502 -0.0911535874619 0)
(-0.000824344031728 -0.0893977667009 0)
(-0.000847904397658 -0.0875887002198 0)
(-0.000868680793157 -0.0857318036727 0)
(-0.000887475997004 -0.0838322127875 0)
(-0.000903719299236 -0.0818948515259 0)
(-0.000918195757335 -0.0799243634826 0)
(-0.000930341098344 -0.0779252091672 0)
(-0.000940915921568 -0.0759015739601 0)
(-0.00094936399765 -0.0738574902345 0)
(-0.000956417292002 -0.0717967241373 0)
(-0.000961531408139 -0.0697229221538 0)
(-0.000965405927204 -0.0676394738862 0)
(-0.000967512168901 -0.0655496781928 0)
(-0.000968516053602 -0.063456584878 0)
(-0.000967910175952 -0.0613631792852 0)
(-0.000966325782001 -0.0592722015535 0)
(-0.000963281838759 -0.0571863448385 0)
(-0.000959375684705 -0.0551080563358 0)
(-0.000954158381178 -0.0530397478465 0)
(-0.000948193762428 -0.0509835791759 0)
(-0.000941069358671 -0.048941676838 0)
(-0.000933316715788 -0.0469159052945 0)
(-0.000924563725769 -0.0449080927237 0)
(-0.000915309882041 -0.0429197922872 0)
(-0.000905225358959 -0.0409525115827 0)
(-0.000894777920549 -0.039007469809 0)
(-0.000883680888258 -0.0370858301211 0)
(-0.000872369456351 -0.0351884553049 0)
(-0.000860599026911 -0.0333161404861 0)
(-0.000848771228568 -0.0314693723307 0)
(-0.000836681497158 -0.0296485616804 0)
(-0.000824695895111 -0.0278538081815 0)
(-0.000812646346232 -0.0260851312772 0)
(-0.000800860963442 -0.0243422439124 0)
(-0.000789203416702 -0.0226247822929 0)
(-0.000777959651254 -0.0209320907896 0)
(-0.000767017008285 -0.0192634519691 0)
(-0.00075660971655 -0.0176178898199 0)
(-0.000746629156178 -0.0159944109399 0)
(-0.000737223084908 -0.0143918475296 0)
(-0.000728210379865 -0.0128091582325 0)
(-0.000719481980898 -0.0112454262275 0)
(-0.000710373787204 -0.00970047893354 0)
(-0.000699517150419 -0.00817577313442 0)
(-0.000683200660054 -0.00667755207464 0)
(-0.000647012655274 -0.0052371438653 0)
(-0.000570572545089 -0.00369505888693 0)
(-0.000731002139699 -0.00259529687475 0)
(-0.00121163398301 -0.00120971293351 0)
(0.00878857610091 -0.00289236734185 0)
(0.00971788169029 -0.00978764247948 0)
(0.00969578456833 -0.0166702913416 -1.23458613255e-27)
(0.00956677156545 -0.0235586767976 0)
(0.00938810370496 -0.0303228718909 0)
(0.00916734642909 -0.0369412024117 0)
(0.00890866828172 -0.0433863657024 0)
(0.0086165480343 -0.0496331890358 0)
(0.00829499818508 -0.0556593896352 0)
(0.00794866467275 -0.0614456947224 0)
(0.00758147906236 -0.0669759787007 0)
(0.00719794650852 -0.0722370952417 0)
(0.00680156921473 -0.0772188469072 0)
(0.00639640245365 -0.0819136880639 0)
(0.00598528167778 -0.0863166037225 0)
(0.00557165292959 -0.090424756091 0)
(0.0051576015618 -0.0942373352195 0)
(0.00474594579788 -0.0977552037649 0)
(0.00433805837174 -0.100980762819 0)
(0.00393620544108 -0.103917629413 0)
(0.00354115184862 -0.106570540568 0)
(0.00315472912644 -0.108945078679 0)
(0.00277722143484 -0.111047619173 0)
(0.00241014704112 -0.112885104784 0)
(0.00205342631092 -0.114465031455 0)
(0.00170836465386 -0.11579526438 0)
(0.00137461132832 -0.116884050846 0)
(0.00105333137824 -0.117739868036 0)
(0.000743966895661 -0.118371451033 0)
(0.00044758758002 -0.11878766195 0)
(0.000163472848053 -0.118997526312 0)
(-0.000107384099227 -0.119010089592 0)
(-0.00036587097043 -0.118834493952 0)
(-0.000611062331038 -0.118479935089 0)
(-0.00084394914983 -0.117955563243 0)
(-0.00106365920269 -0.117270453479 0)
(-0.00127130602019 -0.116433617361 0)
(-0.00146607753235 -0.115453931673 0)
(-0.00164918965523 -0.114340149465 0)
(-0.00181988358909 -0.113100840051 0)
(-0.00197946065865 -0.11174439371 0)
(-0.00212720857734 -0.110278976413 0)
(-0.00226449384305 -0.108712528815 0)
(-0.00239064083872 -0.107052736735 0)
(-0.00250706003889 -0.105307025651 0)
(-0.00261310238655 -0.103482547826 0)
(-0.00271019920585 -0.101586171906 0)
(-0.00279771669405 -0.0996244865751 0)
(-0.00287708533894 -0.0976037857617 0)
(-0.00294767742511 -0.0955300885992 0)
(-0.00301090167557 -0.0934091190436 0)
(-0.00306612859223 -0.0912463409276 0)
(-0.00311472814337 -0.0890469317546 0)
(-0.00315606547067 -0.0868158316858 0)
(-0.00319145779472 -0.0845577097249 0)
(-0.00322026438683 -0.082277024506 0)
(-0.00324374124871 -0.0799779823392 0)
(-0.00326124645734 -0.0776646079808 0)
(-0.00327397023238 -0.0753406927938 0)
(-0.00328127731974 -0.0730098729568 0)
(-0.00328429288274 -0.0706755676406 0)
(-0.00328240023908 -0.068341062826 0)
(-0.00327666301046 -0.0660094385988 0)
(-0.00326649617278 -0.0636836564058 0)
(-0.00325290833604 -0.0613664765133 0)
(-0.00323536024561 -0.0590605475649 0)
(-0.00321481209313 -0.0567683147445 0)
(-0.00319078248881 -0.0544921103204 0)
(-0.00316418968251 -0.0522340549616 0)
(-0.00313461999098 -0.0499961489802 0)
(-0.00310295364809 -0.0477801686018 0)
(-0.003068850088 -0.0455877574524 0)
(-0.00303315321868 -0.0434203208439 0)
(-0.00299559711581 -0.0412791178686 0)
(-0.0029569875734 -0.0391651558058 0)
(-0.00291713009721 -0.0370792827306 0)
(-0.00287678808093 -0.035022084814 0)
(-0.00283583179145 -0.0329939799126 0)
(-0.00279497496931 -0.0309951192885 0)
(-0.00275414222294 -0.0290254821991 0)
(-0.00271398797589 -0.0270847839817 0)
(-0.00267447701954 -0.0251725722851 0)
(-0.00263618977535 -0.02328814292 0)
(-0.00259910843324 -0.0214306387394 0)
(-0.00256371034638 -0.0195989763759 0)
(-0.00252994380975 -0.0177919514838 0)
(-0.00249809594597 -0.0160081793862 0)
(-0.00246790760557 -0.0142462068833 0)
(-0.00243912175603 -0.012504455164 0)
(-0.0024104952531 -0.0107812612961 0)
(-0.00237949006444 -0.00907455528995 0)
(-0.00233977582962 -0.00738085613369 0)
(-0.00227626698928 -0.00569469251125 0)
(-0.0021448746969 -0.00393122945207 0)
(-0.00217214963433 -0.00216450440309 0)
(-0.00259378464876 -0.00072653475555 0)
(0.0150450368328 -0.00293818888648 0)
(0.0166587679653 -0.00994829908226 0)
(0.0165986095834 -0.0169210733636 -1.23254128075e-27)
(0.0163682955565 -0.023909995864 0)
(0.0160574389594 -0.0307710565566 0)
(0.0156759062345 -0.0374810867511 0)
(0.0152301083338 -0.0440117284982 0)
(0.0147270937608 -0.0503372766229 0)
(0.0141740669824 -0.056435107509 0)
(0.013578618747 -0.0622858325463 0)
(0.0129479943474 -0.0678733391166 0)
(0.0122894763699 -0.0731846722478 0)
(0.0116096278608 -0.0782099027784 0)
(0.0109148474675 -0.0829418741286 0)
(0.0102105950901 -0.0873759785767 0)
(0.00950211477292 -0.0915098508795 0)
(0.00879362995826 -0.0953431239367 0)
(0.00808921295626 -0.0988771289546 0)
(0.00739192734637 -0.102114676305 0)
(0.00670481787035 -0.105059796106 0)
(0.00602997851251 -0.107717567143 0)
(0.00536964021209 -0.110093910841 0)
(0.00472515011177 -0.112195471109 0)
(0.0040981406737 -0.114029458786 0)
(0.00348941356025 -0.115603575412 0)
(0.00290018032391 -0.116925898409 0)
(0.00233085177509 -0.118004835455 0)
(0.00178234462316 -0.118849037469 0)
(0.00125478203017 -0.119467371897 0)
(0.000748863034849 -0.119868853151 0)
(0.000264481828452 -0.120062625383 0)
(-0.000197837513174 -0.120057903116 0)
(-0.000638387885778 -0.11986395204 0)
(-0.00105679749391 -0.119490044653 0)
(-0.00145354114261 -0.11894543552 0)
(-0.00182839260906 -0.118239317503 0)
(-0.00218198392464 -0.117380802559 0)
(-0.00251422070989 -0.116378879145 0)
(-0.00282587885802 -0.115242394747 0)
(-0.00311698207102 -0.11398001909 0)
(-0.00338842901503 -0.112600227863 0)
(-0.00364034226617 -0.111111273999 0)
(-0.00387371687754 -0.109521172674 0)
(-0.00408875064573 -0.107837681161 0)
(-0.00428650536014 -0.106068287057 0)
(-0.00446722807899 -0.104220197941 0)
(-0.00463201588064 -0.102300332008 0)
(-0.0047811385682 -0.10031531704 0)
(-0.00491569811373 -0.09827148439 0)
(-0.00503596266229 -0.0961748774492 0)
(-0.00514301142023 -0.094031247263 0)
(-0.00523709028665 -0.0918460689344 0)
(-0.0053192333547 -0.0896245389514 0)
(-0.00538964974346 -0.0873715987921 0)
(-0.00544931250025 -0.0850919314742 0)
(-0.00549838637472 -0.0827899900659 0)
(-0.00553777542575 -0.0804699930463 0)
(-0.00556760040079 -0.0781359563259 0)
(-0.00558869613243 -0.07579168481 0)
(-0.00560114698452 -0.0734408055227 0)
(-0.0056057258345 -0.0710867550519 0)
(-0.00560249467691 -0.0687328125334 0)
(-0.0055921770865 -0.0663820811027 0)
(-0.00557483056168 -0.0640375190152 0)
(-0.00555114547116 -0.061701915717 0)
(-0.00552119422737 -0.0593779207733 0)
(-0.00548565032075 -0.0570680140531 0)
(-0.00544461879052 -0.0547745319796 0)
(-0.00539877050551 -0.0524996336582 0)
(-0.00534825697833 -0.0502453251992 0)
(-0.00529375608293 -0.0480134225419 0)
(-0.00523547365521 -0.0458055744088 0)
(-0.00517409859641 -0.0436232242719 0)
(-0.00510989239306 -0.041467633202 0)
(-0.00504355266148 -0.0393398422736 0)
(-0.00497539115254 -0.0372406960694 0)
(-0.00490610625184 -0.0351708076524 0)
(-0.00483604888998 -0.03313058394 0)
(-0.0047659051674 -0.0311201939908 0)
(-0.00469604898844 -0.0291395966754 0)
(-0.00462713666576 -0.027188513669 0)
(-0.00455954376214 -0.0252664598751 0)
(-0.00449387293136 -0.0233727210785 0)
(-0.004430470623 -0.0215063868665 0)
(-0.00436984702046 -0.0196663322501 0)
(-0.0043122624139 -0.0178512495895 0)
(-0.00425804833319 -0.0160596231464 0)
(-0.00420723692614 -0.0142897323708 0)
(-0.00415974460432 -0.0125395524283 0)
(-0.00411497948589 -0.0108065642707 0)
(-0.00407183883336 -0.00908719522827 0)
(-0.00402834890731 -0.0073753755054 0)
(-0.00398219601645 -0.00566013436011 0)
(-0.00393061957948 -0.00390342910204 0)
(-0.00393651732607 -0.00212499634281 0)
(-0.0036893399311 -0.000564234304423 0)
(0.0214492492599 -0.00298342323075 0)
(0.0237681298595 -0.0100983585835 0)
(0.0236792067232 -0.0171664034775 1.23196801267e-27)
(0.0233455582847 -0.0242513142846 0)
(0.0228961410458 -0.0312030047143 0)
(0.022345450358 -0.0379968210742 0)
(0.0217029051786 -0.0446032203923 0)
(0.0209786359565 -0.0509958003498 0)
(0.0201832661449 -0.0571515802119 0)
(0.0193276946027 -0.0630511262436 0)
(0.0184226004984 -0.0686785208211 0)
(0.0174783484305 -0.0740212199067 0)
(0.0165045825706 -0.079069847457 0)
(0.0155102860025 -0.0838179165613 0)
(0.0145034662049 -0.088261536911 0)
(0.013491354553 -0.092399092432 0)
(0.0124801572165 -0.0962309412914 0)
(0.0114753606092 -0.0997591144399 0)
(0.010481510376 -0.102987056843 0)
(0.00950258429585 -0.105919380667 0)
(0.00854176480611 -0.108561667402 0)
(0.00760184859441 -0.110920283887 0)
(0.00668498881786 -0.113002244623 0)
(0.00579312120521 -0.114815083632 0)
(0.0049276634025 -0.116366765017 0)
(0.00408994830076 -0.117665596056 0)
(0.00328087789259 -0.118720170444 0)
(0.00250136148318 -0.119539307701 0)
(0.00175192750802 -0.120132014841 0)
(0.00103316908279 -0.120507439749 0)
(0.000345320414052 -0.120674840046 0)
(-0.000311284320296 -0.120643551029 0)
(-0.000936660669585 -0.12042293926 0)
(-0.00153070489352 -0.120022373811 0)
(-0.00209366741788 -0.119451203766 0)
(-0.00262566301715 -0.118718717051 0)
(-0.00312715688819 -0.11783411246 0)
(-0.0035984639509 -0.116806465089 0)
(-0.00404024495033 -0.115644699861 0)
(-0.00445299291686 -0.114357561305 0)
(-0.00483753679247 -0.11295359015 0)
(-0.00519451776121 -0.11144109863 0)
(-0.0055248976582 -0.109828151457 0)
(-0.00582942913573 -0.108122548016 0)
(-0.00610916675743 -0.106331808739 0)
(-0.00636493439245 -0.104463164718 0)
(-0.00659783654564 -0.102523549644 0)
(-0.006808727282 -0.100519597141 0)
(-0.00699871979289 -0.0984576382977 0)
(-0.00716866027341 -0.096343706014 0)
(-0.00731963326803 -0.094183537358 0)
(-0.007452444673 -0.0919825841706 0)
(-0.00756812072904 -0.0897460192118 0)
(-0.00766740330425 -0.0874787515114 0)
(-0.0077512399179 -0.0851854346301 0)
(-0.00782029496589 -0.0828704851753 0)
(-0.00787542837082 -0.0805380915692 0)
(-0.0079172252163 -0.0781922336352 0)
(-0.0079464600682 -0.0758366899211 0)
(-0.00796364774422 -0.0734750565665 0)
(-0.00796949051469 -0.0711107516434 0)
(-0.00796445142843 -0.068747031589 0)
(-0.00794918119617 -0.0663869911677 0)
(-0.00792411563096 -0.0640335763865 0)
(-0.00788987937674 -0.0616895796194 0)
(-0.00784690793266 -0.0593576484709 0)
(-0.00779582539369 -0.0570402759823 0)
(-0.00773709176578 -0.054739805705 0)
(-0.00767135264361 -0.0524584179923 0)
(-0.00759911184216 -0.0501981320528 0)
(-0.00752105134104 -0.0479607895033 0)
(-0.00743772966434 -0.0457480547214 0)
(-0.00734987142976 -0.0435613974525 0)
(-0.00725809143186 -0.0414020929067 0)
(-0.007163153621 -0.0392712049567 0)
(-0.00706572124952 -0.0371695873578 0)
(-0.00696658589255 -0.035097869214 0)
(-0.00686644348777 -0.0330564584101 0)
(-0.00676609423796 -0.0310455302827 0)
(-0.00666624443683 -0.0290650339628 0)
(-0.00656767826453 -0.0271146848845 0)
(-0.00647108448425 -0.0251939741317 0)
(-0.00637720055158 -0.0233021642742 0)
(-0.00628666241046 -0.0214383004171 0)
(-0.00620012023535 -0.019601206662 0)
(-0.00611810744955 -0.0177894928479 0)
(-0.0060411255993 -0.0160015383741 0)
(-0.00596953014673 -0.0142354670991 0)
(-0.00590359456112 -0.012489069461 0)
(-0.00584345486362 -0.0107596591977 0)
(-0.00578930804517 -0.0090437889498 0)
(-0.00574186160535 -0.00733679336857 0)
(-0.00570390209044 -0.00563268431327 0)
(-0.00568220782968 -0.0039205462518 0)
(-0.00568486926192 -0.00223593587709 0)
(-0.00521346973011 -0.000634575977294 0)
(0.02796000726 -0.00304281474948 0)
(0.0309858793181 -0.010295641408 0)
(0.0308655733202 -0.0174958686452 0)
(0.0304232572396 -0.02470978693 0)
(0.0298279840585 -0.0317824643984 0)
(0.0290993643949 -0.0386875336508 0)
(0.0282502751097 -0.0453940193711 0)
(0.0272944114416 -0.0518746067362 0)
(0.0262461446625 -0.0581058729806 0)
(0.0251200682927 -0.0640683657304 0)
(0.0239305008699 -0.0697465007642 0)
(0.0226911673934 -0.0751283537682 0)
(0.0214148651339 -0.0802053736034 0)
(0.0201133319138 -0.0849720382055 0)
(0.0187970746999 -0.0894254900231 0)
(0.0174753994916 -0.093565164713 0)
(0.0161563605739 -0.0973924401537 0)
(0.0148468997662 -0.100910309006 0)
(0.0135528608058 -0.104123091443 0)
(0.0122791839817 -0.107036182683 0)
(0.0110299373488 -0.109655844576 0)
(0.0098085254806 -0.111989030365 0)
(0.00861770493297 -0.114043247434 0)
(0.00745978244178 -0.1158264451 0)
(0.00633659834936 -0.117346930599 0)
(0.00524970410622 -0.118613300223 0)
(0.00420030994343 -0.1196343883 0)
(0.00318944182123 -0.120419222681 0)
(0.00221785788431 -0.120976990197 0)
(0.00128619073966 -0.121317002838 0)
(0.000394840638312 -0.121448665901 0)
(-0.000455889213374 -0.121381460182 0)
(-0.00126591091968 -0.121124881369 0)
(-0.00203521949227 -0.120688431934 0)
(-0.00276402232806 -0.120081586961 0)
(-0.00345259968581 -0.119313757205 0)
(-0.00410143644111 -0.118394257946 0)
(-0.00471107802922 -0.117332276261 0)
(-0.00528226296577 -0.116136840859 0)
(-0.00581577304821 -0.114816792587 0)
(-0.00631256541639 -0.113380758299 0)
(-0.00677361802922 -0.111837126568 0)
(-0.00720006107625 -0.110194026902 0)
(-0.00759301949212 -0.10845931188 0)
(-0.00795374376653 -0.106640542988 0)
(-0.00828345140677 -0.104744980149 0)
(-0.00858345743572 -0.102779574236 0)
(-0.00885501681862 -0.100750963901 0)
(-0.00909945484741 -0.0986654749116 0)
(-0.00931801242797 -0.0965291240039 0)
(-0.00951197654734 -0.0943476240137 0)
(-0.00968253032893 -0.0921263935236 0)
(-0.00983088358581 -0.0898705669172 0)
(-0.00995812922198 -0.0875850085404 0)
(-0.0100653737629 -0.085274325687 0)
(-0.010153601497 -0.082942885236 0)
(-0.0102238045295 -0.0805948279428 0)
(-0.0102768554905 -0.0782340856383 0)
(-0.0103136362761 -0.0758643943951 0)
(-0.0103349197907 -0.073489310085 0)
(-0.0103414960956 -0.0711122188272 0)
(-0.0103340629013 -0.0687363492223 0)
(-0.0103133475005 -0.0663647783462 0)
(-0.0102800054101 -0.0640004393076 0)
(-0.0102347362044 -0.0616461223017 0)
(-0.010178189303 -0.0593044771554 0)
(-0.0101110718166 -0.0569780091631 0)
(-0.0100340604589 -0.0546690769719 0)
(-0.00994789992408 -0.0523798843108 0)
(-0.00985332001393 -0.0501124742747 0)
(-0.00975112340903 -0.0478687182168 0)
(-0.00964210753764 -0.0456503079676 0)
(-0.00952714136105 -0.0434587438294 0)
(-0.00940709179885 -0.041295326575 0)
(-0.0092828896194 -0.0391611461273 0)
(-0.00915546072258 -0.0370570749237 0)
(-0.00902578179077 -0.0349837589801 0)
(-0.00889481679746 -0.0329416139242 0)
(-0.00876356324323 -0.0309308192702 0)
(-0.00863299436938 -0.0289513178273 0)
(-0.00850409688123 -0.0270028136424 0)
(-0.00837781904098 -0.0250847747233 0)
(-0.00825510050327 -0.0231964338317 0)
(-0.00813682629125 -0.0213367929384 0)
(-0.00802384947892 -0.0195046241931 0)
(-0.00791695171692 -0.0176984708998 0)
(-0.00781686230283 -0.0159166389591 0)
(-0.00772423464043 -0.0141571792333 0)
(-0.0076396866655 -0.0124178470558 0)
(-0.00756385078689 -0.0106960467794 0)
(-0.00749756220516 -0.00898878114761 0)
(-0.00744222613051 -0.00729265992139 0)
(-0.00740051135704 -0.00560438548047 0)
(-0.00737534798018 -0.00392006063694 0)
(-0.00733948363425 -0.00227201940837 0)
(-0.0066215002652 -0.000662596523169 0)
(0.0346151382368 -0.00311807775178 0)
(0.0383589196809 -0.0105482008158 0)
(0.0382026097884 -0.0179200275872 0)
(0.0376436018667 -0.0253002164767 0)
(0.0368920893243 -0.032528134518 0)
(0.0359733102849 -0.0395753227573 0)
(0.0349041472458 -0.0464090648969 0)
(0.0337024363072 -0.0530009476777 0)
(0.0323867934112 -0.0593270623209 0)
(0.0309759765705 -0.0653680258315 0)
(0.029488288405 -0.0711087886754 0)
(0.027941118563 -0.0765383278831 0)
(0.0263505826039 -0.0816492543785 0)
(0.0247313123271 -0.0864373714731 0)
(0.0230963238551 -0.0909012205826 0)
(0.0214570128635 -0.095041638345 0)
(0.0198231865022 -0.0988613470906 0)
(0.0182031870831 -0.102364588421 0)
(0.0166040095002 -0.105556808889 0)
(0.0150314797787 -0.108444396496 0)
(0.0134903937423 -0.111034468549 0)
(0.0119846976697 -0.113334703578 0)
(0.010517607552 -0.115353214056 0)
(0.00909176242825 -0.117098450442 0)
(0.00770930525912 -0.118579132259 0)
(0.00637199879142 -0.119804197111 0)
(0.00508126535721 -0.120782764367 0)
(0.00383826794404 -0.121524105841 0)
(0.00264391606323 -0.122037622069 0)
(0.00149892178609 -0.12233281887 0)
(0.000403782818723 -0.122419280607 0)
(-0.000641177794609 -0.122306665028 0)
(-0.00163583128695 -0.122004626286 0)
(-0.00258021463065 -0.121522833844 0)
(-0.00347455909661 -0.120870921168 0)
(-0.00431925207526 -0.120058453796 0)
(-0.00511486810418 -0.119094895893 0)
(-0.00586212560999 -0.117989576349 0)
(-0.00656191505799 -0.11675165667 0)
(-0.00721525093643 -0.115390100132 0)
(-0.00782329660603 -0.113913643837 0)
(-0.00838731216348 -0.112330773194 0)
(-0.00890867660579 -0.110649700067 0)
(-0.00938883316059 -0.108878344295 0)
(-0.00982930992047 -0.107024319061 0)
(-0.0102316641641 -0.105094920074 0)
(-0.0105975025938 -0.103097118673 0)
(-0.0109284264392 -0.101037558843 0)
(-0.0112260525123 -0.0989225577699 0)
(-0.0114919605434 -0.0967581101429 0)
(-0.0117277160774 -0.0945498953741 0)
(-0.0119348216371 -0.0923032882147 0)
(-0.0121147424455 -0.0900233713391 0)
(-0.0122688625364 -0.0877149505462 0)
(-0.0123985139244 -0.0853825709316 0)
(-0.0125049386836 -0.08303053471 0)
(-0.0125893219106 -0.0806629187676 0)
(-0.0126527600563 -0.0782835927652 0)
(-0.0126962973281 -0.0758962356404 0)
(-0.0127209001605 -0.0735043517182 0)
(-0.0127274962119 -0.0711112839919 0)
(-0.0127169539317 -0.0687202261493 0)
(-0.0126901225928 -0.0663342308538 0)
(-0.0126478156973 -0.0639562164826 0)
(-0.0125908500431 -0.0615889692963 0)
(-0.0125200311304 -0.0592351444699 0)
(-0.0124361893239 -0.0568972624211 0)
(-0.0123401655079 -0.0545777043386 0)
(-0.0122328426949 -0.0522787036896 0)
(-0.0121151305202 -0.0500023376887 0)
(-0.0119879909759 -0.0477505156521 0)
(-0.0118524210498 -0.0455249682416 0)
(-0.011709472201 -0.0433272347158 0)
(-0.0115602309289 -0.0411586520973 0)
(-0.0114058321264 -0.0390203433048 0)
(-0.0112474380907 -0.0369132079901 0)
(-0.0110862465414 -0.0348379133459 0)
(-0.0109234688688 -0.0327948880618 0)
(-0.010760333824 -0.0307843167825 0)
(-0.0105980659216 -0.0288061378235 0)
(-0.0104378859595 -0.026860041625 0)
(-0.010280990517 -0.024945472223 0)
(-0.0101285504 -0.0230616289421 0)
(-0.00998169232922 -0.0212074702579 0)
(-0.00984149723698 -0.0193817169242 0)
(-0.00970898690675 -0.0175828549299 0)
(-0.00958512770201 -0.0158091354183 0)
(-0.00947083318651 -0.0140585709242 0)
(-0.00936699503875 -0.0123289305412 0)
(-0.00927453892124 -0.0106177461082 0)
(-0.00919454084738 -0.00892234899275 0)
(-0.00912840573313 -0.0072400310341 0)
(-0.00907796647797 -0.00556849283619 0)
(-0.00904307494089 -0.00390485763872 0)
(-0.00897986252676 -0.0022772572886 0)
(-0.00806765404437 -0.000668705806536 0)
(0.0414516252129 -0.00321130637345 0)
(0.0459291484877 -0.010861754485 0)
(0.0457303860928 -0.0184472147309 1.22237417161e-27)
(0.0450438185724 -0.0260337323783 0)
(0.0441222547328 -0.0334535435908 0)
(0.0429972355262 -0.0406755522539 0)
(0.0416903628702 -0.047664935656 0)
(0.0402243415226 -0.0543920068573 0)
(0.0386226983626 -0.0608323849587 0)
(0.0369089438958 -0.066966928879 0)
(0.0351058269359 -0.072781422645 0)
(0.0332347562078 -0.0782661290091 0)
(0.0313153852237 -0.0834152546505 0)
(0.0293653672394 -0.0882263769423 0)
(0.0274002451925 -0.0926998744338 0)
(0.0254334677211 -0.0968383917478 0)
(0.0234764849993 -0.100646360102 0)
(0.0215389158667 -0.104129584416 0)
(0.0196287414745 -0.107294901127 0)
(0.0177525259577 -0.110149904533 0)
(0.0159156256768 -0.112702736217 0)
(0.0141223982395 -0.114961929274 0)
(0.0123763789963 -0.116936298325 0)
(0.0106804453238 -0.118634865727 0)
(0.00903694050556 -0.120066814993 0)
(0.00744778429815 -0.12124146306 0)
(0.00591454405498 -0.122168244028 0)
(0.00443849823645 -0.12285669857 0)
(0.00302066648321 -0.123316464423 0)
(0.0016618405753 -0.123557265089 0)
(0.000362589332082 -0.123588890001 0)
(-0.00087673421974 -0.123421203897 0)
(-0.00205597971504 -0.123064045687 0)
(-0.00317521167934 -0.122527286136 0)
(-0.00423470714674 -0.121820749582 0)
(-0.0052349474031 -0.12095419001 0)
(-0.00617662189897 -0.119937253743 0)
(-0.00706061204867 -0.118779443795 0)
(-0.007887989952 -0.117490084949 0)
(-0.00865999639836 -0.116078290958 0)
(-0.0093780344143 -0.114552934291 0)
(-0.010043642551 -0.112922619192 0)
(-0.0106584846588 -0.111195658305 0)
(-0.0112243201655 -0.109380053303 0)
(-0.0117429917772 -0.107483479746 0)
(-0.012216394637 -0.105513276166 0)
(-0.0126464636851 -0.103476437412 0)
(-0.0130351435061 -0.101379612217 0)
(-0.0133843769574 -0.0992291048912 0)
(-0.0136960774214 -0.0970308808979 0)
(-0.0139721202401 -0.0947905758789 0)
(-0.0142143189611 -0.0925135081007 0)
(-0.0144244209256 -0.0902046934522 0)
(-0.0146040888646 -0.0878688630765 0)
(-0.0147549017434 -0.0855104823265 0)
(-0.0148783426621 -0.0831337711568 0)
(-0.0149758055391 -0.0807427247198 0)
(-0.0150485896811 -0.0783411339329 0)
(-0.0150979121921 -0.0759326048894 0)
(-0.015124908761 -0.0735205768852 0)
(-0.0151306508833 -0.0711083380788 0)
(-0.0151161515876 -0.0686990387666 0)
(-0.0150823856175 -0.0662957009297 0)
(-0.0150302981537 -0.0639012252722 0)
(-0.0149608257508 -0.0615183939583 0)
(-0.014874905486 -0.0591498703555 0)
(-0.0147734943296 -0.0567981952328 0)
(-0.014657576392 -0.0544657798511 0)
(-0.0145281784942 -0.0521548966653 0)
(-0.0143863738137 -0.0498676677682 0)
(-0.0142332921601 -0.0476060518822 0)
(-0.014070118947 -0.0453718302969 0)
(-0.0138980997557 -0.043166592804 0)
(-0.0137185344496 -0.0409917236073 0)
(-0.0135327763347 -0.0388483884148 0)
(-0.0133422221711 -0.0367375225483 0)
(-0.0131483068655 -0.0346598210833 0)
(-0.0129524905239 -0.0326157306612 0)
(-0.012756250124 -0.0306054439097 0)
(-0.0125610649874 -0.0286288957284 0)
(-0.0123684068558 -0.0266857621935 0)
(-0.0121797252514 -0.0247754613349 0)
(-0.0119964375597 -0.0228971560534 0)
(-0.011819916009 -0.0210497584261 0)
(-0.0116514800577 -0.019231935672 0)
(-0.0114923882895 -0.0174421165338 0)
(-0.011343838073 -0.0156784987008 0)
(-0.0112069704963 -0.0139390583216 0)
(-0.0110828895911 -0.0122215625606 0)
(-0.0109726963894 -0.010523600739 0)
(-0.0108775402661 -0.00884266436648 0)
(-0.0107986595144 -0.00717627010844 0)
(-0.0107372213074 -0.00552221402393 0)
(-0.0106912818001 -0.00387725315396 0)
(-0.0106063455427 -0.00226678833368 0)
(-0.00951605637364 -0.00066733361348 0)
(0.048510513939 -0.00332462775866 0)
(0.0537416832709 -0.0112429424223 0)
(0.0534920951209 -0.0190879392352 -1.22172264439e-27)
(0.0526638734563 -0.0269243888919 0)
(0.0515544282452 -0.0345756192978 0)
(0.0502025506939 -0.0420072560729 0)
(0.0486355204343 -0.0491819506747 0)
(0.0468818602956 -0.0560686003326 0)
(0.0449708742826 -0.0626424472046 0)
(0.0429315650525 -0.0688848839548 0)
(0.0407917055734 -0.0747829627206 0)
(0.0385771385713 -0.0803287558287 0)
(0.036311306384 -0.0855186296549 0)
(0.0340149973837 -0.090352498079 0)
(0.0317062735419 -0.0948331071029 0)
(0.0294005445665 -0.0989653861055 0)
(0.0271107442797 -0.102755887192 0)
(0.0248475766257 -0.106212320965 0)
(0.0226197945393 -0.109343188659 0)
(0.0204344911785 -0.112157503065 0)
(0.0182973789632 -0.114664588001 0)
(0.0162130486565 -0.116873943003 0)
(0.0141851940819 -0.118795160782 0)
(0.0122168041491 -0.120437883814 0)
(0.0103103145694 -0.12181178927 0)
(0.00846772717515 -0.122926590679 0)
(0.00669069322412 -0.123792048692 0)
(0.00498057247037 -0.124417982838 0)
(0.00333846604062 -0.124814280302 0)
(0.00176523625163 -0.124990897246 0)
(0.000261513367584 -0.124957848998 0)
(-0.0011723188727 -0.124725234766 0)
(-0.00253609416288 -0.124303102981 0)
(-0.00382989955689 -0.123701559932 0)
(-0.0050540655694 -0.122930654986 0)
(-0.00620916683624 -0.122000366082 0)
(-0.00729602044285 -0.120920557507 0)
(-0.00831567561607 -0.119700940813 0)
(-0.00926940444334 -0.118351036857 0)
(-0.0101586839018 -0.116880139884 0)
(-0.010985179784 -0.115297284748 0)
(-0.0117507227818 -0.113611217679 0)
(-0.0124572876617 -0.111830371428 0)
(-0.0131069657437 -0.109962844687 0)
(-0.0137019416289 -0.108016386359 0)
(-0.0142444643397 -0.105998384383 0)
(-0.0147368237007 -0.103915859546 0)
(-0.0151813222631 -0.101775463751 0)
(-0.0155802533434 -0.0995834829802 0)
(-0.0159358756811 -0.0973458444098 0)
(-0.0162503949801 -0.0950681276167 0)
(-0.0165259431488 -0.092755579363 0)
(-0.016764565129 -0.0904131314888 0)
(-0.0169682042696 -0.0880454214301 0)
(-0.0171386958763 -0.0856568146299 0)
(-0.0172777599298 -0.0832514282925 0)
(-0.0173870022152 -0.0808331554817 0)
(-0.017467914834 -0.0784056890528 0)
(-0.0175218848548 -0.075972544342 0)
(-0.0175502021671 -0.0735370801053 0)
(-0.0175540746114 -0.0711025166076 0)
(-0.0175346414056 -0.0686719507759 0)
(-0.017492992619 -0.0662483674451 0)
(-0.0174301857565 -0.063834646735 0)
(-0.0173472666534 -0.0614335669092 0)
(-0.0172452861493 -0.0590478035162 0)
(-0.017125319278 -0.0566799239801 0)
(-0.0169884791342 -0.0543323793982 0)
(-0.0168359316297 -0.0520074922457 0)
(-0.0166689042681 -0.0497074427434 0)
(-0.0164886947121 -0.0474342524744 0)
(-0.0162966731786 -0.0451897678045 0)
(-0.0160942842567 -0.042975642498 0)
(-0.0158830429184 -0.0407933212856 0)
(-0.0156645299235 -0.0386440239423 0)
(-0.0154403825537 -0.036528731736 0)
(-0.0152122849409 -0.0344481752271 0)
(-0.014981955028 -0.0324028251527 0)
(-0.0147511316584 -0.0303928853798 0)
(-0.0145215596291 -0.0284182889728 0)
(-0.0142949753517 -0.0264786965767 0)
(-0.0140730919514 -0.0245734978656 0)
(-0.013857585402 -0.0227018148835 0)
(-0.0136500816173 -0.0208625081915 0)
(-0.0134521454772 -0.0190541848714 0)
(-0.0132652726589 -0.0172752088113 0)
(-0.0130908851461 -0.0155237137027 0)
(-0.0129303320645 -0.0137976186549 0)
(-0.0127848967586 -0.0120946526572 0)
(-0.0126558084357 -0.0104123930936 0)
(-0.0125442519771 -0.00874831998026 0)
(-0.012451349964 -0.00709992174442 0)