/*--------------------------------*- C++ -*----------------------------------*\
| =========                 |                                                 |
| \\      /  F ield         | OpenFOAM: The Open Source CFD Toolbox           |
|  \\    /   O peration     | Version:  v1906                                 |
|   \\  /    A nd           | Web:      www.OpenFOAM.com                      |
|    \\/     M anipulation  |                                                 |
\*---------------------------------------------------------------------------*/
FoamFile
{
    version     2.0;
    format      ascii;
    class       volScalarField;
    location    "721";
    object      pa;
}
// * * * * * * * * * * * * * * * * * * * * * * * * * * * * * * * * * * * * * //

dimensions      [0 2 -2 0 0 0 0];


internalField   nonuniform List<scalar> 
9216
(
977.007967277
976.643526262
975.903044012
974.783325649
973.288037747
971.421446766
969.188925842
966.596837979
963.65250217
960.364098328
956.740637198
952.791855667
948.528190157
943.96066543
939.100876063
933.960874269
928.5531643
922.890594409
916.986367961
910.853943477
904.507064528
897.95967012
891.225943316
884.320232425
877.257116112
870.051334202
862.71786508
855.271863707
847.728745548
840.104128487
832.413916583
824.674242081
816.901539381
809.11248349
801.324046513
793.553427389
785.818080113
778.135631627
770.523873022
763.000663968
755.583879779
748.291304285
741.140528513
734.148838346
727.333062887
720.70946745
714.293550624
708.099955883
702.14221603
696.432698526
690.982298183
685.800434472
680.894702559
676.27094729
671.932898336
667.882346882
664.118798349
660.63976168
657.440442091
654.514125732
651.851917959
649.443193453
647.275398568
645.334581335
643.605340532
642.071494348
640.71627043
639.523052438
638.475574977
637.558454658
636.757208766
636.05853449
635.450205941
634.9211994
634.461537218
634.062329091
633.715607696
633.41434521
633.152308423
632.924062309
632.724825273
632.550452841
632.397293817
632.262157008
632.141680347
632.037252882
631.951281534
631.883011182
631.831066568
631.793081359
631.766510062
631.748517606
631.736628622
631.729489923
631.725924998
631.724686267
977.371952894
977.006362822
976.264623077
975.141851869
973.642264314
971.770278103
969.531348509
966.931911511
963.979347728
960.681910041
957.048672851
953.08944942
948.814739255
944.235642166
939.36381005
934.211363641
928.790854041
923.115187273
917.19759975
911.051594397
904.690932522
898.129583442
891.381733138
884.461747311
877.384195054
870.163823417
862.815592536
855.354658406
847.796414518
840.156478643
832.450734812
824.695318627
816.906653151
809.101427859
801.296619223
793.509456719
785.757420836
778.058190372
770.429610094
762.889615533
755.456165135
748.147142018
740.980248863
733.972890328
727.14203233
720.504072356
714.074666503
707.868596661
701.899568535
696.180084989
690.72121947
685.532508014
680.621711016
675.994746735
671.655469733
667.605677864
663.844941292
660.370702064
657.178168687
654.260498339
651.608745407
649.212094209
647.057851583
645.131758349
643.418109366
641.900244182
640.560979015
639.383262266
638.350559992
637.447261568
636.658800898
635.971807649
635.37407982
634.854612404
634.403502307
634.011911222
633.671952017
633.376649183
633.119848269
632.896176781
632.700940248
632.530068592
632.380026226
632.247792612
632.13069196
632.028266303
631.943449694
631.877149811
631.826279111
631.788958954
631.763326717
631.746041531
631.734471126
631.727781386
631.724603735
631.723329792
978.113871816
977.745118858
976.99915199
975.870041186
974.362035826
972.479615889
970.228329787
967.614723077
964.646291698
961.331415031
957.679294082
953.69987567
949.403786923
944.802257565
939.907057486
934.730423469
929.285005632
923.583803937
917.640128082
911.467547681
905.079868387
898.491097633
891.715437547
884.7672659
877.661144142
870.411811177
863.034203019
855.543455596
847.954931293
840.284226003
832.547197077
824.759968703
816.93895445
809.100855461
801.262669743
793.44167523
785.655418107
777.921673782
770.258406743
762.683704043
755.215701893
747.87248976
740.672003078
733.631900708
726.769427479
720.10127161
713.643403038
707.410918213
701.417858954
695.677050191
690.199902698
684.996251619
680.074154369
675.439753016
671.097100531
667.048088295
663.292345523
659.827258807
656.647959673
653.747427542
651.11653489
648.744177614
646.617311149
644.721148025
643.039273526
641.554062792
640.247360965
639.101247332
638.098574859
637.223330263
636.460751997
635.797386032
635.221056132
634.720836349
634.286957732
633.910719043
633.584374363
633.301070364
633.054789616
632.840303477
632.653072059
632.489167054
632.34519409
632.218249768
632.105665261
632.007182863
631.927490103
631.86530503
631.816555452
631.781061141
631.757288139
631.74095579
631.73037409
631.724374549
631.721236824
631.719690227
979.241224904
978.868808058
978.116334168
976.977463966
975.45653164
973.558121091
971.287918646
968.652632103
965.659935428
962.318400033
958.637425076
954.627160901
950.298435143
945.662675028
940.731836345
935.518331306
930.034966652
924.29488284
918.31150633
912.098504317
905.669754322
899.039316464
892.221421009
885.230457617
878.080978992
870.787704301
863.365535184
855.829569078
848.195122777
840.477750589
832.693270275
824.857779778
816.98767846
809.099676871
801.210805578
793.338408835
785.500132594
777.713893901
769.99783972
762.370285245
754.84963804
747.454302469
740.202568733
733.11248635
726.201723494
719.487417263
712.986011539
706.713091989
700.683207302
694.909690937
689.404464978
684.177848473
679.238350837
674.592488482
670.244607376
666.196769235
662.448665736
658.997620595
655.838607261
652.964364078
650.365470893
648.030465526
645.945785343
644.09594631
642.463407138
641.028920486
639.772649341
638.675258575
637.718641422
636.886234279
636.163029107
635.535500778
634.991537282
634.520371768
634.112464536
633.759351734
633.453500618
633.188235929
632.957733538
632.756997278
632.581722919
632.428196387
632.293218827
632.174041192
632.067939234
631.976258898
631.903418203
631.846116866
631.802099226
631.769972786
631.747713138
631.732887018
631.723515168
631.717997643
631.714941247
631.713444697
980.75699698
980.379874181
979.618599301
978.466500875
976.928050376
975.007983754
972.712177781
970.047561477
967.022053306
963.644487084
959.924534794
955.872625042
951.499861664
946.817941533
941.839076378
936.575917138
931.041485842
925.249112865
919.212384538
912.945098059
906.461228398
899.7749031
892.900389185
885.852087035
878.644535059
871.29241928
863.810591486
856.214089742
848.518164926
840.738306905
832.890274508
824.990120951
817.054219976
809.099285223
801.142384494
793.200942678
785.292734676
777.435862156
769.648715117
761.949913787
754.358231917
746.892499767
739.571488648
732.413778511
725.437611242
718.660733318
712.100229729
705.772351672
699.692336561
693.874218956
688.330626834
683.072564564
678.109178361
673.447528345
669.092373537
665.046019769
661.308236709
657.876247126
654.744782696
651.906239623
649.350825947
647.066714825
645.039724592
643.253704076
641.689578544
640.325470627
639.138836072
638.108213402
637.214206408
636.439656456
635.76936461
635.189803524
634.688996303
634.256452226
633.883003445
633.560560628
633.2818804
633.040486117
632.830781251
632.648117775
632.488529388
632.348594141
632.225382909
632.116362824
632.018861577
631.936414344
631.872055022
631.821312546
631.781928398
631.753511387
631.734253307
631.721405384
631.713043844
631.708084753
631.705276751
631.703885038
982.665818146
982.282793659
981.510355167
980.341449216
978.780737238
976.833159569
974.504842608
971.803002554
968.735874966
965.31263312
961.54330233
957.438670787
953.010199657
948.269933719
943.230415252
937.904602304
932.305793952
926.447563365
920.343700939
914.008167685
907.455060452
900.698588235
893.753060245
886.632883996
879.352573371
871.926764247
864.370237404
856.697946171
848.925048661
841.06694203
833.139299454
825.158104615
817.139686191
809.100747756
801.058391214
793.030130264
785.033891895
777.088001602
769.211150423
761.422340623
753.740808871
746.185926608
738.777078127
731.533520034
724.474224737
717.617714219
710.981886662
704.583840154
698.439690267
692.564376803
686.971451872
681.67283363
676.678534839
671.996363561
667.631644474
663.587013935
659.862319648
656.454643574
653.358318439
650.565268273
648.065209343
645.846138882
643.893114626
642.189992402
640.71584254
639.444356605
638.348639572
637.404134294
636.58993283
635.888487075
635.284667443
634.765073013
634.317948492
633.933237112
633.602373471
633.317854003
633.072804028
632.860873772
632.676656073
632.516057078
632.375589536
632.252193515
632.143301009
632.046629462
631.96049594
631.889414621
631.833337903
631.789147056
631.755833086
631.732807709
631.71643062
631.705626218
631.698759907
631.694113926
631.691541658
631.690249642
984.973488137
984.583269344
983.797193272
982.607743184
981.019822253
979.038630916
976.670610518
973.923337857
970.805445905
967.326532574
963.497064957
959.328280196
954.832085512
950.020959238
944.907855398
939.506113527
933.829376289
927.891516306
921.706574443
915.288710291
908.652166271
901.811244943
894.780299776
887.573737678
880.206032581
872.691747658
865.045565218
857.282321969
849.4170491
841.465015147
833.441772327
825.363201052
817.245555715
809.105506952
800.96017772
792.827169806
784.724577464
776.670983562
768.685434779
760.78739227
752.996655353
745.333257769
737.817337098
730.468981824
723.308060872
716.354044201
709.625820717
703.141518509
696.918326288
690.972304808
685.318171516
679.969035028
674.936059778
670.22807645
665.85117731
661.808418054
658.09973121
654.721987371
651.668869101
648.931553844
646.499024769
644.359737401
642.49727165
640.898140203
639.539577436
638.387083518
637.40658634
636.569125762
635.852421842
635.239330436
634.715420447
634.267561588
633.884220321
633.55598084
633.275272342
633.035557369
632.830421165
632.653323445
632.498790772
632.363776807
632.245487239
632.141225504
632.048888875
631.966541533
631.89371174
631.834516632
631.787692253
631.751681992
631.725402263
631.706858007
631.693550651
631.684804447
631.679630249
631.675806111
631.6736733
631.672625424
987.687077706
987.288283737
986.485957431
985.272025554
983.651688656
981.630468376
979.215193908
976.413884959
973.235661723
969.690641908
965.789832758
961.545019765
956.968654452
952.073743676
946.873742715
941.382454662
935.613938383
929.582427546
923.302262636
916.78783786
910.053563772
903.113846139
895.98308021
888.675659257
881.205995154
873.58854901
865.837869434
857.968636903
849.995712729
841.93419183
833.799459689
825.607248667
817.373697331
809.115407956
800.8494986
792.593646389
784.366117358
776.185777216
768.072078152
760.045016634
752.125058358
744.333029172
736.689972061
729.21697628
721.934985585
714.864599607
708.02587752
701.438159777
695.119898242
689.088494672
683.360101186
677.949344818
672.868929131
668.12908875
663.736969676
659.696151862
656.006597785
652.665001422
649.663887038
646.993161093
644.640256487
642.596253596
640.839389215
639.367716665
638.1574834
637.157096058
636.320430417
635.612470918
635.010766341
634.500684086
634.069816216
633.705189354
633.395112666
633.131058343
632.907181176
632.718689898
632.559795228
632.422835657
632.301332855
632.194731926
632.101253456
632.018282624
631.944333458
631.878086183
631.820046459
631.773322042
631.736794547
631.709194543
631.689424681
631.675150187
631.665825289
631.659377157
631.655556619
631.65337562
631.651825099
631.651147562
990.815007402
990.406159736
989.58480183
988.34220271
986.683922543
984.615873178
982.145354145
979.280921238
976.032283351
972.410185177
968.426284694
964.09302719
959.42351859
954.431400473
949.130729494
943.535863691
937.661358768
931.521876933
925.132111315
918.506727903
911.660326794
904.607422801
897.362444964
889.939752607
882.353665507
874.618504625
866.74864093
858.758549741
850.662869913
842.476466908
834.214501796
825.892500477
817.526429281
809.13277057
800.728595079
792.331626499
783.960292784
775.633756662
767.371918819
759.195386294
751.12540044
743.183720971
735.392466149
727.773914871
720.350283574
713.143493781
706.174958828
699.465396405
693.034698467
686.901806806
681.084593515
675.599604482
670.461612944
665.682844098
661.271945273
657.233072246
653.566030179
650.267788893
647.328792756
644.736577027
642.47439175
640.543347726
638.898637456
637.579933551
636.56471805
635.761087315
635.103034714
634.547798983
634.07671641
633.682570618
633.357586543
633.087659596
632.859421696
632.665635
632.503686951
632.372273139
632.266797123
632.175988062
632.089115026
632.012680815
631.946341861
631.886274807
631.831907267
631.78304789
631.740339055
631.70647102
631.680577077
631.661641693
631.648307259
631.639102802
631.63318373
631.629798341
631.627769131
631.627263508
631.626453861
631.626237063
994.36713849
993.946643389
993.103269254
991.827516748
990.125377251
988.003232073
985.46894567
982.531716469
979.20195761
975.491162504
971.411764955
966.976996021
962.200740218
957.097393844
951.681727828
945.968758388
939.973628514
933.711504241
927.197488966
920.44655932
913.473524321
906.293008897
898.919460178
891.367174175
883.650338192
875.783084854
867.779553168
859.65395443
851.420641648
843.094183394
834.689444858
826.221671375
817.706582333
809.160468705
800.600290212
792.043767302
783.509460504
775.016827854
766.586251188
758.239020939
749.997270055
741.883851064
733.922152606
726.13586448
718.548701232
711.184123515
704.065072869
697.21379785
690.651737331
684.399535493
678.477031109
672.903169325
667.69554026
662.869331512
658.435483331
654.398628243
650.757493337
647.51149854
644.647454259
642.147775736
639.983108155
638.194691422
636.63912928
635.504942773
634.763979004
634.220743976
633.782144326
633.394405014
633.05572033
632.782160906
632.578180398
632.420455776
632.285806344
632.16828828
632.071582545
632.002251728
631.959624916
631.923154238
631.867375154
631.820900613
631.784596111
631.748518412
631.713900664
631.68306956
631.655366319
631.634360512
631.619213887
631.609349115
631.60308367
631.599325816
631.596942095
631.596208939
631.596779061
631.597844077
631.598149404
631.598394128
998.354879523
997.921005487
997.052386326
995.738632626
993.986250244
991.802182315
989.194967822
986.174570641
982.75224072
978.94035907
974.752277645
970.202156177
965.304798824
960.075492866
954.529852256
948.683668987
942.552776518
936.15292962
929.499705897
922.608433163
915.494146301
908.171574393
900.655157016
892.9590851
885.097360473
877.08386665
868.932445194
860.656973659
852.27144521
843.790051659
835.227276232
826.597991251
817.917572925
809.202024383
800.468103731
791.733450569
783.016702283
774.337587878
765.716987426
757.176941831
748.740599613
740.432087158
732.276298046
724.298599609
716.524486169
708.979199129
701.687407109
694.672968364
687.958912598
681.567576006
675.520925085
669.840775674
664.548617278
659.664316339
655.202814932
651.16869254
647.555687128
644.37314857
641.603796336
639.217602073
637.140544927
635.557768667
633.822320918
632.811000996
632.542187181
632.399127951
632.269254491
632.144681907
632.034596138
631.942595402
631.858484366
631.771731636
631.685219923
631.60994555
631.560884138
631.560085698
631.614611386
631.672447456
631.639076518
631.62108571
631.621383377
631.609396202
631.592401781
631.58082198
631.566676911
631.558972504
631.554226372
631.553078973
631.553626385
631.555341325
631.557626092
631.560089223
631.562873321
631.565742816
631.567535642
631.568291554
1002.79131402
1002.34216388
1001.44477851
1000.08774265
998.278174779
996.023688547
993.333625637
990.218858025
986.691625246
982.765355054
978.454479716
973.774250287
968.740551017
963.369715967
957.678349741
951.683155909
945.40077745
938.847655702
932.039914334
924.993275516
917.723012985
910.24394472
902.570462867
894.71659528
886.696088448
878.522501333
870.209299988
861.769948459
853.217995989
844.567166413
835.831459412
827.025261775
818.163484454
809.261715882
800.336387459
791.404944062
782.486008212
773.599523475
764.766860688
756.010867302
747.355837322
738.827383241
730.45218893
722.257647406
714.271387395
706.520763617
699.032362457
691.831714337
684.943265839
678.390803649
672.198228848
666.39054604
660.994530949
656.037921263
651.544125896
647.516622655
643.927843669
640.820464117
638.179425897
635.884227073
633.565228583
632.761946143
632.2724005
632.206053551
632.249822182
632.247260009
632.206606073
632.145129527
632.073213929
631.997892133
631.922003617
631.846225707
631.77400627
631.713221602
631.678014961
631.683682959
631.704598153
631.619997987
631.387545834
631.374651221
631.449604042
631.47314694
631.467599494
631.480642924
631.474673946
631.481461817
631.485597727
631.493447207
631.500909337
631.508335746
631.515442198
631.522033983
631.527482112
631.532090352
631.535597777
631.537071587
1007.69135278
1007.22483008
1006.29480745
1004.88869086
1003.01432817
1000.68013281
997.896400375
994.675077624
991.029570578
986.974536227
982.525672057
977.699505212
972.513182877
966.984264226
961.1305153
954.969709445
948.519439133
941.796946873
934.818985566
927.601718095
920.160665043
912.510704306
904.666121152
896.640699223
888.447837894
880.100677633
871.61221832
862.995422065
854.263303515
845.429018033
836.50596591
827.507913641
818.449155057
809.344699392
800.210482947
791.063594408
781.92250109
772.80725854
763.739683455
754.743462767
745.844168906
737.069144631
728.447229213
720.0082948
711.782616498
703.800105801
696.089571442
688.678182438
681.591422006
674.853771003
668.490185895
662.528417326
657.001786051
651.951791045
647.422873256
643.421093562
639.823012553
636.701390178
634.104457635
632.641664586
632.549169052
632.587803649
632.53504991
632.507600043
632.504671274
632.480754427
632.437284783
632.376283482
632.301026311
632.217222717
632.128228434
632.035663059
631.943469055
631.857906515
631.788230797
631.740229136
631.693634871
631.611722181
631.541646827
631.549947779
631.537277432
631.3722879
631.30948017
631.386979892
631.375131088
631.403052623
631.412353445
631.431533199
631.446559357
631.459849473
631.472028253
631.482746816
631.491611919
631.498324288
631.503591669
631.505862579
1013.07191656
1012.58568438
1011.61873455
1010.15712005
1008.20955868
1005.78541896
1002.89613024
999.554910197
995.776536652
991.577105167
986.973788397
981.984598801
976.628153949
970.923442715
964.88959088
958.545628443
951.910264449
945.00168064
937.837357858
930.433951556
922.807229762
914.972082243
906.942598953
898.732205531
890.353831466
881.820082175
873.143387886
864.33611682
855.410657743
846.379493975
837.255298537
828.051060014
818.780268023
809.457142664
800.096901965
790.716055579
781.332709711
771.966864147
762.6406776
753.378668692
744.20780727
735.157448139
726.259040316
717.545566688
709.050675369
700.807557779
692.847715168
685.199970408
677.890147155
670.94194235
664.379177169
658.229846856
652.533150774
647.351714621
642.781869177
638.852686825
634.883458501
633.149551094
632.988679075
632.96018279
632.948618466
632.968179735
632.937018312
632.893743696
632.853471156
632.809797361
632.756643238
632.688566413
632.605700833
632.511474072
632.408250948
632.298967387
632.188339008
632.082508571
631.988550992
631.908942466
631.830563764
631.735376106
631.645319246
631.586760172
631.524043018
631.474232275
631.471187436
631.405415205
631.233218738
631.32576476
631.330395533
631.369915199
631.391994916
631.410648554
631.428464236
631.443814568
631.456272432
631.465623953
631.472525467
631.4757149
1018.95215442
1018.44358463
1017.43491516
1015.91064511
1013.88053352
1011.35509258
1008.34710157
1004.87128131
1000.94402051
996.583092598
991.807382304
986.636621914
981.091133333
975.191568885
968.958645828
962.412873806
955.574282462
948.462163297
941.094847445
933.489543331
925.662257965
917.627816718
909.399983487
900.991662808
892.415147338
883.682360631
874.805049482
865.794901572
856.663601058
847.422862837
838.084498989
828.660538609
819.163439467
809.60636669
800.003529144
790.370556202
780.724900229
771.086245966
761.476902349
751.922135834
742.450394605
733.093340278
723.885603459
714.86412926
706.067041476
697.53197434
689.294038283
681.383937533
673.826907591
666.643575786
659.852482797
653.475443366
647.54493257
642.11461557
637.21728618
633.709212643
633.476193682
633.492318759
633.503601238
633.520146652
633.495376993
633.457005022
633.400656962
633.34130813
633.283216958
633.223039227
633.154491017
633.072276128
632.976611454
632.868821475
632.750086807
632.624115429
632.495533046
632.369739248
632.251864929
632.142999489
632.035699744
631.921408051
631.80988514
631.715029204
631.624536318
631.543704215
631.481504141
631.419480093
631.398936911
631.358535245
631.214086709
631.312475746
631.3383687
631.360738173
631.385446871
631.406217731
631.422825619
631.43512159
631.443529047
631.447760605
1025.35370641
1024.81981637
1023.76402935
1022.16905689
1020.04591027
1017.40647726
1014.26514975
1010.63842922
1006.54459424
1002.00336847
997.035612428
991.663037169
985.907928785
979.792868793
973.340437079
966.572893007
959.511840937
952.177900294
944.590410466
936.767209247
928.724522533
920.476994934
912.037868767
903.41928932
894.632677641
885.689087627
876.599462664
867.374747398
858.025877829
848.563731102
838.999127922
829.34293256
819.606294079
809.800989182
799.939843317
790.037206784
780.109473122
770.175628898
760.25780722
750.381818166
740.577565762
730.879295159
721.325474375
711.958162587
702.821588491
693.959771795
685.41320386
677.215317696
669.389910762
661.951904794
654.909937152
648.267571343
641.99248567
635.868252309
634.293055824
633.902159845
634.04539592
634.157051623
634.172708887
634.132468856
634.077882633
634.015945532
633.944910217
633.870971288
633.795641653
633.716133871
633.627667427
633.526700999
633.414206337
633.28995185
633.154138867
633.010247062
632.862257614
632.714532352
632.570760046
632.431767199
632.294219547
632.155354049
632.020572641
631.896670152
631.779975254
631.671346808
631.575870017
631.489196391
631.42427974
631.365776823
631.344275585
631.324552053
631.287891233
631.308757677
631.344276859
631.371420538
631.392518345
631.407929462
631.418070331
631.423276472
1032.30101962
1031.73839172
1030.62935657
1028.95456174
1026.72653462
1023.95882726
1020.66776806
1016.87197447
1012.59194194
1007.8496515
1002.66822721
997.071636751
991.084412554
984.731363188
978.037249302
971.026410802
963.722351531
956.147306817
948.321839375
940.264521294
931.991765961
923.517862384
914.855237208
906.014918531
897.007114027
887.841758799
878.528877416
869.07866709
859.501350123
849.80695591
840.005201808
830.105554837
820.117517152
810.051059236
799.917149803
789.728343346
779.49943174
769.248150822
758.995953613
748.768774408
738.597779843
728.519923827
718.578207227
708.821240869
699.301724145
690.073266286
681.185060474
672.675443717
664.566258262
656.865399756
649.566437194
642.608620474
635.549389855
634.614873604
634.726155193
634.815473181
634.901965973
634.897753533
634.865288616
634.801819935
634.72772342
634.6481535
634.562844187
634.473838547
634.380853642
634.281315405
634.171817537
634.05125583
633.920174354
633.777012793
633.6221102
633.458201749
633.288489621
633.116434912
632.944927574
632.775123878
632.606311014
632.438573209
632.27550836
632.120920179
631.974837953
631.838748473
631.715447379
631.603993198
631.508404951
631.428332316
631.376737254
631.354200086
631.313728444
631.23774191
631.304243103
631.341134303
631.366870855
631.385497347
631.397506371
631.403566698
1039.82173159
1039.22641085
1038.05710318
1036.29206331
1033.94566721
1031.03349569
1027.57421998
1023.58898563
1019.1008905
1014.13451533
1008.71555055
1002.87050485
996.626450437
990.010750037
983.050716993
975.773182995
968.203975511
960.367339715
952.285367936
943.977525639
935.460375012
926.747593056
917.850343061
908.777984214
899.538990149
890.141831267
880.59552182
870.909632066
861.093858892
851.157489199
841.10906208
830.956377563
820.706866058
810.368169251
799.948809383
789.458898664
778.910912547
768.320589587
757.707920319
747.098275501
736.523516659
726.023150805
715.645189129
705.446423208
695.491269236
685.848066711
676.580882101
667.737562751
659.338117164
651.380919314
643.80841397
636.140959899
635.160129753
635.406577641
635.680896367
635.740898073
635.740481056
635.687151661
635.618195712
635.533377882
635.442142195
635.347011922
635.247692085
635.14374801
635.033489831
634.914291025
634.783956588
634.643839823
634.492911626
634.328816474
634.152789674
633.966772562
633.773292557
633.575120912
633.374719134
633.173647998
632.972706975
632.773278865
632.57825763
632.390549386
632.211802605
632.044196974
631.890075833
631.750536912
631.627951661
631.523376469
631.440627142
631.379778883
631.322366801
631.298830852
631.285024263
631.321332726
631.348452497
631.369361285
631.382993298
631.389752937
1047.94713651
1047.31449826
1046.07679517
1044.2094945
1041.72924294
1038.65411512
1035.00564666
1030.80802992
1026.08742528
1020.87138721
1015.18847183
1009.06799363
1002.53984748
995.634295531
988.381636741
980.811711115
972.953236821
964.833022989
956.475147462
947.900227862
939.124947422
930.162003321
921.020610672
911.707585357
902.228837329
892.590858178
882.801624379
872.870452347
862.806996961
852.62011257
842.317143591
831.903881243
821.385124414
810.765523548
800.050445341
789.246769467
778.363774689
767.414181797
756.415456238
745.391242104
734.373052183
723.402102195
712.531305615
701.826986891
691.369256601
681.249210557
671.557409869
662.361152327
653.671720377
645.433370025
637.159345276
636.128731346
636.35185571
636.610926515
636.695357273
636.670545273
636.611177545
636.523509276
636.426079083
636.322031365
636.216093201
636.107673156
635.994862536
635.875547884
635.747312906
635.607800514
635.456168456
635.29501099
635.12243465
634.936149443
634.737605986
634.528326061
634.310291998
634.085692986
633.856628763
633.624836975
633.391844091
633.159600585
632.930797054
632.708232782
632.4943847
632.291952618
632.103615255
631.931644815
631.778526929
631.646035344
631.535978034
631.447301154
631.373610167
631.325983499
631.310084607
631.305049665
631.335295906
631.360007254
631.37534348
631.382708745
1056.71275652
1056.03733939
1054.72175018
1052.73821097
1050.10616758
1046.84678548
1042.98515415
1038.54918936
1033.56867385
1028.0745324
1022.09844495
1015.67272934
1008.83033261
1001.60475751
994.029785894
986.138922286
977.964546428
969.536830301
960.882536153
952.02387784
942.977687869
933.755177866
924.362564657
914.802703749
905.077554669
895.19080249
885.149498983
874.963590297
864.643727828
854.198997039
843.635594547
832.956800956
822.163980847
811.257948166
800.240087406
789.113159652
777.882165027
766.555557347
755.146781092
743.67613446
732.172909091
720.678145196
709.248127596
697.958688176
686.909307942
676.225585755
666.04897924
656.483342767
647.468470097
638.486796047
637.389784996
637.628061654
637.817376741
637.820723962
637.751572096
637.647024446
637.530536555
637.407093246
637.285418822
637.165265397
637.045989875
636.924074018
636.79595953
636.658549449
636.509243717
636.346512163
636.171759739
635.987022005
635.790102321
635.580196442
635.358508529
635.126167659
634.884549058
634.635187404
634.379676763
634.119588978
633.856598648
633.592783955
633.330742807
633.073338239
632.82352484
632.584465656
632.35937458
632.15133941
631.963371813
631.797966613
631.656988011
631.540357809
631.446184168
631.377792913
631.336935579
631.317043408
631.323036771
631.358044884
631.375503939
631.38320224
1066.15904057
1065.43434652
1064.02964612
1061.91346168
1059.10866127
1055.64026103
1051.53785371
1046.83400642
1041.56282802
1035.7590106
1029.45750502
1022.69367485
1015.50362141
1007.92438153
999.993781151
991.749827634
983.229624408
974.467873907
965.495116516
956.335942085
947.007524046
937.518940297
927.871814028
918.062699957
908.087185116
897.944685715
887.641736912
877.190840545
866.605729717
855.896972667
845.069684508
834.123750796
823.055838719
811.861816209
800.53823075
789.082798774
777.495048062
765.777595786
753.938047476
741.991126503
729.961155391
717.885499501
705.819689659
693.845348174
682.081049529
670.701180959
659.948563707
649.965836144
640.146092046
638.901630945
639.146166258
639.308239507
639.197937395
639.017425072
638.836094322
638.658376874
638.491896464
638.337501072
638.194941764
638.05891195
637.924132032
637.78481059
637.636264109
637.475036593
637.298881895
637.107674852
636.905398785
636.692995177
636.468775207
636.233969763
635.989349232
635.735514399
635.47303733
635.202581978
634.924969308
634.641232233
634.352735022
634.061330733
633.769410955
633.47979979
633.195664264
632.920500574
632.658018115
632.411996825
632.186154026
631.983816877
631.807624836
631.658962696
631.538310801
631.447356546
631.385885645
631.349183708
631.334804983
631.372084929
631.386902492
631.39210615
1076.33221163
1075.55052302
1074.04319584
1071.77496126
1068.77267155
1065.06612624
1060.69080748
1055.68529529
1050.08895023
1043.94058203
1037.27831536
1030.14029376
1022.56562028
1014.59503931
1006.27103527
997.637193898
988.736811915
979.610838639
970.295314094
960.818583644
951.198744306
941.44202949
931.543101583
921.488309556
911.262462364
900.857869519
890.28156451
879.552725455
868.692225714
857.714313715
846.622915054
835.412752241
824.07359431
812.594903455
800.967722041
789.184001222
777.236496849
765.120166202
752.834604286
740.386391996
727.791311347
715.077748999
702.292535867
689.51199629
676.860466512
664.557089504
653.026780658
642.139377045
640.647518014
640.830430918
640.993631147
640.806153459
640.495405278
640.195536315
639.929722841
639.695925048
639.492265023
639.312526529
639.149334875
638.993600244
638.837226926
638.673158638
638.496187645
638.3029217
638.091923781
637.864907936
637.6278788
637.382351511
637.128086671
636.867279924
636.600537134
636.327765421
636.048477833
635.762162725
635.468535609
635.167718564
634.860379768
634.547833067
634.232056196
633.915630354
633.601674901