/*--------------------------------*- C++ -*----------------------------------*\
| =========                 |                                                 |
| \\      /  F ield         | OpenFOAM: The Open Source CFD Toolbox           |
|  \\    /   O peration     | Version:  v1906                                 |
|   \\  /    A nd           | Web:      www.OpenFOAM.com                      |
|    \\/     M anipulation  |                                                 |
\*---------------------------------------------------------------------------*/
FoamFile
{
    version     2.0;
    format      ascii;
    class       volScalarField;
    location    "944";
    object      p;
}
// * * * * * * * * * * * * * * * * * * * * * * * * * * * * * * * * * * * * * //

dimensions      [0 2 -2 0 0 0 0];


internalField   nonuniform List<scalar> 
9216
(
273.486996961
273.566770055
273.731836035
273.983601021
274.320643806
274.741378959
275.243837139
275.825710229
276.484384357
277.216986524
278.020414796
278.891385765
279.82646118
280.822093853
281.874648083
282.98044196
284.135760142
285.336891807
286.580135628
287.861833661
289.178369171
290.526197361
291.901837133
293.301899705
294.723075434
296.162161289
297.616043721
299.081725706
300.556306409
302.037008258
303.521154031
305.006193663
306.489679058
307.969292227
309.442817608
310.908169684
312.363363849
313.806544401
315.235953757
316.649960503
318.047027264
319.425738756
320.784768597
322.122907294
323.439028274
324.732115769
326.00123038
327.245536799
328.464269203
329.65675877
330.822399205
331.960673983
333.071122267
334.153365809
335.207075507
336.23199787
337.227922404
338.194707529
339.132248977
340.040505004
340.91946593
341.769178499
342.589716659
343.381204897
344.143790331
344.87766487
345.583038662
346.260160935
346.909294847
347.530736881
348.124793159
348.691797284
349.232088165
349.746026256
350.233972954
350.6963052
351.133396508
351.545629931
351.933380796
352.297028048
352.636938757
352.953477869
353.246994571
353.517830483
353.766307946
353.99273672
354.197404289
354.380581185
354.542513516
354.683427376
354.803524585
354.902988582
354.981989725
355.040717049
355.079699106
355.096814026
273.407263828
273.487399125
273.65280916
273.905575933
274.244054681
274.666584285
275.171151741
275.755410506
276.416712001
277.152146453
277.95857856
278.832689717
279.771011573
280.769965521
281.825890876
282.935079364
284.093796478
285.298310277
286.54490583
287.829908725
289.149693381
290.500702251
291.879449141
293.282535262
294.706648696
296.148578323
297.6052104
299.073541126
300.550671023
302.033816624
303.520303035
305.007575331
306.493189669
307.974823513
309.450265721
310.917426845
312.374327762
313.819109428
315.250020512
316.665426743
318.063797645
319.443715496
320.803861326
322.143023534
323.460083336
324.754023105
326.023911459
327.268911387
328.488265172
329.68130237
330.847424752
331.986114182
333.096917743
334.179455542
335.23340617
336.258514435
337.254577251
338.221451291
339.159039382
340.067298017
340.946224296
341.795863234
342.61629526
343.407643226
344.170060464
344.9037374
345.608890158
346.28576669
346.934635912
347.555793286
348.149550477
348.71624034
349.256207111
349.769810771
350.257417804
350.719404937
351.156150496
351.56803755
351.955445921
352.318754756
352.658335253
352.974552706
353.267760006
353.538299208
353.78649587
354.012660193
354.217082257
354.400032796
354.56175936
354.702486716
354.822413648
354.921711746
355.000519025
355.058920484
355.096843175
355.113932517
273.241430022
273.32271355
273.489656391
273.744727929
274.086251807
274.512521688
275.021463751
275.610663143
276.277400337
277.018692265
277.831332181
278.711931137
279.656955595
280.662765042
281.725643966
282.841833324
284.007555549
285.219039346
286.472537861
287.764347444
289.090819965
290.448376739
291.833516285
293.242824708
294.672980129
296.120760624
297.583046311
299.056825642
300.539195804
302.027367863
303.518665862
305.010531154
306.50052044
307.986309157
309.465688585
310.936568673
312.396974171
313.845046748
315.279040302
316.697322451
318.098369117
319.480765459
320.843199853
322.184464363
323.503448251
324.799138109
326.070611047
327.317034598
328.53765974
329.731820685
330.898927881
332.038467779
333.149995938
334.233136851
335.287577255
336.313066055
337.309407909
338.276463274
339.2141423
340.12240498
341.001255348
341.850741704
342.670951093
343.462009534
344.224076741
344.957346294
345.662040552
346.338410701
346.986731813
347.607302722
348.200441212
348.766483676
349.305780432
349.818695157
350.305600345
350.766876531
351.202907916
351.614081421
352.000782521
352.363394172
352.702292908
353.017847686
353.31041631
353.580344249
353.82796143
354.053581077
354.25749692
354.439982068
354.601286601
354.741636333
354.861230383
354.960238965
355.03879894
355.097003688
355.134820348
355.15286583
272.986467315
273.069037795
273.238378052
273.497053952
273.843328022
274.275418117
274.791156691
275.388023829
276.063188895
276.813555058
277.635803289
278.52643589
279.481817186
280.498211812
281.571818691
282.698801903
283.875316844
285.097533492
286.361655252
287.663935627
289.000691099
290.368312718
291.763274572
293.182141781
294.621575942
296.078340732
297.549305332
299.031448468
300.52186045
302.017746117
303.516425833
305.0153375
306.512036696
308.004197986
309.489614092
310.966196378
312.431973251
313.885089891
315.323805874
316.7464942
318.15163822
319.537830053
320.903766925
322.248249093
323.570175731
324.868542482
326.142437048
327.391036503
328.613602727
329.809479623
330.978088521
332.118925415
333.231556461
334.315615325
335.370798862
336.396864642
337.393626864
338.36095409
339.298765421
340.207028425
341.085755564
341.935002292
342.754863675
343.545472606
344.306996568
345.03963589
345.743620594
346.419208621
347.06668272
347.686348585
348.278531747
348.843575607
349.381838306
349.893690655
350.379512997
350.839693052
351.274622803
351.684696293
352.070306582
352.431843542
352.769690946
353.084224315
353.375808186
353.644794075
353.891517973
354.116298462
354.319434478
354.501203581
354.661859951
354.801632714
354.920723932
355.019306626
355.097522437
355.155477815
355.193165929
355.211379031
272.641294723
272.725514017
272.898143677
273.161773288
273.514572013
273.95464689
274.479698362
275.087059893
275.773745945
276.536501945
277.37185334
278.276152912
279.245624765
280.276404513
281.364574789
282.506196355
283.697334452
284.934081146
286.212573596
287.529009223
288.879657741
290.260871105
291.669091226
293.100856455
294.552806552
296.021687028
297.504352429
298.997769365
300.499018703
302.005297695
303.513921346
305.022323649
306.528058268
308.028799271
309.522340765
311.006596707
312.479599886
313.939500935
315.384566539
316.813177704
318.223827258
319.615117474
320.985756982
322.334557868
323.660432135
324.96238842
326.239528157
327.491042069
328.716206173
329.914378194
331.084993557
332.227561847
333.34166291
334.426943462
335.483113385
336.509942562
337.507257428
338.474938051
339.412914962
340.321166483
341.1997158
342.048628507
342.868009869
343.658002509
344.418783797
345.150563602
345.85358173
346.528105666
347.174427998
347.7928641
348.383749495
348.947437446
349.484296245
349.994706721
350.479059459
350.937752243
351.371187254
351.779768489
352.163898983
352.523978259
352.860399639
353.17354778
353.463796136
353.731504636
353.977017342
354.20066033
354.402739565
354.583538999
354.743318677
354.882312989
355.000728953
355.09874476
355.176508444
355.234136278
355.271633872
355.289827862
272.20412963
272.290440492
272.467305776
272.737322121
273.098529628
273.548884442
274.085910422
274.706746654
275.408203411
276.186819468
277.038917629
277.960657198
278.948081951
279.997162871
281.103835189
282.264029831
283.473699483
284.728839853
286.025506638
287.359828966
288.728019823
290.126384206
291.551325381
292.999349851
294.467071242
295.951213535
297.448613686
298.956223927
300.471113653
301.990471105
303.511604667
305.031943785
306.54903974
308.060566263
309.564319148
311.058215885
312.540294735
314.008713505
315.461747814
316.897789089
318.315342103
319.713022291
321.089552668
322.443760608
323.774574297
325.081019128
326.362213847
327.617366734
328.845771604
330.046803928
331.219916841
332.364637334
333.480562408
334.567355446
335.624742602
336.652509444
337.650497624
338.618601827
339.556766749
340.464984327
341.343290996
342.191765162
343.010524668
343.79972442
344.559553983
345.290235276
345.992020194
346.665188296
347.310044377
347.926916076
348.516151358
349.078116013
349.613191025
350.121769961
350.604256251
351.061060495
351.492597693
351.899284525
352.281536584
352.639765694
352.974377215
353.285767453
353.574321113
353.840408864
354.084384981
354.306585129
354.507324239
354.68689453
354.845563645
354.983572941
355.101135925
355.198436966
355.275630503
355.332839809
355.370076336
355.388168165
271.672694915
271.761596484
271.943725937
272.221680173
272.593330379
273.05643546
273.608290495
274.245784609
274.965467317
275.763615434
276.636296829
277.579429426
278.588833941
279.660279608
280.789522695
281.972338085
283.204544494
284.482024137
285.800737678
287.156735384
288.546165269
289.96527901
291.410436215
292.878107597
294.364877412
295.867445466
297.382628849
298.907363523
300.438705777
301.973833557
303.51004757
305.044772089
306.575555719
308.100071961
309.61611875
311.121618027
312.614614795
314.093275748
315.555887475
317.000854274
318.426695572
319.83204302
321.215637269
322.576324497
323.913052707
325.224867859
326.510909866
327.770408516
329.002679342
330.207119499
331.383203675
332.530480074
333.648566505
334.737146596
335.795966161
336.824829739
337.823597294
338.792181112
339.730542852
340.638690784
341.516677153
342.364595687
343.1825792
343.970797278
344.729453999
345.458785696
346.159058691
346.830567019
347.473630094
348.088590318
348.675810621
349.235671924
349.768570526
350.274915435
350.755125627
351.20962727
351.638850911
352.043228658
352.423191358
352.779165808
353.111572
353.420820432
353.707309492
353.97142294
354.213527487
354.43397051
354.633077879
354.811151941
354.968469648
355.10528084
355.221806738
355.318238827
355.394737916
355.451432662
355.488338762
355.50627823
271.044168103
271.136218037
271.324747306
271.612345658
271.996667987
272.475220538
273.04500724
273.70260143
274.444225844
275.265831853
276.163173591
277.131874926
278.167487741
279.265540885
280.421579904
281.631198208
282.890060673
284.193920862
285.538633075
286.920160411
288.334579879
289.778085465
291.246989878
292.737725567
294.24684539
295.771023244
297.307054778
298.851858265
300.40247559
301.956073315
303.509943501
305.061504709
306.608302686
308.148010773
309.678429582
311.197486483
312.703234587
314.193851294
315.667636355
317.123009524
318.558507786
319.972782237
321.364594631
322.732813657
324.076410987
325.394457158
326.686117311
327.950646879
329.187387213
330.395761253
331.575269232
332.725484492
333.84604941
334.936671504
335.997119696
337.027220801
338.026856191
338.995958705
339.934509731
340.842536511
341.720109588
342.567340424
343.384379117
344.171412213
344.928660551
345.656377143
346.354845014
347.024375018
347.665303567
348.277990299
348.86281563
349.420178227
349.950492372
350.454185248
350.931694145
351.383463609
351.809942543
352.211581301
352.588828766
352.942129458
353.271920684
353.578629747
353.862671235
354.124444411
354.364330715
354.582691398
354.779865293
354.956166741
355.111883682
355.247275938
355.362573695
355.457976251
355.533651167
355.589732581
355.626240074
355.6439881
270.315119053
270.410945311
270.607147039
270.906294826
271.305768906
271.802754705
272.393888951
273.07534995
273.842955425
274.692257555
275.618629958
276.617344203
277.683634278
278.812748708
279.999990883
281.24074885
282.530516142
283.864905353
285.239656131
286.65063911
288.093857076
289.565444468
291.061666019
292.578915195
294.113712826
295.662706193
297.222668668
298.790499878
300.363226302
301.938002156
303.512110056
305.082962252
306.648101391
308.205200827
309.752064417
311.286625973
312.806948209
314.311221157
315.797760101
317.265003012
318.711507567
320.135947754
321.537110152
322.913889902
324.265286472
325.590399212
326.88842282
328.158642713
329.400430405
330.613238893
331.796598147
332.950110696
334.073447394
335.166343362
336.228594159
337.260052185
338.260623334
339.230263895
340.168977707
341.076813518
341.953862572
342.800256343
343.616164416
344.401792446
345.157380173
345.883199438
346.579552169
347.246768294
347.885203576
348.495237318
349.07726996
349.631720537
350.159024028
350.659628579
351.133992639
351.582582017
352.005866885
352.404318747
352.77840741
353.128597965
353.455347818
353.759103779
354.040299244
354.299351476
354.536659011
354.7525992
354.947525907
355.12176737
355.27562424
355.409367803
355.523238404
355.617444268
355.692160316
355.74752626
355.783566679
355.801087966
269.481434299
269.58175315
269.787074492
270.099930704
270.517353576
271.036122126
271.652411524
272.361908203
273.159931028
274.041546447
275.001671256
276.035160206
277.136877074
278.30174939
279.524808212
280.801214994
282.12627797
283.495460437
284.904383182
286.348822974
287.824708723
289.328116552
290.855264717
292.402509034
293.96633922
295.543376337
297.130371358
298.724204731
300.321886722
301.920558298
303.517491787
305.110092465
306.695899618
308.272586732
309.837961483
311.389965215
312.926671823
314.446286069
315.94714132
317.427696768
318.886534158
320.322354105
321.733972018
323.120313746
324.48041096
325.813396377
327.118498851
328.39503842
329.642421341
330.860135195
332.047744072
333.204883933
334.331258146
335.426633271
336.490835088
337.523744936
338.525296319
339.495471844
340.434300417
341.341854736
342.218249002
343.06363684
343.87820936
344.662193327
345.415849367
346.139470175
346.83337866
347.497926013
348.133489623
348.740470873
349.319292754
349.870397331
350.394243037
350.891301843
351.362056296
351.806996458
352.226616785
352.621412964
352.991878728
353.338502706
353.661765303
353.962135657
354.240068684
354.496002236
354.7303544
354.94352093
355.135872861
355.307754284
355.459480309
355.591335248
355.703570983
355.796405563
355.870022169
355.924567137
355.96007049
355.977330006
268.538221892
268.643862078
268.859973074
269.189019569
269.627590031
270.171947717
270.817687425
271.559883856
272.3932433
273.312244225
274.311259141
275.384654765
276.526869543
277.732469736
278.996186626
280.312938152
281.677838465
283.086198721
284.533522009
286.015494822
287.527976936
289.066991118
290.628713656
292.209466363
293.805710423
295.414042163
297.03119067
298.654016953
300.279514298
301.904809402
303.5271633
305.143973446
306.752775384
308.351242745
309.93718759
311.508559918
313.06344652
314.600069144
316.116782034
317.612068861
319.084539143
320.532924165
321.956072539
323.352945411
324.722611444
326.064241605
327.377103861
328.660557812
329.914049366
331.137105465
332.329328972
333.490393719
334.620039812
335.718069196
336.784341553
337.818770527
338.821320324
339.792002646
340.730874005
341.638033328
342.513619873
343.357811353
344.170822255
344.952902248
345.704334652
346.425434869
347.116548746
347.778050796
348.410342263
349.01384898
349.589019032
350.136320196
350.6562372
351.149268789
351.615924654
352.056722228
352.47218341
352.862831232
353.22918651
353.571764515
353.891071694
354.187602456
354.461836073
354.714233695
354.945235512
355.155258081
355.344691819
355.513898696
355.663210126
355.792925037
355.903308177
355.994588784
356.066959219
356.120572884
356.155466643
356.172428854
267.479690004
267.591624922
267.820481458
268.168612322
268.63203853
269.206365835
269.886457071
270.666625292
271.540825321
272.502826323
273.546356415
274.665216376
275.853362599
277.104962092
278.414423934
279.776412247
281.185845674
282.637887778
284.127932094
285.651584666
287.204646239
288.783095579
290.383074954
292.000878341
293.632942662
295.275841993
296.926284471
298.581111443
300.237298218
301.89195584
303.542332675
305.185817207
306.819940584
308.442376448
310.050941742
311.643596305
313.218441651
314.773718992
316.307806505
317.819215943
319.306588638
320.768691012
322.204409639
323.612745991
324.992810908
326.343818918
327.665082437
328.956005964
330.216080297
331.444876868
332.64204223
333.807292792
334.940409804
336.04123471
337.109664848
338.145649589
339.149186876
340.120320231
341.059136144
341.965761891
342.840363654
343.683144945
344.494345215
345.2742386
346.023132681
346.741367224
347.429312786
348.087369156
348.715963563
349.315548638
349.8866001
350.429614189
350.94510484
351.433600645
351.895641621
352.331775848
352.742555987
353.128535754
353.490266368
353.828293019
354.143151389
354.435364265
354.705438248
354.953860622
355.181096356
355.387585304
355.573739581
355.739941149
355.886539604
356.013850202
356.122152087
356.211686733
356.282656781
356.335223988
356.369432447
356.386060142
266.298991049
266.418381595
266.66230891
267.032947599
267.525586403
268.134987285
268.855085501
269.679243254
270.600493299
271.611751422
272.705987436
273.876352514
275.116264957
276.41945991
277.780010157
279.192325563
280.651138042
282.151477918
283.688646177
285.258185935
286.855855388
288.477603739
290.119550992
291.777972107
293.449285628
295.130046599
296.816943238
298.506796628
300.196562513
301.883334164
303.564345218
305.236973667
306.898745157
308.547332961
310.180559332
311.796395155
313.392958676
314.968513289
316.521464502
318.050356126
319.553865812
321.030800023
322.480088558
323.900778712
325.292029193
326.653103859
327.98336539
329.282268936
330.549355852
331.784247543
332.986639533
334.156295778
335.293043341
336.396767429
337.467406918
338.504950335
339.509432392
340.480931009
341.419564884
342.325491502
343.198905582
344.04003783
344.849153951
345.62655378
346.372570454
347.087569495
347.77194775
348.426132071
349.05057772
349.645766426
350.212204116
350.750418301
351.260955158
351.744376335
352.201255544
352.632174964
353.037721542
353.418483218
353.775045134
354.107985866
354.417873723
354.705263136
354.970691181
355.214674251
355.437704907
355.640248916
355.822742505
355.985589827
356.129160665
356.253788335
356.359767837
356.447354412
356.516762029
356.568161262
356.601604882
356.617859371
264.988019799
265.116272553
265.37807743
265.7753327
266.302372476
266.952866973
267.719568799
268.594648757
269.57000732
270.637536247
271.789319097
273.017770352
274.315718891
275.676445501
277.093685722
278.561608901
280.074782906
281.628131864
283.216892286
284.836571117
286.482907931
288.151842508
289.839488458
291.542113176
293.256124072
294.978060679
296.704591839
298.43251683
300.158769129
301.880420642
303.594687495
305.298935196
306.990681868
308.667599827
310.327516959
311.968416491
313.588435591
315.185862887
316.759135011
318.30683229
319.8276737
321.320511221
322.784323691
324.218210313
325.621383896
326.993163959
328.332969765
329.640313391
330.914792869
332.156085515
333.363941471
334.538177582
335.678671639
336.785357113
337.858218399
338.897286675
339.902636366
340.874382261
341.812677243
342.717710601
343.589706836
344.428924874
345.235657552
346.010231272
346.75300564
347.464373032
348.144757897
348.79461577
349.414431871
350.004719308
350.566016812
351.098886078
351.603908701
352.081682792
352.532819323
352.957938267
353.357664617
353.732624314
354.083440181
354.410727875
354.715091927
354.997121889
355.25738863
355.496440804
355.714801514
355.912965193
356.091394709
356.250518712
356.390729218
356.512379461
356.615781976
356.701206902
356.768880734
356.818984257
356.85157924
356.867419441
263.537149451
263.675996731
263.959120956
264.387997446
264.955701138
265.6544763
266.475557182
267.409615637
268.447160671
269.57885945
270.795768727
272.089480618
273.452194537
274.876731682
276.356509217
277.885489676
279.458117994
281.069255247
282.714114975
284.388205549
286.087280252
287.807295812
289.544379562
291.294805247
293.054977255
294.821422712
296.590790284
298.359854049
300.12552049
301.884835247
303.634992521
305.373341944
307.097391876
308.80481266
310.49343804
312.161264971
313.806452025
315.427316505
317.022330466
318.590115775
320.129438375
321.639201874
323.118440642
324.566312519
325.982091307
327.365159126
328.714998759
330.031186028
331.313382325
332.561327295
333.774831828
334.953771372
336.098079725
337.207743336
338.282796278
339.323315892
340.329419218
341.301260181
342.239027566
343.14294367
344.0132636
344.850275032
345.654298333
346.425686827
347.164827084
347.872139021
348.548075713
349.193122762
349.807797172
350.392645663
350.948242441
351.47518642
351.974097987
352.445615351
352.890390585
353.309085429
353.702366965
354.0709032
354.415358666
354.736390056
355.034641964
355.31074276
355.56530063
355.798899823
356.012097106
356.205418467
356.379356067
356.534365457
356.670863066
356.789223926
356.88977968
356.972817026
357.0385761
357.087248344
357.118906053
357.134288903
261.934882319
262.086494669
262.395228307
262.861915268
263.477947464
264.233687408
265.118405488
266.120879947
267.229909698
268.434704894
269.725146982
271.09193011
272.526605971
274.021558589
275.56993467
277.165550943
278.802794443
280.476526169
282.181994035
283.914757653
285.670625527
287.445604245
289.235859184
291.037686401
292.84749548
294.661802734
296.477233267
298.290529476
300.098563079
301.898346265
303.687044831
305.461987886
307.220671195
308.960761743
310.680099293
312.376696127
314.048735072
315.694566074
317.312701524
318.901810557
320.460712456
321.988369357
323.483878413
324.946463605
326.375467344
327.770342007
329.130641484
330.456012832
331.746188066
333.000976183
334.220255459
335.403966161
336.552103738
337.664712665
338.741881006
339.783735852
340.790439655
341.762187539
342.69920553
343.601749692
344.470105987
345.304590781
346.105551718
346.873368816
347.608455518
348.311259515
348.98226314
349.62198321
350.230970183
350.809806632
351.359104982
351.879504599
352.371668282
352.836278279
353.274031931
353.685637064
354.071807235
354.433256913
354.770696682
355.084828522
355.376341207
355.645905873
355.894171781
356.121762306
356.329271176
356.517258981
356.686249959
356.836729083
356.969139417
357.083879797
357.18130278
357.261712816
357.325364947
357.372462757
357.403089346
357.417968872
260.167381238
260.334528484
260.674311898
261.186585098
261.860457564
262.683781276
263.643267589
264.725294086
265.916560779
267.204558046
268.577845658
270.026169122
271.540452023
273.112706213
274.735897151
276.403793273
278.110818833
279.85192134
281.622458254
283.418103432
285.234771602
287.068558687
288.915696375
290.772520417
292.635452786
294.500997507
296.365748293
298.226404545
300.079790976
301.922875452
303.752786973
305.566828109
307.362478372
309.137399763
310.889438314
312.616623554
314.317165978
315.989452805
317.632042456
319.243657888
320.823179002
322.369634259
323.882191767
325.360150016
326.802928481
328.210058225
329.581172596
330.915998063
332.214345246
333.476100151
334.70121573
335.889703823
337.041627689
338.157095211
339.23625302
340.279281591
341.286391502
342.257820837
343.193833786
344.094720317
344.960796823
345.792407503
346.589926255
347.353758771
348.084344597
348.782158823
349.447713237
350.081556699
350.684274673
351.256487815
351.798849674
352.31204354
352.796778588
353.253785428
353.683811253
354.087614707
354.465960617
354.819614695
355.149338288
355.455883247
355.739986952
356.002367533
356.24371933
356.464708603
356.66596953
356.848100512
357.011660786
357.157167368
357.285092317
357.395860295
357.489846436
357.567374713
357.628716236
357.674087151
357.703582991
357.717910802
258.217830651
258.404118053
258.781977894
259.349767948
260.093453497
260.99749974
262.045260146
263.220061619
264.506037411
265.888673265
267.3550824
268.894060211
270.495983891
272.152621533
273.856903829
275.60269575
277.384590439
279.19773523
281.037691193
282.900322552
284.781710422
286.678085742
288.585778333
290.501181661
292.420734767
294.340922549
296.25829239
298.169481999
300.071249952
301.960504586
303.8343278
305.689987759
307.524943697
309.336850973
311.123562385
312.883127215
314.613787775
316.313974078
317.982297186
319.617541464
321.21865576
322.78474375
324.315053715
325.808968031
327.265992617
328.685746522
330.067951696
331.412423
332.719058385
333.987829309
335.218771396
336.411975526
337.56757949
338.685760464
339.766728487
340.810721182
341.817999827
342.788846905
343.723565106
344.622477726
345.48593025
346.314292894
347.107963757
347.867372236
348.592982315
349.285295394
349.944852343
350.572234568
351.168063925
351.733001453
352.267744935
352.773025422
353.24960286
353.698261048
354.119802129
354.515040803
354.884798445
355.22989724
355.551154418
355.849376666
356.125354734
356.379858286
356.613631018
356.827386072
357.021801775
357.19751772
357.355131205
357.495194031
357.618209646
357.724630672
357.814856736
357.88923256
357.948046635
357.991529225
358.019788544
358.033512849
256.065549512
256.275772993
256.700965289
257.337174303
258.165961715
259.167174619
260.319734643
261.603090444
262.998258837
264.488434756
266.059215934
267.698534054
269.396399335
271.144556385
272.936124736
274.765270009
276.626928092
278.516587595
280.430125163
282.363682934
284.313576313
286.276222476
288.248084503
290.225631621
292.205320198
294.183600582
296.156947633
298.121907261
300.07514368
302.013485037
303.933953013
305.833773048
307.710380277
309.561422003
311.384758781
313.178462979
314.940813978
316.670291181
318.365566045
320.025493113
321.649099796
323.235575149
324.784258094
326.29462541
327.76627987
329.198938719
330.59242253
331.946644347
333.261599049
334.53735283
335.77403288
336.971817395
338.130926197
339.25161221
340.334154152
341.378850681
342.386016243
343.355978722
344.289078974
345.185672079
346.046130157
346.870846365
347.660239687
348.414759998
349.134892973
349.821164308
350.474142936
351.09444289
351.68272369
352.239689159
352.766084765
353.262693631
353.730331475
354.169840748
354.58208428
354.967938685
355.32828773
355.664015812
355.976001628
356.265112078
356.532196426
356.778080742
357.003562657
357.209406455
357.396338524
357.565043214
357.716159084
357.850275561
357.967930007
358.069605133
358.15572679
358.226662292
358.282718682
358.324140724
358.351051027
358.364117193
253.684733197
253.925430296
254.410411612
255.132105843
256.065801368
257.184988321
258.462716969
259.873518423
261.39467277
263.006839368
264.694146166
266.443895511
268.246059014
270.092707441
271.977473349
273.895097963
275.841078947
277.811413489
279.802419183
281.810610603
283.832610256
285.865077544
287.904647868
289.9478845
291.991254894
294.031146084
296.063916598
298.085972726
300.093844384
302.084251041
304.054138786
306.000684797
307.921297307
309.813614654
311.675506708
313.505073553
315.300638405
317.060738028
318.784113272
320.469699049
322.116612466
323.724139677
325.291722176
326.81894298
328.305513223
329.751259523
331.156111932
332.520092352
333.843303078
335.12591534
336.368157813
337.570305349
338.732668228
339.85558239
340.939401024
341.984487964
342.991213144
343.959950373
344.891077439
345.784978494
346.642048379
347.462698526
348.247363826
348.996509862
349.710639837
350.390300617
351.036087351
351.648646346
352.228675938
352.776925364
353.294191703
353.781315152
354.239172988
354.668672609
355.070744081
355.446332522
355.79639059
356.121871214
356.423720644
356.702871823
356.960238075
357.196707117
357.413135418
357.610342935
357.789108274
357.950164284
358.094194129
358.221827811
358.333639138
358.430143137
358.511793851
358.578982403
358.632035709
358.671214618
358.696656341
358.709005854
251.042625238
251.322960722
251.884893504
252.715073136
253.779700048
255.043454214
256.471604026
258.032488498
259.698998664
261.449134632
263.26581178
265.136177118
267.050712833
269.002342305
270.985660993
272.996339638
275.030698896
277.085428917
279.157416666
281.243642024
283.341107536
285.446775434
287.557499448
289.669958209
291.780615459
293.885745788
295.981519716
298.064128942
300.129909213
302.175436685
304.197568957
306.193434718
308.160415783
310.096140911
311.998491144
313.865600841
315.695846191
317.48783086
319.240375328
320.952506666
322.623444701
324.252586281
325.839489203
327.383856043
328.885518987
330.344426084
331.760628539
333.13426858
334.465567398
335.754812679
337.002345798
338.208548899
339.373832416
340.498623602
341.583356682
342.62846514
343.634376639
344.601510808
345.530280083
346.421093428
347.274362657
348.090510741
348.869981406
349.613249135
350.320828754
350.993283737
351.63123265
352.235353187
352.806383624
353.345121604
353.852420461
354.329183416
354.776356164
355.194918429
355.585875063
355.950247165
356.289063528
356.603352556
356.894134679
357.162415188
357.409177448
357.635376454
357.841932766
358.029726855
358.199593933
358.35231929
358.488634169
358.609212174
358.714666188
358.805545735
358.882334778
358.945450096
358.995239609
359.031980543
359.055826478
359.067397565
248.096783055
248.430034038
249.093188405
250.063452612
251.293659492
252.736257942
254.346250607
256.084281249
257.918254645
259.823648725
261.782791416
263.783525404
265.817711319
267.879884374
269.966200556
272.073692048
274.199791855
276.342064964
278.498079766
280.665357695
282.841347161
285.023380118
287.208590288
289.393804934
291.575459271
293.749634871
295.912197049
298.059002519
300.186106919
302.289903387
304.367157244
306.414964488
308.430686766
310.411940645
312.356618754
314.262899742
316.129225941
317.954279055
319.736970101
321.47643193
323.172002525
324.823205416
326.429730659
327.991415497
329.508226963
330.980247367
332.407661293
333.79074347
335.12984642
336.425387062
337.677832259
338.887683804
340.055463614
341.1817
342.266915808
343.311619222
344.316297794
345.281416192
346.207417829
347.094730321
347.943774296
348.75497488
349.528774809
350.265648094
350.96611299
351.630743283
352.260176943
352.855121631
353.41635672
353.944731865
354.44116234
354.906621674
355.342132293
355.748755037
356.127578354
356.479707837
356.806256481
357.108335765
357.387047463
357.643476007
357.878681235
358.093691479