/*--------------------------------*- C++ -*----------------------------------*\
| =========                 |                                                 |
| \\      /  F ield         | OpenFOAM: The Open Source CFD Toolbox           |
|  \\    /   O peration     | Version:  v1906                                 |
|   \\  /    A nd           | Web:      www.OpenFOAM.com                      |
|    \\/     M anipulation  |                                                 |
\*---------------------------------------------------------------------------*/
FoamFile
{
    version     2.0;
    format      ascii;
    class       volVectorField;
    location    "707";
    object      Ua;
}
// * * * * * * * * * * * * * * * * * * * * * * * * * * * * * * * * * * * * * //

dimensions      [0 1 -1 0 0 0 0];


internalField   nonuniform List<vector> 
9216
(
(-0.00666439144155 0.00666734032462 0)
(-0.00685112221694 0.0207928014553 2.37935222255e-27)
(-0.00683692844839 0.0349979760423 -4.6126135664e-31)
(-0.00678865947584 0.0491940823958 0)
(-0.00672109597911 0.0632441007529 0)
(-0.00663584390161 0.0771127106021 0)
(-0.00653424241711 0.0907604971783 0)
(-0.00641740847917 0.104150832882 0)
(-0.00628615814447 0.11724952921 0)
(-0.00614157596114 0.130024729044 0)
(-0.00598448134589 0.142447130777 0)
(-0.00581601742747 0.154489879881 0)
(-0.00563698496799 0.166128735709 0)
(-0.00544852086407 0.177341877418 0)
(-0.00525133084924 0.188109966568 0)
(-0.00504646502998 0.198415862863 0)
(-0.00483445914956 0.208244588905 0)
(-0.00461620617899 0.217582978045 0)
(-0.00439201637275 0.226419560405 0)
(-0.00416257885325 0.234744176868 0)
(-0.00392795176798 0.242547815486 0)
(-0.00368860387902 0.249822235636 0)
(-0.00344434971003 0.256559783803 0)
(-0.00319545384715 0.262753072481 0)
(-0.00294152883579 0.268394802352 0)
(-0.0026826791326 0.273477538428 0)
(-0.00241838593756 0.277993554538 0)
(-0.00214866002082 0.281934741812 0)
(-0.00187294521056 0.285292486806 0)
(-0.00159124508759 0.288057737273 0)
(-0.00130307887436 0.290220951828 0)
(-0.00100852146135 0.291772306991 0)
(-0.000707293070825 0.29270164642 0)
(-0.000399684522644 0.292999016855 0)
(-8.57716333624e-05 0.292654632102 0)
(0.000233846658939 0.291659592613 0)
(0.000558604375776 0.29000589837 0)
(0.000887491628401 0.287687385585 0)
(0.00121933614905 0.28469973301 0)
(0.001552659036 0.281041581456 0)
(0.00188561939912 0.276714476785 0)
(0.00221627516739 0.271724101505 0)
(0.002542129052 0.266080085251 0)
(0.00286085876796 0.259797263665 0)
(0.00316939933821 0.252895292943 0)
(0.00346519692789 0.245399844867 0)
(0.00374477294009 0.237342000652 0)
(0.00400553278817 0.228759294477 0)
(0.00424378466358 0.219694911109 0)
(0.00445710315873 0.210198469225 0)
(0.00464183406187 0.200325095036 0)
(0.00479595461552 0.190135807048 0)
(0.00491615867741 0.179696532871 0)
(0.00500108178701 0.169077945808 0)
(0.00504812413029 0.158354477317 0)
(0.00505684896807 0.147603532774 0)
(0.0050257361767 0.13690446867 0)
(0.00495557098627 0.126337197939 0)
(0.00484625173378 0.115981045616 0)
(0.00470000085955 0.105912949771 0)
(0.00451837414541 0.0962061911203 0)
(0.00430527655277 0.0869282118558 0)
(0.0040642146533 0.0781390674371 0)
(0.00380074865642 0.0698891852878 0)
(0.00352010227381 0.0622183553921 0)
(0.00322993613139 0.0551528239379 0)
(0.00293759160809 0.0487035170612 0)
(0.00265096284674 0.0428650102363 0)
(0.00237575052549 0.0376180142276 0)
(0.00211666226475 0.0329321849843 0)
(0.00187600414569 0.0287703856065 0)
(0.00165527590865 0.025091518171 0)
(0.00145438099789 0.0218534959785 0)
(0.0012730260923 0.0190146845453 0)
(0.00111009917531 0.01653522554 0)
(0.000964768918315 0.0143772882748 0)
(0.000835776015852 0.0125053457513 0)
(0.000722142566349 0.0108861494774 0)
(0.000622383162349 0.0094891044978 0)
(0.000535236860843 0.00828647769981 0)
(0.000459051816084 0.00725362426225 0)
(0.000392361184509 0.00636906490651 0)
(0.000332987963776 0.00561474005039 0)
(0.00027667609539 0.00498338541576 0)
(0.000214378038999 0.004395095776 0)
(0.000191268107061 0.00404046548733 0)
(0.000182943276499 0.00364306760138 0)
(0.000160425128877 0.00329874960006 0)
(0.000159368731379 0.00300446324661 0)
(0.000168948657285 0.00267479569507 0)
(0.000167316785304 0.00234774900144 0)
(0.000167723370175 0.00200488338982 0)
(0.000187059873824 0.00163886687506 0)
(0.000210306496968 0.00124365529164 0)
(0.000236924720232 0.000769658442976 0)
(0.000254221951027 0.0002475003779 0)
(-0.020823593263 0.00689100644668 0)
(-0.0219845456393 0.0220855397408 0)
(-0.0219108099174 0.0371922986398 -2.4457294906e-27)
(-0.0217246669216 0.0523022829896 0)
(-0.02147120111 0.0672448496662 0)
(-0.0211556861101 0.0819904717816 0)
(-0.0207816088564 0.0964988884961 0)
(-0.020352642783 0.110731693832 0)
(-0.0198722624441 0.124652638734 0)
(-0.0193444867175 0.138227915538 0)
(-0.0187730459494 0.15142638448 0)
(-0.0181621787341 0.164219591998 0)
(-0.0175156156093 0.176581857258 0)
(-0.0168375081392 0.188490166144 0)
(-0.01613127252 0.199924138446 0)
(-0.0154006665022 0.210865816089 0)
(-0.0146485125515 0.221299527328 0)
(-0.0138779255897 0.23121159296 0)
(-0.0130909344419 0.240590113252 0)
(-0.0122898552652 0.249424627243 0)
(-0.0114758303931 0.257705857534 0)
(-0.0106503336205 0.265425365866 0)
(-0.0098136473054 0.272575293971 0)
(-0.0089664728987 0.279148059604 0)
(-0.008108369315 0.285136128137 0)
(-0.00723943103043 0.290531787521 0)
(-0.00635871869711 0.295326975179 0)
(-0.00546595693938 0.299513161251 0)
(-0.00456000016833 0.303081246765 0)
(-0.00364049605832 0.306021581127 0)
(-0.0027064451043 0.3083239254 0)
(-0.00175774021792 0.309977673613 0)
(-0.000793905815781 0.310971920986 0)
(0.000184515140355 0.311295772449 0)
(0.00117702344015 0.310938554127 0)
(0.00218205909974 0.309890343871 0)
(0.0031977418746 0.308142256625 0)
(0.00422115625439 0.305687153787 0)
(0.00524871052336 0.302519993994 0)
(0.00627592809258 0.298638672373 0)
(0.00729734605728 0.29404437786 0)
(0.00830692672222 0.288742487699 0)
(0.00929740792612 0.282742849279 0)
(0.010261430523 0.27606063674 0)
(0.0111902411001 0.26871647942 0)
(0.0120756035536 0.260737194905 0)
(0.0129077628278 0.25215571442 0)
(0.013678173077 0.243011628196 0)
(0.0143766792398 0.233350901804 0)
(0.0149950549479 0.223226179262 0)
(0.0155234601101 0.212696308312 0)
(0.0159547062426 0.201826319831 0)
(0.0162801420892 0.190686758895 0)
(0.0164944452527 0.179353246812 0)
(0.0165911469347 0.167905613725 0)
(0.0165676903178 0.156427001869 0)
(0.0164208673464 0.145002773317 0)
(0.0161518948365 0.133719090681 0)
(0.0157618793777 0.122661521232 0)
(0.0152564928776 0.111913340177 0)
(0.014641865956 0.101553981596 0)
(0.0139290237583 0.0916569739185 0)
(0.0131302604351 0.0822877109457 0)
(0.0122618207488 0.0735014570629 0)
(0.0113408816551 0.0653426087753 0)
(0.0103911632459 0.0578412240469 0)
(0.00943769064113 0.0510091442503 0)
(0.00850546006303 0.0448388886738 0)
(0.00761354233395 0.0393066390033 0)
(0.0067760430434 0.0343766269166 0)
(0.00600037669361 0.030006083971 0)
(0.00529023817067 0.0261488959037 0)
(0.00464522612963 0.0227585544233 0)
(0.00406350991116 0.0197898565372 0)
(0.00354155952385 0.0171999899853 0)
(0.00307616645724 0.0149487024139 0)
(0.00266358617104 0.0129981811662 0)
(0.0023003669338 0.0113129433392 0)
(0.00198198769263 0.00986025790859 0)
(0.00170406145854 0.008610548881 0)
(0.00146167358853 0.00753746989823 0)
(0.00125031936204 0.00661762665925 0)
(0.00106470484293 0.00582988241159 0)
(0.000898856467599 0.00515634461345 0)
(0.000740521675966 0.00454460776177 0)
(0.000633447321021 0.0039752903787 0)
(0.000557525325888 0.00356622866372 0)
(0.000486490619293 0.00322499346582 0)
(0.000471546900732 0.00288461366917 0)
(0.000493098061141 0.00260862435537 0)
(0.000501198207497 0.00232214952147 0)
(0.000518945934974 0.0019643236238 0)
(0.00056033730199 0.0015903639689 0)
(0.000680235635774 0.00125377948248 0)
(0.000824634665057 0.000799787970454 0)
(0.000745177606911 0.000219756952568 0)
(-0.0351895860213 0.0069463514907 0)
(-0.0371730353257 0.0222683938721 0)
(-0.0370219017319 0.0374673016642 -2.44910094374e-27)
(-0.036701578942 0.0526868382268 0)
(-0.0362743294844 0.0677368598718 0)
(-0.0357453466002 0.082586470193 0)
(-0.035119299 0.0971944113787 0)
(-0.0344016542297 0.111521772858 0)
(-0.033598266508 0.125531901562 0)
(-0.0327155417138 0.139190709039 0)
(-0.0317599593882 0.152466856208 0)
(-0.0307383033513 0.165331822622 0)
(-0.0296571181369 0.177759951106 0)
(-0.0285230016723 0.189728382372 0)
(-0.0273420120597 0.201216973181 0)
(-0.0261200363815 0.212208115482 0)
(-0.0248621668266 0.222686547555 0)
(-0.0235731576583 0.232639082302 0)
(-0.0222567892157 0.242054339787 0)
(-0.0209164201585 0.250922420382 0)
(-0.0195543547639 0.259234598524 0)
(-0.0181724884738 0.266982985643 0)
(-0.0167716878278 0.274160228773 0)
(-0.0153525148357 0.280759208407 0)
(-0.0139146230235 0.28677278188 0)
(-0.0124575362942 0.292193553186 0)
(-0.0109800652959 0.297013688372 0)
(-0.00948111274438 0.301224782437 0)
(-0.0079591223668 0.304817765186 0)
(-0.00641288321451 0.307782881299 0)
(-0.00484104692119 0.310109712384 0)
(-0.00324288715958 0.311787286406 0)
(-0.00161789256438 0.312804201984 0)
(3.35114574045e-05 0.313148916783 0)
(0.00171027132089 0.3128100174 0)
(0.00341011113628 0.311776663704 0)
(0.00512972310928 0.310038998869 0)
(0.00686436132116 0.307588755831 0)
(0.00860791344215 0.304419778214 0)
(0.0103527619509 0.300528740743 0)
(0.0120897334943 0.295915718078 0)
(0.0138082965993 0.29058493547 0)
(0.015496366602 0.284545293674 0)
(0.0171408816722 0.277811048149 0)
(0.0187274114052 0.270402194754 0)
(0.0202411153935 0.262344988935 0)
(0.0216660862723 0.253672129625 0)
(0.022986669737 0.244423074099 0)
(0.0241865056523 0.234644005913 0)
(0.0252502024663 0.224387932781 0)
(0.0261621190506 0.213714438623 0)
(0.0269083875119 0.202689513341 0)
(0.0274755157633 0.191385040485 0)
(0.0278526518203 0.179878261194 0)
(0.0280300672254 0.168250993765 0)
(0.0280015316944 0.156588716837 0)
(0.0277628396103 0.144979497606 0)
(0.027314294097 0.133512545284 0)
(0.026659061101 0.122276586059 0)
(0.0258049893536 0.11135838837 0)
(0.0247635574424 0.10084116225 0)
(0.023551842856 0.090802731552 0)
(0.0221926058916 0.0813121194184 0)
(0.0207114901521 0.0724277867635 0)
(0.0191371274731 0.0641994887119 0)
(0.01751063572 0.0566629770059 0)
(0.0158792488709 0.0498311374981 0)
(0.0142877265775 0.0436922404668 0)
(0.0127705415513 0.0382148693362 0)
(0.0113506521875 0.0333550985523 0)
(0.0100400884185 0.0290630316852 0)
(0.00884325991075 0.025287172851 0)
(0.00775870354457 0.0219772727592 0)
(0.00678179177253 0.0190859718694 0)
(0.00590615222536 0.0165695526356 0)
(0.00512569651094 0.0143876199996 0)
(0.00443465155901 0.0125021950829 0)
(0.00382714273611 0.0108771854743 0)
(0.00329573628577 0.0094791573549 0)
(0.00283249013345 0.00827826089651 0)
(0.0024294644491 0.00724820085451 0)
(0.00207931777007 0.00636577568986 0)
(0.00177502729706 0.00561030615801 0)
(0.00151097250084 0.00496623527762 0)
(0.00128796973733 0.0043804490874 0)
(0.001112363015 0.00385161147477 0)
(0.000985002000712 0.00351889733917 0)
(0.00084956572194 0.00305910828607 0)
(0.000763629581 0.00266707537831 0)
(0.000774636917615 0.00241906488799 0)
(0.000858843218174 0.00221437022062 0)
(0.000862932781899 0.00175832688938 0)
(0.000962056202201 0.0014365617426 0)
(0.00110391720931 0.00103968083753 0)
(0.00122867063484 0.000621670319808 0)
(0.00119164658094 0.00019189222873 0)
(-0.0497531541008 0.00700371253568 0)
(-0.0525811416191 0.0224720769332 0)
(-0.0523649778971 0.0377947649543 2.44877590721e-27)
(-0.0519076652308 0.0531433541363 0)
(-0.0512984516685 0.0683187882401 0)
(-0.0505450467851 0.0832889683455 0)
(-0.0496540983843 0.098011465439 0)
(-0.0486332920587 0.112446564765 0)
(-0.0474910813475 0.126557013334 0)
(-0.0462365724041 0.14030831777 0)
(-0.0448791889902 0.15366890443 0)
(-0.0434285884795 0.166610202956 0)
(-0.0418943112375 0.17910667146 0)
(-0.0402857271241 0.191135739672 0)
(-0.0386116823448 0.202677700517 0)
(-0.0368804933097 0.213715528246 0)
(-0.035099612047 0.224234654756 0)
(-0.0332756873894 0.234222686952 0)
(-0.0314142710895 0.243669098539 0)
(-0.0295199628584 0.252564884927 0)
(-0.0275961735737 0.26090221473 0)
(-0.0256453600409 0.268674071624 0)
(-0.0236688491933 0.275873916356 0)
(-0.0216671519453 0.282495365668 0)
(-0.0196398388566 0.288531909421 0)
(-0.0175859107329 0.293976664422 0)
(-0.0155037125781 0.298822174933 0)
(-0.0133913384499 0.303060262794 0)
(-0.0112465796001 0.306681926889 0)
(-0.00906735080886 0.309677297264 0)
(-0.00685169274404 0.312035666786 0)
(-0.00459818847834 0.313745560813 0)
(-0.00230602030657 0.314794873101 0)
(2.4583654448e-05 0.315171129123 0)
(0.00239226005508 0.314861785828 0)
(0.00479411133353 0.31385465015 0)
(0.00722558639736 0.312138351385 0)
(0.00968018247944 0.309702934715 0)
(0.012149344158 0.306540478261 0)
(0.0146223388934 0.302645813316 0)
(0.0170862178079 0.298017216736 0)
(0.0195259257327 0.292657164711 0)
(0.0219243396761 0.286572991118 0)
(0.0242626332845 0.279777551722 0)
(0.0265203558949 0.272289732842 0)
(0.0286760143293 0.264134922858 0)
(0.0307071090078 0.255345296109 0)
(0.032590870173 0.245960060227 0)
(0.0343041967498 0.236025523337 0)
(0.0358245392972 0.225595141494 0)
(0.0371298039541 0.214729388392 0)
(0.0381994323395 0.203495558569 0)
(0.0390143493948 0.19196733569 0)
(0.0395581648955 0.180224237685 0)
(0.039817091809 0.168350855251 0)
(0.0397811628001 0.156435999439 0)
(0.039444345522 0.144571714445 0)
(0.0388061446357 0.13285168624 0)
(0.0378713953457 0.121369177597 0)
(0.0366498774257 0.110215922987 0)
(0.0351577198556 0.0994807237706 0)
(0.0334175694201 0.0892485183846 0)
(0.0314650986929 0.0795933814063 0)
(0.02933406999 0.0705765437298 0)
(0.0270589016582 0.0622579473767 0)
(0.0247027308618 0.0546863016817 0)
(0.0223433398959 0.0478771120711 0)
(0.0200519330059 0.0418101293045 0)
(0.0178805290683 0.0364396985959 0)
(0.0158601085402 0.0317075516013 0)
(0.0140048597056 0.0275522995953 0)
(0.0123176882228 0.0239142562828 0)
(0.0107938327971 0.0207377951716 0)
(0.00942404894358 0.0179727245371 0)
(0.00819754625374 0.015574695424 0)
(0.00710494015687 0.0135039834816 0)
(0.00613894035557 0.0117229232774 0)
(0.00529210799543 0.0101943094232 0)
(0.00455356557785 0.00888328639769 0)
(0.00391108687665 0.00775972019599 0)
(0.00335328781567 0.00679781867041 0)
(0.00286980292449 0.00597506293965 0)
(0.00245077916704 0.00527196712159 0)
(0.00208858703577 0.0046772957787 0)
(0.0017840506286 0.0041133982689 0)
(0.00156961058466 0.00368589388439 0)
(0.00138928693603 0.00328940468149 0)
(0.00122279321763 0.002839255827 0)
(0.00114150513105 0.00252612402546 0)
(0.00107855674364 0.00213705765682 0)
(0.00111970011161 0.00181286945041 0)
(0.00127596002847 0.00158281455183 0)
(0.00131069590282 0.00113842330508 0)
(0.00145103048528 0.000785492697661 0)
(0.00159559161594 0.00047307471353 0)
(0.00157972731407 0.000154680387638 0)
(-0.064463495726 0.00707777357332 0)
(-0.0681323278157 0.0227411964309 0)
(-0.0678496971688 0.0382356618064 0)
(-0.0672521432737 0.0537584922965 0)
(-0.0664561484552 0.0691025347614 0)
(-0.0654721927679 0.084234478177 0)
(-0.0643091881671 0.0991105074888 0)
(-0.0629773173852 0.11368982612 0)
(-0.0614878227889 0.127934355609 0)
(-0.0598527561932 0.14180903402 0)
(-0.058084653911 0.155281967388 0)
(-0.0561962912795 0.168324514688 0)
(-0.0542003561172 0.180911302288 0)
(-0.0521092231606 0.193020161189 0)
(-0.0499346450201 0.20463199808 0)
(-0.0476875690351 0.215730595906 0)
(-0.0453778719747 0.226302357844 0)
(-0.0430142470387 0.236335994779 0)
(-0.0406040113542 0.245822174084 0)
(-0.0381530890958 0.254753135504 0)
(-0.0356659136572 0.263122295243 0)
(-0.0331455186095 0.270923847722 0)
(-0.0305935367738 0.278152385151 0)
(-0.0280103871514 0.28480254375 0)
(-0.0253953509853 0.29086869046 0)
(-0.022746825275 0.296344654324 0)
(-0.020062448448 0.301223507716 0)
(-0.0173393938887 0.305497398943 0)
(-0.0145745320811 0.309157436875 0)
(-0.0117647568577 0.312193622234 0)
(-0.00890720278262 0.31459487191 0)
(-0.00599958128968 0.316349057404 0)
(-0.00304045809132 0.317443131206 0)
(-2.9656111553e-05 0.31786337499 0)
(0.00303144954709 0.317595705877 0)
(0.00613953821527 0.316626095901 0)
(0.00928904850107 0.314941082994 0)
(0.0124718600066 0.312528395879 0)
(0.0156770794563 0.309377648574 0)
(0.0188908875669 0.305481122709 0)
(0.0220964879495 0.300834570713 0)
(0.0252741948186 0.295438044377 0)
(0.0284015894069 0.289296673961 0)
(0.0314538661108 0.282421388277 0)
(0.0344041576563 0.274829517439 0)
(0.0372240639102 0.266545269509 0)
(0.0398840245231 0.257600068445 0)
(0.0423539047083 0.248032772185 0)
(0.0446033249788 0.237889786826 0)
(0.0466022937705 0.22722513012 0)
(0.048321592337 0.216100379903 0)
(0.049733604397 0.204584548344 0)
(0.050812898775 0.192753690581 0)
(0.0515371688928 0.180690339702 0)
(0.051887745075 0.168482740479 0)
(0.0518504066025 0.156224129937 0)
(0.051416246427 0.144012050733 0)
(0.0505838944982 0.131946584337 0)
(0.0493600348459 0.120126736932 0)
(0.0477552589963 0.108650575146 0)
(0.0457895865533 0.0976141798874 0)
(0.0434879357957 0.087114921139 0)
(0.0409086799362 0.077232946456 0)
(0.0380899600432 0.0680254653973 0)
(0.0350529944901 0.0595716003267 0)
(0.0318933121432 0.0519504659084 0)
(0.0287375802821 0.045183019252 0)
(0.025695345352 0.0392317730246 0)
(0.0228386652875 0.0340250899282 0)
(0.0202030529587 0.0294812132167 0)
(0.017799909655 0.0255221685576 0)
(0.0156268835741 0.0220775063578 0)
(0.0136727524908 0.0190848228514 0)
(0.0119207086327 0.0164907252971 0)
(0.0103529515032 0.0142513524148 0)
(0.00895612134149 0.0123298064557 0)
(0.00772325488982 0.0106900527149 0)
(0.00664778543334 0.00929241114414 0)
(0.0057141666512 0.00809865993438 0)
(0.00490393453699 0.00707844116553 0)
(0.00420189106455 0.00620731854034 0)
(0.00359481241807 0.00546361742787 0)
(0.00306876767034 0.00482930267974 0)
(0.00261398911038 0.00429653890727 0)
(0.00221492487192 0.00375540664125 0)
(0.00201957164121 0.003450458167 0)
(0.00184230173126 0.00306077995733 0)
(0.00164946607178 0.00263511082526 0)
(0.00146264537531 0.00216276429484 0)
(0.00142731127208 0.00184450520192 0)
(0.00141119104214 0.00146585529077 0)
(0.00156540398723 0.00123252661863 0)
(0.00174034520316 0.000951928634452 0)
(0.00175979996609 0.000595989312786 0)
(0.00182784968504 0.000342754786582 0)
(0.00180731109352 0.000113354922682 0)
(-0.0793705675134 0.00717012571782 0)
(-0.083887119998 0.023081154172 0)
(-0.0835347424344 0.0387954002687 0)
(-0.0827915915707 0.0545400325686 0)
(-0.0818016749631 0.0700981810452 0)
(-0.0805784084971 0.0854351577058 0)
(-0.0791332211709 0.100505488224 0)
(-0.0774790853569 0.115267025897 0)
(-0.0756303053336 0.129680644629 0)
(-0.0736021789492 0.14371055492 0)
(-0.0714106259421 0.157324456671 0)
(-0.0690718371462 0.170493624554 0)
(-0.0666019027807 0.183192913614 0)
(-0.064016478337 0.195400685173 0)
(-0.061330439294 0.207098656206 0)
(-0.058557592244 0.218271673849 0)
(-0.0557103888147 0.228907421663 0)
(-0.0527997188318 0.238996064192 0)
(-0.0498347227988 0.248529842632 0)
(-0.0468227047121 0.257502634974 0)
(-0.0437690744816 0.265909499633 0)
(-0.0406773993121 0.273746220291 0)
(-0.0375494788205 0.281008871909 0)
(-0.0343855185956 0.287693422571 0)
(-0.03118430579 0.293795384014 0)
(-0.0279434611598 0.299309515793 0)
(-0.0246596706005 0.304229585782 0)
(-0.0213289778255 0.308548183805 0)
(-0.0179470511389 0.312256588586 0)
(-0.0145095130486 0.315344672676 0)
(-0.0110122692776 0.317800912366 0)
(-0.00745186218062 0.319612385704 0)
(-0.00382588028792 0.320764879165 0)
(-0.000133411348679 0.321243114389 0)
(0.00362452122429 0.321031051241 0)
(0.00744448636255 0.32011231093 0)
(0.0113202106381 0.318470723636 0)
(0.0152421742704 0.316091003303 0)
(0.0191972930574 0.312959529809 0)
(0.0231687038117 0.309065231958 0)
(0.0271356859967 0.30440052065 0)
(0.0310737463308 0.298962250185 0)
(0.0349548592938 0.292752634974 0)
(0.0387478789596 0.28578008256 0)
(0.0424190531358 0.278059884887 0)
(0.0459326449501 0.269614737388 0)
(0.0492515184045 0.260475079781 0)
(0.0523377665424 0.250679300621 0)
(0.0551531722981 0.240273851235 0)
(0.0576598417772 0.229313348438 0)
(0.0598206806271 0.217860641136 0)
(0.0616003841461 0.205986811461 0)
(0.0629662686658 0.19377085276 0)
(0.0638894928018 0.181299044467 0)
(0.064345662544 0.168664062615 0)
(0.064315307723 0.155964479455 0)
(0.0637849943684 0.143305187787 0)
(0.0627521756317 0.130795465171 0)
(0.0612278387119 0.118540537634 0)
(0.0592199972283 0.106645474845 0)
(0.0567526656234 0.0952134047389 0)
(0.0538385610584 0.0843676113703 0)
(0.0505940000526 0.074195411331 0)
(0.0470538784268 0.064720885364 0)
(0.0431642441765 0.0560613346906 0)
(0.0390822227239 0.048370911703 0)
(0.0350246223325 0.0416791461224 0)
(0.0311598038899 0.0359111918659 0)
(0.0275804892175 0.0309473688057 0)
(0.024316448113 0.0266687537625 0)
(0.0213666866632 0.022976091544 0)
(0.018718243831 0.0197870693954 0)
(0.0163497556002 0.0170316019729 0)
(0.0142323820176 0.0146529166147 0)
(0.0123365838477 0.0126101098448 0)
(0.010643564517 0.010874292653 0)
(0.00915162727272 0.00941459283692 0)
(0.00786199510038 0.00818522487088 0)
(0.0067509036152 0.00713943859318 0)
(0.00578827156606 0.00624744820929 0)
(0.00495553343015 0.00548870047361 0)
(0.0042383207206 0.00484193608313 0)
(0.00361631807649 0.00429091689679 0)
(0.00307825802694 0.00381696713242 0)
(0.00262876549938 0.00334808365049 0)
(0.00240390898644 0.00303801045405 0)
(0.00216747831737 0.00261094721008 0)
(0.00202422962628 0.00228168827632 0)
(0.00191834885806 0.00193570407855 0)
(0.00186633187535 0.00160050270959 0)
(0.00171871299422 0.00116872508966 0)
(0.00176882182669 0.000878090944478 0)
(0.00198686149317 0.000702764573555 0)
(0.00203476441644 0.000468627085737 0)
(0.00203080453022 0.000258568252366 0)
(0.00201098086023 8.53242749087e-05 0)
(-0.0945204463944 0.00728233039893 0)
(-0.0998956421032 0.0234961207262 0)
(-0.0994689494191 0.0394794139681 2.46670704075e-27)
(-0.0985730371864 0.0554952788355 0)
(-0.0973799098818 0.0713148594103 0)
(-0.0959061089053 0.0869017775879 0)
(-0.0941658545071 0.102208545081 0)
(-0.0921752367502 0.11719136487 0)
(-0.0899519652448 0.131809827833 0)
(-0.0875149469677 0.146027253574 0)
(-0.0848838410329 0.159810851156 0)
(-0.082078616414 0.17313180444 0)
(-0.0791191063872 0.185965270285 0)
(-0.0760245825098 0.198290289712 0)
(-0.0728133393715 0.21008961399 0)
(-0.0695023178051 0.221349446169 0)
(-0.0661067595051 0.232059103089 0)
(-0.0626399268886 0.242210604316 0)
(-0.0591128810562 0.251798201212 0)
(-0.0555343523317 0.260817862792 0)
(-0.0519106881759 0.269266741156 0)
(-0.0482459042129 0.27714264043 0)
(-0.0445418074491 0.28444351409 0)
(-0.0407982044709 0.291167010623 0)
(-0.0370131504052 0.297310081713 0)
(-0.0331832469721 0.302868657638 0)
(-0.0293039470483 0.307837387854 0)
(-0.0253698853273 0.312209438348 0)
(-0.0213752084065 0.315976339555 0)
(-0.0173139393034 0.319127862351 0)
(-0.0131803776374 0.321652004356 0)
(-0.00896950214631 0.323534935513 0)
(-0.00467748424967 0.324761069794 0)
(-0.000302230605302 0.325313259316 0)
(0.0041560496573 0.325173078664 0)
(0.00869424791964 0.32432125057 0)
(0.0133057741519 0.322738225032 0)
(0.0179800220812 0.320404920814 0)
(0.0227019246012 0.317303609345 0)
(0.0274516474999 0.313418936698 0)
(0.032204459862 0.308739025901 0)
(0.0369308203125 0.303256624338 0)
(0.041596691837 0.296970210053 0)
(0.0461640796662 0.289884985482 0)
(0.05059174663 0.282013689949 0)
(0.0548360163344 0.273377147791 0)
(0.0588516051101 0.264004612896 0)
(0.0625922694995 0.253933862135 0)
(0.0660114788277 0.243211314616 0)
(0.0690627286582 0.231892110732 0)
(0.071700363519 0.220040417352 0)
(0.0738802776011 0.207729657271 0)
(0.0755616153246 0.195042349036 0)
(0.0767080822743 0.182069315732 0)
(0.0772889393735 0.168908172993 0)
(0.0772779770702 0.155663115036 0)
(0.0766536334552 0.142448602244 0)
(0.0754113713408 0.129389138957 0)
(0.0735761763502 0.116594297199 0)
(0.0711434266089 0.104175169071 0)
(0.0681484414972 0.0922325418917 0)
(0.064530436706 0.080956049061 0)
(0.0605864727808 0.0704480816269 0)
(0.0563366682833 0.0605956091763 0)
(0.0514531846247 0.0515998919067 0)
(0.0462507389303 0.0438107956485 0)
(0.0411295288981 0.0372605258978 0)
(0.0363485644328 0.0317875363683 0)
(0.0320123168211 0.0271816155512 0)
(0.0281176887066 0.023267292643 0)
(0.0246332066454 0.0199238581709 0)
(0.0215300511407 0.0170604877961 0)
(0.0187746430272 0.0145988955649 0)
(0.0163196639092 0.0124775104983 0)
(0.0141141618434 0.0106625106786 0)
(0.0121295927414 0.0091448359087 0)
(0.0103813334892 0.00790846926605 0)
(0.00889824437552 0.00689167021465 0)
(0.0076375211555 0.00602491971411 0)
(0.00654207865048 0.0052830577136 0)
(0.00559428437861 0.00465735612698 0)
(0.00478580838846 0.0041243461274 0)
(0.00408275587096 0.00366766879029 0)
(0.00347155703646 0.003258132119 0)
(0.00302694291741 0.00289125454915 0)
(0.00277490568653 0.00257386832875 0)
(0.00254783315435 0.00222015069883 0)
(0.00234476575401 0.00185765127041 0)
(0.00225820304837 0.0015547413614 0)
(0.00213844341279 0.00121163411009 0)
(0.00212555211149 0.000949746119345 0)
(0.00201473126813 0.000633425232509 0)
(0.00208097387526 0.000455857902095 0)
(0.00221126553948 0.000334676468288 0)
(0.00218101234321 0.000183999815531 0)
(0.00215978452003 6.05644621657e-05 0)
(-0.109962592623 0.00741562345774 0)
(-0.116210326564 0.0239906023965 0)
(-0.115703695258 0.0402945009996 -2.4663272241e-27)
(-0.114646046669 0.0566334426808 0)
(-0.113238093224 0.072764013932 0)
(-0.111499784476 0.0886477560898 0)
(-0.109448475896 0.104234741833 0)
(-0.107103770875 0.119479185681 0)
(-0.104487207307 0.134339137967 0)
(-0.101621741871 0.148776855487 0)
(-0.0985312153233 0.162758970711 0)
(-0.0952398162835 0.176256577955 0)
(-0.0917715480709 0.189245223305 0)
(-0.0881497091281 0.201704800655 0)
(-0.0843963909597 0.213619352203 0)
(-0.0805320087712 0.224976773281 0)
(-0.076574875591 0.235768422063 0)
(-0.0725408431533 0.245988640756 0)
(-0.0684430251779 0.255634200515 0)
(-0.0642916266372 0.264703691501 0)
(-0.0600938867982 0.273196885884 0)
(-0.0558541449359 0.281114107238 0)
(-0.0515740148281 0.288455639267 0)
(-0.0472526542241 0.295221201806 0)
(-0.0428870953867 0.301409511436 0)
(-0.0384726134086 0.307017930005 0)
(-0.0340031018279 0.312042192502 0)
(-0.029471450291 0.316476195165 0)
(-0.0248699209516 0.320311828827 0)
(-0.0201905456149 0.323538821808 0)
(-0.0154255781706 0.326144694736 0)
(-0.0105679473589 0.328114632081 0)
(-0.00561187018718 0.329431502261 0)
(-0.000553501020497 0.33007599417 0)
(0.00460835532803 0.330026866584 0)
(0.00987148780303 0.329261360662 0)
(0.015229516826 0.327755809858 0)
(0.0206711839123 0.32548645202 0)
(0.0261797376077 0.322430440072 0)
(0.0317324941065 0.318567039945 0)
(0.0373006214466 0.313878956211 0)
(0.0428492161378 0.308353737748 0)
(0.0483376978334 0.301985146073 0)
(0.0537205289948 0.294774388892 0)
(0.0589481763852 0.286731076687 0)
(0.0639682713017 0.277873858464 0)
(0.0687266000918 0.268230606918 0)
(0.0731681628164 0.257838463634 0)
(0.0772373940813 0.246743618985 0)
(0.0808788599919 0.235001564883 0)
(0.0840370855835 0.222677548682 0)
(0.086658116553 0.209847452238 0)
(0.0886911981769 0.196598080829 0)
(0.0900918911183 0.183025831961 0)
(0.0908231491103 0.169233467969 0)
(0.0908507959765 0.155328733319 0)
(0.0901354975914 0.141438176934 0)
(0.0886663071918 0.127717629651 0)
(0.0865167142057 0.114272250699 0)
(0.0836359026432 0.101217436774 0)
(0.0801170137595 0.0886001863462 0)
(0.0755840270852 0.0768053485059 0)
(0.0709354937974 0.0660013830633 0)
(0.0661787116555 0.0555876764121 0)
(0.0600494371508 0.0459756836239 0)
(0.0533685102817 0.0380476002836 0)
(0.0469301529209 0.0317772912967 0)
(0.0411206830043 0.0267942689157 0)
(0.0360163369876 0.0227167923491 0)
(0.0315152833054 0.019289962549 0)
(0.0275241955478 0.0163887674882 0)
(0.0240006084678 0.0139287884784 0)
(0.0209037213493 0.0118214607475 0)
(0.0181579506664 0.00999264987 0)
(0.0156686170022 0.00842022321979 0)
(0.0133824380916 0.00714160164272 0)
(0.0113585624192 0.00618330073911 0)
(0.00971318015294 0.00544140933105 0)
(0.00835310323362 0.00478325660579 0)
(0.00714668774097 0.0042041973984 0)
(0.00609676049839 0.00373241482686 0)
(0.00522611955615 0.00333028010221 0)
(0.00446223383319 0.00297276919528 0)
(0.00379378724373 0.002632402659 0)
(0.00338225681202 0.00235650705187 0)
(0.00309606861887 0.00205243540702 0)
(0.00290426983082 0.00177390338854 0)
(0.00270997473239 0.00145947576511 0)
(0.00255558346857 0.00116199243271 0)
(0.00239621241639 0.000867262837621 0)
(0.00231140010407 0.000635362181733 0)
(0.00229811208749 0.000454266299883 0)
(0.00220203265156 0.000278601871623 0)
(0.0023359267026 0.000197265406203 0)
(0.0022827982163 0.00011686053962 0)
(0.00225311707225 3.63182532007e-05 0)
(-0.12574967168 0.00757130956984 0)
(-0.132886475572 0.0245698857366 0)
(-0.132293086735 0.0412489953542 0)
(-0.13106273308 0.0579658818034 0)
(-0.129425748997 0.0744597430188 0)
(-0.127405874858 0.0906895834669 0)
(-0.125024036344 0.10660255285 0)
(-0.122303835208 0.122150497306 0)
(-0.119271152683 0.137289645908 0)
(-0.115953526455 0.151981009534 0)
(-0.112379513196 0.166190557915 0)
(-0.10857805233 0.179889304125 0)
(-0.104577835601 0.193053286869 0)
(-0.100406688291 0.205663451147 0)
(-0.0960909660956 0.21770542453 0)
(-0.0916549812696 0.229169182746 0)
(-0.0871204744011 0.240048601524 0)
(-0.0825061601229 0.250340896318 0)
(-0.0778273739166 0.26004596286 0)
(-0.0730958518305 0.269165643071 0)
(-0.0683196613883 0.27770295384 0)
(-0.0635032944799 0.285661324333 0)
(-0.058647907754 0.293043889391 0)
(-0.0537516846158 0.299852879026 0)
(-0.0488102709459 0.306089127681 0)
(-0.0438172413048 0.3117517045 0)
(-0.0387645520286 0.316837644548 0)
(-0.033642968066 0.321341745397 0)
(-0.0284424656967 0.325256395844 0)
(-0.023152645973 0.328571385312 0)
(-0.0177632145257 0.331273813708 0)
(-0.0122644753527 0.333347862703 0)
(-0.006648039738 0.334774734009 0)