/*--------------------------------*- C++ -*----------------------------------*\
| =========                 |                                                 |
| \\      /  F ield         | OpenFOAM: The Open Source CFD Toolbox           |
|  \\    /   O peration     | Version:  v1906                                 |
|   \\  /    A nd           | Web:      www.OpenFOAM.com                      |
|    \\/     M anipulation  |                                                 |
\*---------------------------------------------------------------------------*/
FoamFile
{
    version     2.0;
    format      ascii;
    class       surfaceScalarField;
    location    "300";
    object      phia;
}
// * * * * * * * * * * * * * * * * * * * * * * * * * * * * * * * * * * * * * //

dimensions      [0 3 -1 0 0 0 0];
oriented        oriented;


internalField   nonuniform List<scalar> 
18240
(
0.00135078278608
-0.00135052707014
0.00282967709337
-0.00147860399717
0.00430769486785
-0.00147774978312
0.00576724208143
-0.00145924896324
0.0072003343646
-0.0014328277411
0.00860034842452
-0.00139970644382
0.00996122310688
-0.00136061402185
0.0112776324776
-0.0013160901635
0.0125446417179
-0.00126675282507
0.013758108925
-0.00121313447704
0.0149142478001
-0.00115588773784
0.0160101385498
-0.00109554297117
0.0170431442833
-0.00103276115555
0.0180115401616
-0.00096803199786
0.0189137662644
-0.000901990061069
0.0197491975656
-0.000835050798557
0.0205172212342
-0.000767798160733
0.0212181708234
-0.000700552528526
0.021852218643
-0.000633835469733
0.0224204953071
-0.000567863683451
0.0229237880541
-0.000503095906536
0.0233638626155
-0.000439646877421
0.0237419604986
-0.000377919424732
0.0240603351428
-0.000317933967252
0.0243205413409
-0.000260048409138
0.0245251922555
-0.000204199428352
0.0246760376062
-0.000150710945544
0.0247759433419
-9.94459631033e-05
0.0248267568581
-5.07043559085e-05
0.024831507356
-4.2852837012e-06
0.0247920631157
3.95259119123e-05
0.0247115424206
8.09883273247e-05
0.0245917578928
0.000119837508136
0.0244358416916
0.000156383003175
0.0242455086713
0.000190355714891
0.0240238658348
0.000222105525113
0.023772489176
0.00025136863808
0.0234944125366
0.000278531844304
0.0231910419803
0.000303330961469
0.0228653036999
0.000326182692558
0.0225184133067
0.000346819574238
0.0221531619955
0.000365681609404
0.0217705631865
0.000382496633029
0.0213732540469
0.000397722142255
0.0209620417603
0.000411079832951
0.0205393959052
0.000423038440526
0.0201059205934
0.000433313144283
0.0196639115193
0.000442378345807
0.0192137792227
0.000449942168091
0.018757643688
0.000456478745877
0.0182957371594
0.000461689668924
0.0178300081309
0.000466043758304
0.0173605303348
0.00046923656828
0.0168890878638
0.000471726557179
0.0164156191576
0.000473204957155
0.0159417548449
0.000474116026199
0.0154673229105
0.000474148546863
0.0149938117956
0.00047372909328
0.0145209640513
0.000472547091585
0.014050138158
0.000471009293539
0.0135810145466
0.000468808951886
0.0131148316856
0.000466331278769
0.0126512283525
0.000463277402079
0.0121913315349
0.000460010393005
0.011734754748
0.000456242994678
0.0112825183483
0.00045231570869
0.0108342226615
0.000447956878533
0.0103907841031
0.000443484662608
0.0099517973715
0.000438646180432
0.00951807437923
0.000433737313541
0.00908920795556
0.000428526807731
0.00866590371767
0.000423288578466
0.00824775319605
0.000417814747278
0.0078353523951
0.000412357240267
0.00742829012388
0.000406732713499
0.00702704991523
0.000401171124524
0.0066312153231
0.000395513767955
0.00624115496759
0.000389968338339
0.0058564446861
0.000384400318024
0.00547733770919
0.000378994810469
0.00510340060267
0.000373640201556
0.00473477277887
0.000368498326111
0.0043710121559
0.0003634785769
0.00401214966491
0.000358718236178
0.00365773954315
0.000354144217942
0.00330771693492
0.000349865338588
0.00296165023716
0.000345816909291
0.00261941798805
0.00034206295874
0.00228067586234
0.000338508249376
0.00194541533019
0.000335083048583
0.00161376557654
0.000331436022642
0.00128679640089
0.000326790198135
0.000967886288133
0.000318724975425
0.000668228131451
0.000299487173627
0.000376077217324
0.000291936495976
0.000375950268857
0.00149324671302
-0.00284349790789
0.00316021182072
-0.00314527205901
0.00481827760586
-0.00313552126558
0.00645283610969
-0.00309350480855
0.00805653522616
-0.00303623187563
0.00962253619545
-0.00296539984083
0.0111442914451
-0.00288207263925
0.0126158383777
-0.00278732337162
0.0140317409875
-0.00268235655731
0.0153873004839
-0.00256837310234
0.0166783865819
-0.00244667253375
0.0179016574771
-0.0023184853057
0.0190543078628
-0.00218510830585
0.020134320491
-0.0020477083454
0.0211401331461
-0.00190749835317
0.0220709372403
-0.00176551136271
0.0229262648557
-0.00162282173685
0.0237063490209
-0.00148028690948
0.0244116318549
-0.00133881623378
0.0250431993902
-0.00119907662646
0.0256022114832
-0.00106181009948
0.0260904212388
-0.000927499114897
0.0265095262327
-0.000796732894291
0.0268617789022
-0.000669828384207
0.0271492577235
-0.000547244692762
0.0273745714441
-0.000429156634324
0.0275400484134
-0.00031591677335
0.0276485345815
-0.000207579957962
0.0277024998348
-0.000104412523592
0.027704927529
-6.36787161695e-06
0.0276583361872
8.63579926991e-05
0.0275657615737
0.000173898278577
0.0274297090638
0.000256111965575
0.0272532118688
0.000333203041851
0.027038692598
0.000405076185237
0.0267891100254
0.000471995878895
0.0265067571692
0.000533899930533
0.0261944782698
0.000591100980266
0.0258544019803
0.000643561440937
0.0254892235898
0.000691631493694
0.0251008815053
0.000735290090757
0.0246918963987
0.000774915153278
0.0242639996546
0.00081049508115
0.023819519983
0.000842426372767
0.0233599731517
0.000870700672587
0.0228874860774
0.000895724465387
0.0224033580455
0.000917487061647
0.0219095115117
0.00093639677952
0.0214070353133
0.000952435749063
0.0208976511016
0.00096600659333
0.0203822496176
0.000977080190385
0.0198623611243
0.000986046751866
0.0193386956872
0.000992862958133
0.0188126059482
0.000997901081424
0.018284642583
0.00100110197836
0.0177559975779
0.00100281591796
0.0172270855042
0.00100296792071
0.0166989558681
0.0010018838809
0.0161719107623
0.000999474576666
0.0156468751967
0.000996040864527
0.0151240608087
0.000991482406214
0.0146042840078
0.00098607589055
0.0140876850517
0.00097971413366
0.0135749846972
0.000972651712979
0.0130662667618
0.000964779571748
0.0125621653277
0.000956332921972
0.0120627182326
0.000947205912463
0.0115684781033
0.000937617341817
0.0110794427594
0.000927469235711
0.0105960849103
0.000916966641666
0.0101183645271
0.00090602326485
0.00964667337847
0.000894832471804
0.00918093281486
0.000883322308965
0.00872145082153
0.000871675697472
0.00826810762565
0.000859836418284
0.00782112416143
0.000847977342022
0.00738033637629
0.000836058138428
0.00694587523645
0.00082424117546
0.00651752972766
0.000812501046262
0.00609533944422
0.000800988449717
0.00567904509794
0.000789690924016
0.0052685955706
0.000778745537864
0.00486368429036
0.000768149700614
0.00446417320359
0.00075802368239
0.00406971281844
0.000748369617992
0.0036800861899
0.000739284397826
0.00329491032797
0.000730763355027
0.00291390282269
0.000722861400565
0.0025366560071
0.000715531582017
0.00216280872005
0.000708722285712
0.00179181094155
0.000702222432958
0.00142274389347
0.000695657955861
0.00105296167152
0.000688311112835
0.00067321406912
0.000679050194576
0.000291105557279
0.000673865694445
0.000666965872796
0.00151942217912
-0.00436264327893
0.00320750417073
-0.00483305660189
0.00488916460968
-0.00481688559685
0.00654721425249
-0.0047512544649
0.00817357417917
-0.00466229304615
0.00976106989199
-0.00455259218672
0.0113029992817
-0.00442369989271
0.0127932566679
-0.00427727262433
0.0142263427404
-0.00411513626379
0.0155974706349
-0.00393918727125
0.0169025128604
-0.00375140383467
0.0181380866252
-0.00355373947053
0.0193014496992
-0.00334815597526
0.0203905792967
-0.00313651270963
0.0214040248985
-0.0029206247727
0.0223409923356
-0.00270214868618
0.0232011603118
-0.00248266781202
0.0239847803831
-0.00226357323744
0.0246924635073
-0.0020461763986
0.0253253051741
-0.00183158259887
0.0258846466434
-0.00162082941968
0.0263722320717
-0.00141474896332
0.0267899473821
-0.00121412922859
0.0271400131444
-0.00101956100806
0.0274247013218
-0.000831619424359
0.0276465647605
-0.000650691925156
0.0278081309544
-0.000477177759903
0.0279121670688
-0.000311295533679
0.0279613490673
-0.000153300042791
0.0279585606402
-3.26920275412e-06
0.0279065376233
0.000138662039821
0.0278081990448
0.000272534199691
0.0276662673152
0.000398308919492
0.0274836299502
0.000516122269612
0.0272629356146
0.000626017449072
0.0270069845113
0.000728211020981
0.0267183027014
0.000822808390838
0.0263995592454
0.000910088416771
0.0260531208705
0.00099020408992
0.0256814926322
0.00106348167951
0.0252868549086
0.00113010816714
0.0248715246477
0.00119044349438
0.0244374778366
0.00124469667655
0.0239868279517
0.00129324893408
0.0235213365688
0.00133632021155
0.0230429056338
0.00137430130241
0.0225530799722
0.0014074131131
0.022053549567
0.0014360452814
0.0215456470649
0.00146041035497
0.0210308562839
0.0014808868393
0.020510308723
0.00149767101523
0.0199852940872
0.00151112178315
0.019456758963
0.00152141259817
0.0189258152591
0.00152887592603
0.0183932449522
0.00153365816703
0.0178600020127
0.00153606099256
0.0173267261992
0.00153620175325
0.0167942343489
0.00153434940234
0.016263046834
0.00153059308953
0.0157338640028
0.00152516989639
0.0152071080104
0.00151814384628
0.014683380765
0.00150972315451
0.0141630243918
0.00149995195231
0.0136465572059
0.00148901443264
0.0131342552076
0.00147694109415
0.0126265633642
0.00146389774196
0.0121237009347
0.00144990804581
0.0116260456709
0.00143512524783
0.0111337648988
0.0014195723645
0.0106471710564
0.00140339512913
0.0101663806413
0.00138662109568
0.0096916398481
0.0013693924151
0.0092230125948
0.00135174466549
0.00876067573678
0.00133381874369
0.00830463736719
0.00131566011065
0.00785500134832
0.00129740922007
0.00741171624173
0.00127912146724
0.00697480944367
0.00126093614429
0.00654416700649
0.00124291720322
0.00611973780473
0.00122520082023
0.00570134385051
0.00120785674233
0.00528885525462
0.00119101488569
0.00488203054268
0.00117474682216
0.00448066310543
0.00115917172129
0.0040844503611
0.00114435713125
0.00369311206903
0.00113040440568
0.00330628579181
0.00111736731004
0.00292361373559
0.00110531641493
0.00254465260232
0.00109427387501
0.00216890262366
0.00108425899603
0.00179566460258
0.00107524959583
0.00142386370462
0.00106725674458
0.00105152513319
0.00106045446806
0.000674942243454
0.00105544231452
0.000297121344158
0.00105150598827
0.000964001899029
0.00154250262067
-0.00590486986343
0.00325332327251
-0.00654358497149
0.0049578626453
-0.00652112867436
0.00663813017326
-0.00643122475101
0.00828558918416
-0.00630945331998
0.0098927388506
-0.00615944091087
0.0114526646699
-0.00598332313766
0.0129590975142
-0.00578339981923
0.014406447226
-0.00556217851087
0.0157898610424
-0.00532228998004
0.0171052131915
-0.00506644310074
0.0183491323677
-0.00479734183666
0.0195189522708
-0.00451765768663
0.0206127183063
-0.0042299565289
0.0216291085113
-0.00393669203492
0.0225674303259
-0.00364014369704
0.0234275211927
-0.00334243215563
0.0242097455767
-0.00304546755546
0.0249148834564
-0.00275098570275
0.0255441362877
-0.00246050385976
0.0260990099955
-0.00217537454621
0.026581336145
-0.00189674417398
0.0269931531479
-0.00162561987459
0.0273367455114
-0.00136282546193
0.0276145239817
-0.00110907634923
0.0278290826508
-0.00086492830824
0.0279830763621
-0.000630857304341
0.0280792937093
-0.000407198883966
0.0281205297462
-0.000194232046004
0.028109673054
7.89049474711e-06
0.0280495727095
0.000199053712847
0.0279431375991
0.00037925870299
0.0277931978516
0.000548524626595
0.0276026163067
0.000706977036145
0.0273741443697
0.000854747654161
0.0271105454083
0.000992064707379
0.0268144444998
0.00111914758064
0.0264884627593
0.00123630421702
0.0261350622928
0.0013438209216
0.0257566899784
0.00144206545037
0.0253556181615
0.00153137255218
0.0249340967327
0.00161215202689
0.0244941902468
0.00168477044338
0.0240379370437
0.00174966339846
0.0235671837644
0.00180721407429
0.0230837503634
0.0018578688485
0.0225892630202
0.00190201334472
0.0220853237153
0.00194009063531
0.0215733426671
0.00197247572572
0.0210547111579
0.001999595578
0.0205306345356
0.00202180296571
0.0200023067199
0.00203949762423
0.0194707447906
0.00205300062046
0.0189369635792
0.00206267587965
0.0184018127245
0.0020688061108
0.0178661495318
0.00207171394969
0.0173306793125
0.00207164053652
0.0167961247692
0.00206886538377
0.0162630703618
0.00206358849621
0.0157321264219
0.0020560480047
0.0152037782785
0.00204640666151
0.0146785435609
0.00203486617363
0.0141568268559
0.00202155867846
0.0136390687917
0.00200665669955
0.0131256070307
0.00199027014118
0.0126168161131
0.0019725508063
0.0121129756613
0.00195359528782
0.0116144001855
0.00193354310825
0.0111213153538
0.00191248586413
0.0106339773403
0.00189055820629
0.0101525580132
0.00186785351262
0.00967725359146
0.00184450714051
0.00920817945069
0.00182061889931
0.00874546812621
0.00179632822405
0.00828917433177
0.00177174365588
0.00783936243789
0.00174700979028
0.00739602204963
0.00172224392838
0.00695914524644
0.00169759483004
0.00652865292053
0.00167318660898
0.006104462074
0.00164916944396
0.00568642285175
0.00162567068984
0.00527437621678
0.001602837783
0.00486810142278
0.00158079642976
0.00446736419342
0.00155968593977
0.00407187381611
0.00153962423207
0.00368132132744
0.00152073585588
0.00329534407962
0.00150312370568
0.00291355084709
0.00148689076342
0.00253548648928
0.00147212029657
0.0021606321345
0.00145889848192
0.0017883533231
0.00144731933959
0.00141786352017
0.00143754370814
0.00104822697908
0.00142989257958
0.000678773510386
0.00142470525604
0.000313736817821
0.00141636088632
0.00127765159416
0.00157210138618
-0.00747669764894
0.00331439006324
-0.0082855800227
0.00504981928909
-0.00825626463175
0.00675978046132
-0.00814089007652
0.00843530144268
-0.00798467746702
0.0100685155406
-0.00779235573286
0.0116522274095
-0.00756673377191
0.0131799584261
-0.007310826623
0.0146459870685
-0.00702790053024
0.0160453876592
-0.00672138056177
0.0173740298432
-0.00639477277747
0.0186285810075
-0.00605157694995
0.019806469386
-0.00569522769226
0.0209058601739
-0.00532902554209
0.0219255931616
-0.00495610140529
0.0228651439375
-0.00457936785473
0.023724546864
-0.00420150732539
0.0245043520068
-0.00382494262106
0.0252055432945
-0.00345184674319
0.0258295003685
-0.00308412924262
0.0263779196991
-0.00272346313427
0.0268527877971
-0.00237128117125
0.02725630975
-0.00202881297987
0.0275908962308
-0.00169708391674
0.0278590996369
-0.0013769553362
0.0280636134287
-0.00106911979968
0.0282072132467
-0.000774139877169
0.0282927653858
-0.000492437180725
0.0283231697948
-0.000224329072587
0.0283013752438
2.99876940588e-05
0.0282303228187
0.000270400899445
0.028112966004
0.000496904298782
0.0279522160357
0.000709554149989
0.0277509669478
0.000908498467618
0.0275120405078
0.00109393593976
0.0272382183287
0.00126614045017
0.0269321864827
0.0014254213752
0.0265965728234
0.00157215050583
0.0262338920841
0.00170672160658
0.025846587699
0.00182957958528
0.0254369771192
0.0019411793034
0.025007297561
0.0020420167229
0.0245596517127
0.00213258702038
0.0240960569163
0.00221341722374
0.0236183913557
0.00228502361325
0.0231284462887
0.00234794557557
0.0226278731487
0.00240270253664
0.0221182383832
0.002449828704
0.0216009716504
0.00248982980388
0.0210774228033
0.00252321865976
0.0205488115493
0.00255047225735
0.0200162859261
0.00257206802458
0.0194808734119
0.00258844170396
0.0189435401601
0.0026000243899
0.0184051436541
0.00260720179457
0.0178664917717
0.00261035188646
0.0173282967181
0.00260980593345
0.0167912330004
0.00260588663688
0.0162558925591
0.00259887128734
0.0157228406865
0.00258902998297
0.0151925720674
0.00257659096298
0.0146655638673
0.00256177850826
0.0141422327206
0.00254478044559
0.0136229843256
0.00252578508424
0.0131081713557
0.00250495069064
0.0125981392076
0.00248244091674
0.0120931851769
0.0024583960743
0.0115936001648
0.00243296642426
0.0110996294141
0.0024062850348
0.0106115102573
0.00237849853097
0.0101294349625
0.00234974144939
0.00965358468238
0.00232016408944
0.00918409481813
0.00228990831676
0.00872108547891
0.0022591324163
0.00826462986225
0.00222798842208
0.00781478149373
0.00219664392272
0.00737154590332
0.00216526101344
0.00693490495295
0.00213401518189
0.00650479208454
0.00210307602938
0.00608111392402
0.00207262335282
0.00566372914991
0.00204282975466
0.00525246749996
0.00201387411653
0.00484711219228
0.00198592622023
0.00444741619847
0.00195915778184
0.00405308768663
0.00193372923495
0.00366380304664
0.00190979872566
0.00327919421728
0.00188751162565
0.00289885683894
0.00186700877918
0.00252233787223
0.00184842159196
0.00214913727964
0.00183188469343
0.00177870006847
0.00181754603919
0.00141044122945
0.0018056001289
0.00104383572655
0.00179630273978
0.000678800330392
0.00178954794538
0.000318322374471
0.00177665508786
0.00159588804635
0.00160951477701
-0.0090859403917
0.00339247620244
-0.0100682544741
0.00516764975116
-0.0100311459548
0.00691566465517
-0.00988861225612
0.00862703870947
-0.00969575635197
0.0102934672835
-0.00945848728298
0.0119074082653
-0.00918037499345
0.0134621255557
-0.00886524150648
0.0149517348131
-0.00851720417463
0.0163712295507
-0.00814056666557
0.0177164807142
-0.00773971186325
0.0189842208745
-0.00731900197227
0.0201720066104
-0.00688269493403
0.0212781731932
-0.00643487080421
0.0223017727065
-0.00597937661909
0.0232425121071
-0.00551978065121
0.0241006793136
-0.00505934563716
0.0248770764962
-0.00460100935299
0.0255729451544
-0.0041473835813
0.0261899050647
-0.00370075675666
0.0267298874146
-0.00326311287659
0.0271950868084
-0.00283614850498
0.0275879072956
-0.00242130248476
0.0279109296419
-0.0020197770933
0.0281668695843
-0.00163256860836
0.028358557362
-0.00126048402707
0.0284889035558
-0.000904166460601
0.0285608858567
-0.000564104345453
0.0285775180429
-0.000240651537974
0.0285418407367
6.59689181057e-05
0.0284568917667
0.000355646962453
0.0283256991207
0.000628386921979
0.0281512555923
0.000884279419789
0.0279365143405
0.00112351313863
0.0276843638642
0.00134635036241
0.0273976300817
0.00155312872968
0.0270790525799
0.00174424272845
0.0267312904218
0.00192014606319
0.0263569001693
0.00208133358509
0.0259583448025
0.00222834529513
0.0255379731807
0.00236174864262
0.0250980316417
0.00248214380071
0.0246406447215
0.00259014605473
0.0241678291818
0.00268639198733
0.0236814760675
0.00277152181388
0.0231833670627
0.00284618621193
0.0226751579806
0.00291102856617
0.0221583973325
0.00296669238311
0.0216345113934
0.00301380365199
0.0211048248249
0.00305297892598
0.0205705473015
0.00308480810909
0.0200327958425
0.00310986343576
0.0194925828774
0.00312868314712
0.0189508397821
0.00314178161212
0.0184084060417
0.0031496343029
0.0178660532796
0.00315268925001
0.0173244750798
0.00315135366739
0.0167843107329
0.00314600674434
0.0162461351971
0.00313698804619
0.0157104817493
0.00312461144893
0.0151778316459
0.0031091552662
0.0146486350104
0.00309087691068
0.0141232998731
0.00307000447165
0.0136022107965
0.00304675154632
0.0130857171946
0.00302130989753
0.0125741494729
0.00299386382683
0.0120678067373
0.00296458347323
0.0115669704453
0.00293363814817
0.0110718918174
0.002901189912
0.010582803222
0.0028674054109
0.0100999057202
0.00283244947011
0.00962337851478
0.00279649515044
0.0091533670994
0.00275971726356
0.00868999116878
0.00272230054258
0.00823333381444
0.00268443311117
0.00778344825834
0.00264631281238
0.00734034843325
0.00260814076775
0.00690401486441
0.00257012601409
0.00647438686585
0.00253247932506
0.00605136779191
0.00249541636902
0.00563481892854
0.0024591519708
0.00522456423047
0.0024239020489
0.00482038582254
0.00238987849323
0.00442202816324
0.00235729019286
0.00402919480471
0.00232633878026
0.00364155177159
0.00229721925479
0.00325872517304
0.00227011724739
0.00288030389427
0.00224521050494
0.00250583861512
0.00222266924723
0.00213484675756
0.00220266174082
0.00176682303227
0.00218536140099
0.00140126605758
0.00217095474241
0.00103775138846
0.00215961947203
0.000676163317539
0.00215094567774
0.00031861626658
0.00213402038917
0.0019144179796
0.0016555577903
-0.0107412297646
0.00348884380709
-0.0119012518908
0.00531313289824
-0.0118551472691
0.00710807656301
-0.0116832650956
0.00886354945612
-0.0114509371308
0.010570714823
-0.0111653577634
0.012221608724
-0.0108309714901
0.0138091904124
-0.0104525224728
0.0153273861051
-0.0100350960437
0.0167711079921
-0.00958398099074
0.0181362436096
-0.00910453662906
0.0194196270865
-0.00860207074353
0.0206189883705
-0.00808173834645
0.021732893219
-0.00754845414593
0.0227606680823
-0.00700682724129
0.0237023234967
-0.00646110871905
0.0245584683729
-0.00591516112476
0.0253302297944
-0.00537243910289
0.0260191693829
-0.00483599039934
0.0266272114751
-0.00430846485347
0.0271565724635
-0.00379213989344
0.0276097061139
-0.00328894821613
0.0279892517057
-0.0028005154418
0.0282979984234
-0.00232819258839
0.0285388502818
-0.0018730919026
0.0287148041288
-0.00143611218707
0.0288289239134
-0.0010179646269
0.0288843244645
-0.000619187624606
0.0288841485105
-0.000240163774292
0.0288315518943
0.000118871520139
0.0287296817918
0.00045781621131
0.0285816619369
0.000776698681593
0.0283905758521
0.00107564924895
0.0281594538519
0.00135491031174
0.0278912572444
0.00161481277932
0.0275888715481
0.00185577047297
0.0272550929249
0.0020782669491
0.0268926244559
0.00228284926713
0.0265040650673
0.00247011625329
0.0260919081473
0.00264071366022
0.0256585323544
0.00279532354599
0.0252062021643
0.00293466038916
0.0247370603761
0.00305946111712
0.0242531304865
0.00317048169435
0.023756310896
0.00326848744556
0.0232483791652
0.00335424988441
0.0227309880914
0.00342853725997
0.0222056719134
0.00349211158652
0.0216738443385
0.00354571954376
0.0211368066782
0.0035900899383
0.0205957478435
0.00362592533471
0.0200517542031
0.00365390031062
0.0195058112752
0.00367465428166
0.0189588148809
0.003688791027
0.0184115740878
0.00369687318874
0.017864823008
0.00369942342322
0.0173192242901
0.00369692086218
0.0167753808097
0.0036898040871
0.0162338389891
0.00367846961236
0.0156950996198
0.00366327657214
0.0151596202753
0.00364454696515
0.0146278246532
0.00362257172075
0.0141001035856
0.00359761222439
0.0135768225017
0.00356990718708
0.0130583207401
0.00353967479206
0.0125449170273
0.00350711973566
0.0120369071462
0.00347243533223
0.0115345675768
0.00343581008782
0.0110381517749
0.00339742917744
0.0105478923506
0.00335748009228
0.0100639964251
0.00331615310866
0.00958664681889
0.00327364572238
0.0091159969672
0.00323016193351
0.00865217163033
0.00318591542298
0.00819526185149
0.00314112768548
0.00774532562481
0.00309603004449
0.00730238325037
0.00305086079801
0.00686641830405
0.00300586628673
0.0064373736685
0.00296129730839
0.00601515299851
0.00291740947276
0.00559961756713
0.00287445917329
0.00519058828589
0.00283270349044
0.00478784340266
0.0027923960431
0.00439112098704
0.00275378671194
0.00400011736295
0.00271711776157
0.00361449005149
0.00268262381743
0.0032338570981
0.00265052886026
0.00285780091894
0.00262104712168
0.00248587063114
0.00259438218114
0.00211758932174
0.00257072928613
0.00175246477791
0.00255027620124
0.00139001408374
0.00253320394143
0.00102979913189
0.00251964003239
0.000671570800865
0.00250898280992
0.000317008449672
0.00248840110123
0.0022313418088
0.00171103316747
-0.0124519967403
0.00360500368732
-0.0137949426576
0.00548846522785
-0.0137383227923
0.00733982956656
-0.0135343429239
0.00914817704225
-0.0132589950529
0.0109040220047
-0.0129209109812
0.0125988995775
-0.0125255539704
0.0142254157123
-0.0120787403838
0.0157772894578
-0.0115866676496
0.0172493587924
-0.0110557446245
0.0186375581372
-0.0104924260635
0.0199388700409
-0.0099030691278
0.0211512599126
-0.00929381055498
0.0222735950144
-0.00867046825453
0.0233055553442
-0.00803846284032
0.0242475364745
-0.00740276237634
0.0251005514069
-0.00676784557792
0.0258661315436
-0.0061376868683
0.0265462336706
-0.00551575814887
0.0271431533574
-0.00490504935343
0.0276594504885
-0.00430810106367
0.0280978863813
-0.00372704858708
0.0284613751017
-0.00316366925157
0.0287529462414
-0.00261943063114
0.0289757180174
-0.0020955326879
0.0291328766656
-0.00159294308565
0.0292276592772
-0.00111242311995
0.0292633376989
-0.000654546614783
0.0292432014761
-0.00021971327874
0.0291705405224
0.000191840627877
0.0290486273595
0.000580030890183
0.0288806995136
0.000944920533031
0.0286699432503
0.00128669144062
0.0284194802375
0.00160565047492
0.0281323540215
0.00190220680008
0.027811520757
0.00217686160498
0.0274598394366
0.00243019562159
0.0270800658348
0.00266285923752
0.0266748450568
0.00287556183858
0.0262467077052
0.00306906388602
0.0257980640289
0.00324416758841
0.0253312018515
0.00340171016842
0.0248482821251
0.00354255511403
0.0243513386124
0.00366758598422
0.0238422749971
0.00377769778586
0.023322866512
0.0038737909996
0.0227947588263
0.00395676293637
0.0222594718279
0.00402750199805
0.0217184004961
0.00408687918582
0.0211728209447
0.00413574289036
0.0206238933003
0.00417491097764
0.0200726698674
0.00420516664952
0.0195200997869
0.00422725173106
0.0189670388765
0.00424186421493
0.0184142555204
0.00424965335824
0.017862441438
0.00425121941486
0.01731221805
0.00424711097731
0.0167641472569
0.00423782710455
0.0162187374191
0.00422381701566
0.015676453206
0.00420548445864
0.0151377204147
0.00418318952164
0.0146029341088
0.00415725472659
0.014072461706
0.00412796839919
0.0135466489
0.00409559171564
0.0130258207725
0.00406036288431
0.0125102853469
0.00402250426121
0.0120003328151
0.00398222653792
0.0114962369049
0.00393973511005
0.0109982526159
0.00389523358928
0.0105066158439
0.00384892881193
0.0100215401944
0.00380103322486
0.0095432154322
0.0037517682025
0.00907180399757
0.00370136514224
0.00860743886057
0.00365006702888
0.00815022029359
0.00359812832379
0.00770021362491
0.00354581492016
0.0072574466836
0.00349340307629
0.00682190783016
0.00344117803275
0.00639354433671
0.00338943230386
0.00597226094141
0.00333846329352
0.00555791927485
0.00328857126155
0.00515033706715
0.00324005631
0.00474928860011
0.00319321632073
0.00435450461253
0.0031483437153
0.0039656736904
0.00310572367476
0.00358244303392
0.00306563111215
0.00320442101271
0.00302832957008
0.00283117970476
0.00299406894272
0.00246225974769
0.00296308506201
0.00209717666086
0.00293559847279
0.0017354320166
0.00291181367417
0.00137652349653
0.00289191127317
0.00101996718144
0.00287600007052
0.000665408392317
0.00286335334302
0.000314304422619
0.00283932624969
0.00254556210713
0.00177686951083
-0.0142286051493
0.00374283512694
-0.0157606269198
0.00569639316051
-0.0156916008796
0.00761444091661
-0.0154521069981
0.00948507983584
-0.0151293487064
0.0112980481336
-0.0147335906265
0.0130442931764
-0.0142715072811
0.0147160245763
-0.013750176036
0.0163067447771
-0.0131770883212
0.0178112404751
-0.0125599362825
0.0192255377533
-0.0119064152797
0.0205468337669
-0.0112240524345
0.0217734069874
-0.0105200671778
0.0229045166782
-0.00980125694952
0.0239402902473
-0.00907391199443
0.0248816080228
-0.00834375193858
0.0257299829273
-0.00761588961956
0.0264874452935
-0.00689481548946
0.0271564308184
-0.00618440831073
0.0277396825783
-0.00548796404415
0.0282401647516
-0.00480824578062
0.0286609970452
-0.00414754309667
0.0290054043676
-0.0035077397847
0.0292766859106
-0.00289037656597
0.0294781940492
-0.00229670767598
0.0296133233264
-0.00172774197368
0.0296854994191
-0.00118427277969
0.0296981691703
-0.000666894273883
0.0296547854985
-0.000176012952585
0.0295587912419
0.000288145627874
0.0294135992339
0.000725526754532
0.0292225790923
0.00113623710418
0.0289890329737
0.00152052572298
0.0287161868327
0.00187877598343
0.0284071761784
0.00221148732719
0.0280650371147
0.00251926051237
0.0276926982428
0.002802783728
0.0272929747169
0.00306282085112
0.0268685625881
0.00330020043108
0.0264220345161
0.0035158062785
0.0259558355508
0.00371056834891
0.0254722800389
0.00388545444428
0.024973548744
0.00404146184667
0.0244616871229
0.00417960923846
0.023938604066
0.00430092846684
0.0234060719014
0.00440645631763
0.0228657271502
0.00449722626279
0.0223190726163
0.00457426009603
0.0217674804888
0.00463855986995
0.0212121967438
0.00469109977272
0.0206543467399
0.00473281882797
0.0200949418676
0.00476461370509
0.0195348874025
0.00478733298258
0.0189749909413
0.00480177173759
0.0184159718772
0.00480866816924
0.0178584708008
0.00480870067098
0.0173030596181
0.00480248732371
0.0167502508928
0.00479058581885
0.016200507501
0.00477349589856
0.0156542508881
0.00475166203669
0.0151118692078
0.00472547841818
0.014573723665
0.00469529385274
0.0140401543708
0.00466141848789
0.0135114842828
0.0046241300884
0.0129880223937
0.00458368142535
0.012470065195
0.00454030690865
0.0119578972841
0.00449422957244
0.0114517906653
0.00444566709678
0.0109520032296
0.00439483748643
0.0104587764989
0.0043419637829
0.00997233266852
0.00428727787024
0.00949287152805
0.00423102352393
0.0090205667883
0.00417345814574
0.00855556290056
0.00411485415157
0.00809797129278
0.00405549875342
0.00764786767737
0.00399569393086
0.00720528864045
0.00393575457573
0.00677022985256
0.00387600741672
0.00634264330672
0.00381678793886
0.00592243665309
0.00375843864537
0.00550947125402
0.0037013051887
0.00510356269793
0.00364573433022
0.00470447975807
0.00359206971853
0.00431194604089
0.00354064986681
0.00392563988011
0.00349180399465
0.00354519724577
0.00344585034165
0.00317021288695
0.00340309241789
0.00280024489212
0.00336381775844
0.00243481854601
0.0033282949204
0.00207343270085
0.00329677185523
0.00171556617675
0.00326947209716
0.0013606882412
0.00324658941702
0.00100826530145
0.00322823012716
0.000657860863917
0.00321356975389
0.000310811014581
0.00318619888539
0.00285629066062
0.00185420555924
-0.0160825527424
0.00390465350359
-0.0178108050025
0.00594032409449
-0.017726994219
0.00793625881985
-0.0174477638919
0.00987937898649
-0.0170721872783
0.0117584997084