/*--------------------------------*- C++ -*----------------------------------*\
| =========                 |                                                 |
| \\      /  F ield         | OpenFOAM: The Open Source CFD Toolbox           |
|  \\    /   O peration     | Version:  v1906                                 |
|   \\  /    A nd           | Web:      www.OpenFOAM.com                      |
|    \\/     M anipulation  |                                                 |
\*---------------------------------------------------------------------------*/
FoamFile
{
    version     2.0;
    format      ascii;
    class       volVectorField;
    location    "300";
    object      Ua;
}
// * * * * * * * * * * * * * * * * * * * * * * * * * * * * * * * * * * * * * //

dimensions      [0 1 -1 0 0 0 0];


internalField   nonuniform List<vector> 
9216
(
(-0.0103912241503 0.0104010681582 0)
(-0.0109663728415 0.0335686570798 3.943912896e-27)
(-0.0109641132782 0.0570961583307 -7.09897170082e-31)
(-0.0108635830548 0.0806351286618 0)
(-0.0107203682671 0.103788887671 0)
(-0.0105380498179 0.126464656764 0)
(-0.0103217565026 0.148561861867 0)
(-0.0100739880091 0.169989639294 0)
(-0.00979836980157 0.19066572795 0)
(-0.00949694802888 0.210517684568 0)
(-0.00917354227624 0.229481919547 0)
(-0.0088300594123 0.247504970395 0)
(-0.00847049571382 0.264542244148 0)
(-0.00809647356352 0.280559054751 0)
(-0.00771201931049 0.295529002627 0)
(-0.00731831253645 0.309434830953 0)
(-0.00691930111771 0.322266524774 0)
(-0.00651562045307 0.334022075863 0)
(-0.00611108447024 0.344705416761 0)
(-0.00570573745426 0.3543271936 0)
(-0.00530326134806 0.362902627342 0)
(-0.00490311690805 0.370452353216 0)
(-0.00450888797077 0.377000293967 0)
(-0.00411948459445 0.382574609049 0)
(-0.0037384474391 0.387205618118 0)
(-0.00336418514748 0.390926850425 0)
(-0.0030002408332 0.393773051934 0)
(-0.00264456095771 0.395781323114 0)
(-0.00230073084674 0.396989208863 0)
(-0.00196627747837 0.397435885902 0)
(-0.00164486336649 0.397160325904 0)
(-0.00133358132947 0.396202654344 0)
(-0.00103606948667 0.39460219355 0)
(-0.000749074427254 0.392398513489 0)
(-0.000476406766838 0.389630294345 0)
(-0.000214465683418 0.386336242906 0)
(3.28948138191e-05 0.382553677812 0)
(0.000269603346977 0.378319595858 0)
(0.000491743994473 0.373669380511 0)
(0.000703534266071 0.368637795168 0)
(0.000900994839046 0.363257854285 0)
(0.00108858899863 0.357561699692 0)
(0.00126228486423 0.351579663448 0)
(0.00142675335593 0.34534102184 0)
(0.00157791337154 0.338873245477 0)
(0.00172059322899 0.332202598724 0)
(0.00185067555158 0.325353606395 0)
(0.00197310075141 0.318349498446 0)
(0.00208372038695 0.311211884821 0)
(0.00218753154318 0.303961017397 0)
(0.00228037058994 0.296615697529 0)
(0.00236724357725 0.289193358264 0)
(0.00244398200588 0.281710189388 0)
(0.00251554735207 0.274181015852 0)
(0.00257778923986 0.26661965678 0)
(0.00263558236151 0.259038606247 0)
(0.00268481433075 0.251449603093 0)
(0.00273022928844 0.24386309606 0)
(0.00276778576748 0.236289031746 0)
(0.00280206680896 0.228736115959 0)
(0.00282913179704 0.221212789933 0)
(0.00285337252422 0.213726280175 0)
(0.00287098919672 0.206283762131 0)
(0.00288616425063 0.198891219745 0)
(0.00289527283158 0.19155476234 0)
(0.00290226971056 0.184279299868 0)
(0.00290374345596 0.1770700055 0)
(0.00290341168538 0.169930838399 0)
(0.00289810505328 0.162866115607 0)
(0.0028912929062 0.155878901363 0)
(0.00288007543734 0.148972675507 0)
(0.00286766830489 0.142149628345 0)
(0.00285145654533 0.13541238918 0)
(0.00283439455145 0.128762253161 0)
(0.00281416327009 0.122200954346 0)
(0.00279345205508 0.115728863229 0)
(0.00277023735691 0.109346771634 0)
(0.00274693804674 0.103054086374 0)
(0.00272182129421 0.0968506122204 0)
(0.00269703243929 0.0907347720934 0)
(0.00267111571148 0.0847053645755 0)
(0.00264593774173 0.0787598283907 0)
(0.00262030147232 0.0728959695014 0)
(0.00259578617339 0.0671102898878 0)
(0.00257142129801 0.0613996811374 0)
(0.00254846870944 0.0557598441279 0)
(0.00252610529122 0.0501869897756 0)
(0.00250513984972 0.0446764585918 0)
(0.00248455669984 0.0392246328386 0)
(0.00246392769768 0.0338283089228 0)
(0.00244000805388 0.0284881424671 0)
(0.00240599216926 0.0232128661948 0)
(0.00233551208562 0.0180547780641 0)
(0.00217127317268 0.0128474988631 0)
(0.00231217564383 0.00798076693728 0)
(0.00392635268364 0.0039280329986 0)
(-0.0336384238661 0.0110617019494 0)
(-0.0371869558179 0.0374802682721 0)
(-0.037104679708 0.0638291371223 -4.1401606266e-27)
(-0.03660845939 0.0902150497978 0)
(-0.0359188684222 0.116134689471 0)
(-0.035061721771 0.141504805265 0)
(-0.0340525387013 0.166218777042 0)
(-0.0329043903707 0.190176442816 0)
(-0.0316329477454 0.213286416247 0)
(-0.0302521015304 0.235467664699 0)
(-0.0287786552015 0.256649469446 0)
(-0.027226621406 0.276772150505 0)
(-0.0256129308151 0.295786484947 0)
(-0.023950636551 0.313654022154 0)
(-0.0222558294389 0.330346105413 0)
(-0.0205397432562 0.345843917352 0)
(-0.0188169695032 0.360137235986 0)
(-0.0170964035198 0.373224337127 0)
(-0.0153908143963 0.385110610821 0)
(-0.0137065629758 0.395808432388 0)
(-0.0120545682445 0.40533574749 0)
(-0.0104387208784 0.41371599751 0)
(-0.0088682630508 0.420976751454 0)
(-0.00734483475518 0.427149732027 0)
(-0.00587627871344 0.432269534816 0)
(-0.00446226813495 0.436373765248 0)
(-0.00310953248254 0.439501855889 0)
(-0.00181604933915 0.441695296723 0)
(-0.000587690012376 0.442996542035 0)
(0.000579020308126 0.443449303196 0)
(0.00167885124614 0.443097554404 0)
(0.00271653943638 0.441985742688 0)
(0.00368742184071 0.440158077553 0)
(0.00459734039433 0.43765905104 0)
(0.00544190239435 0.43453218464 0)
(0.0062278246098 0.430820591207 0)
(0.0069509647477 0.426566208299 0)
(0.00761879490129 0.421810188221 0)
(0.0082273052847 0.416592242486 0)
(0.00878456954332 0.410951009167 0)
(0.00928662113211 0.404923492941 0)
(0.0097419904401 0.39854540372 0)
(0.0101466891856 0.39185070097 0)
(0.0105095736668 0.384871893767 0)
(0.0108265767058 0.377639690417 0)
(0.0111067490874 0.37018325017 0)
(0.011345905154 0.362529945455 0)
(0.0115531698421 0.354705558 0)
(0.0117242043507 0.346734152837 0)
(0.011868087727 0.338638210447 0)
(0.0119803116712 0.330438617389 0)
(0.0120698047371 0.322154728248 0)
(0.0121318813754 0.313804467496 0)
(0.0121752225221 0.305404312631 0)
(0.0121949808518 0.296969507236 0)
(0.0121995155568 0.288513959515 0)
(0.0121838463652 0.280050555653 0)
(0.0121559509559 0.271590965895 0)
(0.0121107696823 0.2631460536 0)
(0.0120558648854 0.254725585889 0)
(0.0119861625947 0.246338723966 0)
(0.0119087899806 0.237993634857 0)
(0.0118187410717 0.229698056332 0)
(0.011722708245 0.221458813338 0)
(0.011615836826 0.213282442585 0)
(0.0115043908711 0.205174617911 0)
(0.0113837532911 0.19714082803 0)
(0.0112597755946 0.189185722785 0)
(0.0111281520554 0.181313830318 0)
(0.0109943341151 0.173528836195 0)
(0.0108543908704 0.16583433416 0)
(0.0107133864061 0.158233056257 0)
(0.0105678069814 0.150727644683 0)
(0.0104223338629 0.143319848873 0)
(0.0102738964929 0.136011312925 0)
(0.0101267945741 0.128802758846 0)
(0.00997840522647 0.12169477845 0)
(0.00983263990634 0.114687017441 0)
(0.00968731291962 0.107778967275 0)
(0.00954593720218 0.100969165455 0)
(0.00940673639153 0.0942559792635 0)
(0.00927280609251 0.0876368318713 0)
(0.00914273635148 0.081108976884 0)
(0.00901917229316 0.0746687603078 0)
(0.00890099476134 0.0683123843668 0)
(0.00879031209064 0.0620352143133 0)
(0.00868611256923 0.055832539043 0)
(0.00858966094685 0.0496989333667 0)
(0.00849937542292 0.0436289733576 0)
(0.00841427132263 0.0376164838694 0)
(0.00832894184565 0.0316545560694 0)
(0.00823258183606 0.0257322723286 0)
(0.00809688669702 0.0198289383615 0)
(0.00783690931834 0.0138249417972 0)
(0.00760841135677 0.0075951416016 0)
(0.00796793469111 0.00230639072328 0)
(-0.0575864123583 0.0112077378886 0)
(-0.0637569401225 0.0380933851864 0)
(-0.063546990874 0.0647715825206 -4.14390255086e-27)
(-0.0626868343126 0.0915383809785 0)
(-0.0615197552991 0.11782799563 0)
(-0.0600791874677 0.14355178229 0)
(-0.0583858434136 0.168599398606 0)
(-0.0564612651051 0.19286834228 0)
(-0.0543297444013 0.216265637312 0)
(-0.0520157876085 0.238708989787 0)
(-0.0495457085137 0.260127053526 0)
(-0.0469446884538 0.280459794654 0)
(-0.0442389275751 0.29965822566 0)
(-0.0414523339844 0.317684310027 0)
(-0.0386093052957 0.334510300464 0)
(-0.0357310515803 0.350118342662 0)
(-0.0328390514759 0.364499563404 0)
(-0.0299509834484 0.377653512367 0)
(-0.0270848717313 0.389587137698 0)
(-0.0242545798191 0.400314191791 0)
(-0.0214746387755 0.409854204876 0)
(-0.0187552426416 0.418231945991 0)
(-0.0161077341415 0.425476474835 0)
(-0.0135390403555 0.431620712191 0)
(-0.0110577855191 0.436700600806 0)
(-0.00866811718935 0.440754791896 0)
(-0.00637642238427 0.44382391689 0)
(-0.00418452114906 0.445950374263 0)
(-0.00209697551404 0.447177688795 0)
(-0.000113650518937 0.447550369288 0)
(0.00176239558805 0.447113347792 0)
(0.00353295356585 0.445911891397 0)
(0.00519614637278 0.443991086708 0)
(0.0067551050006 0.441395840901 0)
(0.00820896450341 0.43817041345 0)
(0.0095620086127 0.434358411869 0)
(0.0108141152187 0.430002414201 0)
(0.011970465959 0.425143993166 0)
(0.0130315002911 0.419823403454 0)
(0.014003094075 0.414079628123 0)
(0.0148860771504 0.407950121147 0)
(0.0156868302105 0.401470865679 0)
(0.0164064229532 0.394676177798 0)
(0.017051566691 0.387598774912 0)
(0.0176234345365 0.380269633495 0)
(0.018128904102 0.372718059022 0)
(0.0185691298624 0.364971604982 0)
(0.018951002317 0.357056144306 0)
(0.019275546571 0.348995842058 0)
(0.0195495235222 0.340813220294 0)
(0.0197737360494 0.332529190355 0)
(0.0199546912002 0.324163110159 0)
(0.0200928968154 0.315732865361 0)
(0.0201945043661 0.307254909361 0)
(0.0202596833707 0.298744395409 0)
(0.0202941592059 0.290215196095 0)
(0.0202977506289 0.281680071977 0)
(0.0202757192116 0.273150659788 0)
(0.020227556272 0.264637676539 0)
(0.0201580574756 0.256150873158 0)
(0.0200664399096 0.247699258651 0)
(0.0199570605575 0.239291010964 0)
(0.0198289418974 0.230933720228 0)
(0.0196860536438 0.222634257293 0)
(0.0195273167288 0.214399023369 0)
(0.0193563768779 0.206233774065 0)
(0.0191721515931 0.198143877009 0)
(0.0189780294699 0.190134097637 0)
(0.018773013923 0.182208856472 0)
(0.0185602951936 0.174371980865 0)
(0.0183390368697 0.166626965967 0)
(0.0181122766387 0.158976702905 0)
(0.0178793891422 0.151423738396 0)
(0.0176432864448 0.143969986952 0)
(0.0174035815122 0.136616993663 0)
(0.017163069671 0.129365641329 0)
(0.0169216043296 0.122216412822 0)
(0.0166818543879 0.115169100238 0)
(0.0164438948543 0.108223070493 0)
(0.0162102434414 0.101376984554 0)
(0.0159811579137 0.094629063323 0)
(0.01575896411 0.0879768209774 0)
(0.0155440445662 0.0814173330936 0)
(0.0153384717259 0.0749469869976 0)
(0.0151426616275 0.0685617466826 0)
(0.0149583214664 0.0622569152687 0)
(0.0147857232024 0.0560273830903 0)
(0.0146259483204 0.0498673600977 0)
(0.0144786868353 0.0437704969061 0)
(0.0143437226693 0.0377293089314 0)
(0.0142191751697 0.0317344748057 0)
(0.0141025963594 0.0257722676293 0)
(0.013991447051 0.0198200698837 0)
(0.0138864869729 0.0138205457237 0)
(0.013820078531 0.00778151402958 0)
(0.0128090201662 0.002157726328 0)
(-0.0820899841349 0.0113353322621 0)
(-0.0909572094764 0.0386668819692 0)
(-0.0906488257559 0.0656868315505 4.14197412903e-27)
(-0.0894066704644 0.0928165209487 0)
(-0.0877238813535 0.119453274746 0)
(-0.0856499888995 0.145503480924 0)
(-0.083214328858 0.170852557751 0)
(-0.0804483782799 0.195395029818 0)
(-0.0773867133934 0.219035919808 0)
(-0.0740653956043 0.241691670224 0)
(-0.0705218534123 0.263290449211 0)
(-0.066793203637 0.283772318205 0)
(-0.0629164704473 0.303089018147 0)
(-0.0589269317974 0.321203656588 0)
(-0.0548587247156 0.338090090397 0)
(-0.0507432353979 0.353732296862 0)
(-0.0466101119054 0.368123514553 0)
(-0.0424856836783 0.381265454938 0)
(-0.038394370157 0.393167348737 0)
(-0.034357088789 0.403845133334 0)
(-0.0303930212094 0.413320527665 0)
(-0.0265179434268 0.421620299311 0)
(-0.0227462886305 0.428775448023 0)
(-0.0190893254588 0.434820604625 0)
(-0.0155574552497 0.439793351868 0)
(-0.0121581747213 0.443733758931 0)
(-0.00889856368509 0.446683823786 0)
(-0.00578300368014 0.448687112541 0)
(-0.00281584394918 0.449788291423 0)
(1.12410095204e-06 0.450032840552 0)
(0.00266582023205 0.449466645871 0)
(0.00517862428621 0.44813580103 0)
(0.00753929848932 0.446086181277 0)
(0.00974999418416 0.443363324824 0)
(0.0118120276125 0.440012142638 0)
(0.0137290150135 0.436076751236 0)
(0.015503469824 0.431600241478 0)
(0.017140145815 0.426624579256 0)
(0.0186424715804 0.421190413089 0)
(0.0200160606139 0.415337009438 0)
(0.0212650000086 0.409102104735 0)
(0.0223955107055 0.402521869914 0)
(0.0234121101336 0.39563080379 0)
(0.0243213975149 0.388461721295 0)
(0.0251281097768 0.381045686157 0)
(0.0258390101613 0.373412021531 0)
(0.0264588625217 0.365588281538 0)
(0.026994395512 0.357600280834 0)
(0.0274502207684 0.34947210343 0)
(0.0278328497233 0.341226149882 0)
(0.0281465865187 0.332883181933 0)
(0.0283975687336 0.324462382377 0)
(0.0285896650108 0.315981430907 0)
(0.0287285155265 0.307456572246 0)
(0.0288174675833 0.298902718112 0)
(0.0288615853316 0.290333515592 0)
(0.0288636535146 0.281761466735 0)
(0.0288281298332 0.273197989992 0)
(0.0287572478712 0.264653549953 0)
(0.0286548793649 0.25613770316 0)
(0.0285227626434 0.247659228754 0)
(0.0283642464303 0.23922615259 0)
(0.0281806695597 0.230845872972 0)
(0.0279749537649 0.222525158095 0)
(0.0277481554455 0.214270261087 0)
(0.0275028810907 0.206086889639 0)
(0.0272400309529 0.197980309284 0)
(0.0269620096541 0.189955286355 0)
(0.0266696771075 0.182016178705 0)
(0.0263653349623 0.174166856303 0)
(0.0260498990398 0.166410782681 0)
(0.0257256437123 0.158750918929 0)
(0.0253936058647 0.15118979815 0)
(0.0250560779007 0.143729419699 0)
(0.0247142515251 0.136371321352 0)
(0.0243704523634 0.129116470531 0)
(0.0240260275199 0.121965336598 0)
(0.0236833220598 0.11491778494 0)
(0.0233438119083 0.107973153042 0)
(0.0230098239333 0.10113015221 0)
(0.0226829115898 0.0943869481691 0)
(0.0223653247362 0.0877410728814 0)
(0.0220586226644 0.0811895100444 0)
(0.0217648985526 0.0747286164802 0)
(0.0214856200541 0.0683542063185 0)
(0.0212226128389 0.0620614722133 0)
(0.0209771157849 0.0558450496087 0)
(0.0207505308524 0.0496988996464 0)
(0.0205436989184 0.0436162730233 0)
(0.0203575119691 0.0375893991681 0)
(0.0201926662335 0.031609140127 0)
(0.0200509002328 0.0256641354851 0)
(0.0199370810095 0.0197403424592 0)
(0.0198604985094 0.0138154041762 0)
(0.0197682517842 0.00797496979688 0)
(0.0179515346254 0.00230666115252 0)
(-0.106988994007 0.0114991770506 0)
(-0.118559949324 0.0394184070056 0)
(-0.118147016249 0.0669111776777 0)
(-0.116507880018 0.094527306439 0)
(-0.114288166469 0.121626722973 0)
(-0.111554552379 0.148110404181 0)
(-0.108346437065 0.173858607866 0)
(-0.104706166354 0.198761955344 0)
(-0.100679773273 0.222722756198 0)
(-0.0963155415247 0.245655824126 0)
(-0.0916630529597 0.267488725557 0)
(-0.0867717989962 0.28816180251 0)
(-0.0816905208531 0.307627882331 0)
(-0.0764660436856 0.325851795983 0)
(-0.0711429711066 0.342809673359 0)
(-0.065762768487 0.358488139077 0)
(-0.0603638219171 0.372883371445 0)
(-0.0549807568778 0.386000147441 0)
(-0.049644835445 0.397850829775 0)
(-0.0443834610191 0.408454414104 0)
(-0.0392208511498 0.41783558031 0)
(-0.0341776453388 0.426023855972 0)
(-0.0292717619624 0.433052819995 0)
(-0.0245180077506 0.438959437967 0)
(-0.0199290229665 0.443783438486 0)
(-0.0155148078052 0.44756680886 0)
(-0.0112836941043 0.450353310701 0)
(-0.00724175117344 0.45218808842 0)
(-0.00339377100155 0.453117272305 0)
(0.000257438772058 0.453187654921 0)
(0.00371003940398 0.45244633963 0)
(0.00696396806332 0.450940522074 0)
(0.0100198092126 0.448717064413 0)
(0.0128797371255 0.445822405399 0)
(0.0155463748546 0.442302274038 0)
(0.0180237242984 0.438201489051 0)
(0.0203159962931 0.433563779729 0)
(0.022428613768 0.428431648167 0)
(0.0243669992068 0.422846221844 0)
(0.0261376392244 0.416847155906 0)
(0.027746833939 0.410472523992 0)
(0.0292018152071 0.403758752387 0)
(0.0305094612856 0.396740546699 0)
(0.0316774591265 0.38945085572 0)
(0.0327129895531 0.381920830129 0)
(0.033623924852 0.374179813223 0)
(0.0344174911181 0.366255332982 0)
(0.0351014928288 0.358173119983 0)
(0.0356829621129 0.349957130047 0)
(0.0361694038701 0.341629586563 0)
(0.0365674431579 0.333211033936 0)
(0.0368840845137 0.324720402409 0)
(0.0371253705028 0.316175086165 0)
(0.0372976497567 0.307591024143 0)
(0.0374062592988 0.2989827986 0)
(0.0374567940957 0.290363725584 0)
(0.0374538251293 0.281745963445 0)
(0.0374021624542 0.273140602992 0)
(0.037305618533 0.26455777883 0)
(0.037168253881 0.256006751173 0)
(0.0369931930228 0.247496008994 0)
(0.0367838409121 0.239033334666 0)
(0.0365427561701 0.230625893817 0)
(0.0362728244626 0.222280278231 0)
(0.0359761919666 0.214002575943 0)
(0.0356553828324 0.205798389273 0)
(0.0353122945144 0.197672885681 0)
(0.0349492467293 0.189630792647 0)
(0.0345680399745 0.181676429073 0)
(0.0341709265428 0.173813680143 0)
(0.0337597336757 0.166046014749 0)
(0.0333367492221 0.158376446548 0)
(0.0329039112433 0.150807540969 0)
(0.0324636047594 0.143341368353 0)
(0.0320179199206 0.135979507343 0)
(0.0315693583041 0.128722996684 0)
(0.0311201616053 0.121572338659 0)
(0.0306729288625 0.114527454262 0)
(0.0302300172376 0.107587691811 0)
(0.0297940723962 0.100751789422 0)
(0.0293675019792 0.0940178902115 0)
(0.0289529227795 0.0873835133624 0)
(0.0285527066766 0.0808455766278 0)
(0.0281693479649 0.0744003744459 0)
(0.0278050809351 0.0680436018215 0)
(0.0274621732138 0.0617703314903 0)
(0.027142619487 0.0555750283455 0)
(0.0268483814884 0.0494515025363 0)
(0.0265811995082 0.0433928930759 0)
(0.0263428850498 0.037391570393 0)
(0.0261354655057 0.0314390777627 0)
(0.0259619463678 0.0255261872425 0)
(0.0258271447026 0.0196436065075 0)
(0.025732855429 0.0137782557659 0)
(0.0255623861413 0.00802156951306 0)
(0.0229979586799 0.00235678679217 0)
(-0.132421886622 0.0117035692881 0)
(-0.14673842082 0.040375477757 0)
(-0.146208740275 0.0684791425621 0)
(-0.14414956108 0.0967197103925 0)
(-0.141362408225 0.124411111517 0)
(-0.137932175791 0.151447886098 0)
(-0.133909700951 0.177704030788 0)
(-0.129349472791 0.203065345549 0)
(-0.124310354 0.227430784281 0)
(-0.118853975094 0.250713222889 0)
(-0.113043264672 0.272839609988 0)
(-0.10694095243 0.293750836186 0)
(-0.10060843534 0.313401298386 0)
(-0.0941046354928 0.331758233064 0)
(-0.0874852778758 0.348800850478 0)
(-0.0808021322909 0.364519341275 0)
(-0.0741027059435 0.378913782115 0)
(-0.0674298493636 0.391993008567 0)
(-0.0608218253668 0.403773475224 0)
(-0.0543122182744 0.414278166864 0)
(-0.0479302963968 0.423535570024 0)
(-0.0417011160282 0.431578755463 0)
(-0.0356460500675 0.438444559838 0)
(-0.0297829481907 0.444172896036 0)
(-0.0241266969927 0.448806157028 0)
(-0.0186893191469 0.452388723718 0)
(-0.0134804806361 0.454966527839 0)
(-0.00850748418097 0.456586677826 0)
(-0.00377571671991 0.457297103528 0)
(0.000711441615548 0.457146238598 0)
(0.00495219538621 0.456182690354 0)
(0.00894649426929 0.454455042456 0)
(0.012695500514 0.45201136916 0)
(0.0162018822073 0.448899252815 0)
(0.0194693088751 0.44516542678 0)
(0.022502647416 0.440855595458 0)
(0.0253075111761 0.436014270857 0)
(0.027890479274 0.430684630935 0)
(0.0302586445334 0.424908387974 0)
(0.0324198623223 0.418725686488 0)
(0.0343822964259 0.412175008209 0)
(0.0361546927906 0.405293102662 0)
(0.0377459216268 0.398114923814 0)
(0.0391652692585 0.390673589655 0)
(0.0404219748888 0.383000349314 0)
(0.0415255367027 0.375124571748 0)
(0.0424852449986 0.367073743353 0)
(0.0433104993925 0.358873485387 0)
(0.0440103418264 0.350547582397 0)
(0.044593785543 0.342118028477 0)
(0.045069354645 0.333605085151 0)
(0.0454454255308 0.325027353376 0)
(0.0457297801919 0.316401857121 0)
(0.0459299629007 0.307744136254 0)
(0.0460528551639 0.299068349046 0)
(0.046105047816 0.290387377255 0)
(0.0460924431606 0.281712938262 0)
(0.0460206420142 0.273055692715 0)
(0.0458945766424 0.264425355921 0)
(0.0457189078026 0.255830797185 0)
(0.0454976882847 0.247280140336 0)
(0.0452347637967 0.238780845985 0)
(0.0449334647967 0.230339793377 0)
(0.0445970015472 0.22196333886 0)
(0.0442281794354 0.213657374234 0)
(0.043829779247 0.205427358987 0)
(0.0434042911099 0.197278354353 0)
(0.0429542702881 0.189215030132 0)
(0.0424820849748 0.18124167683 0)
(0.041990241046 0.173362191487 0)
(0.041481140995 0.165580073204 0)
(0.0409573723554 0.15789839412 0)
(0.0404214765736 0.150319784461 0)
(0.0398761995339 0.142846395811 0)
(0.0393242713255 0.135479882404 0)
(0.0387686185275 0.128221363268 0)
(0.038212156704 0.121071405086 0)
(0.0376579666832 0.114029988707 0)
(0.0371091023717 0.107096498075 0)
(0.0365687334992 0.100269694919 0)
(0.036039971107 0.0935477159065 0)
(0.0355259805729 0.0869280571425 0)
(0.0350298271616 0.0804075796336 0)
(0.0345545633074 0.0739825024888 0)
(0.0341030975264 0.0676484129757 0)
(0.0336782637696 0.0614002640014 0)
(0.0332827240322 0.0552323849294 0)
(0.032919041388 0.0491384823665 0)
(0.0325896528152 0.0431116566989 0)
(0.0322970151858 0.0371444257371 0)
(0.0320437503559 0.0312288697575 0)
(0.0318329566978 0.0253568453533 0)
(0.0316681055914 0.0195206120396 0)
(0.0315448551119 0.0137083564971 0)
(0.0313055169039 0.00800616499975 0)
(0.0280981947836 0.0023655587213 0)
(-0.158520928889 0.0119536214839 0)
(-0.175643531039 0.0415557254431 0)
(-0.174979992921 0.0704148856407 4.16551382451e-27)
(-0.172469826617 0.0994263735061 0)
(-0.169075143231 0.127846897882 0)
(-0.164900484624 0.155563028344 0)
(-0.160009714104 0.182441156646 0)
(-0.154471099099 0.208361289903 0)
(-0.148358000627 0.233218435226 0)
(-0.141746910776 0.256923319254 0)
(-0.134715539761 0.279402395034 0)
(-0.127341045267 0.300597522352 0)
(-0.119698555802 0.320465323537 0)
(-0.111859883257 0.338976291003 0)
(-0.103892558861 0.356113699152 0)
(-0.0958590486666 0.371872385488 0)
(-0.0878162929725 0.38625744553 0)
(-0.0798153959025 0.399282900988 0)
(-0.0719016208942 0.410970383062 0)
(-0.0641144821867 0.421347885512 0)
(-0.0564880931825 0.430448620654 0)
(-0.0490515213596 0.43831001618 0)
(-0.0418293190857 0.444972862266 0)
(-0.0348419513907 0.450480615135 0)
(-0.0281063203063 0.454878834241 0)
(-0.0216361037177 0.4582147308 0)
(-0.0154421608734 0.460536789076 0)
(-0.00953273071492 0.461894434664 0)
(-0.0039137249787 0.462337721896 0)
(0.00141116546402 0.461917033843 0)
(0.00644022279389 0.460682767865 0)
(0.0111736670538 0.45868517426 0)
(0.0156132524633 0.455973766257 0)
(0.019762397903 0.452597501184 0)
(0.0236258243764 0.44860430443 0)
(0.0272095150613 0.444040937925 0)
(0.0305204706723 0.438952842524 0)
(0.0335666700205 0.433383999256 0)
(0.036356840699 0.427376811169 0)
(0.0389004429667 0.420972003843 0)
(0.0412074528499 0.414208540857 0)
(0.0432883630851 0.407123554463 0)
(0.045153972606 0.399752290078 0)
(0.0468153980553 0.39212806512 0)
(0.0482838657615 0.384282241654 0)
(0.0495707299046 0.376244213802 0)
(0.0506872659356 0.368041410606 0)
(0.0516446948105 0.35969931413 0)
(0.0524539806012 0.351241493562 0)
(0.0531258633405 0.342689654418 0)
(0.0536706661271 0.334063704118 0)
(0.0540983414769 0.325381830885 0)
(0.0544182953332 0.316660596754 0)
(0.0546394526655 0.307915040384 0)
(0.054770105287 0.299158790682 0)
(0.0548180011449 0.290404184792 0)
(0.0547902210108 0.281662391224 0)
(0.0546932930481 0.272943531115 0)
(0.0545330996205 0.264256799248 0)
(0.0543150147609 0.255610576764 0)
(0.0540438386181 0.247012537851 0)
(0.0537239518184 0.238469742954 0)
(0.0533592713609 0.229988722518 0)
(0.052953412925 0.221575543628 0)
(0.0525096600156 0.213235865074 0)
(0.0520311242609 0.204974974233 0)
(0.0515207189335 0.196797813221 0)
(0.0509813076929 0.188708987827 0)
(0.0504156749111 0.180712767676 0)
(0.0498266557002 0.172813072416 0)
(0.0492170977863 0.165013452632 0)
(0.0485899684365 0.157317061019 0)
(0.0479483055834 0.149726621329 0)
(0.0472953005278 0.142244392556 0)
(0.0466342385975 0.134872133954 0)
(0.0459685587716 0.127611069698 0)
(0.0453017861237 0.120461856201 0)
(0.0446375712782 0.113424552716 0)
(0.0439796179477 0.10649859632 0)
(0.0433317057851 0.0996827821607 0)
(0.0426976167968 0.0929752488577 0)
(0.0420811457587 0.0863734697075 0)
(0.0414860296437 0.0798742493837 0)
(0.0409159503004 0.07347372547 0)
(0.0403744722898 0.0671673743684 0)
(0.0398650455343 0.0609500221996 0)
(0.0393909619856 0.05481586288 0)
(0.0389553737934 0.0487584814704 0)
(0.0385612917531 0.0427709108003 0)
(0.0382116467576 0.0368457078103 0)
(0.0379093511092 0.0309750869693 0)
(0.0376573568697 0.0251511928242 0)
(0.037458068192 0.0193664835636 0)
(0.0373032451694 0.013608197235 0)
(0.0370025729728 0.00795658651327 0)
(0.0331864189997 0.00235889175459 0)
(-0.185430417856 0.0122534892761 0)
(-0.205434940236 0.0429786734886 0)
(-0.204615868459 0.072748107027 -4.16329239019e-27)
(-0.201615368309 0.102687498276 0)
(-0.197562352551 0.131983502908 0)
(-0.192583052601 0.160512873477 0)
(-0.186756402211 0.188132851808 0)
(-0.180166552257 0.214716636609 0)
(-0.17290343949 0.240154762702 0)
(-0.165060340647 0.264355729812 0)
(-0.156731492681 0.287245802108 0)
(-0.148009973136 0.308768433556 0)
(-0.138985909038 0.328883350172 0)
(-0.129744990293 0.347565371909 0)
(-0.120367318717 0.364803044722 0)
(-0.110926546855 0.380597143912 0)
(-0.101489337641 0.39495910549 0)
(-0.0921150891319 0.407909442453 0)
(-0.0828559526838 0.4194762023 0)
(-0.0737570660304 0.429693524534 0)
(-0.0648570107179 0.43860034808 0)
(-0.0561883805453 0.446239310676 0)
(-0.0477784520175 0.452655857225 0)
(-0.0396498254785 0.457897556285 0)
(-0.0318210425092 0.462013592664 0)
(-0.0243070716306 0.465054394021 0)
(-0.0171197208078 0.467071334271 0)
(-0.0102679124128 0.468116471887 0)
(-0.00375792633562 0.4682422865 0)
(0.00240643993933 0.467501404045 0)
(0.00822366806673 0.465946292105 0)
(0.0136944511395 0.463629145021 0)
(0.0188212643223 0.460601139924 0)
(0.0236084690563 0.456912833333 0)
(0.0280619548866 0.452613526627 0)
(0.0321890095517 0.44775120355 0)
(0.0359981176495 0.442372371016 0)
(0.0394988285825 0.436521933137 0)
(0.0427015808619 0.43024308286 0)
(0.0456175964589 0.423577212423 0)
(0.0482587244884 0.416563835302 0)
(0.05063735258 0.409240523289 0)
(0.0527662604621 0.401642853614 0)
(0.0546585393623 0.393804371121 0)
(0.0563274490089 0.38575656194 0)
(0.0577863407525 0.377528843726 0)
(0.059048516349 0.369148569238 0)
(0.0601271545871 0.360641048064 0)
(0.0610351742495 0.352029583552 0)
(0.0617851685528 0.343335528675 0)
(0.0623892787787 0.334578357317 0)
(0.062859143687 0.325775753278 0)
(0.0632057924104 0.316943713005 0)
(0.0634396175859 0.30809666238 0)
(0.0635702962127 0.299247582807 0)
(0.0636067932379 0.290408145265 0)
(0.0635573160132 0.281588847617 0)
(0.0634293515955 0.272799152453 0)
(0.0632296560654 0.264047621284 0)
(0.0629643233235 0.255342041601 0)
(0.0626388051726 0.246689544194 0)
(0.0622580049017 0.238096706931 0)
(0.0618263197587 0.229569644471 0)
(0.0613477486077 0.221114080047 0)
(0.0608259454415 0.212735401726 0)
(0.060264329261 0.204438699082 0)
(0.0596661369088 0.19622878563 0)
(0.0590345237211 0.188110202508 0)
(0.0583726055433 0.180087211838 0)
(0.0576835417865 0.172163774157 0)
(0.0569705600965 0.164343520794 0)
(0.0562370167681 0.156629714147 0)
(0.0554864014268 0.149025208464 0)
(0.0547223737311 0.141532402694 0)
(0.0539487491366 0.134153198667 0)
(0.0531695133917 0.126888955067 0)
(0.0523887927977 0.11974045009 0)
(0.0516108501039 0.112707843092 0)
(0.0508400439281 0.10579064689 0)
(0.0500808104487 0.0989877013581 0)
(0.0493376168924 0.0922971581238 0)
(0.048614934203 0.0857164681098 0)
(0.0479171895802 0.0792423792433 0)
(0.0472487357469 0.0728709380861 0)
(0.0466138081406 0.0665974998464 0)
(0.0460164980694 0.0604167447072 0)
(0.0454607224776 0.0543227041502 0)
(0.0449502106664 0.048308803541 0)
(0.0444884956474 0.0423679220373 0)
(0.0440789201985 0.0364924808821 0)
(0.0437246354526 0.0306746166129 0)
(0.0434285311401 0.0249062955008 0)
(0.0431924698387 0.0191794423194 0)
(0.043005754322 0.0134802785832 0)
(0.0426484093196 0.00788417830808 0)
(0.0382392819907 0.00234400981996 0)
(-0.21330834298 0.0126076754224 0)
(-0.236285498183 0.044667950031 0)
(-0.235283758081 0.0755159033373 0)
(-0.231743836658 0.106553385969 0)
(-0.226969271319 0.136882555178 0)
(-0.221110742579 0.166368205354 0)
(-0.214264926977 0.194856729866 0)
(-0.206534551926 0.222213495421 0)
(-0.198028724893 0.248324153146 0)
(-0.188859884088 0.273095095112 0)
(-0.179140901873 0.296452948502 0)
(-0.168982568547 0.318343658685 0)
(-0.158491493971 0.338731213606 0)
(-0.147768405182 0.357596112818 0)
(-0.136906835692 0.374933654908 0)
(-0.125992175551 0.390752108249 0)
(-0.115101086655 0.405070819673 0)
(-0.104301257239 0.417918323388 0)
(-0.0936514983651 0.429330514954 0)
(-0.0832021342117 0.439348964043 0)
(-0.0729956542089 0.448019434105 0)
(-0.0630675306339 0.455390665362 0)
(-0.0534471279612 0.461513448643 0)
(-0.0441585813076 0.466439981625 0)
(-0.0352215800045 0.470223461257 0)
(-0.0266519776137 0.472917837126 0)
(-0.0184622401348 0.474577643496 0)
(-0.0106617336774 0.475257837028 0)
(-0.00325692795758 0.475013598989 0)
(0.00374845921469 0.473900072832 0)
(0.0103532748723 0.471972112599 0)
(0.0165588533222 0.469284039315 0)
(0.0223686039469 0.465889020551 0)
(0.0277880111745 0.461839389536 0)
(0.032824306386 0.457186009818 0)
(0.0374862677852 0.451978238429 0)
(0.0417840115869 0.446263777129 0)
(0.0457288179227 0.440088560029 0)
(0.0493329588221 0.433496661891 0)
(0.052609557787 0.426530218076 0)
(0.0555724435423 0.419229357011 0)
(0.0582360277983 0.411632140815 0)
(0.0606151697791 0.403774517787 0)
(0.0627250599964 0.3956902847 0)
(0.0645810870116 0.387411063144 0)
(0.0661987217676 0.378966288754 0)
(0.0675933841955 0.370383217547 0)
(0.0687803284004 0.361686948248 0)
(0.0697745122194 0.352900464171 0)
(0.0705904887035 0.344044693132 0)