/*--------------------------------*- C++ -*----------------------------------*\
| =========                 |                                                 |
| \\      /  F ield         | OpenFOAM: The Open Source CFD Toolbox           |
|  \\    /   O peration     | Version:  v1906                                 |
|   \\  /    A nd           | Web:      www.OpenFOAM.com                      |
|    \\/     M anipulation  |                                                 |
\*---------------------------------------------------------------------------*/
FoamFile
{
    version     2.0;
    format      ascii;
    class       surfaceScalarField;
    location    "996";
    object      phia;
}
// * * * * * * * * * * * * * * * * * * * * * * * * * * * * * * * * * * * * * //

dimensions      [0 3 -1 0 0 0 0];
oriented        oriented;


internalField   nonuniform List<scalar> 
18240
(
0.00134688784394
-0.0013468581158
0.00282142259322
-0.00147450531039
0.00429489589665
-0.00147344119608
0.00574961038482
-0.00145468544563
0.00717756053352
-0.00142791756819
0.00857198518891
-0.00139439618159
0.00992683777211
-0.00135481954348
0.0112366477068
-0.00130978201557
0.0124965419287
-0.0012598607514
0.0137022268165
-0.00120565752531
0.0148500313577
-0.00114777067856
0.0159368728907
-0.00108681475147
0.0169602871784
-0.00102338009912
0.0179183692799
-0.000958055941477
0.0188097912886
-0.000891387549752
0.0196337230515
-0.00082390627898
0.0203898437041
-0.000756085996706
0.0210782488387
-0.000688380387324
0.0216994623807
-0.000621178737872
0.0222543362221
-0.000554849892716
0.0227440679814
-0.000489696865891
0.0231700975187
-0.000426006439954
0.0235341342836
-0.00036400180483
0.0238380530972
-0.000303896606876
0.0240839328608
-0.000245844766074
0.0242739521336
-0.000189997973983
0.0244104393618
-0.000136452180514
0.0244957676632
-8.53079053568e-05
0.0245324161239
-3.66133606519e-05
0.0245228633402
9.57230902638e-06
0.0244696610428
5.32374932908e-05
0.0243753177935
9.4361958334e-05
0.024242375577
0.000132977531432
0.0240733053161
0.000169088233759
0.023870598344
0.000202742467531
0.0236366485367
0.000233967141878
0.0233738498109
0.000262834433891
0.0230844768177
0.000289389805428
0.0227707907584
0.000313722043444
0.0224349171418
0.000335890031365
0.0220789588131
0.000355994615103
0.021704870878
0.000374104087194
0.0213145801129
0.000390327406518
0.0209098574328
0.000404738705209
0.0204924429389
0.000417451500337
0.0200639164419
0.000428542533315
0.0196258272766
0.000438126570414
0.0191795634843
0.00044627997215
0.018726485539
0.000453115737164
0.0182677948182
0.000458707173206
0.0178046702062
0.000463162800604
0.0173381364808
0.000466550568068
0.016869202744
0.000468972285907
0.0163987313053
0.000470488781333
0.0159275767135
0.000471193486103
0.0154564556843
0.000471138966421
0.0149860855363
0.000470409328103
0.0145170556713
0.000469048480337
0.0140499641279
0.000467130969897
0.0135852911351
0.000464692352605
0.0131235326276
0.00046179810151
0.0126650764116
0.000458476374697
0.0122103315111
0.000454784603947
0.01175960755
0.000450744956576
0.0113132390151
0.000446408257339
0.0108714685072
0.000441792367894
0.010434565097
0.000436943083628
0.0100027121658
0.000431875670021
0.00957611925818
0.000426632439721
0.0091549152539
0.000421227628066
0.00873925320506
0.000415701368933
0.00832920959595
0.000410068111195
0.00792488182992
0.000404366782116
0.00752629429128
0.000398612900056
0.00713348818552
0.000392844737392
0.00674643506775
0.000387079299162
0.00636511884942
0.000381354357989
0.00598945736332
0.000375688425877
0.00561937634786
0.000370118552228
0.00525473953606
0.000364664420353
0.00489541449038
0.000359361837632
0.00454121160732
0.000354231045223
0.00419194167693
0.000349305826981
0.00384736416743
0.000344606096712
0.00350723650941
0.000340162515177
0.00317127216186
0.000335993270473
0.00283918211307
0.000332123804951
0.00251064435315
0.000328566978672
0.00218534123483
0.000325335708121
0.00186294973497
0.000322420733455
0.00154320009942
0.000319780596137
0.00122595348939
0.000317275165627
0.000911472893412
0.000314508813521
0.000601415353852
0.000310084138449
0.00030333335964
0.000298110516051
0.000303348348925
0.00148903327152
-0.00283586032696
0.00315119712782
-0.00313663685962
0.00480425770664
-0.00312646875271
0.00643350802442
-0.00308390354715
0.00803152769939
-0.00302590410876
0.0095913660691
-0.00295420253153
0.0111064365798
-0.00286985684323
0.0125706764527
-0.00277399005599
0.0139786461017
-0.0026677971269
0.0153255595947
-0.00255253938857
0.0166073217373
-0.00242949952591
0.0178205152262
-0.0022999768517
0.0189624093453
-0.00216524095083
0.0200309190656
-0.00202653456722
0.0210245950232
-0.00188503033536
0.0219425631241
-0.00174184364362
0.0227845040098
-0.0015979938693
0.0235505812522
-0.00145442731871
0.0242414179774
-0.00131198267869
0.0248580207162
-0.0011714228103
0.025401759417
-0.00103340306278
0.0258742921118
-0.000898509855901
0.0262775523661
-0.000767229882176
0.0266136775259
-0.000639993067415
0.0268850052632
-0.000517140671024
0.0270940059518
-0.000398970557376
0.0272432881128
-0.000285702860914
0.0273355340863
-0.000177526360346
0.0273735131875
-7.45613084924e-05
0.0273600189479
2.30935122787e-05
0.0272978861935
0.000115401106553
0.0271899367206
0.000202337890501
0.0270390120014
0.000283932873414
0.026847904007
0.000360222254204
0.0266193848965
0.000431292026389
0.0263561504246
0.000497227291839
0.0260608578001
0.000558157414597
0.0257360673563
0.000614205676659
0.0253842845917
0.000665535147074
0.0250079020717
0.000712297830308
0.0246092456678
0.00075468142812
0.0241905167738
0.000792858217872
0.0237538423085
0.000827032424384
0.0233012173154
0.000857388996006
0.0228345582906
0.000884141300431
0.0223556462976
0.000907479985714
0.0218661831842
0.000927620742589
0.0213677353901
0.000944753479838
0.0208617925906
0.000959089940366
0.0203497123602
0.000970813456544
0.0198327807059
0.000980126244117
0.0193121577073
0.000987200031817
0.0187889393213
0.000992222884465
0.0182641040402
0.000995351002228
0.0177385752537
0.000996754924708
0.0172131689075
0.000996572774607
0.0166886556601
0.000994955678491
0.0161657094776
0.000992022682165
0.0156449688041
0.000987905187792
0.015126986041
0.000982703712442
0.0146122870059
0.000976531107712
0.0141013212899
0.000969471272943
0.0135945193668
0.000961620892878
0.013092243915
0.000953050171061
0.0125948440844
0.000943842813241
0.0121026079677
0.000934058813756
0.0116158136703
0.000923772419044
0.011134683224
0.000913036988867
0.0106594302605
0.000901920706466
0.0101902157376
0.000890473537912
0.0097271921245
0.000878760495487
0.00927046136625
0.000866830733352
0.00882011558916
0.000854748224468
0.00837619773672
0.000842563046043
0.00793873884321
0.000830339376993
0.00750772175828
0.00081812904322
0.0070831150677
0.000805996789424
0.00666484027171
0.000793996161668
0.00625280241548
0.000782192036226
0.0058468610267
0.000770638919302
0.00544685750996
0.000759400736906
0.00505259008165
0.000748531618343
0.00466383795173
0.000738092942006
0.00428034044702
0.000728136632945
0.00390181800756
0.000718719402388
0.00352795563844
0.000709888457217
0.00315842067087
0.000701692625576
0.00279285033362
0.000694169883647
0.00243086504329
0.000687354181694
0.00207205531547
0.000681262530875
0.00171597371184
0.000675894096373
0.00136206524064
0.00067121435533
0.00100946239608
0.000667141520245
0.000656133451022
0.000663441588516
0.00029725052127
0.000657021156289
0.000600612371468
0.00151534503802
-0.0043511740351
0.00319879737933
-0.00482005633804
0.00487560435477
-0.00480324251164
0.0065284871482
-0.00473675335765
0.00814928282015
-0.0046466665813
0.00973071845472
-0.00453560525865
0.0112660303965
-0.00440513561437
0.0127490341928
-0.00425696103192
0.0141741987028
-0.00409292850694
0.0155366805427
-0.00391498851799
0.016832352317
-0.00372513824262
0.0180577964139
-0.00352538839253
0.0192103018877
-0.00331771349627
0.0202878298684
-0.00310403020621
0.0212889894447
-0.00288615717508
0.022212984373
-0.00266580651475
0.0230595771618
-0.0024445541892
0.0238290259661
-0.00222384442248
0.0245220451365
-0.00200496971435
0.025139739919
-0.00178908631696
0.0256835700721
-0.00157720148141
0.0261552878625
-0.00137019684935
0.0265569088348
-0.00116881956173
0.0268906558713
-0.000973709823222
0.0271589384811
-0.000785392460238
0.0273643031674
-0.000604305492544
0.0275094205075
-0.000430789850226
0.0275970406271
-0.000265117249714
0.0276299865766
-0.000107477361813
0.0276111135564
4.19952758683e-05
0.0275433076721
0.000183236479867
0.0274294475129
0.000316226356656
0.0272724085266
0.000441000992668
0.0270750269861
0.000557631735558
0.0268401067707
0.00066624109985
0.026570386276
0.000766975444462
0.0262685490521
0.000860023300734
0.0259371930004
0.000945589197797
0.0255788441749
0.00102391253698
0.025195927786
0.00109524159659
0.0247907848033
0.00115985296435
0.0243656446119
0.00121802579481
0.0239226440731
0.00127006160425
0.0234638017554
0.00131625880214
0.0229910392013
0.00135693266362
0.0225061567119
0.00139239015855
0.0220108565665
0.00142294995203
0.0215067203678
0.00144891763846
0.0209952339879
0.00147060570346
0.020477766443
0.00148830931266
0.0199555962394
0.00150232621689
0.0194298916851
0.00151293330901
0.0189017382576
0.0015204065088
0.018372120155
0.00152499829044
0.0178419481799
0.00152695756576
0.0173120422595
0.00152650837767
0.0167831593106
0.00152386977778
0.0162559764011
0.00151923579541
0.0157311180113
0.00151279522629
0.0152091395285
0.0015047129267
0.014690553399
0.00149514937347
0.0141758126956
0.00148424323273
0.0136653357214
0.00147213047918
0.0131594895077
0.00145892814857
0.0126586125934
0.00144475278342
0.0121629984265
0.00142970522803
0.0116729161609
0.00141388815431
0.0111885940714
0.00139739177519
0.0107102383737
0.00138031024251
0.0102380168573
0.00136272816337
0.00977207581645
0.00134473570118
0.00931252418778
0.00132641583699
0.00885944877338
0.00130785807342
0.00841289919081
0.00128914641569
0.00797290158043
0.00127037162974
0.00753944467827
0.00125161997353
0.00711249221558
0.00123298401706
0.00669197038242
0.00121455217449
0.00627777908107
0.00119641812278
0.005869781003
0.00117867121295
0.00546781186863
0.00116140454521
0.0050716712708
0.0011447063283
0.00468113196628
0.0011286666595
0.0042959325713
0.00111336988389
0.00391578589782
0.00109890008933
0.00354037341152
0.00108533444195
0.00316935228388
0.00107274731046
0.00280235083545
0.00106120445176
0.00243897236454
0.00105076566813
0.00207878716261
0.00104148018547
0.00172132324346
0.00103338999894
0.00136603481039
0.00102653375843
0.00101224619612
0.0010209598598
0.000659152427729
0.00101656426579
0.000307614122604
0.00100858757677
0.000908239943824
0.00153869059098
-0.0058898328541
0.00324518136003
-0.00652651356063
0.00494514971187
-0.00650317724914
0.00662051610171
-0.00641208616079
0.00826264711193
-0.00628876398545
0.00986394688614
-0.00613687151425
0.01141742708
-0.00595858224893
0.0129167473745
-0.0057562478755
0.0143562731484
-0.00553242078321
0.015731107723
-0.0052897897331
0.0170371117038
-0.00503110882806
0.0182708967293
-0.00475914019824
0.0194298120619
-0.00447659559255
0.0205119096617
-0.00418609479165
0.0215159084523
-0.00389012296337
0.0224411411781
-0.00359100650846
0.0232875064652
-0.00329088678508
0.0240554072072
-0.00299171279376
0.0247456995015
-0.0026952297082
0.0253596308759
-0.002402985756
0.0258987932745
-0.00211633203487
0.0263650670059
-0.00183643914002
0.0267605820465
-0.00156430326453
0.0270876703404
-0.00130076721064
0.0273488363589
-0.00104652767219
0.0275467173382
-0.000802156114244
0.0276840616158
-0.000568103856996
0.0277636948315
-0.000344720646727
0.0277885039282
-0.000132256696947
0.0277614075557
6.91209641004e-05
0.0276853445559
0.000259328774868
0.0275632464621
0.000438353315908
0.0273980306922
0.000606245655639
0.0271925763734
0.000763114541888
0.0269497201791
0.000909125862288
0.0266722355118
0.00104448830819
0.0263628308806
0.00116945626988
0.0260241318684
0.00128431621169
0.0256586823158
0.00138939029129
0.0252689285352
0.00148502328369
0.0248572228591
0.00157158680859
0.0244258098349
0.00164946673093
0.0239768318562
0.00171906781178
0.0235123171982
0.00178080147393
0.0230341875483
0.00183509069893
0.0225442478194
0.00188235809475
0.0220441954518
0.00192303094387
0.0215356119712
0.00195752960198
0.0210199739183
0.00198627269846
0.0204986460735
0.00200966598936
0.0199728938084
0.00202810780423
0.019443877813
0.00204197854565
0.018912667555
0.00205164652481
0.0183802372244
0.00205745832046
0.0178474798803
0.00205974514061
0.0173152042311
0.00205881421864
0.0167841489639
0.00205495577655
0.0162549799196
0.00204843554479
0.01572830408
0.00203950230777
0.0152046667071
0.00202838152409
0.0146845645097
0.00201528332298
0.0141684423859
0.00200039709434
0.0136567053945
0.0019838997168
0.0131497148666
0.00196595090896
0.012647798953
0.00194670141421
0.0121512480137
0.00192628886731
0.0116603236673
0.00190484565428
0.0111752535172
0.00188249505725
0.0106962387728
0.00185935853881
0.0102234484878
0.00183555197176
0.00975702593069
0.00181119216233
0.00929708259516
0.00178639303947
0.00884370356513
0.00176127130804
0.0083969415893
0.00173594254541
0.00795682170559
0.00171052595331
0.00752333567103
0.00168514037665
0.00709644609629
0.0016599081853
0.00667608148298
0.00163495127895
0.00626214007444
0.00161039417362
0.00585448569807
0.00158636008648
0.00545295148157
0.00156297332334
0.00505733662692
0.00154035554478
0.00466741006526
0.00151862755091
0.00428290820067
0.00149790582131
0.00390353847019
0.00147830377928
0.00352897790771
0.00145992868616
0.0031588762733
0.00144288248171
0.00279285477387
0.00142725921571
0.00243050755472
0.00141314593033
0.00207139863318
0.00140062172307
0.0017150592129
0.00138976131692
0.00136098300314
0.0013806410274
0.0010086361942
0.00137333679487
0.000657620088728
0.00136760919648
0.000309562580402
0.0013566731482
0.00121781619847
0.00156866321618
-0.00745846371832
0.00330703177503
-0.00826484805481
0.00503828444915
-0.0082343956574
0.00674371100036
-0.00811747848707
0.00841423395449
-0.00795925271474
0.0100418873364
-0.00776449071616
0.0116193942961
-0.00753605504173
0.0131402052994
-0.00727702475994
0.014598548698
-0.00699073008622
0.0159894593597
-0.00668066636647
0.01730878939
-0.00635040487397
0.0185531971576
-0.00600351408271
0.0197201234101
-0.0056434880377
0.0208077508318
-0.00527368855027
0.0218149569258
-0.00489729550649
0.0227412556541
-0.00451727187995
0.023586738342
-0.00413633626825
0.0243520081796
-0.00375694966968
0.0250381192489
-0.00338130800363
0.0256465131299
-0.00301134715168
0.0261789640798
-0.00264875071775
0.0266375242247
-0.00229496734073
0.0270244794202
-0.00195122675258
0.0273423054673
-0.00161856189619
0.027593634967
-0.00129782605488
0.0277812231123
-0.000989713495117
0.0279079228305
-0.000694773047941
0.0279766569553
-0.000413424590872
0.0279903985734
-0.00014596835372
0.0279521471401
0.000107402034314
0.0278649124767
0.00034659288596
0.027731692639
0.000571602304241
0.0275554631889
0.00078250410223
0.0273391576935
0.000979448778787
0.0270856585714
0.0011626536184
0.0267977822021
0.00133239310244
0.0264782720955
0.00148899474285
0.0261297867968
0.00163282971993
0.0257548956733
0.00176430961903
0.0253560691471
0.00188387790829
0.0249356766694
0.00199200743051
0.0244959789605
0.00208919253142
0.0240391279027
0.00217594705863
0.023567160635
0.00225279692643
0.0230820012493
0.00232027841306
0.0225854566921
0.00237893102399
0.0220792202052
0.00242929599041
0.0215648690182
0.00247190943293
0.0210438694765
0.0025073011084
0.0205175764545
0.00253598800211
0.0199872400195
0.00255847348683
0.0194540063869
0.00257524157818
0.0189189258474
0.00258675674499
0.0183829549413
0.00259345908548
0.0178469652237
0.00259576501653
0.0173117462091
0.00259406358645
0.0167780144617
0.0025887181859
0.016246416786
0.00258006408927
0.0157175390854
0.0025684111897
0.0151919092866
0.00255404271369
0.0146700054706
0.00253721883736
0.0141522581013
0.00251817636992
0.013639057043
0.00249713297916
0.013130752811
0.00247428754346
0.0126276622638
0.0024498246452
0.0121300687613
0.00242391524015
0.0116382264864
0.00239672106157
0.0111523595676
0.00236839527757
0.0106726651504
0.0023390864959
0.0101993116741
0.00230893913883
0.00973244092045
0.00227809681942
0.00927216572704
0.00224670226377
0.00881857131339
0.00221489993434
0.0083717127456
0.00218283542623
0.00793161584661
0.00215065731007
0.00749827472098
0.002118516024
0.00707165253461
0.00208656499073
0.00665167936123
0.0020549590895
0.00623825305659
0.0020238551541
0.00583123762532
0.0019934101528
0.00543046434731
0.00196378120308
0.00503573078451
0.0019351235984
0.00464680223044
0.00190759048112
0.0042634113846
0.00188133085888
0.00388526009796
0.00185648907788
0.0035120195915
0.00183320298299
0.00314333227789
0.00181160338777
0.00277881219267
0.00179181267953
0.00241804642819
0.00177394478458
0.00206059565037
0.00175810516574
0.00170599621913
0.00174439287978
0.00135376552614
0.00173290287841
0.00100342442914
0.00172370772694
0.000654642761483
0.00171642001686
0.000308993293294
0.00170235101864
0.0015268230373
0.00160656327568
-0.00906499393899
0.00338613897706
-0.0100443888184
0.00515764603355
-0.0100058677254
0.0069016014289
-0.00986139887718
0.00860840424564
-0.00966602055319
0.010269644275
-0.00942569579755
0.0118776898475
-0.00914406568783
0.013425731809
-0.00882503183505
0.0149078318121
-0.00847279523448
0.0163189462337
-0.00809174599381
0.0176549278953
-0.00768635180117
0.0189125063671
-0.00726105791352
0.0200892523141
-0.0068201994442
0.0211835270263
-0.00636792885849
0.0221944228263
-0.00590815705331
0.023121695006
-0.00544450999027
0.0239656909109
-0.00498029830683
0.0247272763023
-0.00451850142633
0.0254077644705
-0.00406176279033
0.0260088475231
-0.00361239709571
0.0265325347507
-0.00317240513009
0.026981096246
-0.00274349632584
0.027357015523
-0.00232711384043
0.0276629476728
-0.00192446217984
0.027901685606
-0.00153653245378
0.0280761297193
-0.00116412640145
0.0281892631823
-0.000807875631392
0.0282441280586
-0.000468258903913
0.0282438050997
-0.000145615138081
0.0281913929673
0.000159844131007
0.0280899909041
0.000448024638298
0.0279426792136
0.00071894342188
0.0277525065924
0.000972705916522
0.0275224732763
0.00120951106821
0.0272555198035
0.00142963588077
0.0269545148093
0.00163342671555
0.0266222463984
0.00182129164522
0.0262614127376
0.00199369175284
0.0258746159839
0.00215113467424
0.0254643551334
0.00229416699446
0.0250330220175
0.00242336876942
0.0245828960453
0.00253934671234
0.0241161420167
0.00264272933791
0.0236348066247
0.00273416060487
0.0231408180241
0.00281429539465
0.0226359840986
0.0028837934116
0.0221219938116
0.00294331488044
0.0216004172803
0.00299351469035
0.0210727089166
0.00303503838165
0.0205402092855
0.00306851670103
0.020004149944
0.00309456211466
0.0194656569196
0.00311376407756
0.0189257569828
0.00312668640458
0.0183853823996
0.00313386360288
0.0178453781955
0.00313579942355
0.0173065076725
0.0031329645405
0.0167694600855
0.00312579648687
0.016234856324
0.00311469880168
0.015703256381
0.00310004237168
0.0151751646057
0.00308216596741
0.014651036403
0.00306137880537
0.0141312825649
0.00303796220785
0.0136162747831
0.00301217303874
0.0131063487403
0.00298424608867
0.0126018082095
0.00295439794233
0.0121029267894
0.00292282963627
0.0116099505682
0.00288973050359
0.0111230985818
0.00285528067654
0.0106425641993
0.00281965451359
0.0101685145368
0.00278302260722
0.00970109084805
0.0027455545109
0.00924040722281
0.00270742003824
0.00878655033281
0.0026687911406
0.00833957777563
0.00262984241655
0.0078995175305
0.00259075211846
0.00746636628967
0.00255170190734
0.00704008893925
0.00251287706766
0.0066206171623
0.00247446562375
0.00620784919016
0.00243665790958
0.00580164888407
0.00239964521252
0.00540184592035
0.00236361887603
0.00500823546985
0.00232876865559
0.00462057889182
0.00229528154153
0.00423860404084
0.0022633400142
0.00386200645788
0.00223312077652
0.00349045023095
0.00220479310886
0.00312356957824
0.00217851773886
0.00276097014864
0.00215444557906
0.00240223100714
0.0021327171431
0.0020469068405
0.00211346215674
0.00169453178577
0.00209679998967
0.0013446269358
0.00208283897721
0.000996718616985
0.00207164641665
0.000650456900963
0.0020627107328
0.000307303945417
0.00204553223194
0.00183414078763
0.00165321962477
-0.0107181796983
0.00348378648637
-0.0118749199813
0.00530505037822
-0.0118270957342
0.00709652714077
-0.0116528397721
0.00884796123336
-0.0114174187931
0.0105503991031
-0.0111280978392
0.0121957798103
-0.0107894105968
0.0137769848116
-0.010406201065
0.0152878842287
-0.00998365892563
0.0167233538604
-0.00952717994814
0.0180792657075
-0.0090422280472
0.019352455728
-0.00853421242141
0.0205406737137
-0.00800838203802
0.0216425187993
-0.00746973869366
0.022657365016
-0.00692296819204
0.0235852796897
-0.00637238978826
0.0244269387605
-0.00582192272855
0.025183541414
-0.00527506969334
0.0258567279847
-0.00473491525076
0.0264485029761
-0.00420413829269
0.0269611665037
-0.00368503517962
0.0273972545804
-0.00317955127987
0.0277594899079
-0.00268931638697
0.0280507414313
-0.00221568130026
0.0282739924758
-0.00175975144723
0.0284323141751
-0.00132241643116
0.0285288434622
-0.000904373593903
0.0285667625201
-0.000506147004884
0.0285492799681
-0.000128101953423
0.028479611773
0.000229542621835
0.0283609638433
0.000566702572244
0.0281965155025
0.000883421466191
0.0279894021601
0.00117984871011
0.0277427031959
0.00145623923517
0.0274594288496
0.00171293922817
0.0271425093333
0.0019503750416
0.0267947860969
0.00216904354399
0.0264190037133
0.00236950266816
0.0260178035953
0.00255236323344
0.0255937180291
0.00271828093166
0.0251491657732
0.00286794936151
0.0246864478293
0.00300209298175
0.0242077446851
0.00312146082723
0.0237151137373
0.00322681994258
0.0232104882006
0.00331894939091
0.0226956762731
0.0033986338954
0.0221723618328
0.00346665799294
0.0216421054745
0.00352379986373
0.021106347096
0.00357082573121
0.0205664088557
0.003608484096
0.0200234996154
0.00363750070065
0.0194787196853
0.00365857357057
0.0189330668753
0.00367236899602
0.0183874426584
0.00367951784552
0.017842659343
0.00368061300416
0.0172994470722
0.00367620733972
0.0167584614587
0.00366681288115
0.0162202907168
0.00365290059905
0.0156854630425
0.00363490135959
0.0151544531828
0.00361320741837
0.0146276889166
0.00358817491918
0.014105556491
0.00356012675451
0.0135884057316
0.0035293561676
0.0130765539858
0.00349613046613
0.0125702896244
0.00346069516998
0.012069874375
0.00342327799806
0.0115755452169
0.00338409299099
0.0110875152173
0.0033433442308
0.0106059740309
0.0033012294505
0.0101310875271
0.00325794306324
0.00966299724579
0.00321367891647
0.00920181920914
0.00316863237312
0.00874764275069
0.00312300204112
0.00830052893162
0.00307699081895
0.00786050915317
0.0030308065894
0.00742758356456
0.00298466228854
0.00700171981208
0.00293877567747
0.00658285175051
0.00289336859136
0.00617087859481
0.00284866598018
0.00576566415516
0.00280489455216
0.00536703656085
0.00276228131046
0.00497478814197
0.00272105182426
0.0045886758006
0.00268142849465
0.00420842157263
0.00264362868523
0.00383371364824
0.00260786294451
0.00346420756884
0.00257433322125
0.00309952785191
0.00254323127551
0.0027392698227
0.00251473722596
0.00238300190277
0.00248901837704
0.00203026860664
0.00246622834149
0.00168059470027
0.00244650628129
0.00133349117337
0.00242997389567
0.000988468997996
0.00241669859527
0.000645143762756
0.00240606537199
0.000304890794328
0.00238581386221
0.00213904522347
0.00170944713178
-0.0124275920715
0.00360152052604
-0.0137669566493
0.00548274001024
-0.0137082783944
0.00733136234244
-0.0135014252678
0.0091363184091
-0.0132223380389
0.0108879941401
-0.0128797367769
0.0125778176165
-0.0124791972967
0.0141983122642
-0.0120266589722
0.015743138554
-0.0115284485068
0.0172071001204
-0.0109911048669
0.0185861192056
-0.0104212105539
0.0198771872666
-0.00982524400777
0.0210782966513
-0.0092094550723
0.0221883579787
-0.00857976383045
0.0232071076636
-0.00794168187742
0.0241350091145
-0.00730025546182
0.0249731513989
-0.00666002949653
0.0257231487853
-0.00602503184678
0.0263870449764
-0.00539877653472
0.0269672253443
-0.00478428408922
0.0274663402463
-0.00418411588719
0.0278872412156
-0.00360041842852
0.0282329306729
-0.00303497243364
0.0285065240029
-0.00248924161305
0.028711221712
-0.0019644165607
0.0288502883595
-0.00146145087788
0.0289270351713
-0.000981088618106
0.028944803686
-0.000523884110226
0.0289069491463
-9.02163910661e-05
0.0288168231365
0.000319699307938
0.028677753726
0.000705802311401
0.0284930345393
0.00106817067191
0.0282659035535
0.00140700941575
0.0279995309889
0.00172264126196
0.0276970074204
0.00201549201931
0.0273613336434
0.00228607784096
0.0269954123672
0.00253499366697
0.0266020411039
0.0027629026379
0.0261839062927
0.00297052664019
0.0257435781286
0.00315863761127
0.0252835063292
0.00332804962955
0.0248060164304
0.00347961132737
0.0243133069951
0.00361419872283
0.0238074473795
0.00373270805181
0.0232903765185
0.00383604881593
0.0227639023755
0.00392513668589
0.022229702554
0.00400088658348
0.0216893256807
0.00406420563496
0.0211441940577
0.00411598641958
0.0205956071294
0.00415710025775
0.0200447462227
0.00418839104717
0.0194926800153
0.00421066941886
0.0189403711269
0.00422470776407
0.0183886831945
0.00423123588428
0.017838388767
0.00423093780099
0.0172901773128
0.00422444940832
0.0167446636422
0.00421235744542
0.0162023960143
0.00419519937614
0.0156638642371
0.00417346457258
0.0151295070538
0.00414759629586
0.0145997191583
0.00411799479503
0.0140748571981
0.00408502094872
0.0135552451618
0.00404900071582
0.0130411785944
0.00401022978823
0.0125329280973
0.00396897868532
0.0120307416471
0.00392549769307
0.0115348462396
0.00388002188712
0.011045448477
0.00383277568894
0.0105627346296
0.00378397721391
0.010086869861
0.00373384193175
0.00961799714256
0.00368258592857
0.00915623559505
0.00363042837181
0.00870167875618
0.00357759349399
0.00825439253599
0.00352431177893
0.00781441331299
0.00347082067731
0.00738174594689
0.00341736460566
0.00695636210091
0.00336419455264
0.00653819865678
0.00331156710039
0.00612715655328
0.00325974316836
0.00572309983633
0.00320898632712
0.00532585519025
0.00315956096355
0.0049352117465
0.00311173017381
0.00455092138175
0.00306575363425
0.00417269931483
0.00302188534867
0.00380022517249
0.00298037148793
0.00343314433643
0.00294144824027
0.00307106974023
0.00290533984904
0.00271358394579
0.00287225676555
0.00236024174596
0.00284239407164
0.00201057322974
0.00281592996383
0.00166408756197
0.00279302424905
0.00132027835223
0.00277381461591
0.000978633852105
0.00275837378057
0.000638734364143
0.00274599408306
0.000301890223137
0.00272268648322
0.00244094940203
0.00177619752217
-0.0142037538756
0.00374125706381
-0.0157319784842
0.00569352211811
-0.0156605055864
0.00760969950171
-0.0154175647756
0.0094777233266
-0.0150903240072
0.011287186459
-0.0146891620626
0.0130289192542
-0.0142208922726
0.0146950424262
-0.0136927443405
0.01627899896
-0.0131123672829
0.017775543372
-0.0124876115645
0.0191806959796
-0.0118263255344
0.0204916708123
-0.0111361813092
0.0217067841966
-0.0104245310721
0.0228253497616
-0.00969829217764
0.023847564165
-0.00896385928
0.0247743873999
-0.00822704194308
0.0256074212934
-0.00749302692545
0.0263487902224
-0.00676636463772
0.0270010284419
-0.00605097896981
0.027566978484
-0.00535019874103
0.0280497047356
-0.00466680715197
0.0284524247635
-0.00400310391161
0.028778459236
-0.00336097279466
0.029031198479
-0.00274194721057
0.0292140820246
-0.0021472669032
0.0293305857597
-0.00157792187584
0.0293842119513
-0.00103468250328
0.0293784781466
-0.000518118443818
0.0293169034809
-2.86102657051e-05
0.029202992083
0.000433641760102
0.0290402126988
0.000868612387637
0.028831987813
0.0012764258897
0.028581671442
0.0016573558052
0.0282925367846
0.00201180564038
0.0279677649306
0.00234029334054
0.0276104356388
0.00264343637021
0.0272235200221
0.00292193833056
0.0268098744811
0.00317657706575
0.0263722356357
0.00340819424636
0.0259132158783
0.00361768603839
0.0254352995303
0.00380599458406
0.0249408395067
0.00397409993236
0.0244320545944
0.00412301221353
0.0239110273839
0.00425376387689
0.0233797029793
0.00436740188758
0.0228398885765
0.00446497984859
0.0222932540123
0.00454755001038
0.021741333394
0.00461615525938
0.0211855278533
0.00467182111352
0.0206271095106
0.00471554794175
0.02006722659
0.00474830349456
0.0195069097031
0.00477101605796
0.0189470791112
0.00478456832451
0.0183885529013
0.00478979231845
0.0178320557648
0.00478746540157
0.0172782282652
0.00477830764945
0.0167276362055
0.00476298050169
0.0161807799826
0.00474208688623
0.0156381035215
0.0047161725832
0.0151000027271
0.00468572893433
0.0145668330822
0.00465119654534
0.0140389164119
0.00461297001488
0.013516546514
0.00457140326264
0.0129999937762
0.00452681545364
0.0124895085612
0.00447949706671
0.0119853235768
0.00442971610463
0.0114876550926
0.00437772401848
0.0109967032911
0.00432376137571
0.0105126516816
0.00426806290646
0.010035665899
0.00421086200919
0.0095658918612
0.00415239443377
0.00910345360324
0.004092901279
0.008648450781
0.00403263110845
0.00820095613288
0.003971841366
0.0077610128881
0.00391079896806
0.00732863236457
0.00384978027876
0.00690379173095
0.00378907039743
0.00648643212327
0.00372896196945
0.00607645707425
0.00366975348353
0.00567373139558
0.00361174725708
0.00527808045449
0.00355524709135
0.00488928994332
0.00350055577998
0.00450710606816
0.00344797246109
0.0041312362239
0.00339778997337
0.0037613500808
0.00335029220633
0.0033970811062
0.00330575157616
0.00303802848444
0.00326442661318
0.00268375943452
0.00322655975595
0.00233381185892
0.00319237527464
0.00198769757726
0.00316207743897
0.00164490597867
0.00313584856766
0.00130490798192
0.00311384431189
0.00096716538552
0.00309614661629
0.000631226628527
0.00308196255709
0.000298344525552
0.00305559755988
0.00273930769201
0.00185463051373
-0.0160583476535
0.0039053671278
-0.0177826763254
0.00594087803172
-0.0176959775361
0.00793598288698
-0.0174126306779
0.00987740746312
-0.0170317096201
0.0117538043135
-0.0165655199755