/*--------------------------------*- C++ -*----------------------------------*\
| =========                 |                                                 |
| \\      /  F ield         | OpenFOAM: The Open Source CFD Toolbox           |
|  \\    /   O peration     | Version:  v1906                                 |
|   \\  /    A nd           | Web:      www.OpenFOAM.com                      |
|    \\/     M anipulation  |                                                 |
\*---------------------------------------------------------------------------*/
FoamFile
{
    version     2.0;
    format      ascii;
    class       volScalarField;
    location    "55";
    object      pa;
}
// * * * * * * * * * * * * * * * * * * * * * * * * * * * * * * * * * * * * * //

dimensions      [0 2 -2 0 0 0 0];


internalField   nonuniform List<scalar> 
9216
(
952.995345566
952.611607541
951.81443828
950.599897574
948.972490011
946.942867262
944.516262624
941.709353779
938.529185223
934.994514991
931.115099751
926.915200442
922.406276139
917.611797037
912.541955326
907.224201065
901.666681527
895.895538582
889.919968509
883.770298646
877.45520417
871.004627109
864.425933962
857.746706222
850.972192241
844.129171897
837.228408956
830.300094417
823.337137893
816.360549356
809.375253998
802.426918155
795.520881392
788.65624329
781.8325074
775.085457674
768.418011706
761.855314985
755.398731301
749.069298213
742.868413045
736.821230036
730.927210703
725.200679072
719.641940575
714.269675086
709.081321132
704.089869255
699.293046245
694.701354108
690.310012893
686.128227404
682.149757223
678.379073481
674.80973789
671.443340563
668.272869877
665.295345628
662.5039526
659.89663827
657.464785145
655.20197171
653.100940044
651.153469646
649.353851855
647.697721289
646.181491913
644.790428189
643.517304841
642.350721631
641.28396211
640.30729384
639.416654913
638.602310415
637.860539987
637.184241376
636.570907036
636.013966502
635.510864431
635.055307039
634.645656886
634.277592983
633.949697793
633.658845838
633.403969444
633.18210338
632.989192696
632.818607048
632.675534895
632.564435213
632.485893293
632.433132229
632.39776824
632.375222212
632.362331323
632.35712685
953.369660974
952.983558122
952.184960439
950.964573587
949.329370922
947.288385849
944.850309147
942.029604186
938.836173184
935.285469086
931.39130635
927.17301569
922.645253321
917.827116685
912.738539923
907.402063443
901.828903731
896.037175725
890.041789124
883.870189189
877.536567364
871.065760893
864.472241194
857.775267155
850.986582715
844.127458541
837.211004641
830.263194378
823.288712059
816.298156707
809.310237421
802.347900528
795.420089491
788.538584404
781.708647641
774.95198107
768.277299508
761.703028268
755.236798727
748.896376777
742.692784659
736.638035942
730.736898446
725.00263091
719.438786892
714.062042441
708.873878023
703.879251143
699.083286901
694.490781881
690.101209933
685.92068123
681.946512755
678.178886366
674.615052729
671.253306727
668.087953391
665.115482424
662.332866568
659.734278275
657.310372594
655.05534499
652.962200547
651.023723811
649.230322703
647.579886875
646.070314518
644.687363589
643.422351243
642.263610245
641.202643132
640.232145701
639.346962643
638.538216068
637.800280797
637.128454032
636.518772682
635.966297611
635.466735899
635.014744663
634.608298259
634.243449691
633.918023499
633.630191406
633.377976837
633.158910726
632.969685035
632.806297845
632.66642379
632.555414418
632.477482311
632.425933413
632.391608535
632.369467842
632.35722685
632.351966973
954.15019842
953.75794301
952.952312985
951.720869066
950.071624928
948.012797901
945.554073498
942.708925404
939.48998423
935.910596111
931.987092741
927.737494689
923.177691452
918.327080881
913.20387338
907.829097757
902.218117634
896.390972964
890.365809444
884.161564396
877.796942078
871.292438052
864.665669142
857.935139917
851.116222882
844.224793578
837.281311438
830.308785564
823.308284421
816.293645912
809.282939531
802.293915782
795.338793165
788.425213047
781.571161775
774.792404966
768.09533059
761.498059406
755.013225266
748.652981119
742.428866149
736.351774796
730.431742702
724.680097081
719.105175547
713.717285568
708.51472033
703.508550244
698.709488422
694.112833053
689.719781466
685.541215134
681.571711551
677.807376053
674.24988531
670.895706563
667.739952222
664.7784896
662.00673383
659.418891845
657.007421487
654.765590571
652.685794426
650.759399212
648.97985421
647.345384671
645.851383169
644.484696009
643.234742393
642.091239793
641.042615647
640.083032932
639.209773231
638.410199024
637.679265644
637.015703469
636.414105954
635.86951371
635.378563053
634.93310807
634.530939026
634.17172634
633.852112563
633.57096246
633.325990437
633.112463927
632.930643153
632.777999217
632.645872592
632.536666325
632.460249712
632.412126849
632.379173511
632.357247721
632.344662284
632.338349138
955.350919664
954.951811763
954.13517709
952.886639604
951.214793348
949.12787602
946.636931313
943.755053101
940.495458116
936.872962682
932.902997418
928.60365369
923.992540298
919.089381918
913.914702907
908.486680389
902.821924183
896.940515817
890.861909564
884.60504359
878.189222199
871.632386417
864.954881775
858.17504766
851.30971468
844.379637227
837.398470358
830.383418886
823.342998532
816.285782843
809.235200478
802.20781691
795.210586063
788.258554241
781.366426518
774.546567754
767.809970762
761.176892941
754.661832889
748.269819097
742.014137703
735.902546998
729.954510265
724.188333046
718.594377529
713.187597211
707.975021572
702.958712459
698.148179279
693.543957497
689.149589841
684.967578039
680.994450812
677.23439202
673.687326413
670.345502622
667.203591259
664.257465237
661.50234993
658.932970501
656.541119162
654.320208008
652.262150703
650.357565585
648.601625405
646.9922083
645.523979861
644.181282711
642.953909198
641.829277745
640.798144449
639.857172549
638.998148725
638.212444
637.49736223
636.847731912
636.258615981
635.725288943
635.24307419
634.80761268
634.417527671
634.069604817
633.759964384
633.489261634
633.252057462
633.046132424
632.87598949
632.730870117
632.605737982
632.505981233
632.436065351
632.389006092
632.356755016
632.334642946
632.322358549
632.315832677
956.976890116
956.568857552
955.737007969
954.465343164
952.762786363
950.638227346
948.102255369
945.169546747
941.855202011
938.172716749
934.139096171
929.772331147
925.092482065
920.120242561
914.874075049
909.372091895
903.633941837
897.679630379
891.529299099
885.200662151
878.715487607
872.092711935
865.346467191
858.501436714
851.578270173
844.593688583
837.557098452
830.483835017
823.388518042
816.278692034
809.172935138
802.087830282
795.033225293
788.028116912
781.086681452
774.215665352
767.432116632
760.74849526
754.185312782
747.748127534
741.454738683
735.316875469
729.339850373
723.540165493
717.916160558
712.482243108
707.240310658
702.205728012
697.38308056
692.768738482
688.369903209
684.186555292
680.218582211
676.46279014
672.924551009
669.600990237
666.477817256
663.552019072
660.818908347
658.275331225
655.909806869
653.717741152
651.688777172
649.808939883
648.088652792
646.523069286
645.093239061
643.781767491
642.585154058
641.484793011
640.47343069
639.552123564
638.714732463
637.951566397
637.256134583
636.623411144
636.050895529
635.534512953
635.06750416
634.648012137
634.273162316
633.936166702
633.638687463
633.380667983
633.155574219
632.963021394
632.802442037
632.66574096
632.550670258
632.46236881
632.399252883
632.354218255
632.323130163
632.300901505
632.289433586
632.283411945
959.036920487
958.617476693
957.765973449
956.464463639
954.722410447
952.549457453
949.957137378
946.959160986
943.573032212
939.814131235
935.699078489
931.247210574
926.480319891
921.419200669
916.0808075
910.485808709
904.654623169
898.607395484
892.366665908
885.951577755
879.378984195
872.668924621
865.837819834
858.914291981
851.923331517
844.866199631
837.756656252
830.612914865
823.443924137
816.263333375
809.085709386
801.932915159
794.816554802
787.745513945
780.734724836
773.795361619
766.950720988
760.208673138
753.593181724
747.112010131
740.771538137
734.587484959
728.563362462
722.712083265
717.04913763
711.584610257
706.316565132
701.258838711
696.410380675
691.783528657
687.381326194
683.197060556
679.235355008
675.488857057
671.966399771
668.662788818
665.561847817
662.659990477
659.956674289
657.448682464
655.118595958
652.958770188
650.961483791
649.134958372
647.490542128
645.987133
644.592616251
643.315705626
642.156497954
641.080408039
640.088953919
639.195015897
638.38414562
637.640363377
636.964485413
636.351535523
635.800462446
635.301532885
634.850316946
634.448560345
634.090127154
633.769598697
633.49125073
633.249595335
633.03981672
632.861717685
632.710828832
632.584262275
632.481985691
632.406046924
632.347978072
632.305564883
632.276795903
632.25747615
632.24495266
632.239807543
961.541742799
961.107888487
960.231963788
958.893415264
957.102340026
954.869644964
952.207312886
949.129735914
945.655479316
941.801850965
937.586062249
933.031425285
928.158551357
922.986475109
917.53591093
911.827776942
905.883286838
899.725824215
893.37630142
886.852208591
880.173393241
873.3581294
866.4296076
859.416928872
852.33845951
845.194701743
837.996660777
830.762603213
823.506871124
816.240412832
808.983025116
801.751269045
794.551429742
787.399460189
780.306736344
773.290961159
766.375601511
759.571156466
752.896008316
746.351827924
739.946917307
733.694529868
727.613123449
721.714844554
716.003814693
710.489850445
705.186921679
700.104197556
695.236596093
690.593816646
686.176722687
681.992625019
678.042612308
674.31052498
670.809708298
667.527516463
664.459171832
661.59436206
658.930078534
656.46384861
654.16248193
652.0728053
650.178339876
648.447464425
646.874569034
645.415290664
644.058451277
642.827407271
641.705313652
640.648899433
639.676342153
638.809523248
638.019165827
637.303052877
636.64918291
636.049875406
635.516084828
635.040013017
634.606972461
634.223122274
633.88421155
633.581819492
633.322389278
633.097238049
632.90317085
632.737565314
632.598499793
632.48882821
632.402252656
632.335311142
632.282697577
632.24333937
632.217474031
632.203923876
632.191354883
632.186735354
964.503553777
964.052646942
963.147241867
961.76404137
959.914348298
957.608781979
954.862013731
951.688689965
948.108912596
944.141192668
939.806415489
935.127893529
930.126684462
924.823705837
919.240320615
913.397644399
907.321078576
901.033223729
894.553031195
887.901109503
881.097294034
874.159908565
867.125556153
860.01129678
852.820862503
845.570378731
838.267687047
830.928999922
823.574849736
816.217125788
808.86434873
801.533238371
794.235059355
786.991052507
779.811564381
772.71151915
765.715604741
758.837562522
752.08167829
745.448948834
738.968149189
732.650738642
726.500541233
720.529367277
714.761661534
709.205312644
703.860520371
698.736748888
693.839343742
689.179954505
684.75819378
680.580092353
676.638084065
672.931849776
669.457823801
666.210837679
663.18389545
660.353819035
657.7169949
655.32703274
653.164371135
651.209262728
649.405473644
647.743003491
646.221528515
644.827722368
643.517006317
642.320611453
641.231072658
640.187545398
639.242105593
638.406897188
637.632196931
636.933452504
636.301975806
635.729515707
635.219241234
634.753920472
634.332065356
633.97475053
633.653704942
633.37307017
633.132619596
632.923110106
632.746106091
632.596065024
632.475948872
632.380788614
632.304219754
632.246540826
632.203436951
632.171177188
632.147507131
632.138751081
632.130185641
632.125959304
967.93820767
967.467025873
966.526572201
965.090076931
963.170688254
960.779552109
957.932344127
954.645814775
950.941691476
946.840437579
942.364352644
937.539506436
932.387090786
926.930351818
921.193452576
915.197259893
908.96649858
902.525145127
895.894353034
889.09476004
882.144842355
875.07945329
867.92232828
860.681553112
853.368259085
845.992998292
838.569508719
831.118845377
823.655085492
816.184201093
808.720425163
801.277538894
793.87594399
786.528112071
779.246461296
772.054570067
764.969242645
757.996497644
751.137175573
744.414530091
737.847621762
731.439378851
725.203686715
719.162367854
713.331220321
707.710035147
702.309476243
697.145922739
692.227219884
687.549073974
683.122636657
678.950651322
675.024988694
671.346732843
667.906318812
664.702146476
661.715305646
658.909911007
656.420143403
654.219665474
652.192079415
650.32217689
648.600376898
647.013812975
645.574557784
644.225920446
642.944722923
641.802902346
640.742475132
639.715684482
638.791287642
637.977282002
637.221883067
636.546652457
635.943128934
635.38828287
634.883573354
634.434507897
634.048997481
633.704180333
633.403251231
633.139962976
632.919120243
632.726125803
632.5698743
632.439387935
632.335643783
632.254177291
632.191722359
632.14571293
632.111570577
632.089195039
632.072319791
632.063356121
632.061116976
632.057240677
971.86435847
971.369401641
970.38769706
968.888715152
966.88678406
964.395406394
961.430822666
958.012042431
954.162944196
949.907148336
945.26673684
940.270672562
934.94471194
929.311538929
923.395385199
917.221331315
910.814458358
904.198907431
897.39723875
890.429685015
883.322400891
876.108675129
868.810172011
861.427368228
853.971447795
846.45733939
838.905324676
831.329611903
823.737323072
816.140571677
808.551303558
800.991171124
793.472247758
786.007328021
778.618999286
771.323321725
764.124041917
757.037897488
750.07649931
743.245828308
736.563319422
730.056093649
723.736209202
717.608656952
711.686341544
705.99715074
700.54700722
695.334166389
690.382294682
685.687823129
681.262036058
677.09609956
673.195503555
669.546407731
666.153308716
662.992020085
660.044322177
657.439597272
655.17762647
653.09988871
651.184123417
649.416458658
647.795557776
646.29768669
644.932335735
643.637619802
642.424170893
641.288124258
640.233761882
639.247713927
638.332566992
637.522798027
636.790919717
636.14434167
635.577194787
635.040739121
634.544057578
634.117467719
633.748305705
633.427195907
633.151613679
632.900431428
632.700191223
632.513923838
632.382081332
632.266913911
632.176110629
632.116925991
632.070968208
632.036514475
632.011429759
631.996739139
631.989433006
631.982139269
631.983552767
631.981284237
976.303577968
975.781200419
974.751390515
973.179655135
971.081752357
968.47321931
965.372092461
961.799726802
957.782055558
953.348044643
948.520708687
943.328863239
937.801741756
931.966229247
925.846522332
919.470122298
912.863328977
906.051346114
899.057756035
891.902857708
884.624667135
877.248359942
869.782608703
862.239191944
854.626211913
846.965773696
839.272125923
831.552091946
823.819912511
816.084174017
808.363562384
800.672529048
793.023053153
785.437615166
777.931742894
770.508542819
763.184555735
755.976435189
748.884321253
741.923817679
735.127581763
728.510800921
722.077304382
715.843906795
709.834853928
704.070878266
698.546859767
693.286323667
688.302015626
683.590986616
679.163618197
675.010446072
671.136995062
667.526938027
664.176309785
661.079166757
658.378597204
656.050220294
653.927491574
651.971854212
650.193917648
648.549832748
647.060496734
645.644366108
644.300831051
643.08370136
641.900747219
640.794052037
639.748074349
638.787128952
637.912449243
637.06084568
636.297117487
635.716380379
635.228517036
634.723572749
634.238101548
633.847043697
633.465837509
633.115188889
632.879756434
632.674710629
632.479632743
632.311220357
632.183205905
632.075322725
631.995513426
631.960108297
631.934375929
631.913723939
631.904174114
631.899442683
631.898606941
631.899065171
631.900429353
631.901173738
981.284062887
980.727560242
979.641368686
977.985637351
975.776420046
973.032000774
969.772954596
966.023416687
961.812222199
957.171097293
952.128604014
946.716063358
940.962165079
934.895545639
928.545455275
921.940802284
915.109373734
908.077720582
900.869886314
893.513491887
886.042794808
878.483973031
870.836740485
863.113124166
855.334264664
847.514165363
839.659355454
831.781650387
823.90003175
816.023385384
808.155823741
800.320706392
792.537686526
784.821463281
777.174508135
769.612450996
762.150954945
754.794141023
747.555296187
740.462297077
733.536351421
726.776322119
720.220529386
713.881909628
707.764440611
701.905117225
696.309158483
690.997714099
685.972767887
681.248035546
676.816393379
672.685801079
668.842171534
665.275861408
662.007799259
659.201037624
656.791939046
654.641132287
652.645402095
650.868360315
649.283522189
647.748430133
646.304720581
644.972754093
643.759013591
642.556816439
641.409874862
640.32950545
639.332510587
638.394721537
637.412713619
636.50574775
635.922442199
635.502784129
635.005088316
634.46217871
633.936347812
633.485990205
633.114230983
632.887604333
632.697149578
632.467667548
632.274629108
632.102541795
631.975268469
631.879919281
631.825791991
631.814692181
631.796196124
631.783021565
631.789463972
631.799518991
631.806191117
631.813857396
631.818968115
631.82149121
986.837653651
986.240754757
985.088600304
983.333543855
980.995158244
978.093506985
974.652367692
970.699250502
966.266680085
961.389871807
956.100970034
950.435346764
944.424768248
938.098583337
931.489774005
924.629488365
917.547235653
910.270593486
902.824267299
895.253730168
887.577834932
879.807370792
871.958143191
864.047016878
856.089717283
848.091186268
840.063313783
832.025101374
823.985937467
815.945900793
807.924576121
799.944406352
792.01870003
784.148716414
776.35026213
768.636611716
761.006862373
753.492755108
746.106986443
738.860098585
731.771198382
724.866983742
718.175444143
711.69747058
705.46566697
699.502695465
693.826336129
688.449587546
683.385221887
678.639824859
674.213285176
670.104452869
666.295353466
662.784448346
659.849395325
657.365112298
655.166410496
653.223306305
651.447343919
649.874912313
648.359133359
646.902111965
645.626945737
644.431075268
643.240083254
642.085812012
640.976103778
639.986007711
639.03807012
637.938284593
636.851826431
636.192979028
635.821387623
635.388331471
634.859399734
634.29061483
633.742917432
633.266388764
632.889761977
632.652880314
632.531967449
632.370370863
632.1287332
631.931501026
631.80859016
631.727981727
631.670278734
631.653245241
631.634459529
631.639405462
631.66559009
631.694548019
631.716347194
631.729931087
631.74176772
631.745625884
992.997950702
992.356795261
991.126010714
989.253684258
986.765549499
983.682250087
980.031466983
975.844809746
971.159526507
966.014490121
960.446040433
954.493597875
948.192466248
941.574609153
934.676330547
927.53127662
920.170863268
912.627359353
904.926910051
897.108239806
889.204666755
881.212975191
873.147671644
865.031994992
856.879286546
848.690816154
840.48680705
832.279145488
824.064473401
815.858533759
807.680834754
799.547107098
791.456893072
783.423114514
775.462735995
767.569282168
759.773060572
752.089585523
744.518048361
737.099573098
729.849563785
722.77347858
715.91710546
709.297559203
702.926850192
696.84268478
691.071613128
685.621276037
680.509255854
675.746488672
671.327105402
667.242694159
663.468820709
660.304137626
657.745091107
655.502350235
653.583230176
651.856986613
650.259811008
648.934589699
647.527814609
646.139711872
645.106695466
643.913518774
642.821520051
641.768758271
640.767290305
639.871774834
638.75037437
637.497546203
636.671300194
636.241393819
635.84555316
635.372329259
634.828815618
634.263012383
633.722875598
633.247855386
632.865835899
632.603175832
632.456319592
632.358647846
632.149059748
631.840880722
631.724113375
631.658876434
631.551076597
631.54526751
631.510380463
631.511469129
631.555495357
631.597720591
631.634162216
631.655867343
631.670077333
631.676760059
999.805231637
999.114083495
997.792411187
995.782630818
993.118294914
989.825672075
985.933738582
981.47936366
976.506644034
971.056612732
965.170961607
958.894173505
952.265836527
945.321204301
938.10010336
930.638683793
922.972826341
915.134171775
907.15902031
899.079789472
890.918282001
882.682274702
874.391147363
866.061665541
857.696741376
849.314012067
840.922498449
832.531190287
824.144740325
815.773212104
807.427533624
799.119390236
790.85439439
782.644469525
774.498967325
766.429730505
758.452973948
750.565664795
742.807208591
735.202069876
727.751048241
720.492033653
713.452676524
706.658909519
700.132920397
693.916322176
688.0308181
682.488060141
677.320121183
672.544946279
668.129846249
664.053919286
660.650776322
657.90176871
655.577569439
653.658658258
652.098525825
650.530838951
649.000032861
648.038338179
646.880026753
645.506517579
644.612689649
643.564615538
642.597641024
641.832764765
640.890261278
639.852993975
638.598738075
637.565110131
636.905812082
636.417978872
635.951487862
635.447755188
634.910939641
634.370581911
633.859111502
633.404311919
633.027420598
632.74518339
632.557283104
632.423115775
632.164133655
631.852879394
631.737946739
631.623172006
631.484271449
631.442976294
631.350998099
631.37184359
631.438961738
631.508079496
631.560233743
631.591667377
631.608580335
631.617601864
1007.30985743
1006.55794616
1005.13281288
1002.96528435
1000.09274856
996.554287165
992.384809264
987.622203811
982.320317365
976.525935129
970.283639221
963.640191467
956.644157492
949.33419656
941.754008787
933.944648276
925.941333911
917.781119814
909.503642747
901.142919906
892.709125089
884.213105064
875.677666172
867.117482369
858.539100234
849.953073997
841.367835122
832.788615242
824.221391468
815.672405182
807.150117751
798.661877192
790.215371204
781.818938486
773.483649679
765.224329378
757.034076042
748.941899461
740.972052548
733.148763796
725.494318639
718.022801526
710.777285698
703.785836344
697.080319283
690.695422009
684.666432506
679.019104161
673.803172635
669.012199689
664.578400918
660.886543963
657.903136585
655.420643671
653.23712117
651.709520982
650.666895492
649.231563332
647.999890279
647.335804388
646.44676825
645.43812473
644.630710797
643.717218768
642.754411004
641.878305112
640.934610022
639.925338261
638.855443426
637.902442847
637.186474019
636.609386939
636.079879
635.554578046
635.028105191
634.514012461
634.031144398
633.596970983
633.224723154
632.921345216
632.678533364
632.458557638
632.184840597
631.939402539
631.796583525
631.614945622
631.457492007
631.349887939
631.253943701
631.308773057
631.37512773
631.440859634
631.499824289
631.536983102
631.557983914
631.567313674
1015.56781179
1014.7425957
1013.19480395
1010.84502696
1007.73380904
1003.90738216
999.414267639
994.298489739
988.618424455
982.429736606
975.785314901
968.73323198
961.324623829
953.60644472
945.630589039
937.438358935
929.064428021
920.556892774
911.95189239
903.277922581
894.551177736
885.785636252
876.995570735
868.197405486
859.395853754
850.60036789
841.816269776
833.045551355
824.29191104
815.560235151
806.854518293
798.181233558
789.545047197
780.954245329
772.416390583
763.945208763
755.548411968
747.225306841
739.023072689
730.960317702
723.06385842
715.364581914
707.882276269
700.664148592
693.743916251
687.162511324
680.962490693
675.19282958
669.901351918
665.073317333
661.006800715
657.764543022
654.971024194
652.87147891
650.821874994
650.04589595
649.906093237
649.316512673
648.399509294
647.54603183
646.618302095
645.606601216
644.687891513
643.748503053
642.788389403
641.858702188
640.912753153
639.950676705
638.994604569
638.122761978
637.389152933
636.761892857
636.193956488
635.655576867
635.137328496
634.642847775
634.181255149
633.762076085
633.392099372
633.072663149
632.794823055
632.536619065
632.273853091
632.037004631
631.842677526
631.640680615
631.495153099
631.344312696
631.262690504
631.293050295
631.336732276
631.392446566
631.465953491
631.502067398
631.51983991
631.526449741
1024.64168153
1023.73025111
1022.03705999
1019.47131226
1016.08250324
1011.92253259
1007.05358383
1001.5325308
995.421857591
988.785214384
981.682664732
974.17100505
966.302860777
958.133715496
949.71672185
941.101385916
932.325248774
923.441620798
914.482957669
905.468659734
896.434893678
887.387200002
878.331147422
869.286301331
860.256777408
851.243934649
842.261818901
833.29710701
824.35533301
815.437255677
806.545392789
797.682270908
788.852194911
780.059278907
771.311987138
762.624198512
753.983401434
745.421711526
736.965777188
728.641895331
720.474708593
712.503158694
704.764895861
697.283653232
690.112609962
683.290960212
676.877136022
670.932726984
665.489586366
661.058649392
657.400984588
654.512084143
652.032299322
651.442361236
651.231823851
650.723725714
650.299274589
649.643414396
648.746964028
647.777447705
646.746267958
645.679655883
644.659696033
643.662458749
642.682635536
641.735059156
640.805871738
639.896400124
639.02104372
638.212580089
637.494189072
636.856584107
636.277328067
635.737910457
635.229262298
634.750383701
634.304588172
633.896154964
633.527826559
633.19872883
632.902360265
632.62757095
632.366259421
632.12749644
631.91487928
631.716018405
631.549189339
631.395542322
631.327170235
631.306521481
631.315951926
631.367399132
631.444442532
631.475669207
631.489057711
631.492886109
1034.61047863
1033.59558438
1031.72844756
1028.90595202
1025.19003897
1020.64282814
1015.33816422
1009.34903323
1002.7478081
995.602005529
987.982340938
979.952732505
971.569879578
962.900394406
953.9990334
944.917925699
935.706972116
926.408451693
917.066531684
907.700133626
898.335137301
888.986974144
879.662006793
870.368307353
861.107133687
851.888744625
842.70063735
833.541061737
824.410285044
815.306520993
806.226537
797.173002354
788.144782121
779.145161344
770.177214053
761.250808053
752.375606898
743.547209416
734.813228908
726.201262468
717.732942003
709.453225344
701.409362118
693.640674666
686.173325199
679.058058792
672.389361208
666.160379985
660.678404853
657.061514046
653.655034064
652.904235579
652.924975396
652.595110039
652.292886295
651.68914678
650.935749519
649.988955991
648.889928468
647.73867815
646.579282992
645.444160669
644.37202164
643.358645443
642.395368857
641.479597408
640.602382555
639.761438815
638.962072323
638.216849195
637.535198009
636.914369677
636.34397965
635.813615125
635.316608595
634.850614151
634.416236361
634.014970546
633.647537302
633.312551032
633.005913731
632.722051708
632.457656035
632.215026953
631.995283931
631.796522463
631.625102695
631.481882367
631.392426438
631.339709131
631.321180211
631.359874419
631.420549972
631.442840679
631.459961177
631.463443143
1045.56800272
1044.42705238
1042.34943727
1039.2185584
1035.11360391
1030.11345594
1024.30445056
1017.77518924
1010.61087712
1002.88874442
994.685278319
986.074481592
977.120252503
967.889556638
958.452585075
948.8635849
939.178555776
929.435855387
919.672607224
909.931879467
900.226176752
890.570020742
880.96880218
871.424357734
861.944168918
852.513020482
843.124534585
833.771835801
824.456727615
815.170118834
805.904391426
796.661237096
787.436268002
778.226574182
769.03424461
759.862155419
750.720767423
741.616764063
732.588537417
723.660839504
714.845798907
706.216575091
697.829929009
689.721467435
681.932170489
674.511730473
667.500851251
660.764680756
655.117004169
654.438191518
654.653302999
654.581246586
654.632693547
654.179100318
653.422311124
652.360750437
651.135618285
649.814455742
648.470625728
647.174593755
645.957250351
644.830383595
643.799101438
642.850356043
641.967749103
641.13866946
640.351693771
639.600463563
638.884336068
638.207377492
637.573644582
636.982977343
636.431330601
635.913736453
635.426648232
634.968615307
634.539714053
634.140500069
633.771003811
633.430049064
633.115145918
632.823413091
632.553190221
632.304932255
632.079335826
631.877121237
631.701834271
631.557281231
631.452746027
631.384677806
631.352704588
631.372958592
631.384494149
631.405426039
631.432938251
631.438190976
1057.62820174
1056.33123898
1053.99479793
1050.48874722
1045.91670061
1040.37962427
1033.98215654
1026.83287569
1019.02507078
1010.64904683
1001.78884757
992.525854873
982.93712369
973.09333126
963.062751602
952.913757449
942.703779671
932.481479703
922.279216399
912.130831098
902.073295631
892.104359173
882.226146797
872.446006543
862.742919012
853.108772184
843.525742793
833.981655391
824.492866887
815.036846825
805.585120929
796.158379217
786.739900638
777.322539627
767.903210265
758.481202603
749.066585886
739.663805497
730.307470727
721.013578536
711.822589199
702.810510992
694.033698825
685.545665873
677.404623703
669.648067828
662.168096564
655.719893806
654.712786233
655.690985978
656.588529031
656.740379151
656.304254473
655.221140002
653.763083775
652.110252662
650.441381349
648.852732739
647.399790805
646.10840913
644.972561799
643.97124226
643.080571512
642.275137947
641.53175492
640.831503985
640.160202361
639.50985247
638.878129709
638.266837801
637.679244863
637.117468508
636.581899621
636.072088361
635.587766852
635.129274762
634.697396464
634.292838462
633.915741652
633.565383232
633.240281884
632.93877712
632.659802905
632.403263245
632.169633034
631.960024663
631.776928577
631.623676559
631.504859527
631.421513389
631.372820445
631.331836921
631.307453684
631.361656642
631.402896704
631.415890196
1070.93135591
1069.43737894
1066.77694118
1062.80725006
1057.66896662
1051.49301587
1044.40813057
1036.54090594
1028.00193203
1018.88617026
1009.28834241
999.298208332
988.997649081
978.472908902
967.793788791
957.032077098
946.254948121
935.507631115
924.833784624
914.268891559
903.83689735
893.554852527
883.416223573
873.400229159
863.485443542
853.664676391
843.903252062
834.18838214
824.519702458
814.886399528
805.270699859
795.675042692
786.073446299
776.455570849
766.810635014
757.136786713
747.439661115
737.722817993
728.017372119
718.317264953
708.695852024
699.226429119
689.976961928
681.084935506
672.585050825
664.352014195
657.32211604
656.277573176
657.373435353
658.607581124
658.994107349
658.377462172
656.958055341
654.995305894
652.852924279
650.769564723
648.896623143
647.288716781
645.945866902
644.838384964
643.918590451
643.137604979
642.455487582
641.838656052
641.259159319
640.696768952
640.138797096
639.579216459
639.017320394
638.456108115
637.900380068
637.354980257
636.823977717
636.310654394
635.817786196
635.347824276
634.902820819
634.484203646
634.092576265
633.727676591
633.388559194