/*--------------------------------*- C++ -*----------------------------------*\
| =========                 |                                                 |
| \\      /  F ield         | OpenFOAM: The Open Source CFD Toolbox           |
|  \\    /   O peration     | Version:  v1906                                 |
|   \\  /    A nd           | Web:      www.OpenFOAM.com                      |
|    \\/     M anipulation  |                                                 |
\*---------------------------------------------------------------------------*/
FoamFile
{
    version     2.0;
    format      ascii;
    class       surfaceScalarField;
    location    "55";
    object      phi;
}
// * * * * * * * * * * * * * * * * * * * * * * * * * * * * * * * * * * * * * //

dimensions      [0 3 -1 0 0 0 0];
oriented        oriented;


internalField   nonuniform List<scalar> 
18240
(
-0.000409960354346
0.000407301238386
-0.000859689540197
0.000446424231846
-0.00130953186075
0.000447166217635
-0.00175577559137
0.000442789555052
-0.00219475401975
0.000436447681018
-0.00262609160122
0.000427734481389
-0.00304694381084
0.00041846983836
-0.00345868995847
0.000407984562877
-0.00385798491355
0.00039706705649
-0.00424677456494
0.000384863945591
-0.00462166393911
0.000372829108397
-0.00498480587298
0.000359046662004
-0.00533070393076
0.000344014002612
-0.00566152292509
0.000326557728501
-0.00597468424698
0.000311475697717
-0.00627565839101
0.000296543631839
-0.00655960651042
0.000282483466529
-0.00683019705351
0.000266002748782
-0.00708101790661
0.000249599704888
-0.00731797809172
0.000232236624562
-0.00753476699918
0.000215828903791
-0.00773822477024
0.000198627165196
-0.00792231359137
0.000183427818241
-0.00809393799373
0.000166718759
-0.00824549864505
0.000151228882768
-0.00838506159037
0.000134618532668
-0.00850224367569
0.000117202907175
-0.00860493354448
9.77551968667e-05
-0.008686466436
8.19339471576e-05
-0.00875665104376
6.53267082818e-05
-0.00881090239094
5.5062152111e-05
-0.00885139642269
3.57806953396e-05
-0.00885877260202
8.61004873137e-06
-0.00884777792274
-1.54772873797e-05
-0.00881433504553
-3.17801979434e-05
-0.00876863722958
-4.98813248992e-05
-0.00869883228713
-6.77279813096e-05
-0.00861385543091
-8.87828022398e-05
-0.00850242562625
-0.000108954899768
-0.00837578177426
-0.000130003888118
-0.00822706738327
-0.000145868566871
-0.00806455715288
-0.000165362689108
-0.00787677268314
-0.000184607817012
-0.00767584970917
-0.000203215411248
-0.00745313222008
-0.000219268308693
-0.00722068741425
-0.000234143272532
-0.00697141799129
-0.000245579950402
-0.00671433175075
-0.000258173174839
-0.00644418735535
-0.000266266904865
-0.00617014722637
-0.000274507767176
-0.00588596796433
-0.000280185346737
-0.00560156391661
-0.000284259187134
-0.0053125933358
-0.000284944300361
-0.00502641087288
-0.000285454923889
-0.00473963484474
-0.000282806921695
-0.00445885646374
-0.000279539129121
-0.00418026791874
-0.000274771087806
-0.00390968011728
-0.000268936855897
-0.00364667261476
-0.000259420207352
-0.00339581231729
-0.000248917709649
-0.00315465292993
-0.000237868006085
-0.0029260314703
-0.000226507881035
-0.00270899384959
-0.000214086549474
-0.00250589377582
-0.000200932632553
-0.00231446898907
-0.000188846711574
-0.00213400479596
-0.000178341294064
-0.00196600187127
-0.000165801051803
-0.00181165133898
-0.000152359863466
-0.00167146018287
-0.000138356986376
-0.00154440943892
-0.000125246013077
-0.00142870661608
-0.000114197537794
-0.00132290399669
-0.000104208634562
-0.00122713876821
-9.4533011782e-05
-0.00113946253252
-8.62911973705e-05
-0.00105856262411
-7.98828597002e-05
-0.000983555096152
-7.38114355059e-05
-0.000914410104986
-6.82861081464e-05
-0.000850504138882
-6.28716306504e-05
-0.000791901756336
-5.78482241025e-05
-0.000736812052092
-5.41860238593e-05
-0.000685157543408
-5.09573898348e-05
-0.000636374770771
-4.79702244718e-05
-0.000589773949293
-4.59240628808e-05
-0.000545614903048
-4.33952963284e-05
-0.00050361647006
-4.13068755907e-05
-0.000463157026565
-3.97059876075e-05
-0.000428187781398
-3.42511670788e-05
-0.000406010057235
-2.13843231619e-05
-0.000387321478934
-1.78145469508e-05
-0.000360087765679
-2.61541446278e-05
-0.000322122006951
-3.66871151191e-05
-0.000275981581572
-4.46242312905e-05
-0.00022152744935
-5.27847154238e-05
-0.000151119551108
-6.86880734231e-05
-6.92068564692e-05
-8.01415192886e-05
-6.8326323383e-05
-0.00045304052391
0.000857398249794
-0.000960040938244
0.000950142325165
-0.00146479915699
0.000948815149463
-0.0019641833652
0.000938850466629
-0.0024558482425
0.000925039753717
-0.00293926368588
0.000907787396408
-0.00341187851138
0.000888044853788
-0.00387286729011
0.000865564954636
-0.00431991492915
0.000841112276877
-0.00475290410698
0.000814402296652
-0.00516984341828
0.000786808629775
-0.00557164483555
0.000757356662259
-0.00595715922116
0.000726621532294
-0.00632961509581
0.000695484320558
-0.00668426618068
0.000663277463179
-0.00701959571189
0.00062831509979
-0.00733268254859
0.000592798052373
-0.00762887612437
0.000558633213512
-0.00790958028569
0.000527630021083
-0.00817555380091
0.000494655925768
-0.00842421967746
0.000461948136713
-0.00865600622809
0.000426894878698
-0.00886609511969
0.000391126988132
-0.00905754045905
0.000354715873191
-0.00922845642154
0.000319945524082
-0.00938135404956
0.000284177489114
-0.00951696681512
0.00025083159043
-0.00963983261643
0.000217432876958
-0.00974157998872
0.000181965038259
-0.00982627300926
0.000147042092374
-0.00988514856051
0.000112530881916
-0.00992455591547
7.24805938537e-05
-0.00994489451497
2.78938838347e-05
-0.00994292368345
-1.98319495288e-05
-0.00991395190781
-6.14224986277e-05
-0.00986335410244
-0.000102489773554
-0.00978653777763
-0.000144793479475
-0.00968906173395
-0.000187852549706
-0.00957024802012
-0.000227578365888
-0.00943263300165
-0.000268763701332
-0.00926739522016
-0.000310476124557
-0.00907929157803
-0.000354143985377
-0.00886852097202
-0.000394309372402
-0.00864149253587
-0.00043044421668
-0.00839751692767
-0.00046175058342
-0.00813956933523
-0.000491788221887
-0.00786127986599
-0.000521984823655
-0.00756949992071
-0.000549126398393
-0.0072658075285
-0.000567714784703
-0.00695484217067
-0.000584145374918
-0.00663435255004
-0.000598109619406
-0.00631083829881
-0.000605991619776
-0.00598438609256
-0.0006085583043
-0.00565849584748
-0.00060918235273
-0.0053341866748
-0.000604086925689
-0.0050158085136
-0.000595464616881
-0.00470427772481
-0.000583181047506
-0.00440268366911
-0.000567889365594
-0.00410826531881
-0.000550721301219
-0.00382307491048
-0.000531382802904
-0.00354887092863
-0.000509055840548
-0.00328782213798
-0.000484851434651
-0.00303982776991
-0.000459248287695
-0.00280403503583
-0.000434141557346
-0.00258365490614
-0.000406654436874
-0.002380408094
-0.00037919875077
-0.00219297258233
-0.000350947006649
-0.00202121835609
-0.00032197020719
-0.00186368524309
-0.000293902688598
-0.0017207366981
-0.000266322034797
-0.00159159258572
-0.000241653942035
-0.00147348767446
-0.000220708466854
-0.00136673012641
-0.00019986848002
-0.00126931097694
-0.000182347822237
-0.00117875925624
-0.000169237224643
-0.00109478675634
-0.000156622313446
-0.00101718659235
-0.000144864212233
-0.000944533152197
-0.000134519833818
-0.000878095659943
-0.000123395899243
-0.000817107392364
-0.000114287163905
-0.000757292978704
-0.000109973316275
-0.000700282596035
-0.000104169663033
-0.000645789297996
-9.96635173911e-05
-0.000594303506353
-9.41039129713e-05
-0.000546701860139
-8.81580579341e-05
-0.000501359380982
-8.42755008185e-05
-0.000459978463471
-7.48540779616e-05
-0.000423967502803
-5.65782507944e-05
-0.000398298970769
-4.26143157023e-05
-0.000373482005417
-4.99526850615e-05
-0.000337821372119
-7.10734184362e-05
-0.000292444555964
-8.84898689093e-05
-0.000240521758331
-0.000103116877249
-0.000175006726369
-0.000132458445873
-8.49942861243e-05
-0.000168344707804
-0.000152502018871
-0.00046014037088
0.00131455250185
-0.000972768613734
0.00145954933482
-0.00148462065301
0.00145746815202
-0.00199080425224
0.00144178542625
-0.00248895247635
0.00141999741047
-0.00297757091276
0.00139314585049
-0.00345534596617
0.00136263449658
-0.00392110792699
0.00132805154732
-0.00437318510753
0.0012900087749
-0.00481126501034
0.00124919426567
-0.00523341077149
0.00120578251135
-0.00563877228308
0.00115942101629
-0.00602699477607
0.00111168571752
-0.0063983510547
0.00106354094681
-0.00675353936426
0.00101532994669
-0.00709327340067
0.000964754357263
-0.00741654742788
0.000912973110613
-0.00772239054344
0.000861202993567
-0.00800737045352
0.000809567985029
-0.00827355545135
0.000757615513071
-0.00852031997829
0.000705754682628
-0.00874855664191
0.000651984473748
-0.0089580385681
0.000597762979522
-0.00915004125503
0.000543676124867
-0.00932481709438
0.000492017990302
-0.00948841976271
0.00044487352358
-0.00963693357119
0.000396819171454
-0.00976521617788
0.000342989380924
-0.00987386836877
0.000288327512154
-0.00995971802062
0.000230412042015
-0.0100213077932
0.000172114470959
-0.0100626347708
0.000111619364944
-0.010081988423
4.55759671847e-05
-0.0100843491959
-1.93203140883e-05
-0.0100624999943
-8.45619746449e-05
-0.0100129577743
-0.000153486418874
-0.00993633853709
-0.000222291925405
-0.00983536948126
-0.000289843698494
-0.00971065641049
-0.000352732727256
-0.00956293269534
-0.000417064922399
-0.00939238265309
-0.000481022789538
-0.00920037116529
-0.000546262078274
-0.00898692489585
-0.000607306215191
-0.00876070128021
-0.000656283021856
-0.00851495333846
-0.000706592852848
-0.00825032807615
-0.0007555445426
-0.00797573444712
-0.000795198703581
-0.00769147268924
-0.000832050382913
-0.0073915124422
-0.000865839576747
-0.00708147553389
-0.000892394579497
-0.0067662279181
-0.000911115646416
-0.00644201340568
-0.000928011041773
-0.0061082515211
-0.000939744714326
-0.00577143696617
-0.00094346697423
-0.00543669104823
-0.000936008492389
-0.00510749985202
-0.000921894215028
-0.0047843918458
-0.00090332000585
-0.00446893620883
-0.000880449218929
-0.00416300984345
-0.000853631918412
-0.00386922835278
-0.000822238674235
-0.00358795091639
-0.000787371232483
-0.00332080523262
-0.000749144853828
-0.00306875530402
-0.000708490688728
-0.00283334827257
-0.000666871095634
-0.00261542270952
-0.000622011406863
-0.00241476691001
-0.000577408159468
-0.00223077505104
-0.000532627739506
-0.00206139228054
-0.000489169440151
-0.00190610785376
-0.000447160631323
-0.00176095642601
-0.000409576225426
-0.0016268863706
-0.000373991484348
-0.00150592279293
-0.000340060022795
-0.00139375110096
-0.000310577104307
-0.00129109544352
-0.000283648140991
-0.00120039702244
-0.00025869744006
-0.00111807486204
-0.000237791471039
-0.00104207111722
-0.000219799184375
-0.000970870284523
-0.000204723030122
-0.00089932182012
-0.000194004898555
-0.000831767553534
-0.000180967951279
-0.000771919202409
-0.000168971758329
-0.000716788212478
-0.0001584884722
-0.000666230377134
-0.00014941322745
-0.000618242411158
-0.000141286114207
-0.000571591549076
-0.000134011731547
-0.000524751396136
-0.000130297567021
-0.00048058200368
-0.000118184289491
-0.000432522461729
-0.000103789506589
-0.000381366195087
-9.29209916358e-05
-0.000349904719283
-8.04486802308e-05
-0.000325292858146
-9.44479831293e-05
-0.000278511428748
-0.000133805167934
-0.00021242799855
-0.000167677784782
-0.000147707357853
-0.000195704668959
-7.76597585283e-05
-0.000236854253291
-0.000229358408675
-0.000465893568917
0.00177745349587
-0.000984478844087
0.00197491386782
-0.00150203740035
0.00197181118688
-0.00201343174584
0.00194994818864
-0.00251680751741
0.00192015714679
-0.00301067793754
0.00188378109528
-0.00349276069484
0.00184149673684
-0.00396226998353
0.0017943168743
-0.00441805931386
0.00174257341004
-0.00485820737675
0.00168609176718
-0.00528192139449
0.00162627056666
-0.00568916559335
0.00156341139365
-0.00608067375677
0.00149997150949
-0.00645686030082
0.00143647296395
-0.00681489414568
0.00137014977957
-0.00715417487649
0.00130079254575
-0.00747544233949
0.00123105220344
-0.00777854099231
0.00116108826267
-0.00806354723098
0.00109143118398
-0.00833018399793
0.00102109289336
-0.00857899495825
0.000951494780767
-0.00881196929786
0.000881878040726
-0.00902654175993
0.000809358046396
-0.00922504990295
0.000739205902803
-0.00941030458808
0.000674418929392
-0.00957842355994
0.000610151376759
-0.00972578595734
0.000541493651109
-0.0098531131326
0.000467668379824
-0.00995972328586
0.000392481782331
-0.0100478679701
0.000316156785802
-0.0101131646825
0.000235231486021
-0.0101535343035
0.00014988547831
-0.0101717608915
6.19487970124e-05
-0.0101674139381
-2.54172609872e-05
-0.0101405610157
-0.000112893044463
-0.0100913056856
-0.000204098946692
-0.010021746849
-0.000292916808291
-0.0099269206225
-0.000385606185623
-0.00980416877274
-0.000476119467393
-0.00965781345716
-0.000563905725298
-0.00949094541442
-0.000648066822471
-0.00931511630123
-0.000722101517718
-0.00912150617391
-0.00080060057939
-0.00889824081264
-0.000879069488347
-0.00865260795324
-0.000951405905617
-0.00838737092289
-0.00101979536627
-0.00809675942294
-0.00108450588473
-0.00778873036338
-0.00113859698441
-0.00746989783444
-0.00118289491503
-0.00714088322794
-0.00121947414893
-0.00680449861499
-0.00124530263106
-0.00646601806002
-0.00126416819154
-0.00613060414257
-0.00127261644642
-0.00579314104481
-0.00127828861874
-0.00545187132712
-0.00127447816862
-0.00511626349195
-0.00125464411143
-0.0047870028722
-0.00122962132969
-0.0044653938376
-0.00119907772393
-0.00415332357702
-0.00116267786165
-0.00385432159065
-0.00111824559065
-0.00356833681718
-0.00107038812388
-0.00329734678778
-0.00101724346854
-0.0030423336031
-0.00096071369835
-0.00280275553835
-0.000903784217452
-0.00258435790789
-0.000837855928622
-0.00238732379996
-0.000772007144604
-0.00220803168554
-0.000709610200402
-0.00204206999052
-0.000652957019307
-0.00189124077247
-0.000595960042644
-0.00175288757017
-0.00054603410792
-0.00162230144098
-0.000502842716062
-0.00149994622442
-0.000460805938888
-0.00139098012866
-0.000418079370499
-0.0012936086363
-0.000379657448719
-0.00120392444673
-0.000347141783896
-0.00112169494019
-0.000318859834679
-0.00104698136562
-0.000293451793029
-0.000980105927086
-0.000270590121451
-0.000921162988359
-0.000252007006961
-0.000867138333039
-0.000234081805401
-0.000817257655377
-0.00021797776812
-0.000765990975052
-0.000208898400482
-0.000714049538227
-0.000200497556453
-0.000660445026088
-0.000194042627683
-0.000608786790035
-0.000184806104147
-0.000560669162627
-0.000177535421295
-0.000499916788676
-0.000178029144481
-0.000439206442556
-0.000163622964462
-0.000382539529704
-0.000148693303562
-0.000327748784436
-0.00013425440208
-0.000287397988916
-0.000133654211954
-0.000251444138761
-0.000168441735318
-0.000196832325774
-0.000220914222535
-0.000127071513636
-0.000264080095402
-6.99673532265e-05
-0.000292518864927
-0.000298589911003
-0.000473169675551
0.00224762862843
-0.000999480644278
0.00249802271389
-0.00152457454971
0.00249368226199
-0.00204319539573
0.00246534527678
-0.00255319448465
0.00242693362523
-0.003052815728
0.00238017413254
-0.00354105088086
0.00232650416936
-0.00401562471134
0.00226565292505
-0.00447482637358
0.0021985394934
-0.00491823614857
0.0021262561495
-0.00534499688303
0.00204979111478
-0.00575559650616
0.00197076069065
-0.00615086253338
0.00189199330787
-0.00652770611461
0.00181006368139
-0.00688508568297
0.00172429091597
-0.00722455881164
0.00163702373487
-0.00754588571514
0.00154915923354
-0.00784909276962
0.00146108046341
-0.00813534427946
0.00137450224578
-0.00840582832435
0.00128841228439
-0.00865828014878
0.00120082960061
-0.00889071226912
0.00111121619647
-0.00910670614851
0.00102231998942
-0.00930993291487
0.000939432190924
-0.00950029041224
0.000861857027402
-0.0096701267187
0.000777123746295
-0.00981907936463
0.000687691628982
-0.00994933545697
0.000595253035553
-0.0100565623614
0.000497174481683
-0.0101408108587
0.000397983121575
-0.0102026628348
0.000294819455141
-0.0102458361935
0.00019093478338
-0.0102728981343
8.70706483205e-05
-0.0102772542939
-2.28391627306e-05
-0.0102532700263
-0.000138445574517
-0.0102032719703
-0.00025548755943
-0.010129159716
-0.00036819534423
-0.0100361082575
-0.000479626202289
-0.00992353384841
-0.000589419372928
-0.00979553859892
-0.000692406896533
-0.00964269802209
-0.000801148627732
-0.00945899421872
-0.000905809651169
-0.00924752301205
-0.00101180055693
-0.0090075268232
-0.00111854365528
-0.00874352973322
-0.00121460929119
-0.00846333517824
-0.00129895113806
-0.00817181620068
-0.0013747090829
-0.0078649692552
-0.00144389309382
-0.00753857005497
-0.00150749407941
-0.00719882786688
-0.00155719404762
-0.006851906203
-0.00159000011079
-0.00650096862402
-0.00161270466647
-0.00614966027326
-0.00162135956175
-0.00580327645964
-0.00162197500096
-0.00545841358302
-0.00161651502347
-0.00511603684075
-0.00159411108947
-0.00477980643864
-0.00156285425238
-0.00445135033251
-0.00152449749598
-0.00413138579574
-0.00147958277194
-0.00382711853428
-0.00141949403489
-0.0035356561281
-0.00135888171481
-0.00326130203004
-0.00128875634181
-0.00300785960684
-0.0012114012313
-0.00277080170459
-0.00113820247711
-0.00256767443958
-0.00103841889555
-0.00238721326239
-0.000950009450028
-0.00221646892988
-0.000878018442184
-0.00205309244601
-0.000814127892088
-0.00190367601768
-0.000743303433455
-0.00176375147874
-0.000684044624604
-0.00162933890709
-0.000635484786852
-0.00150594856359
-0.000582557522843
-0.00139667494975
-0.000525854975873
-0.00129692137744
-0.000478032099238
-0.00120186364972
-0.000440936191204
-0.00111286252211
-0.000406699572673
-0.00103417954512
-0.00037106175225
-0.000965490873454
-0.000338276069768
-0.000902405840408
-0.000314156042115
-0.000843561113577
-0.00029202144357
-0.00078991252488
-0.000270768583921
-0.000743031005752
-0.000254923462634
-0.000702458063513
-0.000240221470023
-0.00066713731505
-0.000228485795206
-0.000629179089763
-0.000221870418368
-0.000586696761414
-0.000219088643024
-0.00054000928305
-0.000223762303508
-0.00047775843777
-0.000224920800453
-0.00040975551415
-0.000215695648866
-0.000329687603046
-0.000213238347296
-0.000260202035883
-0.000202063931346
-0.000214967565301
-0.000212526548453
-0.000180181433468
-0.000254430474377
-0.00011479598415
-0.000328154784236
-5.93825673599e-05
-0.000346660789058
-0.000357259169893
-0.000482394299549
0.00272703287123
-0.00101883601794
0.00303125181173
-0.00155369223839
0.00302532104408
-0.00208152848282
0.00298995860728
-0.00260001760063
0.00294220099712
-0.00310802794688
0.00288495788398
-0.00360287736999
0.00281812361898
-0.00408236368761
0.00274190421194
-0.00454703329963
0.00265996892937
-0.0049945873241
0.00257056492407
-0.00542468864426
0.00247664368969
-0.00583994064679
0.00238275873394
-0.00623714310198
0.00228593772262
-0.00661393766935
0.00218360019126
-0.0069723898348
0.0020794866544
-0.00731261208403
0.00197399428256
-0.00763482967078
0.00186813422753
-0.00794137248928
0.0017643930452
-0.00823033180143
0.00166025141787
-0.00849910499571
0.00155400038708
-0.00874907872145
0.00144764708719
-0.00898156347567
0.00134057997698
-0.0092025433808
0.00124021546717
-0.00941254253827
0.00114639442541
-0.00960199471929
0.00104833153347
-0.00977211249311
0.000944338957736
-0.00992231559871
0.000835078833698
-0.0100495692969
0.000719789147685
-0.010158181354
0.000603187221817
-0.0102466371049
0.000483961586367
-0.0103186253556
0.000364475038092
-0.0103703973747
0.000240519914283
-0.01039470126
0.000109363392043
-0.0103955366628
-2.38454479545e-05
-0.0103739820693
-0.000161648677069
-0.0103326265656
-0.00029830085572
-0.0102694988789
-0.000432568185085
-0.0101884216254
-0.000561732972739
-0.0100846229075
-0.000694003015563
-0.00994910761941
-0.000828466114429
-0.00978474073421
-0.000965786528751
-0.00958642874365
-0.00110413715308
-0.00936197030689
-0.00123599329031
-0.00912256499491
-0.00135741963082
-0.00886026783993
-0.00147608961344
-0.00857065842928
-0.00158747487045
-0.00825889141134
-0.00168511974499
-0.00793490640528
-0.00176626695933
-0.00760466561508
-0.00183586829311
-0.00726270658029
-0.00189707648202
-0.00690592725156
-0.00194448987404
-0.00654171171271
-0.00197447058855
-0.00617862816665
-0.00198182474919
-0.00582011944696
-0.00197774236529
-0.00546539123043
-0.00196836755458
-0.00511408462475
-0.00194244570146
-0.00476982688485
-0.00190407190321
-0.00443944334039
-0.00185180463852
-0.0041178445947
-0.00179812305488
-0.00381667112055
-0.00171768410297
-0.00353354852063
-0.00163911641704
-0.00325968090295
-0.00155979539085
-0.00304074260605
-0.00142760012392
-0.00284959458387
-0.00132662275202
-0.00266250384872
-0.00122285728278
-0.00248598976857
-0.00112397684836
-0.00231699114081
-0.00104459258225
-0.00215841232926
-0.00097038605603
-0.00201340606859
-0.00088613944178
-0.0018764315183
-0.000819007012157
-0.00174422387089
-0.000765808403293
-0.00161488793226
-0.000710151387481
-0.00148739215902
-0.000651744861093
-0.00137253265894
-0.000591426988955
-0.0012746700627
-0.000537461903412
-0.00117769344825
-0.000502444212693
-0.00108141877882
-0.000466200003161
-0.000994637492588
-0.00042402241754
-0.000921555183668
-0.000386256413558
-0.000854033129017
-0.00035862167281
-0.00079618490215
-0.000327719729881
-0.000743541111127
-0.000306694542809
-0.0006917442561
-0.000291134781148
-0.000645214078481
-0.00027413465125
-0.000603518929062
-0.000262673566412
-0.000560632313293
-0.000261056829633
-0.000520172451005
-0.000263290495025
-0.000482742514111
-0.000261355316584
-0.00043135116469
-0.00026599090848
-0.000361664695192
-0.000281776270901
-0.000270433874085
-0.000292144156668
-0.000198221220038
-0.000283649206319
-0.000160905312098
-0.000290630616922
-0.000118041259071
-0.000369738027019
-5.45827290085e-05
-0.000408839753875
-0.000411184383455
-0.000494164461029
0.00321820742556
-0.00104305323669
0.00357694620424
-0.00159001838654
0.00356906746715
-0.00212932872692
0.00352605141836
-0.00265882150621
0.00346847268249
-0.00317646784459
0.00339937889942
-0.00367909186781
0.00331751840813
-0.00416596252027
0.00322553973975
-0.00463645781087
0.00312722255857
-0.00508895545998
0.00301981429834
-0.00552532537995
0.00290975935246
-0.00594350300047
0.00279767267154
-0.00634010192937
0.00267927124913
-0.00671820196953
0.00255842938609
-0.00707792505601
0.00243594102665
-0.00741913765463
0.00231193768513
-0.00774419339487
0.00218992824784
-0.00805104665452
0.00206799314948
-0.00833766223628
0.00194363265739
-0.00860612423561
0.00181924531998
-0.00885679166447
0.00169512453236
-0.00909306633665
0.00157368954926
-0.00932276259336
0.00146678206794
-0.00953631582616
0.00135685745036
-0.00972550121117
0.00123448965317
-0.00989241937719
0.00110829769687
-0.0100391510905
0.000978936606311
-0.0101677712706
0.000845629217413
-0.0102801544933
0.000712902247927
-0.0103779831061
0.000579242543881
-0.010453954099
0.000438037661316
-0.0105037250774
0.000288034676586
-0.010530490022
0.000134034411757
-0.0105362530989
-2.00028410566e-05
-0.0105254871577
-0.000174149018917
-0.0104958459521
-0.000329476612159
-0.0104442457541
-0.000485491094688
-0.0103664468569
-0.000640617201068
-0.0102556214228
-0.000805668963745
-0.0101071584774
-0.000977495317097
-0.00993086842796
-0.00114237989678
-0.00973671799555
-0.00129830215499
-0.00951513150336
-0.00145731574949
-0.00925883382295
-0.00161314868364
-0.0089789731026
-0.00175509836667
-0.00868689970009
-0.00187839997842
-0.0083737022341
-0.00199689373028
-0.00803587817714
-0.00210239791507
-0.00768153664034
-0.00218828699946
-0.00731704000196
-0.00225941793804
-0.00695296504203
-0.00230623758143
-0.00658327115435
-0.00234164232171
-0.00620830854212
-0.00235413468118
-0.00583637902396
-0.00234685978314
-0.00547306851858
-0.00232874546118
-0.00511705703533
-0.00229545706955
-0.00477094675024
-0.00224711945967
-0.00443197929329
-0.00218774794934
-0.00410395715225
-0.00212317948886
-0.00379966215019
-0.00201908759173
-0.00356311514401
-0.00187280655117
-0.00337512955057
-0.00174491364006
-0.00318330925562
-0.00161658714683
-0.00299506264936
-0.00151205153735
-0.00279935040038
-0.00141582816645
-0.0026223669956
-0.00129830882553
-0.00246697229704
-0.00119744644938
-0.00230609498459
-0.00112882095214
-0.00215672589251
-0.00103323276099
-0.00201807669336
-0.00095553242032
-0.00188188919452
-0.000900003990099
-0.00176122435674
-0.000828939858275
-0.00164091176811
-0.000770319557261
-0.0015129325593
-0.000717817476942
-0.0013917518941
-0.000657191815099
-0.00128672320917
-0.000606131274469
-0.001190494263
-0.000561199538209
-0.00109678417558
-0.000516591448949
-0.00100464212604
-0.00047735004219
-0.000924239206886
-0.000438015873921
-0.000852265009514
-0.000398741448329
-0.000787882692997
-0.000370136292121
-0.000727616251294
-0.000350466813545
-0.000665541649217
-0.000335290523898
-0.000603995370438
-0.000323295603659
-0.000549378429895
-0.000314746408956
-0.000497769494465
-0.000313927919528
-0.000453493104331
-0.00030461885198
-0.000402865980366
-0.000315551359373
-0.000352005806902
-0.0003315155175
-0.000286237925724
-0.000356767078152
-0.000199608068987
-0.000369149435555
-0.00013499967776
-0.000354123337047
-0.000116159333894
-0.000387416859923
-5.45715827091e-05
-0.000469179966039
-0.000465085155028
-0.000508279427372
0.00372350367993
-0.00107244196995
0.00413790496898
-0.00163408589469
0.00412750159065
-0.00218707030588
0.00407582020141
-0.00272974656124
0.00400793163031
-0.00325835706643
0.00392476681511
-0.00377096769429
0.003826901174
-0.00426638762776
0.00371772569893
-0.00474397652642
0.00360156827458
-0.00520307684808
0.00347566406094
-0.00564355502453
0.00334697587063
-0.00606258762807
0.0032134366495
-0.00646119795328
0.00307460451386
-0.00684128157914
0.0029352321351
-0.00720274914871
0.00279412194631
-0.00754681392765
0.00265271730714
-0.00787185255883
0.00251168233361
-0.00817611784347
0.00236898418512
-0.00846224585367
0.00222649657988
-0.00873047857034
0.00208423020307
-0.00898147437836
0.00194288984353
-0.00922774019967
0.00181674623928
-0.00945814236268
0.00169400108156
-0.0096644262682
0.00156000586565
-0.00985388483967
0.00142086322715
-0.0100231353298
0.00127453136894
-0.0101743697433
0.00112722897419
-0.0103132932375
0.000981703363412
-0.010434968301
0.00083182998913
-0.0105316948393
0.000673345718522
-0.0106059376044
0.000509790456914
-0.0106602277681
0.000339982817756
-0.0106987503229
0.00017037187493
-0.0107161954363
-4.57336953837e-06
-0.0107103301784
-0.000181835811259
-0.0106846823886
-0.000356746077027
-0.0106346915137
-0.000536867181662
-0.0105510850067
-0.000725375260165
-0.0104333557439
-0.000924269887461
-0.0102918750714
-0.00111958162221
-0.0101210773446
-0.0013134802152
-0.00991294718885
-0.00150644991638
-0.0096767882787
-0.0016931674454
-0.00941934347863
-0.00186998787011
-0.00913644090757
-0.00203706840016
-0.008821153258
-0.00219247537519
-0.00848437266847
-0.00233216355684
-0.0081292811091
-0.00245573380694
-0.00776821128401
-0.00254734995089
-0.00739707734714
-0.00262835390848
-0.00701521688481
-0.00268569590284
-0.00663301331363
-0.00272129927579
-0.00624789755435
-0.00273652747225
-0.00586369814373
-0.0027281960507
-0.00548436664964
-0.00270515160337
-0.0051146168675
-0.00266219888659
-0.00475135828799
-0.00260744631306
-0.00440999218963
-0.00252622044185
-0.00410212079006
-0.0024281768698
-0.00387597160898
-0.0022423520793
-0.00366001794729
-0.00208585891656
-0.0034509461569
-0.00195110734071
-0.00324682283119
-0.00181783552503
-0.0030619050725
-0.0016941390784
-0.00289904762462
-0.00157586164585
-0.00274243743904
-0.00145219558964
-0.00257940021013
-0.00135785758484
-0.00242801712219
-0.00127765560989
-0.00228437990902
-0.00117449436047
-0.00216193832318
-0.00107575471595
-0.00202944130215
-0.00103036292589
-0.0019004644259
-0.000955907042739
-0.00177791796249
-0.000891017065867
-0.00166218196204
-0.000831821680141
-0.00154752397805
-0.000770253021259
-0.00143366002203
-0.000718527275781
-0.00131299105848
-0.000680506162247
-0.00119947152914
-0.000628879541204
-0.00109879347261
-0.000576865184404
-0.00100460585632
-0.000531112394486
-0.000913055704076
-0.000489258901919
-0.000831929282582
-0.000450260530304
-0.000759436837572
-0.000421986112725
-0.000696910226998
-0.000396856191214
-0.000639620240032
-0.000379611451878
-0.000585378033556
-0.000367993783282
-0.000520322094341
-0.00037794759448
-0.000444017428542
-0.000379891922065
-0.000377788473678
-0.000380724542617
-0.000324192658345
-0.000384014939791
-0.000278309447271
-0.000401494184254
-0.000218345173588
-0.000427927448849
-0.000126856370153
-0.000444484379606
-9.93096158781e-05
-0.00041386932166
-5.49085712499e-05
-0.000512323437029
-0.000519370971075
-0.00052517793954
0.00424570020153
-0.00110772779498
0.00471727131952
-0.00168708137212
0.00470364685041
-0.00225679068429
0.00464232094677
-0.00281456129071
0.00456248788525
-0.00335601061378
0.00446299731809
-0.00387998136003
0.00434764720466
-0.00438491200024
0.00421942319715
-0.00487006643987
0.00408348006195
-0.00533526029016
0.00393760452555
-0.00577967961868
0.00378813002392
-0.00620225002318
0.00363273036044
-0.00660616398397
0.00347523200001
-0.00698993738156
0.00331570818858
-0.00735208223711
0.00315296536542
-0.00769379233653
0.00299112160994
-0.00801544042202
0.00283002668063
-0.0083189169823
0.00266915977675
-0.00860484470795
0.00250913122885
-0.00887372978067
0.0023498300541
-0.00913363944555
0.00219952515207
-0.0093807039695
0.00206055078858
-0.00960658805495
0.00191665340374
-0.00981412338117
0.00176434687035
-0.0100011611033
0.00160475777189
-0.0101726534704
0.00144293825147
-0.0103326710897
0.0012842344789
-0.0104755441418
0.00112164669127
-0.0105959517748
0.000949413550815
-0.0106968037773
0.000771486565539
-0.0107775601553
0.000587967624743
-0.0108437151713
0.000403695729595
-0.0108888838277
0.000213255522899
-0.0109129388906
1.73697405156e-05
-0.0109190981414
-0.000177594286219
-0.0108993056504
-0.000378235805307
-0.0108444093831
-0.000593226745039
-0.0107557605218
-0.000815219765811
-0.0106461777614
-0.00103477339912
-0.0105026242124
-0.00126374927411
-0.0103193977572
-0.00149702093964