/*--------------------------------*- C++ -*----------------------------------*\
| =========                 |                                                 |
| \\      /  F ield         | OpenFOAM: The Open Source CFD Toolbox           |
|  \\    /   O peration     | Version:  v1906                                 |
|   \\  /    A nd           | Web:      www.OpenFOAM.com                      |
|    \\/     M anipulation  |                                                 |
\*---------------------------------------------------------------------------*/
FoamFile
{
    version     2.0;
    format      ascii;
    class       volScalarField;
    location    "165";
    object      pa;
}
// * * * * * * * * * * * * * * * * * * * * * * * * * * * * * * * * * * * * * //

dimensions      [0 2 -2 0 0 0 0];


internalField   nonuniform List<scalar> 
9216
(
956.845707857
956.531826491
955.882476428
954.891643703
953.564577654
951.906829103
949.925631928
947.629218296
945.027319111
942.130385424
938.950161744
935.498850699
931.789715494
927.836232522
923.652689417
919.253374411
914.653135368
909.866651485
904.908918085
899.794641558
894.538615214
889.155272147
883.658920173
878.0634808
872.382555183
866.629370936
860.816657049
854.956813721
849.061579964
843.142436188
837.210055733
831.274943523
825.346669849
819.434739834
813.547609468
807.693785342
801.880631569
796.115681793
790.405249855
784.755940112
779.173075554
773.662388718
768.228284862
762.875692545
757.608180581
752.429947154
747.343811266
742.353317114
737.460620953
732.668687971
727.979097107
723.394306141
718.915396288
714.544382418
710.281920803
706.129640157
702.087834734
698.157793785
694.339503209
690.633950466
687.04085624
683.560934291
680.19367508
676.939539976
673.797816434
670.768729146
667.851385472
665.045786565
662.350879494
659.766454999
657.291320243
654.925071004
652.666396377
650.514716258
648.468627208
646.527397757
644.689561231
642.954264213
641.320010416
639.785858777
638.350319931
637.012402374
635.770661446
634.624092376
633.571329527
632.611385141
631.742992319
630.965183425
630.276754558
629.676659791
629.163506828
628.735539883
628.388186345
628.12504206
627.978269498
627.930556992
957.158504435
956.842979192
956.192163117
955.197241061
953.864265532
952.199145038
950.209184868
947.90284348
945.289878512
942.380977436
939.187907731
935.723116694
931.999887795
928.031936167
923.833565529
919.419283443
914.803949919
910.002433442
905.029740361
899.900728832
894.630206655
889.232716481
883.722589618
878.113812256
872.420023682
866.654470381
860.829938806
854.95880189
849.052879351
843.123579022
837.181680952
831.237573419
825.300957303
819.381177694
813.486852061
807.626288511
801.807038497
796.036400953
790.32090306
784.666882005
779.079899128
773.565391593
768.128025879
762.772411061
757.502398168
752.321846257
747.233874791
742.241673151
737.347713903
732.554596335
727.864228276
723.278694401
718.799414592
714.428027671
710.165534784
706.013189189
701.971633028
698.041784504
694.223976617
690.51883308
686.926417436
683.447090192
680.080676626
676.827297614
673.686564068
670.65837533
667.742147569
664.937573374
662.243891173
659.660601665
657.186783366
654.821761765
652.564475616
650.414095383
648.369444079
646.429562505
644.59318659
642.85925765
641.226457769
639.693663653
638.259540485
636.922938407
635.682544313
634.53722049
633.485712725
632.526930225
631.659707471
630.883023486
630.19581138
629.597121265
629.085985898
628.661555913
628.322798959
628.071111159
627.930376604
627.882736183
957.809025076
957.488907659
956.832679583
955.829598751
954.485767301
952.807244806
950.801469871
948.477136343
945.844168864
942.913521732
939.697143492
936.207759092
932.458832638
928.464348943
924.238780128
919.796880301
915.153658256
910.324195611
905.323625035
900.166978906
894.869170075
889.444875126
883.908513024
878.274164801
872.555544908
866.765957735
860.9182571
855.024839394
849.09758739
843.14790001
837.18661869
831.224092376
825.270084529
819.333873392
813.424140151
807.549100477
801.716373191
795.933142625
790.206008025
784.541172959
778.944276295
773.420605831
767.974911883
762.611641695
757.334736793
752.147885006
747.054303234
742.057003521
737.15856294
732.361399954
727.667533794
723.078867859
718.596939838
714.223208979
709.95880006
705.804790673
701.761951115
697.831029361
694.012489631
690.306792002
686.714132403
683.234714899
679.868496135
676.615448048
673.47530962
670.44783874
667.532573975
664.729073793
662.03669128
659.454800119
656.982583985
654.619248304
652.363826301
650.215375273
648.172801052
646.235038714
644.400895099
642.669213461
641.038735315
639.508247784
638.076464734
636.742156914
635.504051045
634.360942472
633.311612193
632.354921486
631.489747605
630.715062521
630.02989159
629.433396091
628.924911541
628.504150288
628.171525338
627.929791818
627.789377211
627.735918381
958.808740807
958.483429242
957.818757002
956.802922742
955.442188915
953.742825178
951.71251577
949.36026435
946.696306789
943.731956009
940.479500806
936.952039613
933.163376958
929.127858496
924.860274469
920.375706712
915.689444843
910.816852537
905.773298774
900.574047154
895.234201752
889.768620363
884.191872151
878.518173712
872.761354769
866.934815127
861.051494809
855.123850179
849.163826114
843.18285005
837.191804824
831.20103973
825.220342542
819.258967
813.325603563
807.428421445
801.575037638
795.772572086
790.027613839
784.346287511
778.73421643
773.196598573
767.738165996
762.363268553
757.075829045
751.879433492
746.777282075
741.772283369
736.867001466
732.063752742
727.364548771
722.771194291
718.28522595
713.908010057
709.640677489
705.484219602
701.439420139
697.506948474
693.687288883
689.980830324
686.387794247
682.908320496
679.542394818
676.289930583
673.150697471
670.124399058
667.210603827
664.408818533
661.718423414
659.138741704
656.668979651
654.308292432
652.055729833
649.910298489
647.870914432
645.936461279
644.105749492
642.377570855
640.75066451
639.223767161
637.795585815
636.464843319
635.230257224
634.090580935
633.044588219
632.091110341
631.229028882
630.457310349
629.77501431
629.181345934
628.675718487
628.257858608
627.927989069
627.687192775
627.537992082
627.473722016
960.1613738
959.829421148
959.153219401
958.119934637
956.736085051
955.008238307
952.944431312
950.554082576
947.847870637
944.837588526
941.536007692
937.956725515
934.114027471
930.022739292
925.69809841
921.155620543
916.410987744
911.479935236
906.378159528
901.121227786
895.724506115
890.203090472
884.571752368
878.844888505
873.03647997
867.160056805
861.228667408
855.25485562
849.250638019
843.227491889
837.196339574
831.167546957
825.150913522
819.15568028
813.190525254
807.263579918
801.382429353
795.554135534
789.785240502
784.081795435
778.449365743
772.893064837
767.417559807
762.027108923
756.725566908
751.516424988
746.40281528
741.38755205
736.47313447
731.661787976
726.955465155
722.355886117
717.864536528
713.482706401
709.211485166
705.051797758
701.004396389
697.069894112
693.248753511
689.541316861
685.947792334
682.468281328
679.102762738
675.851117644
672.713112921
669.688423594
666.776616197
663.977170163
661.289462523
658.712788118
656.246346245
653.889261082
651.640570228
649.499245418
647.46418438
645.534231781
643.708173926
641.984760092
640.362700124
638.840686009
637.417392083
636.091496121
634.861682453
633.726662444
632.685179391
631.736029987
630.878073086
630.110252577
629.431615308
628.841348433
628.338814232
627.923592051
627.595507393
627.35458885
627.20103573
627.129311858
961.873162962
961.532826456
960.841885644
959.786242823
958.372779093
956.60845729
954.501786212
952.06272052
949.302522036
946.233600093
942.869358535
939.224031255
935.312530706
931.150290787
926.753128746
922.137105655
917.318409194
912.313237452
907.137705923
901.807756412
896.339087503
890.747086654
885.046780226
879.252784332
873.379269227
867.439923863
861.44793077
855.415941617
849.356059631
843.279825042
837.198204807
831.121587882
825.059781363
819.022014029
813.016939334
807.052647059
801.136671495
795.276009092
789.477130627
783.746003713
778.088107571
772.508459394
767.011630513
761.601775193
756.282647725
751.057632275
745.929759912
740.901739041
735.975971404
731.154581867
726.439432779
721.832151987
717.33414514
712.946621156
708.670601606
704.506943064
700.456342965
696.519359126
692.696412198
688.987801486
685.393704405
681.914189723
678.549214268
675.298634202
672.16220014
669.139565419
666.230282117
663.433809511
660.749509169
658.176652852
655.714420452
653.361908712
651.118129655
648.982021029
646.952448334
645.028215924
643.20807102
641.490716375
639.874817066
638.359014464
636.941934342
635.622201824
634.398451917
633.26934414
632.233574675
631.289892735
630.437114154
629.674139604
628.999971607
628.413740926
627.914717811
627.502316535
627.176081751
626.935603148
626.780572568
626.706532388
963.952011596
963.601368128
962.892261687
961.809054389
960.359086843
958.54983219
956.390398226
953.891418718
951.064888939
947.923992098
944.482920793
940.756702542
936.761025472
932.512076296
928.026383473
923.320677798
918.41176104
913.316394582
908.051196965
902.63256132
897.076580649
891.398990336
885.615115817
879.739833602
873.787534266
867.772095361
861.706854971
855.604592875
849.477512014
843.337227123
837.194754767
831.060510227
824.944305524
818.855352955
812.802272166
806.793100703
800.835307441
794.9358079
789.100982874
783.336697452
777.648323141
772.040759703
766.518459289
761.085449921
755.745360637
750.501446083
745.356611739
740.313438381
735.374206386
730.540919649
725.815328039
721.198949393
716.693089455
712.298860959
708.017200837
703.848885514
699.794544274
695.854671222
692.029634813
688.31968605
684.724964082
681.245502672
677.88123178
674.631980533
671.497479257
668.477359714
665.57115658
662.778308403
660.098157163
657.529950301
655.0728434
652.725902757
650.488108092
648.358358777
646.335479166
644.418226443
642.605298416
640.895343009
639.286968223
637.778754617
636.369266187
635.057064016
633.840719326
632.718827507
631.690022029
630.752990217
629.906487556
629.149354151
628.480528706
627.899064504
627.404133006
626.995023922
626.671112596
626.431803708
626.276752957
626.2021514
966.407626303
966.044565525
965.313608901
964.197239713
962.703381014
960.840139809
958.617373086
956.04655283
953.140581341
949.913587917
946.380731831
942.558001487
938.462027523
934.109899223
929.519001468
924.706859214
919.691006147
914.488862932
909.117640358
903.594251975
897.935249077
892.156762408
886.274461332
880.303515244
874.258566908
868.153705604
862.002447607
855.817716366
849.611828658
843.396481964
837.182747588
830.981067833
824.801256286
818.65250241
812.543380959
806.481865276
800.475341669
794.530628558
788.653995094
782.851184646
777.127436552
771.48751193
765.935717131
760.475931579
755.111632151
749.845921341
744.681551829
739.620954763
734.666263398
729.819340177
725.081798643
720.455028332
715.940214031
711.53835751
707.250293286
703.076706363
699.018143888
695.075028552
691.247666415
687.536256331
683.94089271
680.461571633
677.09819092
673.850554004
670.718367912
667.701244441
664.798697629
662.010145837
659.334908736
656.772208895
654.321173252
651.980834951
649.750135125
647.627929829
645.612994337
643.704031315
641.899678666
640.198519479
638.599093205
637.099908062
635.699452765
634.396211413
633.188677342
632.075367589
631.05483839
630.125700128
629.286633073
628.536401018
627.873865
627.29799484
626.80787328
626.402684425
626.081704103
625.844282176
625.6901042
625.615758195
969.251677541
968.873889762
968.117058909
966.961446294
965.415682717
963.488662532
961.191160216
958.535675326
955.536210253
952.208041356
948.567487222
944.631689329
940.418396124
935.945769001
931.232196708
926.29613694
921.155969427
915.829878508
910.335747945
904.691084139
898.912949195
893.017917195
887.022034641
880.940796376
874.789120375
868.581331327
862.331140394
856.051631626
849.755245896
843.453772071
837.158339165
830.879415926
824.626812493
818.409686114
812.236555035
806.115312255
800.053244745
794.057052391
788.132872519
782.286302161
776.5224256
770.845838399
765.260677132
759.770644827
754.379041141
749.088788421
743.902462035
738.822316425
733.850314084
728.988150503
724.237281515
719.598945774
715.074188748
710.663882108
706.3687435
702.189351534
698.126160792
694.179511878
690.349643289
686.636694097
683.040709817
679.561645979
676.199369164
672.953655263
669.824189523
666.810562423
663.91226947
661.128708459
658.459176628
655.902870013
653.45888526
651.126218311
648.903767988
646.790340482
644.78465509
642.885350964
641.090996513
639.400099265
637.811118077
636.322475306
634.932571279
633.639798849
632.442558626
631.339274699
630.328410598
629.408485403
628.578088797
627.835895999
627.180680845
626.611324566
626.12682046
625.726276704
625.408900231
625.173993802
625.021301763
624.947677732
972.497981406
972.102897158
971.315771476
970.114229235
968.507779445
966.506277424
964.121621592
961.367555042
958.259409559
954.813831807
951.048523981
946.981987439
942.633289348
938.021839581
933.167197075
928.088890388
922.806271249
917.338384739
911.703873133
905.9208956
900.007077406
893.979469228
887.85452635
881.648089121
875.375373196
869.050954255
862.688756595
856.30203685
849.903372095
843.504648215
837.117054968
830.751084653
824.416536195
818.122524187
811.877494596
805.689243284
799.564935847
793.511133038
787.533814384
781.638406908
775.829811369
770.112432927
764.490208483
758.966638448
753.544815108
748.227454687
743.016925421
737.915279289
732.924279806
728.045431875
723.280007668
718.629074041
714.093514968
709.674055023
705.371277216
701.185641401
697.11749655
693.1670952
689.3345979
685.620079962
682.023535816
678.544880903
675.18394883
671.940490811
668.814170516
665.804561144
662.911140538
660.133287794
657.470278476
654.921283151
652.485365371
650.161482261
647.948485425
645.845126041
643.85005959
641.961853302
640.178995463
638.499906529
636.922951527
635.446453668
634.068709954
632.788006635
631.602636339
630.510913982
629.511195239
628.60189196
627.781489816
627.048562797
626.401786391
625.839948443
625.36195757
624.966840063
624.653748077
624.421966539
624.271239482
624.198633935
976.162720667
975.747471959
974.925117839
973.670222216
971.993357991
969.905564087
967.420102964
964.552223815
961.31884873
957.7382588
953.829786442
949.613532818
945.110097185
940.340339583
935.325159131
930.08531035
924.641238056
919.012953264
913.219929512
907.281038676
901.214503693
895.037880964
888.768048614
882.421209672
876.012887796
869.557926158
863.070474047
856.563975894
850.051153888
843.54399815
837.053760077
830.590950716
824.165347889
817.786009335
811.461291616
805.198870792
799.005769581
792.888382001
786.852505025
780.90336553
775.045654449
769.283554513
763.620775381
758.060582734
752.605833512
747.259005447
742.022231696
736.897331026
731.885841077
726.989047183
722.20801372
717.543610218
712.996538837
708.567356092
704.256495004
700.064281262
695.99094996
692.036652895
688.201467759
684.485403503
680.88840336
677.410341443
674.051022236
670.810173585
667.687443256
664.682390641
661.794480247
659.023075525
656.36743356
653.826699531
651.39990499
649.085964894
646.883680939
644.791743717
642.808737497
640.933147691
639.163371931
637.497730992
635.934481995
634.471834345
633.107965981
631.841040228
630.669223976
629.590707141
628.603719807
627.706551668
626.89756881
626.175230893
625.538104821
624.984876709
624.514361616
624.125514631
623.817427406
623.589340406
623.440997477
623.369658419
980.264715316
979.826040726
978.962917685
977.646329555
975.888169542
973.700923272
971.09951864
968.101017712
964.724247153
960.989419497
956.917786605
952.531309335
947.852365012
942.903474658
937.70707111
932.285289385
926.659801752
920.851679455
914.881302006
908.768293895
902.531503383
896.18899828
889.75808583
883.255330115
876.696571319
870.096927218
863.470788213
856.831798676
850.192839421
843.566010162
836.962624184
830.393204948
823.86749635
817.39448181
810.982405296
804.638800218
798.370516927
792.183756361
786.08410045
780.076547914
774.165545521
768.355024437
762.648432649
757.048771201
751.55862676
746.18020866
740.915381092
735.765699871
730.732444364
725.816652765
721.01915211
716.340590609
711.781463575
707.342140615
703.022885951
698.823879397
694.745226754
690.786972908
686.949108232
683.231574903
679.634263282
676.157010096
672.79959353
669.561726617
666.443045997
663.443103574
660.561356849
657.797160229
655.149755526
652.618266385
650.201691554
647.898905068
645.708655179
643.62956579
641.660141491
639.798777428
638.043768444
636.393321996
634.84557281
633.398600087
632.050444615
630.799128764
629.642676409
628.579132817
627.606585697
626.723184326
625.927159944
625.216842609
624.590677493
624.047239954
623.585248646
623.203567443
622.901224028
622.677428039
622.531875555
622.462009457
984.825755945
984.359929283
983.449714234
982.061972155
980.210214007
977.908716602
975.174434721
972.02662167
968.486371208
964.576179944
960.319538155
955.740567595
950.86368536
945.713315141
940.313622108
934.688296823
928.86036708
922.852065573
916.684732801
910.378778266
903.953673526
897.427988554
890.819437674
884.144935483
877.420631184
870.661927499
863.883468801
857.099120199
850.321934293
843.564130328
836.837081863
830.151316277
823.51652667
816.941598589
810.434638689
804.003005823
797.653349225
791.391641292
785.223218678
779.152814559
773.184600675
767.322219458
761.568825354
755.927117356
750.399380084
744.987517275
739.693091917
734.517360893
729.461314155
724.525708944
719.711106624
715.017904417
710.446367422
705.99665493
701.668847105
697.462958642
693.378956931
689.416773425
685.576308879
681.857435588
678.259995483
674.783792766
671.428588609
668.194086972
665.079923398
662.085652358
659.210734017
656.454520653
653.816246591
651.295016384
648.889801406
646.599434055
644.422605544
642.357867059
640.403637777
638.558211148
636.819766791
635.186384019
633.656058484
632.226720708
630.896255889
629.662525686
628.523390039
627.476730212
626.520470989
625.652603234
624.871204273
624.174459085
623.56067748
623.028310898
622.575964684
622.202416496
621.906617002
621.687706356
621.545352341
621.477180365
989.87102018
989.373701648
988.409124045
986.939362981
984.97996183
982.547413279
979.66116046
976.343097857
972.617024249
968.508117219
964.042476668
959.246709514
954.147572494
948.771644825
943.145051402
937.293214173
931.240660102
925.010869801
918.62619575
912.107831587
905.475849034
898.749269822
891.946171109
885.083778383
878.178538792
871.246143948
864.301517884
857.358771188
850.43115359
843.531014394
836.669787119
829.85798969
823.105241397
816.420302796
809.811108303
803.284809792
796.847815932
790.50583702
784.263923309
778.126509455
772.097451377
766.180068991
760.377183193
754.691157157
749.123933273
743.677075263
738.351805484
733.149047214
728.06946293
723.113495895
718.281406901
713.573313428
708.989221496
704.529059864
700.192700418
695.979979387
691.89071602
687.924722528
684.081806009
680.361773187
676.764421507
673.289532061
669.936857745
666.706106814
663.596926508
660.608888053
657.741464876
654.994019786
652.365786214
649.855859929
647.463188236
645.186561943
643.024612371
640.975815609
639.038495564
637.210833276
635.490878949
633.876567551
632.365737212
630.956149766
629.645513624
628.431507386
627.311805151
626.284100913
625.346135816
624.495720253
623.73075864
623.049272458
622.449418974
621.929511302
621.488034783
621.123653802
620.835235239
620.621866093
620.483138969
620.416870715
995.42958994
994.895689387
993.868246917
992.303852049
990.220595344
987.637752856
984.577824712
981.065905009
977.129003556
972.795444222
968.094340175
963.055152579
957.707293398
952.079786046
946.20095098
940.098144357
933.797531417
927.32393351
920.700736964
913.949895913
907.092005629
900.146449916
893.13157309
886.064849539
878.962994461
871.842005097
864.717120586
857.602746389
850.512363279
843.458471202
836.452559777
829.505117388
822.625660325
815.822785375
809.104216704
802.476854013
795.9468272
789.519538066
783.199714349
776.99144673
770.898239597
764.923047216
759.068321017
753.336045745
747.727785231
742.244720632
736.887695975
731.657258815
726.553706632
721.577128381
716.72744916
712.004471411
707.407916047
702.937450185
698.592718114
694.373363808
690.27904828
686.309457074
682.464305536
678.743338648
675.146318461
671.673012682
668.323183616
665.096558119
661.992814855
659.011555902
656.152286902
653.414393046
650.797123024
648.299571911
645.920667963
643.659161782
641.513626871
639.482457175
637.563873217
635.755930958
634.056536019
632.463460679
630.974364811
629.586819401
628.298331756
627.106373408
626.008405943
625.001913362
624.08442724
623.253554708
622.507005046
621.842615807
621.258373554
620.752436303
620.323148191
619.969062694
619.688946057
619.481794466
619.347148366
619.283022308
1001.53511321
1000.9585377
999.858185013
998.184312408
995.958287301
993.202899702
989.944442483
986.21187869
982.036032658
977.448887537
972.483024881
967.171146224
961.54567255
955.638372717
949.480036047
943.100164682
936.526725483
929.785959037
922.902294752
915.898368261
908.795167641
901.612268144
894.368128707
887.080360106
879.765912119
872.441114323
865.121597599
857.822138716
850.556512053
843.33739416
836.176323037
829.083724784
822.068971659
815.14044913
808.305617335
801.571078032
794.942628589
788.425321383
782.023510372
775.740903813
769.580607148
763.5451712
757.636632792
751.856560289
746.206094004
740.685992732
735.296676642
730.038276214
724.91067834
719.913576393
715.046516664
710.308953025
705.700282754
701.219883468
696.867152076
692.641524953
688.542492308
684.569610442
680.722505138
677.000867009
673.404432694
669.932978231
666.586289471
663.364137514
660.266251764
657.2922909
654.441811746
651.714242427
649.108861171
646.624774932
644.260900193
642.015954829
639.888451703
637.876698305
635.978801694
634.192679569
632.516075376
630.946578179
629.481646346
628.118634452
626.854821864
625.687443917
624.613724112
623.630906685
622.736286924
621.9272418
621.201261893
620.555977307
619.989183072
619.498863468
619.083211095
618.74063854
618.469803372
618.26962715
618.139554803
618.077805919
1008.22664529
1007.60001851
1006.41466159
1004.61361168
1002.22248651
999.268589501
995.782932729
991.799173513
987.352633256
982.479530692
977.216386125
971.599559703
965.664842262
959.447089399
952.97985192
946.295035002
939.422581609
932.390245162
925.223469898
917.945442025
910.577309152
903.138566299
895.647525489
888.12176531
880.578420118
873.034227586
865.505344068
858.007062657
850.553544036
843.157675778
835.831024518
828.583905719
821.425483021
814.363863978
807.406185815
800.558687745
793.826786114
787.215124529
780.727640969
774.367607839
768.137691938
762.03999229
756.076091972
750.247096325
744.553681332
738.996135594
733.574411178
728.288171724
723.136847072
718.119685103
713.235809567
708.484277447
703.864126928
699.374412495
695.014263647
690.782894373
686.679613502
682.703843019
678.855121453
675.133096182
671.537502589
668.068139182
664.724846283
661.507465918
658.415808668
655.449614419
652.608518091
649.892016715
647.299438519
644.829917237
642.482370775
640.255487095
638.147720183
636.157285123
634.282165469
632.520124991
630.868725473
629.32534937
627.887226279
626.551465241
625.315087457
624.175062011
623.12834123
622.17189771
621.302759396
620.518044678
619.814997422
619.191015732
618.643680349
618.170780289
617.77033263
617.440609106
617.180141136
616.987736525
616.862768319
616.803667825
1015.54976005
1014.86394685
1013.57880606
1011.62913132
1009.04621562
1005.86321861
1002.11707706
997.847119291
993.093941181
987.898588159
982.302005232
976.344614658
970.065962571
963.504347453
956.696432642
949.676823097
942.477670042
935.128340409
927.655249922
920.081912315
912.429272687
904.716294421
896.960726517
889.179839357
881.390907854
873.611232086
865.857759872
858.146540647
850.492276778
842.90809776
835.405552291
827.994754155
820.68456457
813.482729888
806.395982905
799.430137977
792.590160416
785.880237438
779.303829808
772.863731547
766.562117425
760.400594875
754.380245105
748.501669783
742.765031953
737.170104978
731.716320396
726.4028246
721.22853543
716.192204531
711.292468148
706.527934163
701.897253768
697.399131113
693.03240316
688.796027124
684.689102604
680.710923768
676.860958404
673.138835519
669.544298719
666.07720793
662.737494017
659.525100013
656.439957077
653.481918083
650.650733535
647.945997801
645.367110569
642.913256646
640.583365104
638.376104045
636.289869551
634.32277885
632.472678992
630.737162885
629.113587767
627.59910156
626.190675347
624.88514017
623.679224562
622.569593566
621.552892352
620.62578628
619.785001346
619.027365226
618.349845104
617.749577627
617.2239039
616.770395494
616.386880887
616.07145814
615.822522752
615.638784851
615.519501869
615.463324834
1023.55802093
1022.80150874
1021.39810886
1019.27337075
1016.46631611
1013.01784569
1008.97234669
1004.37597749
999.275418633
993.717125821
987.746895338
981.409594028
974.748888579
967.806922738
960.623876753
953.237452522
945.682313558
937.989603524
930.186642104
922.296951156
914.340698464
906.335598385
898.298143849
890.244859209
882.193124226
874.161142009
866.167137698
858.228347015
850.360236063
842.57619519
834.887626675
827.304287809
819.834598466
812.485832772
805.264233076
798.175102629
791.222899414
784.411283291
777.743192218
771.220881182
764.845991398
758.619588102
752.542211443
746.613912031
740.834296453
735.202570298
729.717592854
724.377933702
719.181942249
714.127803724
709.213588052
704.437477277
699.797670923
695.292396569
690.920147539
686.679625745
682.569757176
678.589708952
674.738893673
671.016924986
667.423606138
663.958892076
660.622837613
657.41553561
654.337076134
651.387468125
648.566629375
645.874278522
643.309926458
640.87282589
638.561937208
636.375920108
634.313112842
632.371525894
630.548859126
628.842513738
627.249614733
625.767044465
624.391482081
623.119440844
621.947314851
620.871425495
619.888068812
618.99356277
618.184292854
617.456760789
616.807620323
616.233716685
615.732124326
615.300172362
614.935473102
614.635948542
614.399839007
614.225719044
614.112752788
614.059815226
1032.31500626
1031.47290305
1029.92764345
1027.5945641
1024.52359311
1020.7659948
1016.37555069
1011.40652329
1005.91246578
999.945698778
993.557186334
986.796517142
979.711828038
972.349536203
964.753859176
956.966124381
949.023976086
940.960602056
932.804188545
924.577811475
916.299993909
907.986033957
899.650010031
891.306957328
882.974380975
874.672081145
866.420489574
858.238748625
850.143417842
842.148070608
834.263683947
826.499375059
818.862928701
811.36102057
803.999296094
796.782472301
789.714418309
782.798220038
776.036223078
769.430098193
762.980897159
756.689105111
750.554675197
744.577068709
738.75528723
733.087919047
727.57319069
722.20902937
716.993142204
711.923154274
706.996534324
702.210793161
697.563508651
693.052529597
688.67602186
684.432411765
680.32043349
676.339141059
672.487882205
668.766291415
665.174273632
661.711923173
658.379471457
655.177206676
652.105432403
649.164391457
646.354196452
643.674744562
641.125695519
638.706399024
636.415875282
634.252779565
632.215395146
630.301621307
628.508994184
626.834694516
625.275587369
623.828253145
622.489035501
621.254086695
620.119420479
619.080966144
618.134624757
617.27631893
616.502053305
615.807958841
615.190339905
614.645716223
614.170864003
613.762844773
613.419036836
613.137152788
612.915266084
612.751830102
612.645873699
612.596502366
1041.89712955
1040.94972644
1039.23158753
1036.64728212
1033.26268065
1029.14313955
1024.35416462
1018.95941432
1013.01988019
1006.5939437
999.737787658
992.505844065
984.950993888
977.12442226
969.075049116
960.84860381
952.486436683
944.024286718
935.491263487
926.909425051
918.294344429
909.657010688
901.007083974
892.35678835
883.723892702
875.131243986
866.603209003
858.16208187
849.825911871
841.608160058
833.518760838
825.565687098
817.755838856
810.095181069
802.58867066
795.240335485
788.053408838
781.030329273
774.172804865
767.481853253
760.957896717
754.600794943
748.409882167
742.383990209
736.5214755
730.820253602
725.27785114
719.891459739
714.658282569
709.575233504
704.638693096
699.845497119
695.192768355
690.677935381
686.298754293
682.053349464
677.94024276
673.958374134
670.107052047
666.385990565
662.795233211
659.33507259
656.005957261
652.808466944
649.743185813
646.810641411
644.011213185
641.345037377
638.81195533
636.411461533
634.14265611
632.004210792
629.994355883
628.110869558
626.351099897
624.71198276
623.190084257
621.781638778
620.48260621
619.288726317
618.195579027
617.198647212
616.293381133
615.475259363
614.739853007
614.082878124
613.500245522
612.988115102
612.542929463
612.161454918
611.840806237
611.578480118
611.372364515
611.220754564
611.122562489
611.077128182
1052.39770228
1051.31822727
1049.38519388
1046.49277794
1042.73137447
1038.18558804
1032.93520545
1027.05423792
1020.61117863
1013.67012433
1006.29211184
998.536245926
990.460335417
982.120892132
973.57245887
964.866306833
956.048676013
947.158787472
938.227018037
929.273769401
920.309773074
911.338617482
902.361977356
893.3867416
884.431349254
875.524717446
866.698425819
857.979981905
849.389344987
840.938974113
832.636441355
824.48769724
816.498555405
808.67425664
801.01899046
793.53600571
786.227829327
779.096232752
772.142206623
765.366057823
758.767527043
752.345821702
746.099626514
740.02712142
734.125978112
728.393380959
722.826059928
717.420661393
712.173755738
707.080899505
702.137274424
697.339359726
692.683777373
688.167375739
683.787416446
679.541719263
675.428577187
671.446822356
667.595784088
663.875289716
660.285562751
656.827160972
653.500868797
650.307610976
647.248341322
644.323974824
641.535216014
638.882498524
636.365909166
633.985141429
631.739395812
629.627381397
627.647277887
625.796731551
624.072879701
622.472378634
620.991447096
619.625923401
618.371327784
617.222925435
616.175799938