/*--------------------------------*- C++ -*----------------------------------*\
| =========                 |                                                 |
| \\      /  F ield         | OpenFOAM: The Open Source CFD Toolbox           |
|  \\    /   O peration     | Version:  v1906                                 |
|   \\  /    A nd           | Web:      www.OpenFOAM.com                      |
|    \\/     M anipulation  |                                                 |
\*---------------------------------------------------------------------------*/
FoamFile
{
    version     2.0;
    format      ascii;
    class       volVectorField;
    location    "29";
    object      Ua;
}
// * * * * * * * * * * * * * * * * * * * * * * * * * * * * * * * * * * * * * //

dimensions      [0 1 -1 0 0 0 0];


internalField   nonuniform List<vector> 
9216
(
(-0.0274424522714 0.0274069910831 0)
(-0.0282243680332 0.0864126464219 4.7835579849e-27)
(-0.0286438294902 0.147693932866 -1.79455581198e-30)
(-0.028766164178 0.207767798622 0)
(-0.0284577251177 0.269164564254 0)
(-0.0271538455529 0.325352980287 0)
(-0.0263425581217 0.381040848969 0)
(-0.0264249953722 0.434410269239 0)
(-0.0268269012238 0.487130663662 0)
(-0.0275553719688 0.537867289056 0)
(-0.0288228764776 0.58872497303 0)
(-0.0294762774831 0.638146504789 0)
(-0.0276442317392 0.68704112686 0)
(-0.0230611109057 0.72413613433 0)
(-0.0213949903122 0.757930938893 0)
(-0.0227633951372 0.788350089057 0)
(-0.0243301018052 0.819424492741 0)
(-0.0236605879978 0.847446844362 0)
(-0.0202806008964 0.870827607159 0)
(-0.017570484031 0.887291542843 0)
(-0.0144215848568 0.897787658874 0)
(-0.0125716138688 0.902480830704 0)
(-0.011947196735 0.90319828472 0)
(-0.011492540179 0.901102898042 0)
(-0.0105938967892 0.896880020013 0)
(-0.0102465629742 0.884798670123 0)
(-0.00674616820088 0.880480616779 0)
(-0.00332638374972 0.862956279547 0)
(-0.00261278192462 0.843098426778 0)
(-0.00365797226613 0.825912080902 0)
(-0.00965820540765 0.802228396688 0)
(-0.00989744512876 0.813308885797 0)
(0.000409557222182 0.79337728039 0)
(0.00601278559901 0.75331044388 0)
(0.00535263944263 0.722630955354 0)
(0.00364929552454 0.69441048053 0)
(0.00391091148152 0.663189179702 0)
(0.00513304255938 0.635670461747 0)
(0.00761312768721 0.602091836162 0)
(0.00898020280034 0.568577899276 0)
(0.00784133253701 0.532224061514 0)
(0.00808191857996 0.505976380747 0)
(0.0102497579595 0.469392239874 0)
(0.0114137900383 0.434559242586 0)
(0.0130816209172 0.398635887374 0)
(0.0129930194503 0.363176329324 0)
(0.0125826513431 0.328557885087 0)
(0.0129169111723 0.294449958832 0)
(0.0123118299563 0.261810218703 0)
(0.0119339728076 0.231691474636 0)
(0.0122513156945 0.201966887821 0)
(0.0116426317482 0.173528389569 0)
(0.0112761452133 0.146639574412 0)
(0.0110012450658 0.120082249389 0)
(0.0094564169374 0.0960499453206 0)
(0.00773135049682 0.0770563803348 0)
(0.00681945182236 0.0627399625176 0)
(0.00639242802353 0.0501847439645 0)
(0.00545381958178 0.039987448736 0)
(0.00424774162282 0.0320163438552 0)
(0.00323906955884 0.0264765266871 0)
(0.00231491919196 0.0227836468348 0)
(0.0014179258052 0.020284909509 0)
(0.000148580759638 0.0196559234606 0)
(-0.000532360630252 0.0203375419014 0)
(-4.82006616688e-05 0.0210902653362 0)
(4.2764540574e-05 0.0216479465096 0)
(0.00030333254356 0.0221069336896 0)
(0.000246289666546 0.0217710340146 0)
(0.000151396588677 0.0215492008636 0)
(0.000527323745621 0.0213724570626 0)
(0.000958971490417 0.0200915145877 0)
(0.000466947125076 0.0192560746904 0)
(0.00030079533287 0.0194184456078 0)
(-3.35306422533e-05 0.0192589446464 0)
(-0.000687209771538 0.0197054060795 0)
(-0.000792904239373 0.0210011934764 0)
(-0.000727865969323 0.021958659817 0)
(-0.000497525861337 0.0225927495083 0)
(8.78307622507e-05 0.0225220862857 0)
(0.00055031826797 0.0213991693255 0)
(0.000786818056003 0.0196775028221 0)
(0.00110884433388 0.0174114156105 0)
(0.00116962566994 0.0146772009538 0)
(0.00112806903942 0.012085224672 0)
(0.00111285164585 0.00951711594565 0)
(0.00092877329549 0.00705605984206 0)
(0.000669291509897 0.00509662514605 0)
(0.000563234859724 0.00369842692899 0)
(0.000471124201067 0.00212960853974 0)
(0.000301053538881 0.000646794908795 0)
(9.60196439462e-05 -0.00056953450694 0)
(-0.000165169419966 -0.00127873345544 0)
(-0.000458751888504 -0.00157492023301 0)
(-0.00067057203765 -0.00129179456796 0)
(-0.0006311984793 -0.000600394668581 0)
(-0.0876651879097 0.0283977019371 0)
(-0.0971900315657 0.097326502102 0)
(-0.0965591752141 0.165305822686 -5.01017723147e-27)
(-0.0954601333556 0.233744782765 0)
(-0.0931170779599 0.301150903706 0)
(-0.0898647470232 0.366572257976 0)
(-0.0872102730581 0.432554112199 0)
(-0.0845777882624 0.496094383845 0)
(-0.081966907864 0.555829016945 0)
(-0.0792238716315 0.612848882551 0)
(-0.0769251914632 0.665786376597 0)
(-0.0738695162307 0.714483371894 0)
(-0.0670230079439 0.761381625216 0)
(-0.0594514807071 0.801578824116 0)
(-0.0533010503445 0.858426237531 0)
(-0.0460225270561 0.891467763851 0)
(-0.0376334871033 0.927469918967 0)
(-0.0303695874617 0.935721159793 0)
(-0.0259928975775 0.961327153977 0)
(-0.0205995235525 0.978979603585 0)
(-0.0143165279614 0.998328059005 0)
(-0.00719584998909 1.01630450583 0)
(0.000771292272634 1.0263118576 0)
(0.00773188963733 1.02479806607 0)
(0.0136661175496 1.01925216124 0)
(0.0183862064063 1.00741708777 0)
(0.0231244689925 0.988092352612 0)
(0.024798341916 0.988658436199 0)
(0.0256765580545 0.979094425389 0)
(0.0223588023217 0.968342365462 0)
(0.014043748512 0.966091884127 0)
(0.016823601664 0.936682324081 0)
(0.0348512657806 0.927870549508 0)
(0.0489286865368 0.90551452116 0)
(0.0491370259345 0.880925702599 0)
(0.0454613935019 0.84911421976 0)
(0.0460298126602 0.813617373243 0)
(0.0477549184025 0.774953457706 0)
(0.0481982430314 0.734185788338 0)
(0.0490479041594 0.703310517375 0)
(0.0491371291135 0.669417324315 0)
(0.0521219840544 0.625781212917 0)
(0.0563232660208 0.581207527467 0)
(0.0565076938184 0.538006095808 0)
(0.0552784239967 0.494702714245 0)
(0.054321076902 0.464088653337 0)
(0.0559455888043 0.422268234819 0)
(0.0576747817532 0.380833962637 0)
(0.0546634151725 0.340671134524 0)
(0.0537411701843 0.304268555492 0)
(0.0552787915505 0.268099125893 0)
(0.0519735516876 0.233462887995 0)
(0.049517611929 0.199939466845 0)
(0.0485140201523 0.164640050321 0)
(0.0418218581972 0.131971665425 0)
(0.0339553932185 0.108642191067 0)
(0.0286946544633 0.0928054242059 0)
(0.0258262270473 0.0799727620427 0)
(0.02361149595 0.0691256898515 0)
(0.0203847215938 0.0589842661583 0)
(0.0167106672883 0.0522821807492 0)
(0.0132172146942 0.0476525764609 0)
(0.010534215326 0.0438582866086 0)
(0.00874960318484 0.0430277003112 0)
(0.00631639108338 0.0426414792969 0)
(0.00483095147165 0.0436716071193 0)
(0.00427884445287 0.0429868519803 0)
(0.00421727285295 0.0427473218745 0)
(0.00404780620438 0.0409002716856 0)
(0.00239485855209 0.0393512852376 0)
(0.00185724309372 0.0378064837567 0)
(0.00228563143427 0.0339357617494 0)
(-0.000308967658824 0.0309569053165 0)
(-0.000210771427392 0.0299333160124 0)
(0.00034482734157 0.0284090678224 0)
(-0.00108304613312 0.0284331086298 0)
(-0.00115725661631 0.0302433445757 0)
(-0.000723906148614 0.0312487401557 0)
(-0.000284353208786 0.0314746199177 0)
(0.00131706048645 0.0308004692595 0)
(0.00328274542021 0.0286710311147 0)
(0.00408988077936 0.025388266155 0)
(0.00500785289842 0.0221925184694 0)
(0.00486291764751 0.0179984419019 0)
(0.00424063552197 0.0145427324822 0)
(0.00420780016072 0.0111263169454 0)
(0.00352916911927 0.0078741930576 0)
(0.00251733627225 0.00547620070065 0)
(0.00196591424281 0.00349398743194 0)
(0.00170467348219 0.00178291849447 0)
(0.00120011353841 8.48185788673e-05 0)
(0.000560371426219 -0.0012341679359 0)
(-0.000164269639397 -0.00192455639527 0)
(-0.000960522689275 -0.00223854914121 0)
(-0.0017089723242 -0.00196365061018 0)
(-0.00153532186971 -0.000811858033031 0)
(-0.15064091054 0.0284759644797 0)
(-0.16616323447 0.0982545766991 0)
(-0.165928806742 0.168163090516 -5.01879817115e-27)
(-0.164880971118 0.239581581991 0)
(-0.161475424538 0.308539368948 0)
(-0.15705793016 0.375811959529 0)
(-0.152322096893 0.439807820033 0)
(-0.14803731832 0.505039507805 0)
(-0.142182237936 0.565450935124 0)
(-0.13673363013 0.623472800756 0)
(-0.131267127604 0.682011866014 0)
(-0.123678748134 0.731938889704 0)
(-0.114748873801 0.778478310899 0)
(-0.107879403411 0.820423056738 0)
(-0.0992388897656 0.858472936286 0)
(-0.0869916065245 0.901670487554 0)
(-0.0715168829734 0.937092000485 0)
(-0.0608945309945 0.980699330977 0)
(-0.0539895730619 1.00807468269 0)
(-0.0454670908614 1.0291192287 0)
(-0.036013163194 1.04281438808 0)
(-0.0222078967319 1.04933174479 0)
(-0.00611254842371 1.05054114553 0)
(0.00806581309039 1.04631490024 0)
(0.0174313668826 1.04114178354 0)
(0.0181161384418 1.02993108714 0)
(0.0160634660243 1.04626612347 0)
(0.0161558851639 1.05630437552 0)
(0.0183797334454 1.050013696 0)
(0.022514734474 1.05999287933 0)
(0.0254394238997 1.03880837435 0)
(0.0307376972827 1.02875346667 0)
(0.0456270098324 1.00570622688 0)
(0.0600395857766 0.979939998722 0)
(0.0693597952949 0.974993328794 0)
(0.0769731529796 0.941799410094 0)
(0.0861842740797 0.90504155237 0)
(0.0907719084696 0.860887830813 0)
(0.0874926077949 0.813012474828 0)
(0.0875128475615 0.765730270385 0)
(0.0911330074854 0.719426598868 0)
(0.100805245897 0.672977232768 0)
(0.105563430948 0.627603977339 0)
(0.0971725576002 0.581689734069 0)
(0.096157245911 0.554965180115 0)
(0.0949240281093 0.516420420045 0)
(0.0936833123531 0.477028983965 0)
(0.0971033191967 0.453906013703 0)
(0.0996038518314 0.431018311413 0)
(0.0966018726814 0.395789446412 0)
(0.0970955110257 0.369776463509 0)
(0.103055349837 0.349052058933 0)
(0.111949680443 0.310848022997 0)
(0.117587207517 0.264992189578 0)
(0.102528922582 0.21698099973 0)
(0.0813616943564 0.187004558074 0)
(0.0673881606537 0.1698098131 0)
(0.0600966387094 0.154382241257 0)
(0.0540738518065 0.138650317883 0)
(0.0471656831896 0.125316557551 0)
(0.0386180646575 0.116501768759 0)
(0.030106667887 0.111791156747 0)
(0.0246815134727 0.109750749829 0)
(0.0220484628289 0.109944996742 0)
(0.018034259857 0.111425897042 0)
(0.0135186990042 0.112993666411 0)
(0.0125064621466 0.113524928201 0)
(0.013095328622 0.111979195976 0)
(0.0156219635489 0.105460149655 0)
(0.0176471670612 0.0994917893844 0)
(0.0158258854095 0.0887540495514 0)
(0.0106637123963 0.0773868107901 0)
(0.00949102388121 0.0673991882208 0)
(0.0101413767218 0.0602776801202 0)
(0.00366165410786 0.0540331668679 0)
(-0.0011161220653 0.0503493224858 0)
(-0.00102077555134 0.0517952756666 0)
(0.000197667489375 0.0514588603036 0)
(0.00363477495112 0.0512719187882 0)
(0.00622399238902 0.0455624846916 0)
(0.00699216193284 0.0410675186809 0)
(0.00691212917019 0.0347611742153 0)
(0.00731120996737 0.0289062648328 0)
(0.00670404426263 0.0223924633085 0)
(0.00660521124293 0.0175857798545 0)
(0.00763897536579 0.0130254497484 0)
(0.00662036222812 0.00834197895711 0)
(0.0053788932387 0.00530405708133 0)
(0.00421618696943 0.00289166870457 0)
(0.00309591517362 0.000616816660033 0)
(0.00208863749461 -0.00126568619914 0)
(0.000974824459869 -0.00247036983553 0)
(-0.000235873694163 -0.0026225889211 0)
(-0.00128912581836 -0.00245389762937 0)
(-0.00228820494637 -0.00194866600939 0)
(-0.00238481961091 -0.000799425372301 0)
(-0.21351989577 0.0282396935138 0)
(-0.239200428255 0.100234928564 0)
(-0.23909221677 0.171990026398 5.05202925685e-27)
(-0.235930351244 0.243789598991 0)
(-0.230969173882 0.314161130145 0)
(-0.224971384424 0.382388269877 0)
(-0.219631147953 0.45116136076 0)
(-0.211550366474 0.513627642914 0)
(-0.205021107533 0.578552166867 0)
(-0.196444682015 0.637573588696 0)
(-0.185913577022 0.693257391761 0)
(-0.173072360514 0.744499179439 0)
(-0.161132454128 0.792004675865 0)
(-0.153023927737 0.841645889725 0)
(-0.144508414152 0.892290717163 0)
(-0.12921122988 0.931402559623 0)
(-0.112541432025 0.967865843835 0)
(-0.0956681999685 0.999456498664 0)
(-0.0791594282185 1.02568345962 0)
(-0.0621393549261 1.04645221278 0)
(-0.046440171389 1.06275704105 0)
(-0.0307723423168 1.07154595548 0)
(-0.0100890630688 1.08961723121 0)
(0.00634543356604 1.08599889056 0)
(0.0112385382752 1.09894585129 0)
(0.00342204365273 1.11314788505 0)
(0.000256027588568 1.12006931113 0)
(0.00794991037535 1.12880556058 0)
(0.0134082279827 1.12401369824 0)
(0.0217594432128 1.11377704267 0)
(0.0346689340654 1.1190810372 0)
(0.0500257850807 1.09311168 0)
(0.0713283944557 1.06765628239 0)
(0.0830300230154 1.03755148754 0)
(0.0918628750487 1.00406073578 0)
(0.106978652665 0.970501526812 0)
(0.117817110416 0.929943753594 0)
(0.133311588964 0.909373528925 0)
(0.136487699902 0.863619249176 0)
(0.140964398177 0.818889855439 0)
(0.138433415991 0.783196013434 0)
(0.131413638886 0.741077979555 0)
(0.138474106555 0.757521763473 0)
(0.138196438289 0.747067870516 0)
(0.137507300239 0.709445018041 0)
(0.150380749284 0.70729981705 0)
(0.160328940042 0.658337305873 0)
(0.160330043095 0.609634345489 0)
(0.160604111943 0.556452515798 0)
(0.154382423991 0.507565512516 0)
(0.138865937198 0.461009872549 0)
(0.13067786619 0.427544442693 0)
(0.130950782647 0.394130588468 0)
(0.157409113165 0.364531975992 0)
(0.144768034598 0.312633331658 0)
(0.108712129431 0.288366750003 0)
(0.0874699027196 0.284882177081 0)
(0.0819863743162 0.276894350173 0)
(0.0732686855028 0.264554227168 0)
(0.0603587437263 0.25185802576 0)
(0.0444882541951 0.247153005044 0)
(0.0282747482446 0.246446145089 0)
(0.0198049840237 0.248723081284 0)
(0.0134822738322 0.252988452338 0)
(0.00643195262138 0.256281657349 0)
(0.00249480956954 0.259063416064 0)
(0.00275893118668 0.259856211076 0)
(0.00618793256347 0.257218595634 0)
(0.0130051090652 0.249219230473 0)
(0.0233179822493 0.237495877442 0)
(0.0291166899316 0.218948157692 0)
(0.0293716860122 0.200445586416 0)
(0.0293846838921 0.173407333433 0)
(0.0215370739092 0.153388828376 0)
(0.00205015934546 0.132659312877 0)
(-0.00704920761432 0.122072889573 0)
(-0.0057438115255 0.119199316381 0)
(-0.00374870512145 0.113745487014 0)
(0.00622972930068 0.108107031446 0)
(0.0141186641858 0.0971444786116 0)
(0.0150460142117 0.0825953765457 0)
(0.0199169371153 0.0694497375807 0)
(0.0197848761666 0.0530306629581 0)
(0.0156992651708 0.0410109768498 0)
(0.0134179122958 0.0306659366961 0)
(0.0121578821448 0.0215023144134 0)
(0.010449596982 0.0122181391401 0)
(0.00783990575827 0.00623858073434 0)
(0.00652048648554 0.0023980524239 0)
(0.00480967739215 -0.0012696418996 0)
(0.00286436054926 -0.00326734693818 0)
(0.00118415044124 -0.00368433951305 0)
(-0.000560901461914 -0.0037811029788 0)
(-0.00184359528514 -0.00298303084572 0)
(-0.00306901858746 -0.00216720200484 0)
(-0.0035082144957 -0.000868111566635 0)
(-0.279114502444 0.0283016223684 0)
(-0.312739926906 0.102086879613 0)
(-0.312341572004 0.175067964897 0)
(-0.308169541656 0.248349519665 0)
(-0.302050008851 0.320102278955 0)
(-0.294851138222 0.390416579848 0)
(-0.286006622421 0.457345590617 0)
(-0.279229892532 0.528038075095 0)
(-0.267558974298 0.589616564821 0)
(-0.254793570263 0.650016953941 0)
(-0.240599802926 0.707057145763 0)
(-0.225510691808 0.759054663017 0)
(-0.215111476208 0.81349860378 0)
(-0.206483461862 0.86901008351 0)
(-0.189087776523 0.912166860563 0)
(-0.167632966335 0.952385892971 0)
(-0.145802057751 0.988404893119 0)
(-0.12357511084 1.01898401733 0)
(-0.103862059826 1.04699575506 0)
(-0.0859023881265 1.06865130669 0)
(-0.0669683863344 1.10000034087 0)
(-0.0463082819416 1.11250340043 0)
(-0.0213015888937 1.11609338197 0)
(-0.00826540107565 1.1303145239 0)
(-0.0159558660699 1.1427494647 0)
(-0.0188510744914 1.17652830261 0)
(-0.0129090430042 1.16975136646 0)
(-0.000675717796137 1.19191671653 0)
(0.0160063171076 1.18407396512 0)
(0.0300407165944 1.1735292647 0)
(0.0527277704781 1.151597422 0)
(0.0735294483475 1.12795378004 0)
(0.0882845421666 1.0990006101 0)
(0.107116221313 1.09924458877 0)
(0.126516217607 1.06607288324 0)
(0.149154666021 1.03056267415 0)
(0.15681669243 0.990803370839 0)
(0.166902962704 0.941284851245 0)
(0.171414607851 0.937569854243 0)
(0.161433787235 0.894787306389 0)
(0.165823704958 0.943901672699 0)
(0.146158404176 0.90443477118 0)
(0.150973169891 0.920062417963 0)
(0.173288024856 0.876446767643 0)
(0.178115947172 0.837289581004 0)
(0.176470409254 0.800626429445 0)
(0.181814387567 0.754627779776 0)
(0.199952673523 0.754433052356 0)
(0.225823880967 0.70234999809 0)
(0.229901720499 0.65466287227 0)
(0.210710197167 0.599228873544 0)
(0.180206800365 0.563388713547 0)
(0.141300439677 0.548714296343 0)
(0.138109138015 0.509073272447 0)
(0.12763030873 0.509766071062 0)
(0.0892743905629 0.504180233688 0)
(0.0672492742014 0.541829571648 0)
(0.0713663655156 0.56285543508 0)
(0.056155978067 0.596656378221 0)
(0.0380728592573 0.609455332135 0)
(0.0116801187838 0.66044164926 0)
(-0.0128332295242 0.686819839974 0)
(-0.0193864106485 0.711583798889 0)
(-0.0300062941458 0.761972673778 0)
(-0.0382197612011 0.777157712581 0)
(-0.0402210687207 0.78222260956 0)
(-0.0375683260916 0.779342101032 0)
(-0.0315142079671 0.768898410779 0)
(-0.0223780101804 0.750550598609 0)
(-0.00990183316733 0.725327800877 0)
(0.00258748303986 0.692587334186 0)
(0.0163856178887 0.655516128132 0)
(0.0214641997133 0.611892501201 0)
(0.014229525016 0.557663314628 0)
(0.00873291565063 0.505812329706 0)
(-0.000207325603098 0.422209064443 0)
(-0.0156539923946 0.361011475836 0)
(-0.0193310424114 0.301767239233 0)
(-0.00122532926723 0.256246190242 0)
(0.0170580997222 0.218202881117 0)
(0.0295022788406 0.176731170412 0)
(0.0392998584745 0.136082996123 0)
(0.0319222248946 0.102061689894 0)
(0.0219536977904 0.0728278252227 0)
(0.019139030322 0.0555483476957 0)
(0.0185990256806 0.0385529914433 0)
(0.0204029970117 0.0233552009413 0)
(0.0169559046658 0.0125712162088 0)
(0.010823085786 0.00431252020611 0)
(0.00622187313034 -0.00244002737129 0)
(0.00284028179051 -0.00493237633598 0)
(0.000817813045084 -0.00485166750769 0)
(-0.00119256116293 -0.00453420456537 0)
(-0.00310611029512 -0.0039415311325 0)
(-0.00393106682322 -0.00238102105914 0)
(-0.00461485337769 -0.000925576789651 0)
(-0.343626711974 0.0283280899282 0)
(-0.38833163161 0.104727565904 0)
(-0.387682488966 0.17923449697 0)
(-0.382101465065 0.254370621095 0)
(-0.374278788709 0.327733892009 0)
(-0.36567236028 0.399639981889 0)
(-0.358370346614 0.472969569761 0)
(-0.344208132287 0.537669534974 0)
(-0.331421879903 0.604374535021 0)
(-0.314872847905 0.665306168174 0)
(-0.296540192629 0.723465447777 0)
(-0.282027699665 0.776591462199 0)
(-0.274374697238 0.842523830331 0)
(-0.255654419001 0.889526920862 0)
(-0.232417529933 0.934974315046 0)
(-0.207022523049 0.976432415463 0)
(-0.180503020795 1.01374533426 0)
(-0.156573226357 1.04510012715 0)
(-0.136248222304 1.0866289471 0)
(-0.113383898812 1.109687819 0)
(-0.0869805264879 1.12871217201 0)
(-0.0568616267848 1.14159997932 0)
(-0.0365260793973 1.14002692822 0)
(-0.0359755632326 1.17253483233 0)
(-0.0461410644613 1.20290833405 0)
(-0.0422844381675 1.20187829572 0)
(-0.0279823202811 1.22915565845 0)
(-0.00492752648707 1.22075706238 0)
(0.0218888098473 1.21370095568 0)
(0.0475043611849 1.20456696135 0)
(0.0686680901481 1.18289341632 0)
(0.0879578052947 1.18973681605 0)
(0.105499987 1.16106200279 0)
(0.128293655292 1.13366944124 0)
(0.15954886503 1.10429453165 0)
(0.183637899152 1.06529618518 0)
(0.194974081557 1.06285911681 0)
(0.183133313151 1.01416414804 0)
(0.180464791044 1.07207983694 0)
(0.156522569487 1.03712535227 0)
(0.160229864177 1.07190385091 0)
(0.170020936033 1.03798618855 0)
(0.180400644899 1.01793839699 0)
(0.192598934842 0.972397729906 0)
(0.213279951262 0.990912536537 0)
(0.224426626611 0.949616273289 0)
(0.211650625067 0.917583279365 0)
(0.195098491774 0.892198963949 0)
(0.208639429407 0.852657862024 0)
(0.240168108063 0.871299333593 0)
(0.250595617417 0.818511666673 0)
(0.205910049458 0.806259041497 0)
(0.124256649549 0.823427794824 0)
(0.058964283436 0.826840870244 0)
(0.0033625266703 0.947667577806 0)
(-0.0187052666744 1.01399499987 0)
(-0.0525375705136 1.17805525609 0)
(-0.0834392563523 1.30004315938 0)
(-0.136798188972 1.67272419898 0)
(-0.155481314391 1.839271341 0)
(-0.193957724414 2.33652823563 0)
(-0.180687378209 2.51076660007 0)
(-0.166548927021 2.66524470233 0)
(-0.202684276525 3.27602708187 0)
(-0.187707269574 3.40495513534 0)
(-0.162536306812 3.42890774763 0)
(-0.135777674079 3.40656146962 0)
(-0.10875221656 3.35439546138 0)
(-0.0803804715273 3.2770444135 0)
(-0.0499889439819 3.17749634463 0)
(-0.0184549886544 3.0578800747 0)
(0.0150821933337 2.92220343431 0)
(0.045349349533 2.77045988692 0)
(0.0777012541488 2.59722566842 0)
(0.123980103756 2.40508718022 0)
(0.143080094566 2.14552877305 0)
(0.115516720773 1.57150080624 0)
(0.0975802558163 1.12374059545 0)
(0.0866805810904 0.824261387031 0)
(0.0880241486859 0.691227793837 0)
(0.0809445226618 0.514105769348 0)
(0.0706272668258 0.412968184457 0)
(0.0495389073989 0.314413956852 0)
(0.0247593837616 0.206841679514 0)
(0.01599761196 0.139998103832 0)
(0.0292872726191 0.0963336065756 0)
(0.033162520014 0.0561341046746 0)
(0.0261247360875 0.0262797772132 0)
(0.015512116084 0.00653930050258 0)
(0.00925241082385 -0.00377680820258 0)
(0.00372983525294 -0.00616887974996 0)
(0.000472708154593 -0.00563715132987 0)
(-0.00184533382846 -0.00510746000672 0)
(-0.00464667675062 -0.00473740060708 0)
(-0.00547357629919 -0.00274122521712 0)
(-0.00595180099891 -0.000995908276425 0)
(-0.41207606239 0.0289974938562 0)
(-0.465861969556 0.108584790495 0)
(-0.464954186829 0.184735712721 5.10995408731e-27)
(-0.458145484141 0.262147696058 0)
(-0.449389269889 0.337515262804 0)
(-0.441796655786 0.414684131586 0)
(-0.428632402318 0.487433489062 0)
(-0.412113375516 0.554453931204 0)
(-0.397533182186 0.623513179646 0)
(-0.376291004902 0.685836524118 0)
(-0.356424981417 0.743886895879 0)
(-0.347841170066 0.813940526869 0)
(-0.328729330622 0.865453556384 0)
(-0.304142739349 0.914668744798 0)
(-0.277554837687 0.961697475886 0)
(-0.247635601164 1.00514587972 0)
(-0.219646226011 1.04260872021 0)
(-0.197498176586 1.08899062958 0)
(-0.167969284379 1.11731558992 0)
(-0.135188354445 1.14156707625 0)
(-0.102228084957 1.16091034027 0)
(-0.0697521939195 1.16935172202 0)
(-0.0702888074093 1.1862826305 0)
(-0.082666288432 1.23665735513 0)
(-0.0722706006775 1.26234662131 0)
(-0.0558273567303 1.26463981431 0)
(-0.0301494493053 1.26504019946 0)
(0.00525472962122 1.2545666591 0)
(0.0311030446612 1.24822320476 0)
(0.0488595565929 1.23459512712 0)
(0.0697683237862 1.24853251108 0)
(0.0994791599161 1.22380250907 0)
(0.136679364126 1.19750759668 0)
(0.161899469811 1.17182692855 0)
(0.181336104668 1.14087007475 0)
(0.194709358187 1.13961338315 0)
(0.194706222288 1.14246508799 0)
(0.168587451629 1.15576127726 0)
(0.166362041519 1.19705398963 0)
(0.176712963884 1.1728289914 0)
(0.17768440839 1.16236919918 0)
(0.172968729187 1.13396018633 0)
(0.196583334537 1.18073911203 0)
(0.212350778275 1.1396078692 0)
(0.20943197964 1.12080235584 0)
(0.195810254041 1.08573973969 0)
(0.207780092857 1.13981216869 0)
(0.200210799755 1.12305412533 0)
(0.191320706941 1.10657472686 0)
(0.182865967857 1.10538900336 0)
(0.161965547147 1.07431885814 0)
(0.101268570167 1.22320062768 0)
(-0.00838206848963 1.32316230119 0)
(-0.169112644944 1.48105446122 0)
(-0.308360279119 1.87169189059 0)
(-0.356391307941 2.15539983224 0)
(-0.460999902791 2.85283981162 0)
(-0.520231825818 3.20336538356 0)
(-0.647210360088 4.10225063308 0)
(-0.606144022891 4.37605488873 0)
(-0.512828563844 4.58948331421 0)
(-0.388063812009 4.6971009411 0)
(-0.306496036954 4.78472612151 0)
(-0.242943204865 4.90876062593 0)
(-0.172544050632 4.9277251984 0)
(-0.113379929024 4.8966587111 0)
(-0.0628509255652 4.83128722763 0)
(-0.0170806175404 4.73794793544 0)
(0.0268289439122 4.62011243267 0)
(0.070675243878 4.4808124961 0)
(0.115304801757 4.32269423395 0)
(0.162398325934 4.1490333641 0)
(0.212027686537 3.96138443225 0)
(0.269592883783 3.75891175398 0)
(0.340589462712 3.54747422821 0)
(0.408541139943 3.31853638141 0)
(0.465239219591 3.03747697651 0)
(0.493941939769 2.76520905239 0)
(0.464005566425 2.50901581493 0)
(0.41856176191 2.2659446092 0)
(0.369344285714 1.99269493707 0)
(0.30840197918 1.70263692922 0)
(0.270885660971 1.37276767757 0)
(0.200866940958 0.889430405101 0)
(0.119014352024 0.484196762943 0)
(0.0845885558519 0.305456734229 0)
(0.0636752092911 0.19259488058 0)
(0.0349653582539 0.0894867560374 0)
(0.0190141112768 0.032065553516 0)
(0.0156822616518 0.00649622157188 0)
(0.00629079660663 -0.00492600447103 0)
(0.000482526576633 -0.0066833379459 0)
(-0.00236861995357 -0.00581605695644 0)
(-0.00580117271412 -0.00507379572508 0)
(-0.00761399592162 -0.00312327599607 0)
(-0.00775735327439 -0.00108194904427 0)
(-0.482113581537 0.0295176213089 0)
(-0.54551950804 0.112740425286 0)
(-0.544469966919 0.191125047631 -5.10412031071e-27)
(-0.536298941972 0.270715539727 0)
(-0.526897420363 0.349503639018 0)
(-0.517808993597 0.429650936929 0)
(-0.501376412998 0.504333101282 0)
(-0.48198287407 0.57429151808 0)
(-0.465655233193 0.646403617586 0)
(-0.441821154271 0.709317046224 0)
(-0.42515494769 0.777559944616 0)
(-0.406448870728 0.839336754355 0)
(-0.379728456772 0.891170300283 0)
(-0.351866067899 0.943211587358 0)
(-0.323698147786 0.993883562755 0)
(-0.293253744799 1.03852472712 0)
(-0.266654223568 1.09099325 0)
(-0.233112493052 1.12409671923 0)
(-0.195413802818 1.15332999248 0)
(-0.156870192213 1.17775790062 0)
(-0.116618711841 1.19691333436 0)
(-0.101861188138 1.19378487338 0)
(-0.120452493495 1.27403542923 0)
(-0.118693114352 1.26557376108 0)
(-0.0952993488788 1.29861118648 0)
(-0.0599628992271 1.29970887663 0)
(-0.0239625290596 1.30257325304 0)
(0.00483123599524 1.29412937328 0)
(0.0275378547134 1.32022880808 0)
(0.0498283612648 1.3081530015 0)
(0.0820623917513 1.29317213769 0)
(0.12583049403 1.27095689994 0)
(0.156639739977 1.24102457287 0)
(0.184688181844 1.2513157664 0)
(0.192303828667 1.21890138793 0)
(0.184611855555 1.22713922454 0)
(0.165596377604 1.23795360482 0)
(0.143358128852 1.28132837552 0)
(0.158989232376 1.28166451553 0)
(0.176549151189 1.26743158064 0)
(0.185871618128 1.32050214278 0)
(0.166686183867 1.30614698944 0)
(0.178405918936 1.30815751837 0)
(0.189088859595 1.27738646311 0)
(0.18985008718 1.3363048487 0)
(0.154439330632 1.31882016384 0)
(0.160839650024 1.3125584113 0)
(0.153536218424 1.32515662009 0)
(0.0885079810662 1.33662036027 0)
(0.0399509165943 1.51049468492 0)
(-0.0945234158393 1.60095036276 0)
(-0.237780896201 1.98233606012 0)
(-0.40278701558 2.29475776179 0)
(-0.70148275649 3.02815056244 0)
(-0.866441327058 3.54519646485 0)
(-1.06691701034 4.5594896773 0)
(-1.03948456918 5.03949207233 0)
(-0.952058991727 5.28574856922 0)
(-0.859263697278 5.52117960573 0)
(-0.712079142442 5.60296237766 0)
(-0.560792903549 5.64288379565 0)
(-0.41075462986 5.647885365 0)
(-0.291171539583 5.63850248754 0)
(-0.19295847021 5.61559297788 0)
(-0.10352923243 5.55752954733 0)
(-0.026064308269 5.47337296334 0)
(0.0417782601325 5.36726885704 0)
(0.103429968296 5.2415365425 0)
(0.161798149375 5.09805507074 0)
(0.218989334211 4.93870959499 0)
(0.276609814381 4.7653196058 0)
(0.336568848046 4.58033446979 0)
(0.399680052504 4.38536268576 0)
(0.469086524698 4.18324477376 0)
(0.545600824502 3.97991732527 0)
(0.619590750703 3.77648292187 0)
(0.680458340523 3.56762884451 0)
(0.714231730601 3.35846931818 0)
(0.705357826488 3.14092670892 0)
(0.674958684622 2.90487271579 0)
(0.636217461684 2.64043193236 0)
(0.5994538313 2.3512470997 0)
(0.586372351498 2.04689164247 0)
(0.570120810468 1.7296618134 0)
(0.502868455539 1.41498232991 0)
(0.3927019718 1.1159669112 0)
(0.296051191244 0.805529429406 0)
(0.184124547874 0.438043963496 0)
(0.0801734584298 0.160061308858 0)
(0.0369729506544 0.0576362933559 0)
(0.0122575260368 0.0056420516363 0)
(0.0012875056185 -0.00523461360643 0)
(-0.0038061478186 -0.00701608212093 0)
(-0.00661604087373 -0.00502839200129 0)
(-0.00987965100514 -0.00317149235021 0)
(-0.00974566731133 -0.00109460250804 0)
(-0.554909349638 0.0300112132319 0)
(-0.628118427338 0.117550843248 0)
(-0.626910236098 0.198913576858 0)
(-0.617681685694 0.281246150723 0)
(-0.611157428909 0.365647640222 0)
(-0.596541916863 0.446510197653 0)
(-0.576996172746 0.524409042998 0)
(-0.554718745871 0.596989249768 0)
(-0.5363761487 0.671430364575 0)
(-0.511471346522 0.736371242618 0)
(-0.490828083626 0.80655452938 0)
(-0.465580867673 0.86934238465 0)
(-0.436095947754 0.924872008043 0)
(-0.411120030156 0.992649267853 0)
(-0.377207022572 1.04438126888 0)
(-0.343183653137 1.09196733609 0)
(-0.306213198612 1.13166634924 0)
(-0.265289519131 1.16473017361 0)
(-0.223327912966 1.19462641936 0)
(-0.179394548836 1.22202685243 0)
(-0.144951318077 1.22873061917 0)
(-0.153106778484 1.29159067249 0)
(-0.157960058248 1.30520028304 0)
(-0.143152713514 1.33627785148 0)
(-0.108751818174 1.34010092682 0)
(-0.064138120716 1.34453307138 0)
(-0.032377191301 1.34212553212 0)
(-0.0117739697972 1.37038084886 0)
(0.0201985407767 1.36153593941 0)
(0.0621765568257 1.35359358953 0)
(0.10668893455 1.33948305218 0)
(0.140228453891 1.31292112203 0)
(0.166536079298 1.32488285314 0)
(0.185813968692 1.29522871619 0)
(0.187199699706 1.31049245141 0)
(0.164029361985 1.328068249 0)
(0.15293880606 1.36211938201 0)
(0.14036463767 1.36635582363 0)
(0.13504603816 1.37004217966 0)
(0.145554080662 1.44536304817 0)
(0.168763183561 1.41813240869 0)
(0.163630541053 1.42086865203 0)
(0.126172496993 1.41944390356 0)
(0.113918851034 1.51376040134 0)
(0.129216874619 1.48752062659 0)
(0.104482200457 1.5078807746 0)
(0.0599850829709 1.51941183719 0)
(0.0170801849927 1.70184311918 0)
(-0.127295577599 1.8126799361 0)
(-0.281899055361 1.93826757923 0)
(-0.54742659699 2.43002907702 0)
(-0.727683102863 2.75036562108 0)
(-1.03869739874 3.67073652016 0)
(-1.18984833316 4.21031796352 0)
(-1.44974481723 5.36981321838 0)
(-1.39554308669 5.82959361427 0)
(-1.22066944573 6.03433663994 0)
(-1.03455186945 6.10710222795 0)
(-0.859705124241 6.12353947541 0)
(-0.678063573222 6.08595821662 0)