/*--------------------------------*- C++ -*----------------------------------*\
| =========                 |                                                 |
| \\      /  F ield         | OpenFOAM: The Open Source CFD Toolbox           |
|  \\    /   O peration     | Version:  v1906                                 |
|   \\  /    A nd           | Web:      www.OpenFOAM.com                      |
|    \\/     M anipulation  |                                                 |
\*---------------------------------------------------------------------------*/
FoamFile
{
    version     2.0;
    format      ascii;
    class       volVectorField;
    location    "821";
    object      U;
}
// * * * * * * * * * * * * * * * * * * * * * * * * * * * * * * * * * * * * * //

dimensions      [0 1 -1 0 0 0 0];


internalField   nonuniform List<vector> 
9216
(
(0.00156820163061 -0.00156951642775 0)
(0.00160827550485 -0.00489115699187 6.54249451973e-28)
(0.00159695117059 -0.00822097898142 1.08885393876e-31)
(0.00157382377398 -0.0115308131757 0)
(0.00154270903589 -0.0147820034364 0)
(0.00150444340196 -0.0179605512455 0)
(0.00145984323679 -0.0210524356716 0)
(0.00140974335959 -0.0240453182642 0)
(0.00135489083253 -0.0269285304854 0)
(0.00129612537837 -0.0296930270712 0)
(0.0012341570021 -0.0323314192424 0)
(0.00116977246327 -0.0348378497494 0)
(0.00110357699502 -0.037207951301 0)
(0.00103624484938 -0.0394386600367 0)
(0.000968232903102 -0.041528126119 0)
(0.000900075303014 -0.0434755004907 0)
(0.000832068781839 -0.0452808315099 0)
(0.000764607991148 -0.0469448557138 0)
(0.000697841366323 -0.0484689041617 0)
(0.00063204257026 -0.0498547158826 0)
(0.00056723584524 -0.0511043665266 0)
(0.000503599639327 -0.0522201131706 0)
(0.000441062032859 -0.053204347821 0)
(0.000379732770376 -0.054059474408 0)
(0.00031947031191 -0.0547878851962 0)
(0.000260339306064 -0.0553918683322 0)
(0.000202152482254 -0.0558736026243 0)
(0.00014495022452 -0.0562350930715 0)
(8.85211388877e-05 -0.0564781812799 0)
(3.29008494508e-05 -0.0566045077669 0)
(-2.21254204929e-05 -0.0566155400757 0)
(-7.65114215611e-05 -0.0565125578718 0)
(-0.000130453821216 -0.0562966845251 0)
(-0.000183869317107 -0.0559689239033 0)
(-0.000236911894882 -0.0555302052051 0)
(-0.00028944505991 -0.0549814365391 0)
(-0.000341559702827 -0.0543235703382 0)
(-0.000393048966287 -0.0535576832273 0)
(-0.000443925324531 -0.0526850471729 0)
(-0.000493905231456 -0.0517072269041 0)
(-0.000542921454039 -0.0506261412213 0)
(-0.000590624951613 -0.0494441623953 0)
(-0.000636885907999 -0.0481641435631 0)
(-0.000681320540814 -0.0467895040616 0)
(-0.00072376849778 -0.0453242002402 0)
(-0.000763851562425 -0.0437727948604 0)
(-0.000801405799125 -0.0421403648856 0)
(-0.000836080942876 -0.0404325849544 0)
(-0.000867696706395 -0.0386556020495 0)
(-0.00089589934065 -0.0368162014715 0)
(-0.000920412313942 -0.0349217115158 0)
(-0.00094078577595 -0.0329803253105 0)
(-0.000956530143316 -0.0310010802745 0)
(-0.000967021559783 -0.028994312153 0)
(-0.000971539779528 -0.0269716332794 0)
(-0.000969386881235 -0.0249462917437 0)
(-0.000959851073758 -0.0229329143209 0)
(-0.000942505612418 -0.0209474519293 0)
(-0.00091705033824 -0.0190065606204 0)
(-0.00088369914879 -0.017127086905 0)
(-0.000842940198053 -0.0153251117895 0)
(-0.000795841853633 -0.0136150831883 0)
(-0.000743548494599 -0.012009101626 0)
(-0.000687582753585 -0.0105164297172 0)
(-0.000629214948969 -0.00914334465918 0)
(-0.000569608203202 -0.00789355257513 0)
(-0.000509743078967 -0.00676864706762 0)
(-0.000450918274863 -0.00576783731849 0)
(-0.000394368922344 -0.00488770091586 0)
(-0.000341351301802 -0.00412211125585 0)
(-0.000292720556906 -0.00346273822433 0)
(-0.000249096389144 -0.00289965236822 0)
(-0.000210646260565 -0.00242214344066 0)
(-0.000177307478774 -0.00201936673351 0)
(-0.000148656312022 -0.00168104051686 0)
(-0.000124137532924 -0.00139791662997 0)
(-0.000103051473358 -0.00116213905107 0)
(-8.48733815186e-05 -0.00096715745702 0)
(-6.9267568598e-05 -0.000807328891404 0)
(-5.60877651287e-05 -0.000677437838544 0)
(-4.50961556184e-05 -0.00057265389592 0)
(-3.60149483137e-05 -0.000488676210278 0)
(-2.84963137892e-05 -0.000421855430371 0)
(-2.20732755279e-05 -0.000369651379951 0)
(-1.59030510431e-05 -0.00032509378777 0)
(-1.305309014e-05 -0.000299022258714 0)
(-1.18249686891e-05 -0.000273016429088 0)
(-9.88835399895e-06 -0.000251154433787 0)
(-9.84932442423e-06 -0.000233292173206 0)
(-1.08816949004e-05 -0.00021237829121 0)
(-1.12216497729e-05 -0.00019096393498 0)
(-1.19683527676e-05 -0.000167062994542 0)
(-1.43863727488e-05 -0.000139493538121 0)
(-1.71236797725e-05 -0.00010770270549 0)
(-2.0090601268e-05 -6.75474407093e-05 0)
(-2.21728150576e-05 -2.18217928163e-05 0)
(0.00490351883611 -0.00162603280398 0)
(0.00516634908555 -0.00520556976277 0)
(0.00512712120387 -0.00875378832147 -6.72743176634e-28)
(0.00505118483237 -0.012283096255 0)
(0.00495015274821 -0.0157465010019 0)
(0.00482661701088 -0.0191308779231 0)
(0.00468290690825 -0.0224216171557 0)
(0.00452155229001 -0.0256056934425 0)
(0.0043450226534 -0.0286717918799 0)
(0.00415593248026 -0.0316103620365 0)
(0.00395667230981 -0.0344136276141 0)
(0.00374967154331 -0.0370754907854 0)
(0.0035369954019 -0.03959144255 0)
(0.00332068861058 -0.0419583934771 0)
(0.00310234853079 -0.0441745332677 0)
(0.00288354790072 -0.0462391333256 0)
(0.00266538033482 -0.0481523952062 0)
(0.00244895217761 -0.0499152586922 0)
(0.00223489320662 -0.0515292654314 0)
(0.00202390583722 -0.0529963921822 0)
(0.00181623492061 -0.0543189423289 0)
(0.001612264501 -0.0554994117893 0)
(0.00141194433055 -0.0565404108801 0)
(0.00121542670031 -0.0574445627022 0)
(0.00102245076607 -0.0582144524513 0)
(0.000833014370167 -0.0588525548394 0)
(0.000646720647739 -0.0593612063528 0)
(0.00046348057244 -0.0597425583151 0)
(0.000282828194085 -0.0599985686763 0)
(0.000104650165744 -0.0601309796548 0)
(-7.15237174287e-05 -0.0601413249571 0)
(-0.000245771164569 -0.0600309371685 0)
(-0.000418498718534 -0.0598009836503 0)
(-0.000589676421452 -0.0594524835035 0)
(-0.000759573908378 -0.0589863651501 0)
(-0.000927988720807 -0.0584035236945 0)
(-0.00109498609799 -0.0577048936694 0)
(-0.0012601337935 -0.0568915325396 0)
(-0.00142324489785 -0.0559647067865 0)
(-0.00158363311226 -0.0549259900657 0)
(-0.00174085635027 -0.0537773465524 0)
(-0.00189400644595 -0.0525212245363 0)
(-0.00204244557301 -0.0511606116213 0)
(-0.00218514079927 -0.0496991006489 0)
(-0.00232137114991 -0.0481408918379 0)
(-0.00245010904397 -0.0464908193658 0)
(-0.00257065343376 -0.0447542952663 0)
(-0.0026820538679 -0.0429373192162 0)
(-0.00278360636769 -0.0410464038631 0)
(-0.00287432731384 -0.0390886415813 0)
(-0.00295325934916 -0.0370716983939 0)
(-0.00301905513357 -0.0350040353602 0)
(-0.00307011036518 -0.0328950475581 0)
(-0.00310440968123 -0.0307554497428 0)
(-0.0031196095098 -0.0285974739145 0)
(-0.00311332898813 -0.0264351775276 0)
(-0.00308326453231 -0.0242843561817 0)
(-0.00302785078721 -0.0221623620725 0)
(-0.00294615661865 -0.0200875380337 0)
(-0.00283865986795 -0.0180785874491 0)
(-0.00270712076278 -0.0161534697865 0)
(-0.00255491280868 -0.0143282039304 0)
(-0.00238599065901 -0.0126161012449 0)
(-0.00220528887597 -0.0110271119255 0)
(-0.00201719534622 -0.00956750950957 0)
(-0.00182508682965 -0.00824091254379 0)
(-0.00163210470124 -0.00704914728609 0)
(-0.00144232646612 -0.00599164329249 0)
(-0.001260005625 -0.00506472968718 0)
(-0.00108920688244 -0.0042615096148 0)
(-0.000932852297511 -0.0035724753738 0)
(-0.000792841203087 -0.00298636593323 0)
(-0.000669773987609 -0.00249109723549 0)
(-0.000563321405868 -0.0020745392758 0)
(-0.000472120048717 -0.00172526621016 0)
(-0.000394191641123 -0.00143318099899 0)
(-0.00032718403483 -0.00118999040114 0)
(-0.000269258347695 -0.000989136901876 0)
(-0.000219463758337 -0.000825037958534 0)
(-0.000177452084168 -0.000692267412878 0)
(-0.000142542520561 -0.000585565086888 0)
(-0.000113804893739 -0.00050024862018 0)
(-9.02321892296e-05 -0.000432310811952 0)
(-7.08594106657e-05 -0.00037835062394 0)
(-5.4309069716e-05 -0.000333384224569 0)
(-4.30707151835e-05 -0.000292650331938 0)
(-3.56964581606e-05 -0.000266782495632 0)
(-2.96547806334e-05 -0.000246064972697 0)
(-2.87696275526e-05 -0.000225292166196 0)
(-3.12933980738e-05 -0.000208945931636 0)
(-3.3382912175e-05 -0.00019115336333 0)
(-3.70847745314e-05 -0.000166133051351 0)
(-4.31399944087e-05 -0.000137699651688 0)
(-5.57915532389e-05 -0.000110660319769 0)
(-7.07927389542e-05 -7.1607729673e-05 0)
(-6.56915590658e-05 -1.97781759678e-05 0)
(0.00829820076221 -0.00164729372856 0)
(0.00874743244686 -0.0052707210714 0)
(0.00867350066666 -0.00885564079945 -6.71791190641e-28)
(0.00854173089707 -0.0124241566635 0)
(0.00836858575568 -0.0159245948696 0)
(0.008157645939 -0.0193431761673 0)
(0.00791269129911 -0.0226648375248 0)
(0.00763790062969 -0.0258763283749 0)
(0.00733757926407 -0.0289662334361 0)
(0.00701611158526 -0.0319250261225 0)
(0.00667769821291 -0.0347450453389 0)
(0.00632637697136 -0.037420397856 0)
(0.00596578903481 -0.0399468321625 0)
(0.00559927607031 -0.0423215650086 0)
(0.00522967757556 -0.0445431063141 0)
(0.00485949751106 -0.0466110611074 0)
(0.00449072130758 -0.0485259496618 0)
(0.0041250354993 -0.0502890208303 0)
(0.00376364803375 -0.0519020943773 0)
(0.00340754333028 -0.0533674044735 0)
(0.00305729195436 -0.0546874756602 0)
(0.0027133276991 -0.0558650019462 0)
(0.00237573839084 -0.0569027567746 0)
(0.00204455706761 -0.0578035051168 0)
(0.00171953140813 -0.0585699429767 0)
(0.00140042570926 -0.0592046373366 0)
(0.00108677081225 -0.0597099895687 0)
(0.000778176340753 -0.0600881986076 0)
(0.000474065515481 -0.0603412448262 0)
(0.000173998035619 -0.0604708745871 0)
(-0.000122604189969 -0.0604786047295 0)
(-0.000416123359556 -0.0603657279801 0)
(-0.000707025987462 -0.0601333379097 0)
(-0.000995521216578 -0.0597823635913 0)
(-0.00128184323796 -0.0593136187807 0)
(-0.00156590664948 -0.0587278626357 0)
(-0.00184759535303 -0.0580258760443 0)
(-0.00212642571508 -0.0572085491489 0)
(-0.00240184722243 -0.0562769778477 0)
(-0.00267292818144 -0.0552325676089 0)
(-0.0029386761556 -0.0540771336455 0)
(-0.00319776002511 -0.0528129987318 0)
(-0.00344885183157 -0.0514430679359 0)
(-0.00369038923095 -0.0499708890924 0)
(-0.00392092094717 -0.0484006696621 0)
(-0.00413889149869 -0.0467372753233 0)
(-0.00434294033646 -0.0449861759009 0)
(-0.00453166471932 -0.0431533950043 0)
(-0.00470379625029 -0.0412454283842 0)
(-0.00485789716144 -0.039269227884 0)
(-0.0049923615168 -0.0372322123675 0)
(-0.00510507716094 -0.0351424339203 0)
(-0.00519332909434 -0.0330088213841 0)
(-0.00525364429325 -0.0308416097853 0)
(-0.00528189001776 -0.0286527660559 0)
(-0.005273652508 -0.0264563999716 0)
(-0.00522476673727 -0.0242688642475 0)
(-0.00513213498922 -0.0221084759498 0)
(-0.00499400334013 -0.0199949747661 0)
(-0.00481069810186 -0.0179489527997 0)
(-0.00458554537849 -0.0159903938457 0)
(-0.00432447234813 -0.014136843033 0)
(-0.00403468329218 -0.0124027154921 0)
(-0.00372525871426 -0.0107982804298 0)
(-0.00340447344534 -0.00932863790697 0)
(-0.00307688457134 -0.00799646962371 0)
(-0.00274731197192 -0.00680416761397 0)
(-0.00242274910861 -0.00575200799686 0)
(-0.00211122414113 -0.00483634495505 0)
(-0.00182005938662 -0.00404933883291 0)
(-0.00155454027512 -0.00337997170269 0)
(-0.00131777885385 -0.00281536975184 0)
(-0.00111076429964 -0.00234192214677 0)
(-0.000932717550672 -0.00194614129233 0)
(-0.000781145814364 -0.00161545347951 0)
(-0.00065218867285 -0.00133904649788 0)
(-0.000541248938754 -0.00110871879017 0)
(-0.000444705307422 -0.000918921067158 0)
(-0.000361350290296 -0.000765155502606 0)
(-0.000291261813917 -0.000642153099926 0)
(-0.000233449649992 -0.000544198885276 0)
(-0.000186112716132 -0.000466396510103 0)
(-0.000147598243892 -0.000404832917222 0)
(-0.000116593163638 -0.000356386964372 0)
(-9.23708435941e-05 -0.000316131606637 0)
(-7.41531733835e-05 -0.00028078025206 0)
(-6.17791173273e-05 -0.000262544801951 0)
(-5.11589085959e-05 -0.000234741358759 0)
(-4.55848684541e-05 -0.000211244513826 0)
(-4.76907025332e-05 -0.000198141938315 0)
(-5.69502562778e-05 -0.000187495156048 0)
(-6.2028452908e-05 -0.000153846871517 0)
(-7.46958191691e-05 -0.000129541515266 0)
(-9.18894091965e-05 -9.61168289854e-05 0)
(-0.000107313305953 -5.83990912826e-05 0)
(-0.000106816862124 -1.81075775813e-05 0)
(0.0117582214661 -0.00167357604472 0)
(0.0123996778367 -0.00535300913285 0)
(0.0122929974242 -0.00899037373627 6.71701850467e-28)
(0.0121033392316 -0.0126101199268 0)
(0.0118544524808 -0.0161583439363 0)
(0.0115516477764 -0.0196204778543 0)
(0.0112004677428 -0.0229808634469 0)
(0.0108069758242 -0.0262259139958 0)
(0.0103774708085 -0.0293440885474 0)
(0.00991828413448 -0.0323259244742 0)
(0.00943552988317 -0.035163978267 0)
(0.00893498319992 -0.0378527007717 0)
(0.008421904947 -0.040388271159 0)
(0.00790101218517 -0.0427683962301 0)
(0.00737637592506 -0.044992100185 0)
(0.00685147048881 -0.0470595072346 0)
(0.00632912337728 -0.0489716367206 0)
(0.00581161772265 -0.0507302076072 0)
(0.00530066768927 -0.0523374663959 0)
(0.00479754833615 -0.0537960307691 0)
(0.00430307465798 -0.05510875883 0)
(0.00381774068918 -0.0562786336988 0)
(0.00334168921295 -0.0573086710883 0)
(0.0028748506726 -0.0582018389373 0)
(0.00241689887232 -0.0589609957838 0)
(0.00196738743288 -0.0595888376076 0)
(0.00152569279876 -0.0600878597374 0)
(0.00109115019329 -0.0604603249824 0)
(0.000662988445499 -0.0607082447323 0)
(0.000240469309029 -0.0608333657106 0)
(-0.000177180108365 -0.0608371716467 0)
(-0.000590621855944 -0.0607208882131 0)
(-0.00100047296038 -0.0604855041409 0)
(-0.00140715293523 -0.0601318080101 0)
(-0.00181094876092 -0.0596604354333 0)
(-0.00221185945412 -0.0590719328968 0)
(-0.00260966647022 -0.0583668384788 0)
(-0.00300378784447 -0.0575457772067 0)
(-0.00339336691817 -0.0566095698766 0)
(-0.00377715461299 -0.0555593511066 0)
(-0.00415363398127 -0.0543966892344 0)
(-0.00452094945333 -0.0531237014246 0)
(-0.00487707832456 -0.0517431494024 0)
(-0.00521981172152 -0.0502585090526 0)
(-0.00554695809583 -0.048673994878 0)
(-0.00585634403346 -0.0469945402906 0)
(-0.00614598674642 -0.0452257195936 0)
(-0.00641403178838 -0.0433736352073 0)
(-0.00665878375825 -0.0414447762863 0)
(-0.00687847576872 -0.039445910332 0)
(-0.00707106559747 -0.0373840427148 0)
(-0.00723383031966 -0.0352665407244 0)
(-0.00736302775554 -0.0331014554863 0)
(-0.00745362106382 -0.0308981033174 0)
(-0.00749931606396 -0.0286677971921 0)
(-0.00749310579679 -0.0264245870301 0)
(-0.00742824720558 -0.0241856117851 0)
(-0.00729965643419 -0.0219706645953 0)
(-0.00710413753441 -0.0198015434689 0)
(-0.00684109805243 -0.0177020634071 0)
(-0.00651587779627 -0.0156958149181 0)
(-0.00613776776755 -0.0138027221167 0)
(-0.00571746980088 -0.0120392721184 0)
(-0.00527043500114 -0.0104165029078 0)
(-0.00481076399457 -0.00893617586426 0)
(-0.00434136182116 -0.00759846102746 0)
(-0.00386719379954 -0.00640762390344 0)
(-0.00339896043237 -0.00536630104203 0)
(-0.00295008038015 -0.00447114415785 0)
(-0.00253229595711 -0.00371250234817 0)
(-0.00215358409711 -0.00307664208276 0)
(-0.00181817741734 -0.00254798752948 0)
(-0.00152723773951 -0.0021105434372 0)
(-0.0012793501205 -0.00174867753286 0)
(-0.00107057026253 -0.00144786337109 0)
(-0.000894403727104 -0.00119588230726 0)
(-0.000742557443557 -0.000984665678853 0)
(-0.000608457332785 -0.000811033629502 0)
(-0.00049148836006 -0.000673092376055 0)
(-0.000394018395285 -0.000565623209226 0)
(-0.000314746672902 -0.000481477800845 0)
(-0.000250245583124 -0.000415303069453 0)
(-0.000197923115442 -0.00036357098133 0)
(-0.000155999375667 -0.00032373850907 0)
(-0.000123447804126 -0.000289356412836 0)
(-0.000100828097881 -0.000264948062217 0)
(-8.4247913887e-05 -0.000245170402296 0)
(-7.16397820883e-05 -0.000220524412425 0)
(-6.66230326044e-05 -0.000205184985661 0)
(-6.52781984718e-05 -0.000182179701409 0)
(-7.38695430441e-05 -0.000161854415941 0)
(-9.27126677961e-05 -0.000147286926151 0)
(-0.000103781786027 -0.000110538724472 0)
(-0.000123435120819 -7.90876544818e-05 0)
(-0.0001425402753 -4.86166528958e-05 0)
(-0.000144896644234 -1.59475402022e-05 0)
(0.0152801498187 -0.00170875699746 0)
(0.0161136292984 -0.0054641763759 0)
(0.0159719637864 -0.00917435248636 0)
(0.0157208543765 -0.0128640174996 0)
(0.0153916057822 -0.0164771479433 0)
(0.0149915206224 -0.0199981839201 0)
(0.0145281790396 -0.0234107074102 0)
(0.0140098053225 -0.0267006928889 0)
(0.0134449187354 -0.0298564559217 0)
(0.0128420161177 -0.0328686541114 0)
(0.0122092767865 -0.0357301822383 0)
(0.0115543529073 -0.0384359999814 0)
(0.0108841912693 -0.040982913675 0)
(0.0102049469358 -0.0433693297749 0)
(0.00952191567302 -0.0455950008468 0)
(0.00883954807666 -0.0476607754104 0)
(0.00816145913643 -0.0495683649444 0)
(0.00749050405994 -0.0513201317093 0)
(0.00682882591316 -0.0529189036294 0)
(0.00617795720536 -0.0543678141702 0)
(0.00553887529481 -0.0556701690245 0)
(0.00491210582884 -0.0568293345631 0)
(0.00429776886825 -0.0578486479627 0)
(0.0036956731504 -0.0587313433288 0)
(0.00310534746846 -0.0594804936281 0)
(0.00252612435289 -0.0600989633474 0)
(0.00195715889213 -0.0605893723829 0)
(0.00139750611095 -0.0609540674102 0)
(0.000846133476026 -0.0611951023751 0)
(0.000301998638883 -0.061314225344 0)
(-0.000235936985589 -0.0613128778437 0)
(-0.000768624577172 -0.0611921968568 0)
(-0.00129690722922 -0.0609530326698 0)
(-0.00182142738913 -0.0605959844449 0)
(-0.00234260096602 -0.0601214454977 0)
(-0.00286051966079 -0.0595296695106 0)
(-0.00337492793108 -0.0588208564474 0)
(-0.00388513570721 -0.057995258394 0)
(-0.00439001765572 -0.0570533042112 0)
(-0.00488796167511 -0.0559957391616 0)
(-0.0053769185093 -0.0548237720796 0)
(-0.00585441530644 -0.0535392201092 0)
(-0.00631767925924 -0.0521446351791 0)
(-0.00676372938494 -0.0506433964626 0)
(-0.00718956506711 -0.0490397471047 0)
(-0.00759229780808 -0.0473387617885 0)
(-0.00796932398019 -0.0455462295929 0)
(-0.00831837332384 -0.043668461822 0)
(-0.00863749839781 -0.0417120421337 0)
(-0.00892484944354 -0.039683575929 0)
(-0.00917830559625 -0.0375895264571 0)
(-0.00939486920967 -0.0354362463244 0)
(-0.00957001136152 -0.0332303509914 0)
(-0.00969705699574 -0.030979524105 0)
(-0.0097670411347 -0.0286937631513 0)
(-0.00976938969033 -0.0263867297926 0)
(-0.00969359600754 -0.0240767006 0)
(-0.00953205893074 -0.0217855406422 0)
(-0.0092793055411 -0.0195374819246 0)
(-0.00893150153344 -0.0173616531299 0)
(-0.00849746889654 -0.0152879226687 0)
(-0.00799126142445 -0.0133391984683 0)
(-0.0074259936473 -0.0115360563019 0)
(-0.00682888767541 -0.00989216499228 0)
(-0.00622574559601 -0.00840007856255 0)
(-0.00560887317425 -0.00705334329366 0)
(-0.00497985009602 -0.00586214698381 0)
(-0.00435531689086 -0.00483521919072 0)
(-0.00375783691503 -0.0039699556694 0)
(-0.00320559910572 -0.00325307467332 0)
(-0.00270945246797 -0.00266604814388 0)
(-0.00227423235763 -0.00218918664158 0)
(-0.00190081268437 -0.00180323117893 0)
(-0.00158703957162 -0.00148958742706 0)
(-0.00132737301021 -0.00123060159522 0)
(-0.00111170007971 -0.00101111218455 0)
(-0.00092502250772 -0.000822837584048 0)
(-0.000754568569898 -0.00066790622206 0)
(-0.00060254968701 -0.000550761863483 0)
(-0.000478801510237 -0.000465449417526 0)
(-0.000381081534791 -0.00040045817952 0)
(-0.000302016872651 -0.000349600171001 0)
(-0.000237720239114 -0.000310604570581 0)
(-0.000186297517573 -0.000281744416638 0)
(-0.000145438496416 -0.000254827083197 0)
(-0.000122702715097 -0.00024406958602 0)
(-0.000106169312345 -0.000228933374524 0)
(-9.31875652822e-05 -0.000209381575895 0)
(-8.37349547605e-05 -0.000183544941071 0)
(-8.56694127576e-05 -0.000168224507721 0)
(-9.25955766402e-05 -0.00014370945873 0)
(-0.000115167596761 -0.000127897613581 0)
(-0.000141264368545 -0.000104044939311 0)
(-0.000153987659811 -6.87919758554e-05 0)
(-0.000168295308207 -4.09080679992e-05 0)
(-0.000171035100055 -1.35584463998e-05 0)
(0.0188852792572 -0.00175380119877 0)
(0.0199132612718 -0.00560720099545 0)
(0.0197332124725 -0.00941162846784 0)
(0.0194155354729 -0.0131913542259 0)
(0.0189994591731 -0.0168877288511 0)
(0.0184946034973 -0.0204839361729 0)
(0.0179109443009 -0.0239626148102 0)
(0.0172592276364 -0.0273092154004 0)
(0.0165505155131 -0.0305119237172 0)
(0.0157957551621 -0.0335616170506 0)
(0.0150054090826 -0.0364516965526 0)
(0.0141891753002 -0.039177845591 0)
(0.0133557844673 -0.0417377404287 0)
(0.0125128876622 -0.0441307388875 0)
(0.0116670050947 -0.0463575696276 0)
(0.0108235433388 -0.0484200376374 0)
(0.00998684413973 -0.0503207576427 0)
(0.00916027452891 -0.0520629205349 0)
(0.00834632082679 -0.0536500955129 0)
(0.00754670295429 -0.0550860659723 0)
(0.00676247387186 -0.0563746968788 0)
(0.00599412814415 -0.0575198286569 0)
(0.00524168640706 -0.0585251939311 0)
(0.00450478609834 -0.0593943519143 0)
(0.00378274584643 -0.0601306373537 0)
(0.00307463862278 -0.0607371199399 0)
(0.00237934037553 -0.0612165725094 0)
(0.00169559263933 -0.0615714454983 0)
(0.00102204439854 -0.0618038476657 0)
(0.000357314039266 -0.0619155316189 0)
(-0.000299965284153 -0.0619078904159 0)
(-0.000951075602565 -0.0617819538505 0)
(-0.00159715655465 -0.0615384019391 0)
(-0.00223912179523 -0.0611775961361 0)
(-0.0028775899848 -0.0606996213119 0)
(-0.00351279096982 -0.0601043525029 0)
(-0.00414449477953 -0.0593915460207 0)
(-0.0047719262269 -0.0585609571032 0)
(-0.00539371777612 -0.0576124845191 0)
(-0.00600786707652 -0.0565463389656 0)
(-0.0066117549412 -0.0553632280351 0)
(-0.00720219110466 -0.054064545342 0)
(-0.0077755399528 -0.0526525444846 0)
(-0.00832788575352 -0.0511304735374 0)
(-0.00885527189361 -0.0495026394902 0)
(-0.00935394978504 -0.0477743727399 0)
(-0.00982063721854 -0.0459518658277 0)
(-0.0102526832518 -0.0440418773569 0)
(-0.0106481009632 -0.0420513169863 0)
(-0.0110053444901 -0.0399867787973 0)
(-0.0113227722552 -0.0378541202932 0)
(-0.0115977673765 -0.0356583007373 0)
(-0.0118255295634 -0.0334036939056 0)
(-0.0119978657458 -0.0310951801382 0)
(-0.0121024197231 -0.0287401734503 0)
(-0.012123434741 -0.0263511821511 0)
(-0.0120444147846 -0.0239483179785 0)
(-0.0118551739947 -0.0215564078417 0)
(-0.0115475333473 -0.0192010166704 0)
(-0.0111070146233 -0.0169202538648 0)
(-0.0105514034594 -0.014755598984 0)
(-0.00990182799321 -0.0127312682857 0)
(-0.00916648550599 -0.010876916956 0)
(-0.00839836153137 -0.00921627114466 0)
(-0.00765342539396 -0.00771617393159 0)
(-0.00688584326218 -0.00635257448953 0)
(-0.00608650934472 -0.00515407363577 0)
(-0.00528490533721 -0.0041442916239 0)
(-0.00452141487302 -0.00332142791967 0)
(-0.00382387575213 -0.00266411741244 0)
(-0.00320520523524 -0.00214527351798 0)
(-0.00266916284381 -0.00173934548016 0)
(-0.0022154626283 -0.00142334849592 0)
(-0.00184149653133 -0.00117523603867 0)
(-0.00154088055342 -0.000972522482577 0)
(-0.00129935094545 -0.000793530943176 0)
(-0.00108894777414 -0.000627534136085 0)
(-0.00088139385498 -0.000488561810637 0)
(-0.000687059466483 -0.000397326587988 0)
(-0.000538324681321 -0.000344156173038 0)
(-0.000428267091694 -0.000304694091915 0)
(-0.000338750266075 -0.000271942180076 0)
(-0.000264671094162 -0.000247839823287 0)
(-0.000205867852524 -0.000231088088039 0)
(-0.000159229278265 -0.000215046026597 0)
(-0.000134820883878 -0.000211627687537 0)
(-0.000116190618152 -0.000198823537705 0)
(-0.000108390156412 -0.000190350823443 0)
(-0.000106116100028 -0.000177971588426 0)
(-0.000111305424265 -0.00016303242821 0)
(-0.000114117262304 -0.000132000841177 0)
(-0.000132363057547 -0.000109158875766 0)
(-0.000166069188359 -9.30024579897e-05 0)
(-0.000184608933752 -6.54144772869e-05 0)
(-0.000194270052918 -3.79645194102e-05 0)
(-0.000197907881475 -1.26369801359e-05 0)
(0.0225953293829 -0.00180987598041 0)
(0.0238214283677 -0.00578538783847 0)
(0.0235983876839 -0.00970725840469 6.66933599021e-28)
(0.0232072867777 -0.0135988296827 0)
(0.022695806063 -0.017398112276 0)
(0.0220763252174 -0.0210867003208 0)
(0.0213616941315 -0.0246460839139 0)
(0.0205656546186 -0.0280611223338 0)
(0.0197022402221 -0.0313199291012 0)
(0.0187852137005 -0.0344137613088 0)
(0.0178276021556 -0.0373367629433 0)
(0.0168413504678 -0.0400856255314 0)
(0.0158370900323 -0.042659202352 0)
(0.0148240186736 -0.0450581103017 0)
(0.0138098697557 -0.0472843464457 0)
(0.0128009562081 -0.0493409377665 0)
(0.0118022623844 -0.0512316352813 0)
(0.0108175712113 -0.0529606566742 0)
(0.00984960339697 -0.0545324769771 0)
(0.00890016357957 -0.0559516630149 0)
(0.00797027674768 -0.057222745835 0)
(0.00706031756563 -0.058350124133 0)
(0.00617012127541 -0.059337992211 0)
(0.00529908444482 -0.0601902861827 0)
(0.00444624720256 -0.06091064348 0)
(0.00361036858871 -0.0615023712708 0)
(0.00278998780517 -0.0619684208871 0)
(0.00198348489524 -0.0623113659688 0)
(0.0011891337481 -0.0625333836022 0)
(0.000405161889365 -0.0626362374665 0)
(-0.000370190618629 -0.0626212701637 0)
(-0.00113859934982 -0.0624893907704 0)
(-0.00190157825625 -0.0622410814586 0)
(-0.00266038706184 -0.0618764204192 0)
(-0.00341593363466 -0.0613951171606 0)
(-0.00416866235983 -0.0607965767352 0)
(-0.00491844590875 -0.0600799940748 0)
(-0.00566447586004 -0.0592444837017 0)
(-0.00640517603806 -0.0582892473153 0)
(-0.00713814055178 -0.0572137785283 0)
(-0.00786012630896 -0.0560180982616 0)
(-0.00856710624938 -0.0547030072311 0)
(-0.00925441185358 -0.0532703318968 0)
(-0.00991696479065 -0.0517231304267 0)
(-0.0105496045635 -0.0500658131012 0)
(-0.0111474836429 -0.0483041289935 0)
(-0.0117064818686 -0.0464449648131 0)
(-0.0122235586413 -0.0444959271328 0)
(-0.0126969201101 -0.0424647046713 0)
(-0.013125854015 -0.040358248162 0)
(-0.0135100903469 -0.0381819498264 0)
(-0.0138485039195 -0.0359390035805 0)
(-0.0141371839218 -0.0336304487519 0)
(-0.0143669820943 -0.0312564132 0)
(-0.0145213617077 -0.0288193308385 0)
(-0.014576629895 -0.0263287237016 0)
(-0.0145053494646 -0.0238084387302 0)
(-0.0142969085765 -0.0212886580033 0)
(-0.0139438803829 -0.0187893216226 0)
(-0.0133960724237 -0.0163655204779 0)
(-0.0127010926881 -0.0140827318842 0)
(-0.0118911555424 -0.0119542724293 0)
(-0.010938369314 -0.0100325751514 0)
(-0.00996111361712 -0.00837906331506 0)
(-0.00910288020736 -0.00688744230432 0)
(-0.00819131144097 -0.00548625742597 0)
(-0.00719550037088 -0.00426100364612 0)
(-0.00617976933396 -0.00326989365706 0)
(-0.00522268470794 -0.00250866531418 0)
(-0.00436566570281 -0.00193658018067 0)
(-0.00361954426082 -0.00151104784826 0)
(-0.00298242079644 -0.00119917903828 0)
(-0.00245112501005 -0.000975335333151 0)
(-0.00202383352942 -0.000814813806725 0)
(-0.00169677251098 -0.000688301803792 0)
(-0.00145434620473 -0.000559064099357 0)
(-0.00124360218949 -0.000404812309242 0)
(-0.00099258651283 -0.000265998177578 0)
(-0.000731582701528 -0.000207686475424 0)
(-0.000560974702651 -0.000206653722618 0)
(-0.000453083634005 -0.000200882119379 0)
(-0.000359432763954 -0.00018600184911 0)
(-0.000276750617539 -0.000177658899031 0)
(-0.000213271073934 -0.00017428341676 0)
(-0.000164481500566 -0.000173354268677 0)
(-0.000139105753167 -0.000177929826063 0)
(-0.000123407264006 -0.000177314041175 0)
(-0.000115876718382 -0.000171354852544 0)
(-0.000119370315885 -0.000165360312048 0)
(-0.000126822406521 -0.000147692776995 0)
(-0.000144135619245 -0.00013231456147 0)
(-0.000155427156174 -0.00010275669813 0)
(-0.000180437194405 -8.21403942371e-05 0)
(-0.000209497612156 -6.30166295362e-05 0)
(-0.000218803397536 -3.67294132782e-05 0)
(-0.000223253883364 -1.22781199717e-05 0)
(0.0264346086103 -0.00187833761409 0)
(0.0278633027237 -0.00600289145124 0)
(0.0275912682155 -0.0100678580255 -6.66830740965e-28)
(0.0271178165806 -0.0140952019964 0)
(0.0264998154682 -0.0180187282696 0)
(0.0257530183637 -0.0218180488751 0)
(0.0248937938782 -0.0254732849204 0)
(0.0239395046268 -0.0289686686483 0)
(0.0229077135238 -0.0322923638537 0)
(0.0218154601178 -0.0354362542443 0)
(0.0206786828633 -0.0383955588511 0)
(0.0195118056921 -0.0411683567479 0)
(0.0183274845699 -0.0437550712501 0)
(0.0171364978936 -0.0461579582057 0)
(0.0159477528921 -0.0483806311651 0)
(0.0147683797096 -0.0504276441227 0)
(0.0136038821759 -0.052304141803 0)
(0.0124583212874 -0.0540155787403 0)
(0.0113345087619 -0.0555675024193 0)
(0.0102341975067 -0.0569653919542 0)
(0.00915825693164 -0.0582145422832 0)
(0.0081068298212 -0.0593199835769 0)
(0.00707946639682 -0.0602864265557 0)
(0.00607523843565 -0.0611182255459 0)
(0.00509283307374 -0.0618193528219 0)
(0.00413063213623 -0.0623933790013 0)
(0.00318677821362 -0.062843455917 0)
(0.00225923467408 -0.0631722993175 0)
(0.00134584140873 -0.0633821704705 0)
(0.000444374078257 -0.063474855538 0)
(-0.00044739144555 -0.0634516515594 0)
(-0.00133160236419 -0.0633133413074 0)
(-0.00221023838446 -0.0630601894332 0)
(-0.00308500407629 -0.0626919512609 0)
(-0.00395720543568 -0.0622078963218 0)
(-0.00482760982987 -0.0616068644571 0)
(-0.00569629806852 -0.0608873591737 0)
(-0.00656251413484 -0.0600476868648 0)
(-0.00742453026075 -0.0590861488322 0)
(-0.0082795426937 -0.0580012888596 0)
(-0.00912362677268 -0.0567921933724 0)
(-0.00995177555181 -0.0554588305586 0)
(-0.0107580564395 -0.0540024027439 0)
(-0.0115359050702 -0.0524256660189 0)
(-0.0122785741642 -0.0507331581628 0)
(-0.012979714378 -0.0489312498917 0)
(-0.0136340432891 -0.0470279406527 0)
(-0.0142379857628 -0.045032315329 0)
(-0.0147901299028 -0.0429536118899 0)
(-0.0152912764 -0.0407999482208 0)
(-0.0157437875088 -0.0385767688763 0)
(-0.0161499514234 -0.0362853923092 0)
(-0.0165089872579 -0.0339221692882 0)
(-0.0168126268534 -0.0314793544549 0)
(-0.0170396895143 -0.0289498174233 0)
(-0.0171539756661 -0.026335166876 0)
(-0.0171040115527 -0.0236685936881 0)
(-0.0168872534636 -0.0209949343755 0)
(-0.0165210116721 -0.0183001742062 0)
(-0.0158313177205 -0.0156774438481 0)
(-0.0149786625798 -0.0132506032692 0)
(-0.0140072118373 -0.0109683368151 0)
(-0.012729261814 -0.00894648200667 0)
(-0.0114457257154 -0.00737939003426 0)
(-0.010571078655 -0.00594236467088 0)
(-0.00954280763712 -0.004439519284 0)
(-0.0083003612179 -0.00313569284318 0)
(-0.00700688378988 -0.0021637640361 0)
(-0.0058258116446 -0.001498571333 0)