/*--------------------------------*- C++ -*----------------------------------*\
| =========                 |                                                 |
| \\      /  F ield         | OpenFOAM: The Open Source CFD Toolbox           |
|  \\    /   O peration     | Version:  v1906                                 |
|   \\  /    A nd           | Web:      www.OpenFOAM.com                      |
|    \\/     M anipulation  |                                                 |
\*---------------------------------------------------------------------------*/
FoamFile
{
    version     2.0;
    format      ascii;
    class       surfaceScalarField;
    location    "880";
    object      phia;
}
// * * * * * * * * * * * * * * * * * * * * * * * * * * * * * * * * * * * * * //

dimensions      [0 3 -1 0 0 0 0];
oriented        oriented;


internalField   nonuniform List<scalar> 
18240
(
0.00134692284114
-0.00134694364448
0.00282148636126
-0.0014745973464
0.00429499945481
-0.00147353152407
0.00574974073107
-0.00145477790923
0.00717773375458
-0.00142800765089
0.00857218377609
-0.00139448916522
0.00992708245691
-0.00135490936954
0.0112369165532
-0.00130987536746
0.0124968600265
-0.00125995009875
0.0137025679048
-0.00120575086579
0.0148504245812
-0.00114785907594
0.0159372877398
-0.00108690747725
0.0169607564796
-0.00102346689314
0.0179188584545
-0.000958147256669
0.0188103365127
-0.000891471900026
0.0196342858652
-0.000823995252846
0.0203904632557
-0.00075616699385
0.0210788830974
-0.000688466024025
0.0217001531527
-0.000621255420478
0.022255038211
-0.000554931205958
0.0227448252938
-0.000489768348813
0.0231708620111
-0.000426082518585
0.0235349520751
-0.000364067279035
0.0238388735819
-0.00030396666903
0.0240848038331
-0.000245903603727
0.0242748210025
-0.00019006140276
0.0244113553284
-0.000136503900467
0.0244966765635
-8.53642704416e-05
0.0245333682467
-3.66577049059e-05
0.0245238034383
9.5232361858e-06
0.0244706402681
5.32005893738e-05
0.0243762801786
9.43202232675e-05
0.0242433727129
0.000132948072947
0.0240742809539
0.000169053842719
0.0238716043621
0.000202720253925
0.023637628769
0.000233939845032
0.0233748560974
0.000262819115931
0.0230854534525
0.000289369273446
0.0227717893083
0.000313713215614
0.0224358826407
0.000335875851653
0.0220799422746
0.000355991774922
0.0217058183939
0.000374095787187
0.0213155419344
0.000390330034362
0.0209107809253
0.0004047357743
0.0204933773421
0.000417459025749
0.0200648106475
0.000428544442089
0.0196267293336
0.000438138441511
0.0191804239686
0.000446286187401
0.0187273510967
0.000453131383938
0.0182686179031
0.000458717170022
0.0178054959169
0.000463181692881
0.0173389192574
0.000466563838432
0.0168699859656
0.000468993895235
0.0163994715408
0.000470504840383
0.0159283155134
0.000471217333394
0.0154571518134
0.000471157356265
0.0149867785852
0.000470434946228
0.0145177066992
0.000469068772312
0.0140506106921
0.000467157942648
0.0135858966215
0.000464714148193
0.0131241324692
0.000461826029022
0.0126656363808
0.000458499305683
0.0122108848775
0.00045481313474
0.0117601224753
0.000450768684875
0.0113137465527
0.000446437058313
0.0108719392339
0.000441816585211
0.0104350278421
0.000436971866601
0.010003139898
0.000431900097775
0.00957653856369
0.000426660936823
0.00915530148845
0.000421252017196
0.00873963072915
0.000415729353967
0.00832955610553
0.000410092241969
0.00792521946636
0.000404394050367
0.00752660305857
0.000398636580707
0.00713378803847
0.00039287111984
0.00674670825503
0.000387102362306
0.00636538316297
0.000381379700476
0.00598969725177
0.000375710718844
0.00561960748806
0.000370142712122
0.00525494852655
0.000364685782089
0.00489561495415
0.000359384636881
0.00454139230105
0.000354251247123
0.0041921143106
0.000349326962238
0.00384751977729
0.000344624678992
0.00350738523599
0.000340181267173
0.00317140782013
0.000336009022129
0.00283931429586
0.000332138049323
0.00251077147644
0.000328575941166
0.00218547625126
0.000325337643541
0.00186310399553
0.000322406503593
0.00154341002588
0.000319733636455
0.00122629335967
0.000317150967648
0.000912131698
0.000314196750258
0.000602925247619
0.00030923980393
0.000307324802949
0.000295637776805
0.000307344423906
0.0014890676928
-0.00283603650178
0.00315126346802
-0.00313682367013
0.00480436052822
-0.00312665470341
0.00643364230843
-0.00308409058912
0.00803170026578
-0.00302609030636
0.00959157033098
-0.00295439019635
0.0111066812214
-0.00287004331396
0.0125709532333
-0.00277417811692
0.0139789654197
-0.00266798340643
0.0153259115002
-0.00255272713035
0.0166077181261
-0.00242968467169
0.0178209443866
-0.00230016307928
0.0189628844489
-0.00216542356272
0.0200314266245
-0.00202671767343
0.0210251492769
-0.00188520866593
0.0219431488375
-0.00174202173057
0.0227851363132
-0.00159816594836
0.0235512432499
-0.00145459834837
0.0242421255407
-0.00131214648364
0.0248587554155
-0.00117158476048
0.0254025377462
-0.00103355665407
0.0258750942828
-0.000898660860823
0.0262783953997
-0.000767371544783
0.0266145404719
-0.000640131529109
0.0268859055922
-0.000517268993826
0.0270949217768
-0.000399095222346
0.0272442372885
-0.000285816808763
0.0273364940102
-0.000177636359862
0.027374502036
-7.46602326436e-05
0.0273610136276
2.29986518491e-05
0.0272989051107
0.000115317465871
0.0271909565158
0.000202258286418
0.0270400513569
0.000283864446696
0.0268489395033
0.000360157709072
0.0266204353018
0.000431238468241
0.0263571924132
0.000497177351646
0.0260619101897
0.000558118117497
0.0257371070973
0.000614169639717
0.0253853304794
0.000665509291854
0.0250089314692
0.000712274819126
0.0246102772666
0.000754668054289
0.0241915284797
0.000792847231651
0.0237548526304
0.000827030469336
0.0233022047987
0.000857388958751
0.022835541178
0.000884149653031
0.0223566038684
0.00090748978401
0.0218671333383
0.000927638268497
0.021368658205
0.000944771995848
0.0208627055459
0.000959115519298
0.0203505963964
0.00097083959098
0.0198336528142
0.000980158782104
0.0193129997304
0.000987232723395
0.0187897676947
0.000992261337077
0.018264901551
0.000995389238694
0.0177393577258
0.0009967982995
0.017213920093
0.000996615602088
0.0166893907171
0.000995003047853
0.0161664131483
0.000992069208076
0.015645655539
0.000987955685509
0.0151276415789
0.000982753108677
0.0146129250508
0.000976583935451
0.0141019285884
0.000969522774679
0.0135951088502
0.000961675314751
0.0130928033331
0.000953103077532
0.0125953855716
0.000943898159552
0.0121031202774
0.000934112486287
0.011616308128
0.000923828081733
0.0111351495725
0.000913090851709
0.0106598790055
0.000901976142109
0.0101906376007
0.000890527076793
0.00972759679025
0.000878815221996
0.00927084051109
0.000866883495918
0.00882047807326
0.000854801821893
0.00837653616921
0.000842614638202
0.00793906126335
0.000830391481067
0.00750802167492
0.000818179122734
0.00708339970092
0.00080604708084
0.0066651040045
0.00079404441873
0.00625305166192
0.000782240211173
0.00584709102348
0.000770685033503
0.00544707389517
0.000759446438849
0.00505278896665
0.000748575150559
0.00466402428988
0.000738135590732
0.00428051133244
0.000728176748004
0.00390197793385
0.000718757730511
0.00352810299261
0.000709923132919
0.00315855996992
0.000701723294306
0.00279298180405
0.000694193408835
0.00243099372023
0.000687367172584
0.00207218258323
0.000681256880926
0.00171609924768
0.000675856477715
0.00136216761415
0.000671120171999
0.00100945157629
0.00066695022718
0.000655627644258
0.000663099636084
0.000294772925283
0.000656527869551
0.000602134976479
0.00151537842991
-0.00435144098477
0.00319886396669
-0.00482033817753
0.00487570537773
-0.00480352414514
0.00652862144957
-0.00473703556963
0.00814945285535
-0.00464694891568
0.00973092272517
-0.0045358884241
0.0112662720296
-0.00440541874582
0.0127493112535
-0.00425724485222
0.0141745148381
-0.0040932117789
0.0155370332842
-0.00391527194012
0.0168327456625
-0.00372542021839
0.0180582272342
-0.00352566960773
0.0192107743592
-0.00331799203249
0.0202883401171
-0.00310430675575
0.0212895416935
-0.00288642955862
0.0222135739425
-0.00266607548473
0.0230602082178
-0.00244481737696
0.0238296930306
-0.00222410267935
0.0245227522667
-0.00200522055842
0.0251404808667
-0.00178933075433
0.0256843487588
-0.00157743698496
0.0261560973589
-0.00137042460383
0.0265577529418
-0.00116903705404
0.0268915270707
-0.000973918449358
0.0271598404757
-0.000785589763919
0.0273652279849
-0.000604493076137
0.0275103718006
-0.000430965345808
0.0275980100844
-0.000265282470863
0.0276309778384
-0.000107630044942
0.0276121181143
4.18531353035e-05
0.0275443292077
0.000183107034391
0.0274304774229
0.00031610745948
0.027273450553
0.00044089468971
0.0270760725586
0.000557535764466
0.0268411597259
0.000666157416573
0.0265714381486
0.000766901678283
0.0262696037792
0.000859961308933
0.0259382423166
0.000945536551832
0.0255798921302
0.0010238710065
0.0251969663655
0.00109520871791
0.0247918181583
0.00115983043087
0.0243666650413
0.00121801114804
0.0239236558232
0.00127005646776
0.0234647974629
0.00131626073811
0.0229920231819
0.00135694323326
0.0225071219795
0.00139240697641
0.0220118074888
0.00142297451953
0.0215076503412
0.00144894763092
0.0209961473999
0.0014706425662
0.0204786570951
0.00148835080525
0.0199564685168
0.00150237372788
0.0194307397878
0.00151298468475
0.0189025665353
0.00152046308195
0.0183729232175
0.00152505801066
0.0178427303198
0.00152702170717
0.0173127984831
0.00152657499152
0.0167838938234
0.00152394007901
0.0162566846102
0.00151930794809
0.0157318040168
0.00151287038288
0.0152097991225
0.0015047893599
0.0146911905515
0.00149522817242
0.0141764235841
0.00148432278636
0.013665924173
0.00147221181071
0.0131600520683
0.00145900975805
0.0126591529291
0.00144483562823
0.0121635134496
0.00142978792465
0.0116734093683
0.0014139715931
0.0111890627247
0.00139747468408
0.010710685788
0.00138039344612
0.0102384406375
0.00136281050453
0.00977247909033
0.00134481793879
0.00931290488368
0.00132649692355
0.00885980982026
0.00130793870336
0.00841323882822
0.0012892256517
0.00797322253058
0.00127045010043
0.00753974546735
0.00125169684359
0.00711277534675
0.001233059846
0.00669223465255
0.00121462622082
0.00627802676818
0.0011964908649
0.00587001115707
0.00117874197916
0.00546802654481
0.00116147370433
0.00507186977978
0.00114477323101
0.00468131617316
0.00112873149324
0.00429610208685
0.00111343190462
0.00391594246502
0.0010989591243
0.00354051699137
0.00108538936209
0.00316948444848
0.00107279712061
0.00280247151341
0.00106124690711
0.00243908168019
0.00105079780873
0.0020788814833
0.00104149704644
0.00172139270167
0.00103338498904
0.00136605216811
0.00102649876093
0.00101214744609
0.00102089137642
0.000658797834328
0.00101648623297
0.000306765684654
0.00100859655741
0.000908917857207
0.00153872357968
-0.0058901906914
0.00324524768667
-0.00652689110647
0.00494524983588
-0.00650355464633
0.00662064999344
-0.00641246415871
0.00826281596469
-0.00628914259036
0.00986415083925
-0.00613725098494
0.0114176676011
-0.00595896228655
0.012917024575
-0.00575662851101
0.0143565886526
-0.00553280140597
0.015731461461
-0.00529017014458
0.0170375052882
-0.00503148810485
0.0182713297546
-0.00475951792913
0.0194302859751
-0.00447697058219
0.0205124235952
-0.00418646647462
0.0215164635629
-0.00389048994584
0.022441736057
-0.00359136814261
0.0232881419084
-0.00329124156565
0.0240560812335
-0.00299206007856
0.024746412515
-0.00269556797127
0.025360380339
-0.00240331443462
0.0258995792167
-0.00211664966119
0.0263658863865
-0.00183674529934
0.0267614345629
-0.00156459661142
0.0270885525299
-0.00130104751886
0.0273497476578
-0.00104679376099
0.0275476539597
-0.000802407974913
0.0276850228105
-0.000568340498172
0.027764676592
-0.000344942278641
0.027789505403
-0.000132462523056
0.027762424622
6.89305195737e-05
0.0276863763378
0.000259154318156
0.02756428881
0.000438194256758
0.0273990827616
0.000606102443777
0.0271936340698
0.000762986424351
0.0269507827518
0.000909013150655
0.0266732989894
0.00104439011766
0.0263638946465
0.00116937278886
0.0260251921279
0.0012842464558
0.025659738612
0.00138933435298
0.0252699772878
0.00148498011543
0.0248582637896
0.00157155643277
0.0244268396054
0.00164944806205
0.0239778503706
0.00171906082275
0.0235133213757
0.0017808050691
0.0230351774752
0.00183510482022
0.0225452206805
0.00188238165318
0.0220451515061
0.00192306386356
0.0215365486682
0.00195757081949
0.0210208916787
0.00198632213138
0.0204995426082
0.00200972260899
0.0199737696825
0.00202817152841
0.0194447309891
0.00204204839175
0.0189134987268
0.00205172241645
0.0183810445966
0.00205753932449
0.017848264256
0.00205983118859
0.0173159640433
0.00205890443273
0.0167848851085
0.00205505009793
0.0162556910465
0.00204853315065
0.0157289911599
0.00203960314847
0.0152053285929
0.00202848483431
0.0146852022322
0.00201538906219
0.0141690549901
0.00200050455287
0.0136572939568
0.00198400886211
0.0131502786111
0.00196606108818
0.0126483389902
0.00194681260261
0.0121517637374
0.00192640046712
0.0116608162109
0.00190495764819
0.0111757224323
0.00188260690346
0.0106966852061
0.00185947022796
0.010223872139
0.00183566301684
0.00975742794936
0.00181130256206
0.00929746281516
0.00178650236183
0.00884406312707
0.00176137955988
0.00839728044679
0.0017360493473
0.00795714097574
0.0017106313184
0.0075236354073
0.00168524397428
0.00709672737508
0.00166001002973
0.00667634443757
0.00163505107823
0.00626238572215
0.00161049193004
0.00585471422947
0.00158645552602
0.00545316383736
0.00156306640703
0.00505753303693
0.00154044597193
0.00466759137863
0.00151871517743
0.00428307466082
0.00149799022482
0.00390369078583
0.00147838457422
0.00352911620874
0.0014600051348
0.00315900081033
0.00144295369416
0.00279296479639
0.00142732380129
0.00243060123489
0.00141320218987
0.0020714711429
0.00140066753534
0.00171510041453
0.00138979490293
0.00136097401295
0.00138066334511
0.0010085469158
0.00137335641179
0.000657415752936
0.00136765374135
0.000309246160422
0.00135680211532
0.00121818201165
0.00156869578423
-0.00745891263768
0.00330709766138
-0.0082653213592
0.00503838363087
-0.00823486908702
0.00674384398611
-0.00811795269168
0.00841440160412
-0.00795972799125
0.0100420903785
-0.00776496718703
0.0116196338326
-0.00753653259131
0.0131404821292
-0.00727750319318
0.0145988639902
-0.00699120891137
0.0159898138236
-0.00668114503175
0.0173091840752
-0.00635088251902
0.0185536325053
-0.00600398982909
0.0197206001785
-0.00564396071404
0.0208082690517
-0.00527415702482
0.0218155169413
-0.0048977583925
0.0227418569906
-0.00451772790116
0.023587380858
-0.0041367839368
0.0243526908608
-0.00375738767609
0.0250388414542
-0.00338173487328
0.0256472733161
-0.00301176165224
0.0261797611339
-0.00264915148737
0.0266383561316
-0.00229535330776
0.0270253446621
-0.00195159674456
0.0273432016364
-0.00161891506763
0.027594560225
-0.0012981614722
0.0277821747605
-0.000990030570147
0.0279088988094
-0.000695071109864
0.0279776543746
-0.000413703323243
0.0279914152473
-0.000146227348862
0.0279531800903
0.000107162835086
0.0278659594849
0.000346373638625
0.02773275073
0.000571402846607
0.0275565301809
0.000782324398145
0.0273402306793
0.000979288467664
0.0270867354804
0.00116251247457
0.0267988602624
0.00133227059487
0.0264793493915
0.0014888904978
0.0261308607392
0.00163274308108
0.0257559645369
0.00176424010238
0.0253571305521
0.00188382476622
0.0249367290998
0.00199197010375
0.0244970202681
0.00208917021794
0.0240401567925
0.00217593915333
0.0235681751955
0.00225280259753
0.0230830004057
0.00232029703459
0.0225864387734
0.00237896176061
0.0220801843533
0.00242933821433
0.0215658137936
0.00247196231985
0.0210447942254
0.00250736404389
0.0205184799624
0.00253606018927
0.019988121825
0.00255855433478
0.0194548654842
0.00257533032388
0.0189197619501
0.00258685282856
0.0183837672412
0.0025935617865
0.0178477535943
0.00259587380991
0.0173125100212
0.00259417779511
0.0167787537307
0.00258883732183
0.0162471310497
0.00258018752248
0.0157182284867
0.00256853846924
0.0151925735128
0.00255417325439
0.0146706447764
0.00253735222513
0.0141528723131
0.00251831206584
0.0136396465152
0.00249727060481
0.0131313174946
0.00247442660343
0.0126282026004
0.00244996479644
0.0121305848176
0.00242405603196
0.0116387187817
0.00239686218571
0.0111528282722
0.0023685363264
0.0106731108501
0.00233922719652
0.0101997346337
0.0023090791283
0.00973284178233
0.00227823586028
0.00927254483663
0.00224684003663
0.00881892935516
0.00221503623735
0.00837205013159
0.00218296998387
0.00793193328706
0.00215078995422
0.00749857267308
0.00211864651888
0.00707193171223
0.00208669319715
0.00665194024351
0.00205508480429
0.00623849633474
0.00202397825484
0.00583146376914
0.00199353045106
0.00543067399199
0.001963898569
0.00503592435263
0.00193523782466
0.00464698025443
0.00190770138345
0.0042635741725
0.00188143814879
0.00388540797437
0.00185659243898
0.00351215255962
0.00183330195484
0.00314345008013
0.0018116974367
0.00277891384163
0.00179190115629
0.00241812980542
0.0017740270734
0.00206065663153
0.00175818103816
0.00170602809633
0.00174446340514
0.00135375823664
0.00173297157976
0.00100336719418
0.00172378389641
0.000654535010347
0.00171652338603
0.000308864663052
0.00170250957395
0.00152706397959
0.00160659551396
-0.00906553414046
0.0033862039852
-0.0100449584043
0.00515774403189
-0.0100064374202
0.00690173298721
-0.0098619697499
0.008608570318
-0.00966659298802
0.0102698458391
-0.0094262699929
0.01187792807
-0.00914464157304
0.0134260078077
-0.00882560914604
0.014908146799
-0.00847337343523
0.0163193012532
-0.00809232434693
0.0176553239948
-0.00768692930593
0.0189129443107
-0.00726163340263
0.0200897327967
-0.0068207715266
0.0211840503667
-0.00636849604251
0.0221949892309
-0.00590871768235
0.0231223042474
-0.00544506238579
0.0239663426382
-0.00498084069339
0.0247279697042
-0.00451903208875
0.0254084986291
-0.00406227997962
0.0260096210644
-0.00361289919417
0.0265333462338
-0.00317289053923
0.0269819437983
-0.0027439636363
0.0273578972585
-0.00232756169818
0.0276638613153
-0.00192488945756
0.0279026289277
-0.00153693810076
0.0280771001496
-0.00116450961557
0.0281902582605
-0.000808235692119
0.0282451450325
-0.000468595342863
0.0282448413855
-0.000145927561956
0.0281924457341
0.000159555875733
0.0280910575268
0.000447760646298
0.0279437569115
0.000718703528269
0.0277535928
0.000972490009072
0.0275235652734
0.00120931877082
0.0272566151621
0.00142946680268
0.026955610968
0.00163328028791
0.0266233411065
0.00182116730216
0.0262625036321
0.00199358877434
0.025875701023
0.00215105236405
0.02546543218
0.00229410452803
0.0250340892596
0.00242332536291
0.0245839515861
0.00253932147537
0.0241171842813
0.00264272143524
0.0236358339617
0.00273416911519
0.0231418290962
0.00281431946153
0.0226369774964
0.00288383210847
0.0221229684277
0.00294336735301
0.0216013719384
0.00299358002881
0.0210736427284
0.00303511575198
0.0205411212949
0.00306860522433
0.0200050394663
0.00309466098972
0.0194665232035
0.00311387246801
0.0189265995313
0.0031268035507
0.0183862006497
0.00313398871641
0.01784617182
0.0031359317909
0.0173072762795
0.00313310342575
0.0167702035015
0.00312594122489
0.0162355743119
0.00311484870905
0.0157039489046
0.00310019683168
0.0151758315675
0.00308232434933
0.0146516778898
0.00306154054012
0.0141318986055
0.00303812671557
0.0136168655742
0.00301233979653
0.0131069144246
0.00298441456686
0.0126023490826
0.00295456766344
0.0121034430976
0.00292300011956
0.0116104426952
0.00288990131651
0.011123566867
0.00285545138777
0.0106430091051
0.00281982473605
0.0101689364854
0.00278319195918
0.00970149036879
0.00274572265148
0.00924078480776
0.00270758663637
0.00878690656466
0.00266895590237
0.00833991319998
0.00263000506131
0.0078998327645
0.00259091239868
0.00746666191041
0.00255185959104
0.00704036557382
0.00251303195048
0.006620875391
0.00247461751645
0.0062080896179
0.00243680664252
0.00580187205661
0.0023997906269
0.00540205237761
0.00236376082054
0.00500842567192
0.00232890698004
0.00462075325201
0.00229541608667
0.00423876285236
0.00226347060879
0.00386214989301
0.0022332472264
0.00349057823977
0.0022049152122
0.00312368180353
0.00217863530326
0.00276106569782
0.00215455850071
0.0024023082474
0.00213282560656
0.00204696312739
0.00211356689509
0.00169456308646
0.00209690277584
0.00134462906415
0.0020829440436
0.000996690312281
0.00207176106182
0.000650404809883
0.0020628454212
0.000307251508089
0.00204569905108
0.00183433369205
0.00165325125205
-0.0107188113745
0.00348385046686
-0.0118755857148
0.00530514672217
-0.0118277619717
0.00709665672348
-0.0116535076549
0.00884812510889
-0.0114180889539
0.0105505985192
-0.011128770525
0.0121960161231
-0.0107900858015
0.0137772594215
-0.0104068784822
0.0152881985449
-0.00998433794745
0.0167237092034
-0.00952785966679
0.0180796632861
-0.00904290727013
0.0193528965442
-0.00853488969677
0.0205411585568
-0.00800905569132
0.021643048168
-0.00747040686325
0.0226579391306
-0.0069236288836
0.0235858984357
-0.00637304090991
0.0244276017166
-0.00582256215354
0.025184247819
-0.00527569528589
0.0258574767776
-0.00473552493251
0.0264492927801
-0.00420473005363
0.0269619956752
-0.00368560714174
0.0273981212081
-0.00318010169056
0.0277603918638
-0.00268984367979
0.0280516763795
-0.00221618407105
0.0282749579232
-0.00176022850892
0.0284333074867
-0.00132286677438
0.0285298619072
-0.000904796438361
0.0285678032887
-0.000506541747962
0.0285503402188
-0.000128468216889
0.0284806886577
0.000229205049276
0.0283620544647
0.000566393776648
0.0281976170022
0.000883141284246
0.0279905117763
0.00117959686883
0.0277438182168
0.00145601533962
0.0274605466505
0.00171274272873
0.027143627376
0.00195020530263
0.0267959019571
0.00216889981043
0.0264201150722
0.00236938412814
0.0260189082634
0.00255226898483
0.0255948139305
0.00271821003982
0.0251502509697
0.00286790082855
0.0246875204999
0.00300206579853
0.0242088031493
0.00312145394336
0.0237161564291
0.00322683231248
0.0232115136931
0.00331897994683
0.0226966832494
0.00339868158746
0.0221733491109
0.0034667217634
0.0216430719736
0.00352387868132
0.0211072918641
0.00357091856879
0.0205673310339
0.00360858995924
0.0200243984653
0.0036376186074
0.019479594551
0.00365870257446
0.0189339172133
0.00367250816929
0.0183882679985
0.00367966629775
0.0178434593183
0.00368076986699
0.0173002213791
0.00367637178129
0.0167592098885
0.00366698409437
0.0162210131159
0.00365307781195
0.0156861593444
0.00363508382583
0.0151551233677
0.00361339442401
0.0146283330449
0.00358836577704
0.0141061746637
0.00356032080742
0.0135889981237
0.00352955278555
0.0130771208066
0.0034963290464
0.0125708311522
0.00346089513837
0.0120703909174
0.00342347880581
0.011576037146
0.00338429411925
0.0110879829289
0.00334354518441
0.0106064179807
0.00330142976664
0.0101315081892
0.0032581423019
0.00966339514834
0.00321387667223
0.0092021948916
0.00316882826238
0.00874799679867
0.00312319571749
0.00830086193314
0.00307718195702
0.00786082173156
0.00303099490253
0.00742787633272
0.00298484750937
0.00700199340381
0.00293895757791
0.00658310677286
0.00289354695983
0.00617111565603
0.00284884064252
0.00576588381467
0.00280506534607
0.00536723935329
0.00276244810727
0.00497497452403
0.00272121450184
0.00458884616927
0.00268158696087
0.00420857620528
0.00264378285452
0.00383385271089
0.00260801277122
0.00346433103609
0.00257447869333
0.00309963547323
0.00254337248416
0.00273936103262
0.00251487443355
0.00238307566824
0.00248915213555
0.00203032338544
0.00246635979241
0.00168062893322
0.00244663759495
0.00133350357809
0.00243010809643
0.000988460785682
0.00241684037295
0.000645122741335
0.00240622129962
0.000304871460033
0.00238598781177
0.0021392224971
0.00170947812363
-0.0124283152509
0.00360158289371
-0.0137677188638
0.00548283415091
-0.0137090412688
0.00733148917079
-0.0135021905253
0.00913647926487
-0.0132231064525
0.0108881905192
-0.0128805087705
0.0125780511751
-0.0124799729127
0.0141985847102
-0.0120274378948
0.0157434515975
-0.011529230032
0.0172074553739
-0.0109918879206
0.0185865181383
-0.0104219937016
0.0198776311112
-0.00982602550142
0.0210787863848
-0.00921023287997
0.0221888942408
-0.00858053570858
0.0232076907718
-0.00794244540443
0.0241356389971
-0.00730100812598
0.0249738276423
-0.00666076872201
0.0257238705785
-0.00602575508793
0.0263878111874
-0.0053994812845
0.0269680344713
-0.00478496797279
0.0274671905165
-0.00418477664936
0.027888130538
-0.00360105402321
0.0282338567527
-0.00303558098835
0.0285074842931
-0.00248982151262
0.0287122135361
-0.00196496639196
0.028851308859
-0.00146196950789
0.0289280814315
-0.000981575121193
0.0289458726779
-0.000524337841094
0.0289080378514
-9.06369005351e-05
0.0288179284805
0.000319312206324
0.0286788727152
0.000705448694764
0.0284941641477
0.00106785032026
0.0282670408799
0.00140672199479
0.0280006731729
0.00172238623667
0.0276981517444
0.00201526874861
0.0273624774569
0.00228588551977
0.0269965531826
0.00253483141955
0.0266031765193
0.00276276946134
0.0261850340796
0.00297042149254
0.0257446961552
0.00315855935701
0.0252846126396
0.00332799712032
0.0248071091696
0.00347958334959
0.0243143844811
0.00361419407143
0.0238085080312
0.00373272548053
0.0232914189206
0.00383608710299
0.0227649252104
0.00392519458731
0.0222307046598
0.00400096289161
0.0216903059878
0.0040642991353
0.0211451516407
0.00411609594163
0.0205965411481
0.00415722463544
0.0200456559686
0.00418852916309
0.0194935648577
0.00421082016856
0.0189412305537
0.0042248700934
0.0183895167637
0.00423140875749
0.0178391961425
0.00423112023229
0.0172909582218
0.00422464043399
0.0167454179054
0.00421255614944
0.0162031235095
0.00419540486632
0.0156645649249
0.00417367600137
0.0151301809464
0.0041478128407
0.014600366341
0.00411821567426
0.014075477804
0.00408524540634
0.0135558393883
0.00404922803319
0.013041746684
0.00401045927363
0.0125334703489
0.00396920968122
0.0120312584028
0.0039257295705
0.0115353378906
0.00388025404899
0.0110459154554
0.00383300756946
0.0105631774097
0.00378420827745
0.0100872889553
0.00373407167721
0.009618393097
0.00368281388406
0.00915660898961
0.00363065410369
0.00870203019383
0.00357781659712
0.00825472264645
0.00352453188991
0.00781472273555
0.00347103746054
0.00738203533633
0.0034175777702
0.00695663210453
0.00336440383416
0.00653844992132
0.00331177228092
0.00612738969627
0.00325994405481
0.00572331545292
0.00320918277351
0.00532605381975
0.00315975284741
0.00493539387806
0.00311191742147
0.0045510874187
0.00306593619869
0.0041728495789
0.00302206324143
0.0038003598673
0.00298054476623
0.00343326354997
0.00294161705936
0.00307117340576
0.00290550447678
0.00271367180693
0.00287241766626
0.00236031337719
0.00284255203823
0.00201062812231
0.00281608618108
0.00166412496292
0.00279318033233
0.00132029848163
0.00277397333854
0.000978639431406
0.00275853835566
0.000638730552751
0.00274616688356
0.00030188552483
0.0027228691467
0.00244112640195
0.00177622745122
-0.0142045684821
0.00374131746774
-0.0157328367062
0.00569361323794
-0.0156613651144
0.00760982263369
-0.0154184275614
0.00947788004571
-0.0150911911788
0.0112873786349
-0.014690034184
0.0130291489028
-0.0142217694922
0.0146953116477
-0.0136936263312
0.0162793098378
-0.0131132532454
0.0177758978842
-0.012488500229
0.0191810959124
-0.0118272151961
0.0204921176881
-0.0111370698658
0.0217072792074
-0.0104254160938
0.0228258937308
-0.00969917095858
0.0238481575033
-0.00896472893216
0.0247750301045
-0.00822789944536
0.0256081129227
-0.00749386922677
0.026349529931
-0.00676718868997
0.0270018149665
-0.00605178183106
0.0275678102068
-0.00535097758412
0.0280505796746
-0.00466755936131
0.028453340657
-0.00400382706497
0.0287794135307
-0.00336166475223
0.0290321884282
-0.00274260607144
0.02921510467
-0.00214789108618
0.029331638037
-0.00157851005412
0.0293852906633
-0.00103523367891
0.0293795800696
-0.000518631865715
0.0293180253299
-2.90854978794e-05
0.0292041306203
0.000433204932427
0.0290413646772
0.000868213966351
0.028833150079
0.00127606562622
0.0285828408908
0.00165703322228
0.0282937104518
0.00201152011638
0.0279689399328
0.00234004405186
0.0276116092569
0.00264322239086
0.0272246896396
0.00292175857748
0.0268110376593
0.00317643039321
0.0263733900509
0.00340807939228
0.0259143593879
0.0036176017116
0.0254364301117
0.00380593941244
0.0249419553158
0.00397407254219
0.0244331539062
0.00412301117924
0.0239121086442
0.00425378779231
0.023380764749
0.00436744931847
0.0228409295764
0.00446504939587
0.0222942730721
0.00454764026537
0.0217423294904
0.0046162648593
0.0211865000637
0.00467194870035
0.0206280570457
0.00471569221029
0.0200681487524
0.00474846315463
0.0195078059147
0.00477118987548
0.0189479488765
0.00478475508753
0.0183893958305
0.00478999087176
0.0178328715421
0.00478767461625
0.0172790166673
0.00477852645144
0.0167283970756
0.00476320784549
0.0161815132448
0.00474232177794
0.0156388091595
0.00471641405817
0.015100680796
0.00468597607523
0.0145674836912
0.00465144846439
0.0140395397331
0.00461322586736
0.0135171427701
0.00457166223373
0.0130005632452
0.00452707676759
0.0124900515693
0.00447975997895
0.011985840499
0.00442997990667
0.01148814635
0.00437798803524
0.0109971693471
0.00432402496614
0.0105130930435
0.0042683254664
0.0100360831095
0.00421112296753
0.00956628550321
0.00415265326052
0.00910382428607
0.00409315747694
0.00864879914811
0.00403288422624
0.0082012828425
0.00397209098527
0.00776131862303
0.00391104472089
0.00732891780683
0.00385002183048
0.00690405757317
0.00378930746786
0.00648667903768
0.00372919431195
0.00607668572467
0.00366998090941
0.00567394240142
0.00361196961205
0.00527827440361
0.0035554642832
0.00488946735287
0.00350076775477
0.004507267401
0.00344817923554
0.00413138185045
0.00339799161574
0.00376148030622
0.00335048887908
0.00339719613713
0.00330594352792
0.00303812845736
0.00326461424222
0.00268384442834
0.00322674364042
0.00233388184085
0.00319255619992
0.0019877524542
0.00316225654497
0.00164494610531
0.00313602752187
0.00130493391131
0.00311402461669
0.000967178828699
0.00309633009827
0.000631232283294
0.00308215164167
0.000298347279117
0.00305579196461
0.00273949106285
0.00185465922463
-0.0160592532415
0.00390542469384
-0.0177836303944
0.00594096516152
-0.0176969333889
0.0079361010218
-0.0174135910437
0.009877558609
-0.0170326759083