/*--------------------------------*- C++ -*----------------------------------*\
| =========                 |                                                 |
| \\      /  F ield         | OpenFOAM: The Open Source CFD Toolbox           |
|  \\    /   O peration     | Version:  v1906                                 |
|   \\  /    A nd           | Web:      www.OpenFOAM.com                      |
|    \\/     M anipulation  |                                                 |
\*---------------------------------------------------------------------------*/
FoamFile
{
    version     2.0;
    format      ascii;
    class       volScalarField;
    location    "643";
    object      pa;
}
// * * * * * * * * * * * * * * * * * * * * * * * * * * * * * * * * * * * * * //

dimensions      [0 2 -2 0 0 0 0];


internalField   nonuniform List<scalar> 
9216
(
915.005046371
914.699612243
914.067741267
913.103946166
911.813632387
910.20286302
908.279177484
906.051488252
903.529921641
900.725714567
897.651049168
894.318950353
890.743112046
886.937801869
882.91768812
878.697759857
874.293162136
869.719137214
864.990872721
860.123466633
855.131790171
850.030476609
844.833798519
839.555678567
834.209579345
828.808533426
823.365043592
817.891129198
812.398234708
806.897289711
801.398623804
795.912039833
790.446734127
785.011375272
779.614030226
774.262253752
768.963016711
763.722800797
758.547529922
753.442669538
748.413160292
743.463520533
738.597781767
733.81959304
729.132157785
724.538338905
720.040596703
715.64109353
711.341632471
707.14376055
703.048707953
699.057488804
695.170840741
691.389322459
687.713253566
684.142808207
680.677955225
677.318547387
674.064262052
670.914685672
667.869255265
664.927338095
662.088174396
659.350952237
656.714751999
654.17861658
651.7414982
649.402324105
647.159946231
645.013202642
642.960870528
641.001723536
639.134488492
637.357898751
635.670654932
634.07147431
632.559055731
631.132125022
629.789404158
628.529652564
627.351640504
626.254186128
625.236132974
624.296382525
623.433875656
622.647620379
621.93667689
621.300179854
620.737325953
620.247388388
619.829701395
619.483654991
619.208643407
619.003910806
618.866682693
618.809635429
915.309466613
915.002304098
914.368785738
913.400633706
912.104116399
910.485578692
908.552731898
906.314627993
903.781538971
900.96484069
897.876866556
894.530781918
890.940430739
887.120213406
883.08493793
878.84971056
874.429799295
869.840543254
865.097232979
860.215041272
855.208921764
850.093561232
844.883295619
839.592081959
834.233429682
828.820389408
823.365496941
817.880776142
812.377693265
806.86717153
801.359554172
795.864627444
790.391590909
784.949090732
779.545194148
774.187427768
768.88275765
763.637633078
758.457970007
753.349198669
748.316249729
743.363604643
738.495283803
733.71489865
729.025641151
724.430336742
719.931434565
715.531060366
711.231006951
707.032786244
702.937619484
698.946487716
695.060121319
691.27904832
687.603582964
684.033871372
680.569878988
677.211433289
673.95821011
670.809773265
667.765559911
664.824917134
661.987086638
659.251238467
656.61645542
654.081764185
651.646119924
649.308435128
647.067564818
644.922333435
642.871521053
640.913888568
639.048165241
637.273072367
635.587312375
633.989591078
632.478608436
631.053079401
629.711726364
628.453298518
627.276565925
626.180337268
625.163455402
624.224813299
623.363350916
622.578069092
621.868027491
621.232356186
620.670254459
620.18100019
619.76395094
619.418557451
619.144387616
618.941229017
618.809489897
618.75254146
915.94275564
915.630864826
914.991586524
914.014732855
912.706672484
911.073885648
909.124279467
906.867124355
904.312931893
901.473325207
898.360895565
894.989062705
891.371926432
887.524129874
883.460718208
879.19701474
874.748494756
870.130680478
865.35903437
860.448875543
855.415293612
850.273086268
845.036692364
839.720148426
834.337038274
828.900465456
823.423016431
817.916746004
812.393151514
806.863168927
801.337156115
795.824897357
790.335594481
784.877878983
779.459808641
774.088885595
768.772058072
763.515743186
758.325832456
753.207718138
748.166301607
743.20602225
738.330867891
733.544405359
728.849792199
724.249808122
719.746867314
715.343049998
711.040114703
706.839529232
702.742482298
698.749913262
694.862522618
691.080799956
687.405032915
683.835332968
680.37164258
677.01375859
673.761337517
670.61391647
667.570916692
664.631662143
661.795381517
659.061224755
656.428263901
653.895507886
651.461902657
649.126344605
646.887680383
644.744719363
642.696233514
640.740969194
638.877647384
637.104975044
635.421645896
633.826351461
632.317782491
630.894639705
629.555635868
628.299506163
627.125010828
626.030945036
625.016141955
624.079481957
623.219895924
622.436373619
621.727967092
621.093798148
620.533062016
620.045034607
619.62907847
619.284654763
619.01134176
618.808885521
618.677485379
618.615416446
916.916341539
916.599006333
915.950727363
914.960280183
913.634228845
911.979284768
910.003649875
907.716931558
905.130010254
902.25489666
899.104581409
895.692883853
892.034299026
888.143850901
884.03694913
879.729257037
875.23656627
870.574685581
865.7593375
860.806070139
855.730176483
850.546628331
845.270016163
839.9145023
834.493777936
829.021031918
823.508921445
817.969553275
812.414465352
806.854618082
801.300384937
795.761552121
790.247317095
784.766294306
779.326519872
773.935463969
768.600040044
763.32662159
758.121055205
752.988680758
747.934347287
742.962435616
738.07687625
733.281173607
728.578425158
723.971346511
719.462291075
715.053275276
710.745998064
706.541865571
702.442009823
698.447312211
694.558420836
690.775772258
687.099607036
683.529989355
680.066820471
676.709856009
673.458717211
670.312905879
667.271813524
664.334734118
661.500871395
658.769349728
656.139219956
653.609468785
651.179023597
648.8467608
646.611510054
644.472061993
642.427172258
640.475568927
638.615956655
636.847024055
635.167448137
633.575901773
632.071058509
630.651600134
629.316221856
628.063639898
626.89259693
625.801869569
624.790273906
623.856672731
622.999980995
622.219172604
621.513285691
620.881428969
620.322786976
619.836626508
619.422303035
619.07926883
618.807082844
618.605427423
618.474367673
618.411290097
918.234257206
917.909919389
917.249337533
916.240274267
914.889592995
913.204342243
911.19313375
908.866041505
906.234454752
903.310919718
900.108976555
896.642995031
892.928011593
888.979572422
884.81358367
880.446172483
875.893558648
871.171939537
866.29738695
861.285757709
856.152615559
850.913165654
845.582198475
840.174044227
834.702534335
829.180971273
823.622103462
818.038106927
812.440570648
806.84048773
801.24824941
795.673644392
790.125860807
784.613490493
779.144537435
773.726429281
768.366029667
763.069654001
757.843085533
752.691594383
747.619956358
742.632474316
737.732998907
732.924951479
728.211346002
723.594812788
719.077620879
714.661701868
710.348672055
706.139855674
702.036306137
698.038828016
694.147996769
690.364178911
686.687549733
683.118111246
679.655707584
676.3000405
673.050682339
669.907089091
666.868611039
663.934503562
661.103935755
658.375999343
655.749715694
653.224043307
650.797883707
648.470087996
646.239462112
644.104772903
642.064753175
640.118107654
638.263518137
636.499649608
634.825155682
633.238685001
631.738887049
630.324418833
628.993951036
627.746174899
626.579808583
625.493604108
624.486353742
623.556896809
622.704125929
621.926993514
621.224517725
620.595788575
620.039973622
619.556323786
619.144178995
618.802973595
618.532240346
618.331615092
618.201103938
618.137946149
919.903149032
919.569952088
918.893611959
917.860665865
916.478387048
914.754278589
912.697493084
910.318715976
907.630000047
904.644588071
901.376732336
897.841514132
894.054667038
890.032407864
885.791277549
881.347994551
876.71932166
871.921947595
866.972383059
861.886871565
856.681313652
851.371203987
845.971579296
840.496976302
834.96139749
829.378284154
823.76049491
818.120289707
812.469318007
806.818611582
801.178580888
795.55901571
789.969089424
784.417363624
778.911799278
773.459769051
768.068071523
762.742947784
757.490099222
752.314707183
747.221453365
742.21454168
737.297720469
732.474305829
727.747204937
723.118940142
718.591672704
714.167226936
709.847113648
705.632553621
701.524500044
697.523660626
693.630518359
689.845351665
686.168252947
682.599146313
679.137803572
675.783859302
672.536824177
669.396097391
666.360977454
663.430672206
660.604307426
657.880934865
655.259539156
652.739044398
650.318319916
647.99618597
645.771418902
643.642756473
641.608902879
639.66853411
637.820303178
636.062845777
634.39478591
632.814741985
631.321332905
629.913184581
628.588936434
627.347248224
626.1868068
625.106333068
624.104588795
623.180383493
622.332581058
621.560106369
620.861951572
620.237182226
619.684943069
619.204463555
618.795062861
618.456153629
618.187244453
617.987942748
617.858228752
617.795374524
921.93145525
921.587341327
920.89154807
919.829105825
918.407815194
916.635763477
914.522792675
912.080363091
909.321364371
906.259914163
902.911155465
899.291055991
895.416214111
891.303675114
886.97076052
882.434912574
877.713555204
872.823972179
867.783202448
862.607952124
857.314521897
851.918748335
846.435957059
840.880925872
835.267855839
829.610348797
823.921390024
818.213335386
812.497902441
806.786165414
801.088553998
795.414855775
789.774222485
784.175176103
778.625622519
773.13286526
767.703621615
762.344040594
757.059722386
751.855739158
746.736656925
741.706558394
736.769066536
731.927368797
727.184241717
722.542075852
718.002900758
713.568409927
709.239985399
705.018721963
700.905450644
696.900761405
693.005024787
689.218412431
685.540916268
681.97236636
678.512447243
675.160712833
671.916599811
668.779439621
665.748469062
662.822839672
660.001625943
657.283832598
654.668401001
652.154214946
649.740105917
647.424858036
645.207212782
643.085873686
641.059511032
639.126766746
637.286259451
635.536589831
633.876346248
632.304110706
630.81846507
629.417997595
628.101309667
626.867022758
625.713785495
624.640280826
623.645233178
622.727415581
621.885656655
621.118847441
620.425947965
619.805993526
619.258100598
618.781472207
618.3754027
618.039281375
617.772594404
617.57492864
617.446250513
617.383911782
924.329562558
923.972273464
923.253026075
922.155026977
920.686736345
918.856974259
916.676442903
914.157564532
911.314262381
908.161729279
904.716197407
900.994713105
897.014921755
892.794866624
888.352804429
883.707039682
878.875778963
873.877005731
868.728375346
863.447129488
858.050028173
852.55329727
846.972588731
841.322950926
835.618806433
829.873935387
824.101462886
818.313849898
812.522887324
806.739693428
800.974715382
795.237733082
789.537867779
783.883590812
778.282739105
772.742531187
767.269585261
761.869939027
756.549070792
751.311921856
746.162919794
741.106002693
736.144643997
731.281878019
726.520325773
721.862221155
717.309437109
712.863511777
708.525674256
704.296869922
700.177784943
696.168869953
692.270362505
688.482308311
684.80458096
681.236900141
677.778848168
674.429884913
671.189361009
668.056529541
665.030556147
662.110527823
659.295460431
656.584305222
653.975954433
651.469246271
649.062969363
646.75586695
644.546640902
642.433955797
640.416443087
638.492705557
636.661322053
634.920852623
633.269844013
631.706835597
630.230365665
628.838978082
627.531229239
626.30569526
625.160979382
624.09571945
623.108595433
622.198336905
621.363730394
620.603626547
619.916947004
619.302690941
618.759941136
618.287869527
617.885742063
617.552922189
617.288873783
617.093166337
616.96575261
616.904079137
927.109986011
926.737029435
925.98994623
924.849767879
923.325770213
921.427680717
919.167261944
916.558115389
913.615424049
910.355683523
906.796438019
902.956025637
898.853338383
894.507600717
889.938169386
885.16435633
880.205275785
875.079715885
869.806034354
864.402076893
858.885116058
853.271807489
847.578159912
841.819515081
836.010534323
830.165189004
824.296753481
818.417799925
812.540195374
806.67510144
800.832978488
795.023591271
789.256019808
783.538671164
777.879297458
772.285014306
766.762321285
761.317123775
755.954756056
750.680005336
745.497136714
740.409918842
735.421650301
730.535186453
725.752966759
721.077042287
716.509103355
712.050506999
707.702304164
703.465266281
699.339911097
695.326527426
691.425198676
687.635824873
683.958143093
680.391746067
676.936098993
673.590554407
670.354365231
667.226695984
664.206632348
661.293189167
658.485317142
655.781908355
653.18180092
650.68378292
648.286595914
645.98893817
643.789467867
641.686806394
639.679541916
637.766233296
635.945414473
634.215599325
632.575287062
631.022968122
629.55713057
628.176266923
626.878881379
625.663497336
624.528665159
623.472970077
622.495040135
621.593554112
620.767249305
620.014929099
619.335470238
618.727829695
618.191051077
617.724270378
617.326721098
616.997738449
616.736762318
616.543343231
616.417418837
616.356539577
930.287578622
929.896177668
929.116404819
927.926728095
926.337426665
924.35934577
922.005546686
919.291066044
916.232609488
912.848236426
909.157055227
905.178933708
900.934230337
896.443549775
891.727525054
886.806627993
881.701008718
876.430364563
871.013837681
865.469939701
859.816500384
854.070636178
848.248733558
842.366441968
836.43867155
830.479592385
824.502633416
818.520481148
812.545079047
806.587629155
800.658598389
794.76772665
788.924039094
783.13586249
777.410845764
771.755981469
766.177628845
760.681538107
755.272875557
749.956249549
744.73573709
739.614911195
734.596868753
729.684259013
724.879312391
720.183869624
715.599410943
711.127085211
706.767738644
702.52194301
698.39002288
694.372081806
690.468027006
686.677592462
683.000360073
679.435778853
675.983181941
672.641801507
669.410781465
666.289188201
663.276019344
660.370210875
657.570642706
654.876143076
652.285491946
649.797423742
647.41062964
645.12375971
642.935425078
640.844200362
638.848626471
636.947213964
635.138446975
633.420787823
631.792682267
630.252565423
628.798868288
627.430024826
626.14447951
624.94069527
623.817161703
622.772403483
621.804988831
620.91353796
620.096731379
619.353317972
618.682122725
618.082054046
617.552110535
617.09138718
616.699080873
616.374494684
616.117041956
615.926252887
615.802045384
615.742082813
933.879786302
933.466811567
932.648911688
931.401556344
929.736259635
927.665241905
925.203151424
922.36676475
919.174618588
915.646637615
911.803781163
907.667713444
903.26050231
898.604349283
893.721352527
888.633303788
883.361520153
877.926710835
872.348878498
866.647253044
860.840254199
854.945477207
848.979694672
842.958866947
836.898154469
830.811927347
824.713770531
818.616485353
812.532090085
806.471822218
800.446146309
794.464764857
788.536631587
782.669973855
776.872316175
771.150505145
765.510735669
759.958577775
754.499004033
749.136417383
743.874679578
738.717140136
733.666665946
728.725671344
723.896148699
719.179699249
714.577564148
710.090655362
705.719586322
701.464701871
697.326107352
693.303696347
689.397176893
685.606095724
681.929860439
678.367759263
674.918978405
671.582616863
668.357698828
665.243183677
662.237973861
659.340920805
656.550829212
653.866459977
651.28653213
648.809724056
646.434674377
644.159982724
641.984210719
639.90588334
637.923490885
636.035491631
634.240315308
632.536367398
630.922034293
629.395689258
627.955699155
626.60043184
625.328264145
624.137590313
623.026830793
621.994441239
621.038921621
620.158825299
619.352767945
618.619436221
617.957596067
617.366100542
616.843897104
616.390034188
616.003667149
615.68406339
615.430606227
615.242801595
615.120545316
615.061623011
937.906962132
937.468846379
936.606657263
935.292378841
933.53904943
931.360585017
928.77357373
925.796898819
922.451292315
918.758893856
914.742840691
910.42689265
905.835095456
900.991483519
895.919822461
890.643391869
885.184808968
879.56589403
873.80757734
867.929845942
861.951725568
855.891290359
849.765690352
843.591185834
837.383178605
831.156233827
824.924090629
818.699664345
812.495045422
806.321500528
800.189480584
794.108634949
788.087825687
782.13515804
776.258007363
770.463048432
764.756285104
759.143080036
753.628184275
748.215767078
742.90944601
737.712317651
732.626988831
727.655608536
722.799900264
718.061194863
713.44046351
708.938350785
704.555207382
700.291122283
696.145953858
692.119359636
688.210824198
684.419684967
680.745155431
677.186345716
673.742280218
670.411912386
667.194136579
664.087797272
661.091695713
658.204594442
655.42521991
652.752263684
650.184382533
647.720197882
645.358294929
643.097221852
640.935489335
638.871570736
636.903903032
635.030888743
633.250898866
631.562276898
629.963343892
628.452404548
627.027754196
625.687686629
624.430502602
623.254518905
622.158077839
621.139556961
620.197378932
619.330021348
618.536026401
617.814010252
617.162671981
616.580802044
616.067290077
615.621132078
615.24143683
614.92743106
614.678464386
614.494016263
614.373955531
614.316199692
942.392756702
941.925383211
941.011839668
939.620073312
937.765016271
935.462684818
932.732044344
929.594529565
926.073500084
922.193716623
917.980866702
913.461140644
908.660858069
903.606142847
898.322644708
892.835306992
887.1681817
881.344293675
875.385555329
869.312730788
863.145444579
856.902224919
850.600567449
844.257002816
837.887153148
831.505767787
825.126737121
818.763090655
812.426989435
806.129722593
799.881714466
793.692540609
787.570947129
781.524889775
775.5615659
769.687448993
763.908322405
758.229311852
752.654917206
747.189043936
741.835034866
736.595702408
731.473361585
726.469863682
721.586630655
716.824689972
712.184709934
707.667035032
703.271721217
698.998570522
694.847164732
690.816897431
686.907004087
683.116589552
679.444652722
675.890107923
672.451802995
669.12853387
665.919055875
662.822091792
659.836337118
656.960462745
654.193115624
651.532917772
648.978464194
646.528320114
644.181018068
641.935055156
639.788890937
637.740946133
635.789602474
633.933203753
632.170058221
630.498442308
628.916605669
627.42277744
626.015173625
624.692005451
623.451488553
622.291852807
621.211352653
620.208277708
619.280963521
618.427802291
617.64725338
616.937853511
616.29822648
615.727092302
615.223275698
614.785713744
614.413462801
614.105704604
613.861750766
613.681049648
613.563441009
613.506983592
947.364605059
946.863163367
945.890064335
944.408597102
942.436066848
939.9911095
937.09561546
933.774113835
930.053105475
925.960442767
921.524785252
916.775126033
911.740382901
906.449046995
900.928883773
895.206684813
889.308072491
883.257362032
877.077485211
870.789977135
864.415021285
857.97154023
851.477311221
844.949081317
838.402657911
831.852959894
825.314029051
818.799014946
812.320151751
805.888746641
799.51518057
793.208928602
786.978591788
780.831942734
774.77596667
768.816902429
762.960280367
757.210957596
751.573151308
746.050471547
740.645954142
735.362094479
730.200882109
725.163836387
720.252042864
715.466190495
710.806609347
706.273308733
701.866015268
697.584210564
693.427167792
689.393986678
685.483626083
681.694933752
678.026672555
674.477543007
671.046201712
667.731275806
664.531373377
661.445090239
658.471013291
655.607721061
652.85378184
650.207750105
647.668161716
645.233528565
642.902333132
640.673023533
638.544009391
636.513658946
634.580297577
632.742207954
630.997631841
629.34477358
627.781805166
626.306872814
624.918104857
623.6136208
622.391541343
621.249999161
620.187150231
619.20118551
618.290342748
617.452918243
616.68727837
615.991870714
615.36523466
614.806011339
614.312952771
613.884930249
613.520941815
613.220118321
612.981729091
612.805188935
612.690303434
612.635281713
952.854340524
952.313131845
951.270834295
949.685377252
947.577074914
944.967859041
941.883238261
938.351501335
934.402899724
930.068918747
925.381662414
920.37333529
915.075804736
909.520227915
903.736733597
897.75415602
891.599825285
885.299423401
878.876916327
872.354568351
865.753036248
859.091527259
852.387990782
845.659303367
838.921407208
832.189377104
825.47741794
818.798819109
812.165900746
805.589984536
799.081388253
792.649453508
786.302596712
780.048365654
773.893493114
767.843945441
761.90496484
756.081106309
750.376271613
744.793742351
739.336213729
734.005829477
728.804218219
723.732530979
718.791479859
713.981377594
709.302178066
704.753517381
700.334755352
696.045016645
691.883231054
687.848171902
683.938491876
680.152755363
676.489466795
672.947094366
669.524089031
666.218898583
663.02997708
659.955789835
656.994814549
654.145539063
651.406456507
648.776058448
646.252826879
643.835225645
641.521692077
639.310629317
637.200399922
635.189321054
633.27566159
631.457641249
629.73343184
628.101160543
626.558915154
625.10475109
623.736699985
622.452779632
621.251005049
620.129400404
619.086011574
618.118919073
617.226251117
616.406196612
615.657017838
614.977062674
614.364776176
613.818711406
613.337539404
612.920058135
612.565200529
612.272041563
612.03980336
611.867862052
611.755987004
611.702546218
958.898975913
958.311149654
957.188152851
955.481772771
953.216192995
950.417536366
947.115814435
943.343891843
939.136488519
934.529336574
929.558503517
924.259844812
918.668551615
912.818765602
906.743244082
900.473071966
894.037429317
887.463432214
880.7760677
873.998239321
867.150926319
860.2534382
853.323720494
846.378646628
839.434226915
832.505689902
825.607442327
818.752961385
811.954684242
805.223947121
798.57097853
792.004940304
785.534010328
779.165458873
772.905718104
766.760439685
760.734540378
754.832238865
749.057088144
743.412007655
737.899317022
732.520772151
727.277603239
722.170554475
717.199924936
712.3656108
707.667148692
703.103760258
698.674397428
694.377787918
690.212479842
686.17688452
682.269316181
678.488027685
674.831241269
671.297173885
667.884056659
664.590148593
661.41374456
658.353178168
655.406819967
652.573071864
649.850358468
647.23711635
644.731782014
642.332779552
640.038508666
637.847333874
635.757575384
633.767502162
631.875327407
630.079206663
628.377238495
626.76746772
625.247890942
623.816464228
622.471112601
621.209741121
620.030247228
618.930534071
617.908524534
616.962175653
616.089493166
615.288545925
614.557479929
613.894531786
613.298041421
612.766463889
612.298380161
611.892506904
611.547705133
611.262987224
611.037523265
610.870648043
610.762089198
610.710381686
965.541713458
964.898896792
963.681269214
961.833616771
959.38518652
956.36749609
952.816197341
948.769728856
944.268112826
939.35200721
934.061995061
928.438039592
922.519044061
916.342470384
909.943991078
903.357171033
896.613195804
889.740677966
882.765580514
875.711292016
868.598870068
861.447435284
854.274652663
847.097193435
839.931054427
832.791648018
825.69367773
818.650908962
811.675957577
804.780179817
797.973671188
791.265344114
784.663063195
778.173752753
771.803487107
765.557557137
759.440516698
753.456214983
747.607823858
741.897866717
736.328251737
730.900309052
725.614830964
720.472113913
715.472001886
710.613931121
705.89697661
701.319900333
696.881201139
692.579165324
688.411916834
684.377465422
680.473751385
676.698685349
673.050182153
669.526187969
666.124700419
662.843781551
659.68156412
656.636251599
653.706112854
650.889472275
648.184696551
645.59017905
643.104323028
640.725524595
638.452156545
636.282553763
634.215001012
632.247723512
630.378880706
628.606563258
626.928793317
625.343527808
623.848664538
622.442050755
621.12149385
619.884773847
618.729657323
617.653912438
616.655324699
615.731713165
614.880946722
614.100960167
613.389769787
612.745488248
612.166338541
611.650666897
611.196954539
610.803828112
610.470068937
610.194621119
609.97659722
609.815285025
609.710368343
609.660556305
972.833271295
972.125040738
970.795604919
968.78184418
966.119768247
962.847935005
959.00910395
954.648495809
949.812378395
944.54705524
938.89818046
932.910274247
926.626339076
920.087506798
913.332680858
906.398172247
899.317358441
892.120418962
884.834215417
877.48238325
870.08567924
862.662577451
855.230026938
847.804195805
840.400975721
833.036066946
825.724674472
818.481046496
811.318088663
804.247180457
797.278202499
790.419708856
783.679142005
777.062991141
770.576905731
764.225768456
758.013736186
751.944260128
746.02010155
740.243354736
734.615479434
729.137340203
723.80924956
718.631012955
713.601974473
708.721064025
703.986846728
699.397575282
694.951245059
690.645651138
686.478445382
682.447191601
678.549416531
674.782654894
671.144487019
667.632568241
664.24464956
660.978589738
657.83235916
654.804036364
651.891798111
649.093904337
646.408679146
643.834489339
641.369721691
639.012760393
636.761965729
634.615655102
632.572087147
630.629449582
628.785851058
627.039317156
625.387790339
623.829133612
622.361137466
620.981529691
619.687987619
618.478152366
617.349644686
616.300082018
615.327096364
614.428352563
613.601566625
612.844523738
612.155095644
611.531257121
610.971101347
610.472854005
610.034885984
609.655724724
609.3340641
609.068772405
608.858899313
608.703682725
608.602756648
608.555011113
980.833662777
980.046765868
978.583912785
976.373198199
973.459887684
969.891861779
965.720876922
961.000366616
955.783862167
950.1240183
944.07206461
937.677477601
930.987721238
924.047957446
916.900680392
909.585278454
902.13757251
894.589416122
886.968470159
879.298273044
871.598705353
863.886875418
856.17832011
848.488236282
840.832321372
833.226824398
825.687866768
818.230540072
810.868220326
803.612288164
796.472254611
789.456129256
782.570772699
775.822124637
769.215335255
762.754835719
756.444362737
750.286951456
744.284929121
738.439928883
732.752923503
727.224269255
721.85375428
716.640647207
711.583745017
706.681421723
701.931680334
697.332209305
692.880443951
688.573631422
684.408896851
680.383307456
676.493931703
672.737890915
669.112401652
665.614807676
662.24260123
658.993433696
655.865116421
652.855612615
649.963021784
647.185558072
644.521524263
641.96928299
639.527226925
637.193749407
634.967217064
632.845945551
630.828179491
628.912077194
627.09570058
625.377010225
623.753865334
622.224028115
620.78517201
619.434893186
618.170724735
616.990153086
615.890636175
614.869622928
613.924573608
613.052980576
612.252389004
611.520417145
610.854775749
610.253286373
609.713898291
609.234703899
608.813952507
608.450062371
608.141631161
607.887445049
607.686484815
607.53793235
607.441369673
607.395873482
989.614635513
988.731823782
987.107733748
984.660985291
981.44988446
977.534839289
972.979003317
967.845643961
962.196557857
956.091338068
949.587150918
942.738712975
935.598253114
928.215332222
920.636466093
912.904566398
905.058274974
897.13132062
889.152074256
881.143509988
873.123772526
865.10746617
857.107572549
849.13755407
841.212854339
833.350857695
825.569415401
817.885110204
810.31205568
802.861535982
795.542380924
788.361726757
781.325622751
774.439321813
767.707400733
761.133811235
754.721870861
748.474201221
742.39268142
736.478451603
730.73195493
725.152992107
719.740778523
714.493998009
709.410851256
704.489104258
699.726141343
695.119025656
690.66456793
686.359401957
682.200062606
678.183061927
674.304958824
670.562419131
666.952263687
663.47150342
660.117360954
656.887279317
653.77891857
650.790141922
647.918992888
645.163665546
642.522469754
639.993793535
637.576064487
635.267712287
633.067133924
630.972663276
628.98254613
627.094921509
625.307809569
623.619106025
622.026582545
620.527892426
619.12058067
617.802097708
616.569816058
615.421049365
614.353073344
613.363148131
612.448541572
611.606552896
610.834536249
610.129923564
609.490246353
608.913156043
608.396442626
607.938051447
607.536098023
607.188881012
606.89489325
606.652830531
606.461598989
606.320321515
606.228521787
606.185468423
999.26309844
998.261340093
996.439239216
993.705789302
990.138330697
985.814320157
980.811249788
975.203897419
969.063121188
962.455740179
955.44493165
948.090725222
940.450314511
932.578040263
924.524988142
916.338234524
908.059849747
899.725839729
891.365283882
883.000004242
874.645146653
866.310992055
858.006029115
849.740660254
841.530100113
833.394132905
825.3539084
817.428633106
809.633529919
801.97946697
794.47394616
787.122661236
779.930540287
772.902010006
766.041018199
759.351042838
752.835032109
746.495233551
740.333076129
734.349169639
728.543375744
722.914883822
717.462283323
712.183623925
707.076460786
702.137898192
697.364641214
692.7530592
688.299263727
683.999198088
679.84873178
675.843752644
671.980250506
668.254387797
664.662554697
661.201407528
657.867890453
654.659241148
651.572981997
648.606898589
645.759007856
643.027518108
640.410783573
637.907255802
635.515434532
633.233820195
631.060870385
628.994961992
627.034360619
625.177198089
623.421458506
621.76497245
620.205418561
618.740331282
617.367113591
616.083053622
614.885344357
613.771105805
612.737409178
611.781302634
610.899838015
610.090097981
609.34922284
608.674436491
608.063070899
607.512588754
607.020603976
606.584899981
606.203445635
605.874408829
605.596167972
605.36732175
605.186695338
605.053346247
604.966737694
604.926334461
1009.88605069
1008.73377986
1006.66357302
1003.57592842
999.577227109
994.76827964
989.244211863
983.092694508
976.393883859
969.221524393
961.644382663
953.727536571
945.533187408
937.120862642
928.546956736
919.863673299
911.117515845
902.34755815
893.583839092
884.846385404
876.145538395
867.484327189
858.863350638
850.287472053
841.771894308
833.341509928
825.023770045
816.842451937
808.8142941
800.948902403
793.251122582
785.72422002
778.371656258
771.196961879
764.203448513
757.394183855
750.771890577
744.338546947
738.095139129
732.041687693
726.177400355
720.500784966
715.009745299
709.701649484
704.573361481
699.621271351
694.84134089
690.229168327
685.780077855
681.489229357
677.351736069
673.362779004
669.517708773
665.812129582
662.241962507
658.803487456
655.493364094
652.308633219
649.246700521
646.30530542
643.482477665
640.776484832
638.185773561
635.708907689
633.344506093
631.091183205
628.94749474
626.911891071
624.982679997
623.158000204
621.435805676
619.81386054
618.289742886
616.860855793
615.524443742
614.27761298
613.117354866
612.040571655
611.044104419
610.124762691
609.279355306