/*--------------------------------*- C++ -*----------------------------------*\
| =========                 |                                                 |
| \\      /  F ield         | OpenFOAM: The Open Source CFD Toolbox           |
|  \\    /   O peration     | Version:  v1906                                 |
|   \\  /    A nd           | Web:      www.OpenFOAM.com                      |
|    \\/     M anipulation  |                                                 |
\*---------------------------------------------------------------------------*/
FoamFile
{
    version     2.0;
    format      ascii;
    class       volScalarField;
    location    "105";
    object      p;
}
// * * * * * * * * * * * * * * * * * * * * * * * * * * * * * * * * * * * * * //

dimensions      [0 2 -2 0 0 0 0];


internalField   nonuniform List<scalar> 
9216
(
299.241340157
299.320566452
299.497940217
299.760773825
300.109964669
300.543982214
301.060789504
301.657848015
302.332338538
303.081076594
303.900719635
304.787639445
305.7381573
306.748373778
307.81442314
308.932279623
310.098019886
311.307590743
312.557089875
313.842508116
315.160040069
316.505770098
317.876009083
319.266981158
320.675146407
322.09686431
323.528739228
324.967268079
326.409213904
327.851210191
329.2901582
330.722822145
332.146243272
333.55735608
334.953332515
336.331217878
337.688342836
339.02191009
340.329420756
341.608274672
342.856177937
344.070761946
345.249982328
346.391765181
347.494402773
348.556185444
349.575786317
350.551935782
351.483778586
352.370551922
353.211927908
354.007702749
354.758104103
355.463491947
356.124636612
356.742429287
357.318125548
357.853063353
358.348880014
358.807243545
359.23005284
359.619183598
359.976664271
360.304444461
360.604559456
360.878920509
361.129479363
361.358045127
361.566426935
361.756263555
361.929176182
362.086615221
362.22999981
362.360586222
362.479593585
362.58808019
362.687074337
362.777467039
362.860114573
362.935736442
363.005070057
363.06845036
363.125178909
363.174472629
363.216528467
363.252342853
363.282891144
363.308139263
363.32787132
363.342598247
363.353062984
363.36028783
363.365227449
363.368289589
363.369852663
363.370396429
299.16225829
299.241933619
299.415510146
299.678511519
300.028993286
300.464951246
300.98413007
301.583913614
302.26139746
303.013371505
303.836422548
304.726913324
305.681094852
306.695066424
307.764899313
308.886579991
310.056123785
311.269497972
312.522744581
313.811886854
315.133065232
316.482411611
317.8561784
319.250632816
320.662181438
322.087238827
323.522357191
324.964092406
326.409148266
327.854218135
329.296137855
330.731745183
332.1580219
333.571942511
334.970622885
336.351170577
337.710847286
339.046912024
340.356795439
341.637947636
342.887999675
344.104632084
345.285730378
346.42925702
347.533423635
348.596562563
349.617277424
350.594333999
351.526811311
352.413985012
353.255470703
354.051109815
354.801088026
355.505816335
356.166035991
356.7827014
357.357053274
357.89049554
358.384656287
358.841269427
359.262233211
359.649486378
360.005053892
360.330941732
360.629179594
360.90172346
361.150512413
361.377393167
361.584162226
361.772490737
361.943978682
362.100097769
362.242246116
362.371697971
362.489652981
362.597182333
362.69529287
362.784888626
362.866802674
362.941735163
363.010292283
363.072798989
363.128872416
363.177797043
363.219638975
363.255104084
363.285063664
363.309673715
363.329267995
363.343998151
363.354196649
363.361218876
363.366129382
363.369030685
363.370421503
363.370995033
298.984286097
299.069528749
299.244900769
299.510414322
299.864252956
300.304403358
300.828513053
301.433877457
302.117487691
302.876052395
303.706060249
304.603804241
305.565450023
306.587046305
307.66458363
308.794012272
309.971293112
311.192369396
312.453237917
313.749919795
315.078514033
316.435160027
317.816088279
319.217576264
320.636005479
322.067812518
323.50952495
324.957725042
326.409094651
327.860360155
329.308334259
330.749878798
332.181945362
333.601527336
335.005717009
336.39163909
337.756517127
339.097625222
340.41235119
341.698148518
342.952599114
344.173377684
345.358310939
346.505356592
347.612664599
348.678549115
349.701558106
350.680444862
351.614239236
352.502207676
353.343933815
354.139275055
354.888402065
355.59176169
356.250109043
356.86445269
357.436067075
357.966429238
358.457217251
358.910244125
359.327455152
359.71086569
360.062547224
360.384569105
360.678993828
360.947827989
361.193032717
361.41648909
361.620000765
361.805258039
361.973857197
362.127290099
362.26694132
362.394093209
362.509933317
362.615524839
362.711869128
362.799873351
362.880353302
362.954023709
363.021509925
363.082991415
363.137650824
363.185236636
363.226132434
363.260773018
363.289253428
363.312692284
363.332044547
363.346543514
363.356254523
363.363128923
363.367767376
363.370443206
363.371887242
363.372629775
298.718219781
298.805991745
298.984305116
299.253952643
299.613153218
300.059854054
300.591596598
301.205553347
301.898577539
302.667245538
303.507912884
304.416752774
305.389811646
306.423037566
307.512331298
308.653570259
309.84263753
311.07543168
312.347899613
313.656035241
314.995905457
316.363636041
317.755438116
319.167593076
320.596464918
322.038498964
323.490220365
324.948226211
326.409188569
327.869842215
329.327003913
330.777542614
332.218400538
333.646576403
335.059143882
336.453229475
337.826026795
339.174800609
340.496907731
341.789779786
343.050943895
344.278036167
345.468834027
346.621250754
347.733374123
348.803463472
349.830001919
350.811696414
351.747518818
352.636714144
353.478824408
354.273701845
355.021524157
355.722768225
356.378230266
356.988985968
357.556381195
358.081988748
358.567582757
359.015083502
359.426528362
359.804034132
360.149756614
360.465850481
360.754444725
361.017608375
361.257345109
361.475576152
361.674129091
361.854715062
362.018939966
362.168298483
362.304170662
362.427838133
362.540468003
362.643122233
362.736794588
362.822388779
362.900725615
362.972577872
363.038685495
363.098283602
363.150559347
363.196247471
363.235649797
363.268704019
363.29569296
363.318144461
363.336219802
363.349874187
363.359617726
363.366228724
363.370533415
363.373142972
363.374614857
363.375353401
298.3603705
298.450461483
298.632727511
298.908086968
299.274695938
299.730400351
300.272595002
300.898282958
301.604135118
302.386545799
303.241689831
304.165574007
305.154084517
306.203035131
307.308206751
308.465370674
309.670320209
310.918884815
312.206953962
313.530477871
314.885487096
316.268092452
317.674482776
319.100931803
320.543799232
321.99953787
323.464675339
324.935810144
326.409624732
327.882862586
329.352338616
330.814931284
332.26757617
333.707271018
335.131083318
336.536125448
337.919572909
339.27866782
340.610714754
341.913100321
343.183319242
344.418956488
345.617711443
346.777425389
347.89609368
348.971900049
350.00325232
350.988779215
351.927379476
352.818245871
353.660883487
354.455133794
355.201169087
355.899505961
356.551008422
357.156838016
357.718446531
358.237535751
358.716015809
359.155951551
359.559521061
359.928974807
360.266588238
360.574630312
360.855322478
361.110810756
361.343162905
361.554350336
361.746231774
361.920539481
362.078893239
362.222793204
362.353614807
362.472620039
362.580958571
362.679687595
362.76979039
362.852148404
362.927560375
362.996785999
363.06048493
363.117630204
363.167617415
363.211033264
363.248181328
363.279097491
363.30432688
363.325268745
363.342446306
363.355345666
363.364415145
363.370666064
363.374818133
363.377337906
363.378778937
363.379514376
297.908468419
298.001165572
298.188422547
298.47112511
298.847289067
299.314592712
299.870225846
300.510964625
301.23324152
302.033211374
302.906817112
303.849846562
304.857989386
305.926883867
307.05215657
308.229449556
309.454448395
310.722893711
312.030604507
313.373485468
314.74752838
316.148811167
317.573506474
319.017883292
320.478301869
321.951219123
323.433170595
324.920763832
326.410684662
327.899691244
329.384600759
330.862296747
332.329727352
333.783886399
335.221828472
336.640650604
338.037487839
339.409563719
340.754151967
342.068584281
343.350287367
344.596766004
345.805627944
346.974617685
348.101638818
349.184766238
350.222295462
351.212746027
352.154924123
353.047952033
353.891275952
354.684713036
355.42844066
356.123023099
356.769407981
357.368862862
357.922990278
358.43365609
358.902957546
359.333155072
359.726596352
360.085718618
360.412960543
360.710736398
360.981379667
361.227133628
361.450140233
361.652430009
361.835903676
362.002317164
362.153306699
362.290368181
362.414865926
362.528043995
362.631035027
362.724883725
362.810539901
362.888844489
362.960582435
363.026507891
363.087244467
363.141389082
363.188135367
363.22851792
363.263102316
363.29172537
363.31558578
363.335428986
363.351094271
363.362392325
363.370891351
363.376828271
363.380656126
363.38331374
363.384792994
363.385559817
297.359834738
297.455641583
297.649047089
297.94085977
298.328895027
298.8105957
299.382879035
300.042225022
300.784760652
301.606336943
302.502605137
303.469081218
304.501211279
305.594421861
306.74415046
307.945883845
309.195182191
310.487687472
311.819140048
313.185385183
314.582374812
316.00615539
317.452880614
318.918821518
320.400347153
321.893917399
323.396073373
324.903438636
326.412706713
327.920649467
329.424107251
330.919971519
332.405192239
333.876758933
335.331719296
336.767148533
338.180162707
339.567956702
340.927751714
342.256819354
343.552490155
344.81217641
346.033394554
347.213770147
348.351058585
349.44320297
350.488362388
351.484923964
352.431568651
353.32729901
354.171489311
354.963921042
355.704775968
356.394675013
357.034658989
357.626147357
358.170931386
358.671097777
359.12896024
359.547010923
359.927883742
360.27425515
360.588744065
360.873943439
361.132300571
361.366183195
361.577827954
361.769335783
361.94263585
362.09952529
362.241653867
362.370502674
362.4874255
362.59364438
362.690262496
362.778289224
362.858627066
362.932090051
362.999446654
363.061463013
363.118306343
363.168673865
363.211826055
363.24894163
363.280739088
363.307260963
363.329411342
363.347437085
363.36131643
363.37170283
363.379603599
363.385175836
363.388689558
363.391294361
363.3927712
363.39351641
296.711245349
296.810792231
297.011652858
297.314535693
297.716992069
298.216157653
298.808597
299.490411311
300.257341675
301.104862105
302.028262021
303.022729952
304.083419485
305.205499388
306.384192456
307.614808958
308.892762811
310.21358545
311.572933531
312.96659209
314.390465486
315.840576314
317.313068508
318.804216478
320.310398247
321.828078693
323.353816162
324.884246179
326.416088308
327.946139831
329.471252692
330.98833514
332.494338964
333.986267804
335.461150636
336.916047029
338.348076034
339.754379321
341.132103566
342.478449456
343.79066937
345.066061676
346.302008111
347.495980292
348.645583004
349.748596475
350.802989663
351.806970404
352.759051908
353.658103639
354.503385643
355.294611732
356.031972857
356.716152903
357.34831473
357.930067372
358.463438536
358.950722197
359.394578249
359.79789185
360.16359596
360.494616285
360.793814982
361.06396421
361.307682966
361.527469672
361.725667044
361.904437854
362.065776373
362.211510306
362.343277692
362.462561321
362.57068695
362.668842247
362.758087148
362.839378175
362.913570019
362.981433011
363.043685948
363.100995144
363.153423078
363.199346779
363.238432603
363.272287129
363.301082249
363.325263581
363.345309306
363.361413502
363.373831049
363.383501702
363.390480858
363.395688469
363.399155538
363.401295476
363.402799668
363.403491559
295.958811765
296.062838059
296.272644551
296.588807783
297.008544231
297.52859105
298.14506557
298.85359236
299.649430627
300.527588755
301.48292061
302.510220048
303.604292835
304.760013694
305.97236117
307.236444437
308.547521044
309.901003949
311.292463349
312.717623854
314.172345606
315.652632646
317.154634577
318.674627411
320.208998664
321.75423235
323.306902659
324.863677233
326.421309049
327.976615185
329.526475061
331.067808488
332.597594721
334.112836625
335.610557348
337.087835714
338.541755901
339.969391291
341.367839541
342.734228614
344.065696599
345.359401769
346.612575302
347.82253141
348.986684739
350.102579817
351.167967158
352.180843539
353.13949387
354.042584608
354.889229021
355.679056046
356.412238548
357.089544087
357.712288212
358.282276709
358.801777116
359.273510821
359.700615273
360.086329574
360.433960207
360.746776669
361.027926248
361.28039415
361.506977729
361.710333293
361.892908025
362.05695537
362.204519474
362.337446536
362.457377973
362.565770731
362.663909662
362.752941814
362.833858771
362.907557875
362.97483144
363.036395473
363.092915192
363.144991062
363.192365261
363.233148632
363.268178661
363.298354388
363.323941895
363.34561852
363.363432324
363.377625481
363.388705822
363.39722324
363.403650877
363.408275996
363.411556449
363.413320986
363.414861537
363.415475996
295.097872917
295.207242325
295.427712964
295.759687736
296.199956187
296.744746759
297.389608333
298.129568438
298.959290603
299.873213407
300.865668821
301.930983656
303.063563691
304.257945086
305.508834981
306.811126528
308.159912862
309.550486659
310.978335549
312.4391233
313.928678361
315.44299845
316.978245985
318.530707072
320.096784735
321.672985157
323.255920486
324.842299531
326.428902713
328.012586002
329.590257067
331.158864367
332.715410197
334.256917205
335.780434128
337.283029028
338.761738155
340.213604315
341.635670322
343.024959991
344.378483492
345.693263431
346.96636452
348.194886871
349.376005373
350.507020925
351.585405334
352.608863101
353.575390688
354.483393136
355.331771809
356.120010781
356.848260747
357.517385664
358.128817118
358.684647426
359.187590443
359.640830059
360.047981664
360.412803371
360.739113302
361.030586479
361.290687276
361.522650023
361.729478288
361.913955512
362.078664111
362.225941337
362.357890544
362.476368253
362.583005046
362.679222985
362.766247653
362.845144628
362.91683942
362.982154295
363.041799677
363.09641644
363.146583501
363.192826945
363.234275095
363.269830512
363.300639405
363.326954141
363.349491655
363.368554654
363.383897395
363.395949652
363.405422161
363.412832626
363.418795056
363.423140476
363.425893408
363.427505567
363.428897832
363.429494216
294.122873354
294.238598471
294.471742585
294.822471012
295.287025357
295.860984225
296.539176368
297.315882065
298.185030806
299.14036817
300.175603101
301.284518367
302.461062759
303.699399458
304.99393723
306.339344455
307.730549189
309.162729235
310.631298884
312.13186787
313.660255274
315.21247315
316.784689252
318.373216694
319.974482612
321.585037849
323.201543182
324.820745519
326.439464947
328.054602196
329.663121036
331.261998406
332.848277148
334.419019139
335.971285802
337.502131294
339.008585023
340.487662986
341.936313338
343.351464842
344.730015814
346.068828745
347.364739475
348.61461964
349.815393822
350.964041988
352.057703379
353.093715236
354.069705027
354.983707369
355.834310667
356.620791555
357.343279791
358.002630462
358.600551776
359.139639471
359.62294431
360.054162996
360.437606376
360.777747263
361.079053785
361.345696699
361.581527071
361.790001941
361.974289459
362.137318548
362.281824866
362.410238537
362.524711902
362.627110871
362.719052105
362.801860904
362.876692072
362.94453121
363.006203068
363.062426792
363.113813837
363.16089489
363.204149349
363.243875027
363.279037934
363.309417943
363.335672631
363.358099375
363.377441284
363.39344127
363.406158013
363.416303372
363.424445358
363.430851458
363.435910699
363.439793359
363.442386246
363.443853501
363.444925262
363.445531356
293.027207158
293.150494254
293.398691691
293.771643054
294.264878836
294.873143167
295.590349311
296.409841543
297.324644291
298.327668463
299.41188353
300.570445691
301.796788257
303.08466955
304.428187544
305.821784828
307.260233361
308.738611442
310.252271493
311.796803188
313.368025284
314.961978941
316.574864835
318.203019708
319.842924187
321.491187386
323.144516778
324.799706765
326.45364205
328.103290629
329.745641838
331.377750192
332.996714282
334.599629822
336.183586944
337.745651604
339.282862227
340.792169452
342.270472058
343.714608225
345.12132536
346.487293318
347.809134214
349.083464857
350.306874148
351.476003092
352.58758194
353.6384969
354.62588165
355.547266747
356.400779262
357.185399807
357.901105975
358.548805548
359.130820376
359.650221766
360.11019803
360.51518654
360.870433294
361.181470124
361.453588142
361.691585904
361.899674179
362.081497858
362.240306475
362.379204075
362.501049876
362.608446321
362.703580036
362.788332269
362.864200158
362.932449036
362.994119587
363.050065689
363.101000326
363.147522992
363.190118789
363.229198021
363.265092086
363.297832578
363.326736921
363.351868204
363.373277997
363.391591293
363.407322288
363.420062245
363.430429268
363.438886843
363.445718974
363.451009791
363.455187484
363.458267625
363.460617876
363.46209207
363.462749839
363.463270171
291.803013569
291.935319609
292.201440635
292.60076627
293.127903472
293.776514974
294.53934531
295.40856303
296.37607753
297.433794614
298.573817782
299.788588289
301.070973161
302.41430182
303.812361242
305.259381852
306.750002751
308.27922911
309.84237214
311.435041862
313.053091322
314.692591941
316.349798348
318.021104425
319.70305239
321.392317014
323.085661482
324.779954335
326.472157906
328.159290196
329.838422143
331.506680956
333.161233432
334.799230859
336.417811542
338.014087059
339.585071219
341.127707986
342.638854362
344.115214707
345.553395076
346.949890822
348.30106164
349.60321467
350.852608993
352.045470384
353.178060297
354.246710698
355.247920292
356.178511243
357.035924836
357.818612334
358.526323143
359.160263114
359.723581787
360.219933591
360.652196355
361.025766622
361.347397249
361.624084747
361.862243655
362.067372703
362.244033721
362.39592054
362.526201642
362.638088676
362.734715859
362.818882538
362.892854823
362.958397476
363.016930465
363.069585602
363.117227766
363.160568521
363.200182853
363.236521789
363.269926211
363.300667631
363.328925424
363.354673707
363.377239207
363.396506466
363.412832994
363.427037249
363.439011623
363.448899641
363.457002281
363.463565348
363.46875724
363.472840504
363.476143935
363.478594189
363.480381803
363.481798235
363.482045964
363.482478319
290.440927565
290.58404272
290.871592938
291.302340616
291.869664249
292.565819103
293.382047206
294.309035628
295.337319523
296.457599615
297.660974645
298.939083834
300.284187754
301.6891813
303.147559337
304.653373316
306.201167285
307.785918106
309.40294871
311.047909108
312.716727251
314.405537077
316.110659687
317.828574281
319.555908629
321.289396446
323.025888248
324.762340389
326.495778451
328.223305687
329.942087642
331.649352359
333.342339219
335.01828098
336.674406473
338.307847296
339.915661764
341.494805325
343.042050788
344.554025464
346.027199838
347.457823762
348.842010442
350.175732895
351.454857096
352.675179076
353.832422783
354.922276105
355.940427424
356.882711112
357.745509628
358.52611498
359.224637901
359.842168107
360.383291964
360.853210722
361.252501899
361.588087269
361.869249581
362.105215023
362.303928329
362.471664668
362.613146659
362.731815384
362.830434681
362.912192716
362.980820915
363.039529317
363.090514993
363.135427309
363.175528309
363.211678616
363.244596252
363.274783984
363.302628693
363.328419037
363.352352747
363.374564384
363.395102252
363.413716409
363.42958062
363.442985514
363.454315047
363.464349558
363.472853638
363.479848589
363.485570308
363.489948477
363.493386812
363.496236528
363.498552714
363.5002967
363.50164226
363.502655833
363.502720119
363.503031904
288.929740412
289.085899205
289.399233351
289.867625589
290.482815269
291.235191247
292.114056529
293.108224319
294.206534608
295.398254549
296.673326466
298.022515969
299.437456249
300.910630201
302.435289002
304.005361007
305.615366378
307.260308161
308.935585531
310.636934575
312.360388361
314.102189747
315.858755367
317.626667471
319.402639171
321.183500445
322.966201925
324.747770039
326.525320766
328.296074828
330.057303018
331.806335665
333.540522841
335.257214867
336.953722044
338.627272876
340.275000024
341.893839588
343.480555978
345.031711939
346.54358132
348.012216612
349.433433984
350.802850865
352.115916003
353.367948705
354.554147434
355.669476727
356.708660911
357.666178826
358.536361609
359.314960958
360.003331857
360.600308314
361.114575523
361.556005721
361.915868696
362.204624563
362.436289852
362.623691585
362.776686115
362.902245297
363.004964003
363.087563783
363.151310601
363.199373372
363.236880323
363.267858339
363.294200824
363.317276556
363.338002136
363.356975779
363.374667051
363.391314085
363.407094959
363.422100926
363.43642284
363.449992129
363.462658408
363.473918709
363.483317284
363.491158722
363.497686754
363.503599715
363.508595811
363.512506361
363.515527851
363.517651409
363.519509771
363.521187386
363.522382251
363.523294621
363.523978675
363.524527875
363.524708999
363.524768219
287.255932482
287.427976221
287.772605419
288.286436678
288.958999497
289.778195065
290.730790059
291.803224348
292.982252983
294.255444156
295.611440751
297.040083978
298.532398958
300.080520935
301.677544121
303.317378293
304.99460493
306.704339898
308.44212983
310.203868572
311.985731928
313.784100079
315.595527524
317.416724953
319.244507409
321.075810625
322.907676994
324.737223644
326.561689715
328.378397359
330.184745733
331.978195103
333.75623954
335.516369844
337.256033491
338.972603916
340.663271316
342.325046017
343.954712542
345.548727923
347.103238704
348.614056361
350.076678942
351.486327754
352.83800968
354.126598296
355.346753958
356.49282505
357.558507678
358.536204748
359.4174028
360.194048915
360.871854633
361.440879235
361.920958385
362.3377273
362.649533816
362.878359751
363.048048042
363.177037978
363.277235709
363.355938502
363.417018623
363.461706053
363.487394348
363.497228728
363.499636328
363.500768111
363.501167405
363.501402841
363.502136511
363.503528112
363.505738688
363.508673948
363.512286175
363.516453682
363.521090784
363.525995699
363.530722342
363.534714599
363.537835224
363.540167473
363.542490825
363.544351378
363.545631115
363.546500707
363.546638471
363.546801433
363.547214862
363.547382032
363.547288093
363.547297248
363.547304401
363.547412889
363.547545182
363.547383034
285.403063048
285.594668164
285.97768359
286.54689105
287.288769584
288.187879163
289.227650531
290.391499864
291.663637255
293.029640868
294.47672732
295.993812411
297.571401955
299.201408201
300.876911662
302.591949912
304.341296902
306.120288345
307.924710277
309.750685957
311.594583684
313.45297277
315.322570563
317.200223857
319.082880456
320.967584055
322.851474991
324.731784371
326.605839464
328.471102793
330.325112257
332.165489672
333.989903192
335.796028832
337.581520244
339.343887192
341.080493086
342.788454066
344.464578502
346.105310246
347.7066406
349.264133142
350.772921368
352.227782501
353.623241696
354.953713416
356.213535514
357.396728263
358.496188383
359.501873881
360.400976674
361.173478653
361.844935188
362.369674186
362.797748355
363.213904924
363.462360057
363.609281552
363.699379195
363.758064294
363.798250605
363.826155347
363.844460765
363.852624087
363.838005786
363.802806323
363.764204023
363.734276582
363.708126359
363.684945541
363.665521361
363.649217572
363.636002134
363.625288916
363.616835983
363.610257407
363.605223909
363.601420227
363.598203095
363.595233552
363.592485941
363.590045492
363.588013948
363.585767617
363.583462225
363.581171564
363.578788316
363.577099651
363.575562894
363.57408036
363.572805479
363.571903231
363.571346814
363.570919044
363.570841551
363.570527023
283.350906421
283.566943146
283.997636939
284.635087196
285.461509924
286.456906846
287.600299247
288.871246324
290.250864672
291.722459341
293.271751056
294.886811969
296.557810201
298.2766568
300.036650146
301.832149468
303.658293532
305.510783308
307.385739133
309.27958996
311.188963575
313.110657831
315.041583396
316.97874698
318.919232464
320.860196877
322.798879202
324.732593261
326.658799782
328.575078636
330.479132669
332.368772686
334.241883763
336.096398794
337.930176495
339.740991954
341.526425231
343.283771431
345.00994072
346.701368496
348.35395138
349.962964091
351.523118477
353.028634704
354.473454069
355.851527681
357.157143452
358.384796597
359.527562562
360.574134251
361.505069542
362.260255647
362.949756125
363.392375869
363.732647556
364.337279607
364.474648004
364.479122105
364.44940325
364.414346768
364.380553605
364.349781728
364.323432159
364.302164699
364.230607716
364.123013523
364.024022485
363.963951545
363.911848735
363.864699876
363.825493
363.791769758
363.763600466
363.739510608
363.719304126
363.702282658
363.687984902
363.675960543
363.665018147
363.655486646
363.647174081
363.640028219
363.633401988
363.627151277
363.621359125
363.616015653
363.611269771
363.607468529
363.603925323
363.601026897
363.598730526
363.596943438
363.595689414
363.594793694
363.59439067
363.593937659
281.074258398
281.321304896
281.812118917
282.534769901
283.46543103
284.577818024
285.845101744
287.241919478
288.745672776
290.337153436
292.000633697
293.72357809
295.496145839
297.310596015
299.160770883
301.041629039
302.948889646
304.878783602
306.827878253
308.792980669
310.77104608
312.759135348
314.754389677
316.753976968
318.755132456
320.755114886
322.751242935
324.740925715
326.721697786
328.691290584
330.647580054
332.588601619
334.512526
336.417541003
338.301847858
340.163542792
342.000524148
343.810354789
345.590142329
347.336398731
349.044921627
350.710723922
352.327974883
353.89015132
355.390315418
356.82175697
358.178933169
359.457999237
360.655657201
361.76443976
362.766462542
363.467575256
364.402294189
364.610012199
364.495712616
364.48724407
364.526562514
364.523748599
364.499922829
364.470824666
364.442021466
364.416585714
364.399437708
364.399370735
364.385146131
364.313643634
364.24316072
364.184208902
364.11750868
364.03926018
363.979830646
363.928676792
363.886370425
363.849437062
363.818287485
363.791272225
363.768107053
363.748068937
363.730222446
363.71457567
363.700918788
363.688869052
363.677976314
363.668039788
363.658989338
363.650777856
363.643914423
363.637946004
363.632731245
363.628451077
363.624991518
363.622258572
363.620146951
363.618823659
363.617978644
363.617456318
278.541206776
278.828373853
279.396315057
280.226938733
281.287687012
282.543523421
283.959825136
285.505012152
287.152102068
288.879255339
290.669558858
292.510348193
294.392322874
296.308631928
298.254100308
300.224642866
302.216817772
304.227563378
306.25402012
308.293430302
310.343129523
312.400482034
314.462872824
316.527674576
318.592233365
320.653909501
322.710066648
324.758143694
326.795776629
328.82080347
330.831296797
332.825577765
334.802096403
336.759429293
338.696182194
340.610880346
342.50186272
344.367092805
346.204000641
348.009296707
349.778769265
351.507131395
353.187941699
354.813578906
356.375649402
357.865950198
359.278629053
360.613360209
361.87832703
363.102352948
364.410878919
364.597308378
364.604964608
364.63971714
364.604017129
364.538100141
364.523328417
364.506835413
364.482675281
364.455814836
364.429170161
364.404629023
364.384223774
364.369971942
364.349153247
364.320750064
364.309066681
364.289547815
364.232345827
364.177467605
364.120671411
364.059805694
364.003284066
363.952920593
363.911498576
363.874707653
363.843343352
363.815961484
363.792241739
363.770970556
363.752466945
363.7360472
363.721338584
363.708131988
363.69627182
363.685590975
363.676590168
363.668611644
363.66182543
363.656128902
363.651435194
363.647676281
363.644750655
363.64284887
363.641609362
363.641029765
275.710576762
276.050837721
276.719717894
277.68946375
278.914709157
280.34814469
281.944754825
283.665201588
285.477525169
287.357401959
289.287367367
291.255486417
293.25386732
295.277312732
297.322250841
299.385974554
301.466174407
303.560649801
305.667213004
307.783625432
309.907596237
312.036833309
314.168991064
316.301631604
318.432251126
320.558243803
322.676944585
324.785799455
326.882445941
328.964834186
331.031253328
333.080313928
335.110861481
337.121926572
339.112610896
341.082005991
343.029056859
344.952286222
346.84963563
348.718201428
350.55391613
352.351289077
354.103150254
355.800406945
357.432194795
358.986518543
360.453531929
361.834350817
363.150816361
364.507115268
364.648079248
364.682786428
364.631653961
364.614999356
364.586005461
364.544176596
364.52174613
364.499807052
364.474493739
364.447958226
364.421951644
364.397580749
364.375230761
364.354668851
364.331696445
364.306362773
364.286092948
364.261702865
364.238899208
364.22986173
364.205418062
364.144766048
364.099093141
364.047994942
363.996851616
363.951047113
363.912603863
363.878933256
363.85005412
363.824242619
363.801487353
363.781126543
363.763035187
363.746959919
363.732685915
363.719942603
363.70876393
363.698892015
363.690729252
363.683670381
363.677755193
363.673031681
363.669354115
363.666764481
363.665234059
363.664537455
272.528080717
272.940521376
273.744543385
274.896847636
276.33300726
277.988448505
279.804398799
281.732029841
283.734071301
285.784398328
287.866248853
289.969851151
292.090052352
294.224357121
296.371556405
298.530824857
300.70126665
302.881692486
305.070602509
307.266280724
309.466844675
311.670315843
313.874655411
316.077666267
318.276939588
320.469858907
322.65366322
324.825633242
326.983336772
329.124795922
331.248540971
333.353541393
335.439110047
337.504810873
339.550369167
341.575587809
343.58018572
345.56350052
347.524256408
349.460205781
351.367689716
353.241251102
355.073182175
356.85274601
358.565505625
360.191455778
361.710902307
363.133813138
364.55422275
364.691172316
364.670755331
364.659876519
364.62992083
364.608723053
364.579707056
364.546013055
364.518954993
364.492769593
364.465799594
364.438963666
364.413152063
364.388722653
364.365540169
364.343215048
364.319949089
364.295263767
364.272109325
364.248362925
364.225832001
364.207435996
364.185275387
364.172861624
364.155551992
364.108641945
364.067663196
364.018660112
363.975430695
363.936501975
363.902897955
363.873040956
363.847055005