/*--------------------------------*- C++ -*----------------------------------*\
| =========                 |                                                 |
| \\      /  F ield         | OpenFOAM: The Open Source CFD Toolbox           |
|  \\    /   O peration     | Version:  v1906                                 |
|   \\  /    A nd           | Web:      www.OpenFOAM.com                      |
|    \\/     M anipulation  |                                                 |
\*---------------------------------------------------------------------------*/
FoamFile
{
    version     2.0;
    format      ascii;
    class       volVectorField;
    location    "391";
    object      U;
}
// * * * * * * * * * * * * * * * * * * * * * * * * * * * * * * * * * * * * * //

dimensions      [0 1 -1 0 0 0 0];


internalField   nonuniform List<vector> 
9216
(
(0.00271216338814 -0.00271466932223 0)
(0.00285959705402 -0.00876068213875 1.17117050659e-27)
(0.00285148867879 -0.0149009317758 1.8426137144e-31)
(0.00281425551653 -0.0210417238395 0)
(0.0027625695413 -0.0270798311022 0)
(0.00269787774315 -0.032991035201 0)
(0.00262188343463 -0.0387495255865 0)
(0.00253591114544 -0.0443323684471 0)
(0.00244128426308 -0.0497194027213 0)
(0.00233924967468 -0.0548932681478 0)
(0.00223110046841 -0.0598393291052 0)
(0.00211800949337 -0.0645456540137 0)
(0.00200116868385 -0.069002848193 0)
(0.00188159599783 -0.0732039437631 0)
(0.00176031596981 -0.0771441550495 0)
(0.00163814472024 -0.0808207218756 0)
(0.0015159148514 -0.0842326343088 0)
(0.00139423395935 -0.0873804733781 0)
(0.00127375261733 -0.090266143331 0)
(0.00115489049746 -0.0928927398647 0)
(0.00103814620058 -0.0952643112637 0)
(0.000923785188017 -0.0973857672567 0)
(0.000812190467973 -0.0992626766154 0)
(0.000703508225472 -0.100901217974 0)
(0.000598039849976 -0.102308010865 0)
(0.000495842116991 -0.103490101428 0)
(0.000397161255435 -0.104454819988 0)
(0.000301986379643 -0.105209792703 0)
(0.000210527450413 -0.105762817277 0)
(0.000122722117883 -0.106121892396 0)
(3.87607058892e-05 -0.10629509573 0)
(-4.14716874435e-05 -0.106290675622 0)
(-0.000117830194293 -0.106116835721 0)
(-0.000190467500424 -0.105781800601 0)
(-0.000259229289609 -0.10529379145 0)
(-0.00032430194921 -0.10466101964 0)
(-0.000385552572948 -0.103891598204 0)
(-0.000443204311309 -0.102993579482 0)
(-0.000497137800976 -0.101974866561 0)
(-0.00054760732207 -0.100843250765 0)
(-0.000594504044053 -0.0996063331181 0)
(-0.000638108312954 -0.0982715581386 0)
(-0.000678319408263 -0.0968461481019 0)
(-0.000715438445578 -0.095337132673 0)
(-0.000749369860729 -0.0937512971309 0)
(-0.000780429316277 -0.0920952058697 0)
(-0.000808523941029 -0.0903751671198 0)
(-0.000833977883261 -0.0885972497155 0)
(-0.000856698429158 -0.0867672644401 0)
(-0.000877011907787 -0.0848907719775 0)
(-0.000894824217585 -0.0829730821402 0)
(-0.000910458415305 -0.0810192524398 0)
(-0.000923817862007 -0.0790341039002 0)
(-0.000935217355022 -0.0770222085127 0)
(-0.000944557873522 -0.0749879213688 0)
(-0.000952142374758 -0.0729353569163 0)
(-0.000957870231272 -0.070868434747 0)
(-0.000962029912809 -0.0687908437439 0)
(-0.0009645212177 -0.066706099989 0)
(-0.000965617037271 -0.0646174995981 0)
(-0.000965220049919 -0.0625281853406 0)
(-0.000963587362649 -0.060441088432 0)
(-0.000960627715901 -0.0583590018843 0)
(-0.000956583351287 -0.0562845131299 0)
(-0.000951372051471 -0.0542200809491 0)
(-0.000945222424535 -0.0521679603794 0)
(-0.000938064185643 -0.0501302817198 0)
(-0.00093011387618 -0.0481089704039 0)
(-0.000921315147469 -0.0461058259248 0)
(-0.000911873666684 -0.0441224387714 0)
(-0.000901748307043 -0.0421602686756 0)
(-0.000891134745155 -0.0402205613514 0)
(-0.000880007183559 -0.0383044249906 0)
(-0.000868551471174 -0.0364127487122 0)
(-0.000856756415527 -0.0345462774271 0)
(-0.000844797697937 -0.0327055340234 0)
(-0.000832677043672 -0.0308908922462 0)
(-0.000820558992876 -0.0291025037243 0)
(-0.00080845596852 -0.0273403693149 0)
(-0.000796520030942 -0.0256042719552 0)
(-0.000784771543329 -0.0238938465078 0)
(-0.000773348299948 -0.022208518728 0)
(-0.000762275483783 -0.0205475743488 0)
(-0.000751674193187 -0.0189101046817 0)
(-0.000741570103573 -0.0172950761458 0)
(-0.000732062599979 -0.0157012844079 0)
(-0.00072316796694 -0.014127429848 0)
(-0.000714945519486 -0.0125720916702 0)
(-0.000707359497336 -0.0110338369151 0)
(-0.000700326103837 -0.00951128400547 0)
(-0.000693488727941 -0.0080034072255 0)
(-0.000685921826117 -0.00651019443892 0)
(-0.000674993313527 -0.00503506766452 0)
(-0.000649191262482 -0.00359966342884 0)
(-0.000605924435951 -0.00204249882288 0)
(-0.00103178529816 -0.00103158481713 0)
(0.00878034124548 -0.00288982932515 0)
(0.0097087793337 -0.00977934868407 0)
(0.00968654172905 -0.016656163726 -1.22986420248e-27)
(0.0095572605613 -0.0235385400336 0)
(0.00937835337879 -0.0302965299137 0)
(0.00915715694383 -0.0369084301601 0)
(0.00889809765071 -0.0433468504647 0)
(0.00860535884602 -0.0495865903216 0)
(0.00828328111175 -0.0556052760869 0)
(0.00793614677959 -0.06138360646 0)
(0.00756828666946 -0.0669053642278 0)
(0.00718377387773 -0.0721573759392 0)
(0.00678658248885 -0.0771293544678 0)
(0.0063802674282 -0.0818137312491 0)
(0.00596820901386 -0.086205406847 0)
(0.00555328392469 -0.0903015278862 0)
(0.00513819583058 -0.0941012084587 0)
(0.00472512458422 -0.0976053057772 0)
(0.00431613379636 -0.100816156498 0)
(0.00391278156454 -0.103737384694 0)
(0.00351659551166 -0.106373676692 0)
(0.00312862999165 -0.108730635639 0)
(0.00275000171282 -0.110814601444 0)
(0.00238138275792 -0.112632551814 0)
(0.00202359408318 -0.114191962753 0)
(0.00167702776404 -0.115500747874 0)
(0.00134229846731 -0.11656714974 0)
(0.0010195924096 -0.117399706245 0)
(0.000709379438935 -0.118007161962 0)
(0.000411688923169 -0.118398449698 0)
(0.000126886945888 -0.118582618615 0)
(-0.000145134880058 -0.11856878241 0)
(-0.000404122371907 -0.118366144688 0)
(-0.000650297539785 -0.117983977086 0)
(-0.000883460977441 -0.117431482463 0)
(-0.00110393798363 -0.116717833057 0)
(-0.0013116052436 -0.11585210716 0)
(-0.00150688731798 -0.114843289655 0)
(-0.00168972431579 -0.113700218202 0)
(-0.00186062739595 -0.112431582954 0)
(-0.00201958986197 -0.111045878951 0)
(-0.00216719539797 -0.109551406795 0)
(-0.00230347941067 -0.107956233314 0)
(-0.00242908229178 -0.106268193336 0)
(-0.00254406909922 -0.10449485974 0)
(-0.00264911941094 -0.102643546014 0)
(-0.00274431559072 -0.100721286726 0)
(-0.00283035883774 -0.0987348403616 0)
(-0.0029073369495 -0.0966906803434 0)
(-0.00297595565752 -0.0945949972679 0)
(-0.00303629837015 -0.0924537004814 0)
(-0.00308906042716 -0.0902724188099 0)
(-0.00313431329025 -0.0880565117366 0)
(-0.00317272952438 -0.0858110674437 0)
(-0.00320436457825 -0.0835409225901 0)
(-0.0032298597092 -0.081250656668 0)
(-0.0032492535465 -0.0789446185282 0)
(-0.00326315121949 -0.0766269159814 0)
(-0.00327157749001 -0.0743014474135 0)
(-0.00327510071972 -0.0719718860231 0)
(-0.0032737375067 -0.0696417143859 0)
(-0.00326802197008 -0.0673142029078 0)
(-0.003257970551 -0.0649924457937 0)
(-0.00324408828028 -0.0626793339918 0)
(-0.00322640007853 -0.0603775909787 0)
(-0.0032053880049 -0.0580897407884 0)
(-0.00318109378944 -0.0558181428866 0)
(-0.00315398265212 -0.0535649565333 0)
(-0.00312411958584 -0.0513321741643 0)
(-0.00309195765016 -0.0491215834785 0)
(-0.00305758912902 -0.0469347995097 0)
(-0.00302145765809 -0.0447732261444 0)
(-0.00298368369182 -0.0426380870823 0)
(-0.00294470161814 -0.0405303882754 0)
(-0.00290465806624 -0.0384509484154 0)
(-0.00286397607011 -0.0364003637232 0)
(-0.00282282372234 -0.0343790383922 0)
(-0.00278160846685 -0.0323871526965 0)
(-0.00274051322155 -0.0304246939858 0)
(-0.00269992412061 -0.0284914288527 0)
(-0.00266003076972 -0.0265869349833 0)
(-0.00262119097214 -0.0247105776808 0)
(-0.0025835916697 -0.022861543011 0)
(-0.00254755357097 -0.0210388189326 0)
(-0.00251324865255 -0.0192412301364 0)
(-0.00248094582206 -0.0174674240391 0)
(-0.00245077768878 -0.0157159079222 0)
(-0.00242292018869 -0.0139850390457 0)
(-0.00239738313196 -0.0122730576544 0)
(-0.00237407309002 -0.0105780534221 0)
(-0.00235247429875 -0.00889788890679 0)
(-0.00233129205317 -0.00722980547492 0)
(-0.00230715403959 -0.00556899520251 0)
(-0.00227054628083 -0.00390370523595 0)
(-0.00217987756514 -0.00217522993578 0)
(-0.00204075667115 -0.00060383815003 0)
(0.0150311586684 -0.00293569351399 0)
(0.0166434625929 -0.00994010314209 0)
(0.0165830254039 -0.0169071271006 -1.22782371931e-27)
(0.016352320096 -0.0238901149844 0)
(0.0160409854956 -0.0307450536409 0)
(0.0156587896547 -0.0374487272666 0)
(0.0152122484115 -0.0439727098976 0)
(0.0147082863131 -0.0502912470721 0)
(0.0141542421875 -0.0563816446252 0)
(0.0135575564391 -0.0622244623858 0)
(0.012925639707 -0.0678035163118 0)
(0.0122655988904 -0.0731058006205 0)
(0.0115841946457 -0.078121316849 0)
(0.0108876250685 -0.0828428613068 0)
(0.0101815804264 -0.0872657623043 0)
(0.00947107919314 -0.0913876149281 0)
(0.00876060782828 -0.0952079971246 0)
(0.00805398751332 -0.0987282107169 0)
(0.00735457665286 -0.101951022905 0)
(0.00666514246864 -0.104880447604 0)
(0.00598810441941 -0.107521534678 0)
(0.00532538876283 -0.109880203686 0)
(0.00467869709583 -0.111963084823 0)
(0.00404932933866 -0.113777402395 0)
(0.00343846891022 -0.115330859915 0)
(0.00284696677942 -0.116631562603 0)
(0.00227564092406 -0.117687934732 0)
(0.00172501976371 -0.118508668571 0)
(0.00119565757605 -0.119102661733 0)
(0.000687838659569 -0.11947898119 0)
(0.000201910510884 -0.119646813152 0)
(-0.000262039904841 -0.119615434822 0)
(-0.000703828468955 -0.119394167075 0)
(-0.00112354449178 -0.118992354468 0)
(-0.00152116538704 -0.118419317808 0)
(-0.00189694200946 -0.117684333737 0)
(-0.00225098938595 -0.116796593058 0)
(-0.00258370431921 -0.115765180359 0)
(-0.00289532803666 -0.114599037639 0)
(-0.003186386838 -0.113306946189 0)
(-0.0034572303213 -0.111897494737 0)
(-0.00370849302362 -0.110379064481 0)
(-0.00394061138136 -0.108759803347 0)
(-0.00415430342697 -0.10704761497 0)
(-0.00435006829809 -0.105250139611 0)
(-0.00452868069775 -0.10337474712 0)
(-0.00469067756768 -0.101428525301 0)
(-0.00483686331635 -0.0994182768776 0)
(-0.00496778868242 -0.0973505149106 0)
(-0.00508426242185 -0.0952314630719 0)
(-0.00518682788869 -0.0930670580131 0)
(-0.00527627632041 -0.0908629522788 0)
(-0.00535312671683 -0.0886245223776 0)
(-0.00541813581314 -0.0863568730853 0)
(-0.00547178693035 -0.0840648503171 0)
(-0.00551479147429 -0.0817530457199 0)
(-0.00554759200077 -0.079425812478 0)
(-0.00557085033688 -0.0770872687348 0)
(-0.00558496968915 -0.0747413150279 0)
(-0.00559056455954 -0.0723916354835 0)
(-0.00558800584559 -0.0700417150152 0)
(-0.00557786829844 -0.0676948372491 0)
(-0.00556050181373 -0.0653541005266 0)
(-0.0055364526178 -0.0630224122154 0)
(-0.00550606293248 -0.0607025024418 0)
(-0.00546986296943 -0.0583969147317 0)
(-0.00542820042487 -0.0561080174615 0)
(-0.00538160110338 -0.0538379915047 0)
(-0.00533042887938 -0.051588839415 0)
(-0.00527521381525 -0.0493623709626 0)
(-0.00521634274421 -0.0471602108983 0)
(-0.00515435452618 -0.0449837836736 0)
(-0.00508966087779 -0.0428343204621 0)
(-0.00502280928454 -0.0407128442484 0)
(-0.00495423345297 -0.0386201771855 0)
(-0.00488448491212 -0.0365569272462 0)
(-0.00481401215234 -0.0345234965849 0)
(-0.00474336243299 -0.0325200705879 0)
(-0.00467298856063 -0.0305466279918 0)
(-0.0046034225395 -0.0286029329557 0)
(-0.00453510873701 -0.0266885472063 0)
(-0.00446855102439 -0.0248028253462 0)
(-0.00440417091551 -0.0229449292222 0)
(-0.0043424293686 -0.0211138263658 0)
(-0.00428370786466 -0.0193083061197 0)
(-0.00422840481734 -0.0175269801318 0)
(-0.0041768357329 -0.0157682980239 0)
(-0.00412930077556 -0.0140305441492 0)
(-0.00408599557465 -0.012311839017 0)
(-0.00404704277153 -0.0106100990131 0)
(-0.00401241437965 -0.00892294579705 0)
(-0.00398199780269 -0.00724746048533 0)
(-0.00395577523889 -0.00557958037665 0)
(-0.00393420779218 -0.00391215158476 0)
(-0.00390414260621 -0.00225320447439 0)
(-0.00359021297205 -0.00064344693268 0)
(0.0214297748167 -0.00298099158599 0)
(0.0237466602742 -0.0100903746614 0)
(0.0236573272432 -0.0171528270373 1.22725313901e-27)
(0.0233231480546 -0.0242319574364 0)
(0.0228730303668 -0.0311776888592 0)
(0.0223214313899 -0.0379653103449 0)
(0.0216778005165 -0.0445652192818 0)
(0.0209522253041 -0.0509509555282 0)
(0.0201553702215 -0.0570994738864 0)
(0.0192980851987 -0.0629912803008 0)
(0.0183911031535 -0.0686103909965 0)
(0.017444735451 -0.0739442016395 0)
(0.0164686944232 -0.0789832716062 0)
(0.0154719065912 -0.0837210573152 0)
(0.0144624624564 -0.0881536094066 0)
(0.0134475333852 -0.0922792625456 0)
(0.0124334231606 -0.0960983250123 0)
(0.0114255539894 -0.0996127894617 0)
(0.0104285824667 -0.102826063479 0)
(0.0094464165686 -0.10574273459 0)
(0.00848236158718 -0.108368361551 0)
(0.00753913734885 -0.110709301972 0)
(0.00661902975914 -0.112772563625 0)
(0.00572388896731 -0.114565687254 0)
(0.00485527355904 -0.116096646117 0)
(0.00401442093944 -0.117373769602 0)
(0.00320238043402 -0.118405675556 0)
(0.00241995519097 -0.119201219424 0)
(0.00166782660573 -0.119769445411 0)
(0.0009464714012 -0.120119549148 0)
(0.000256282041449 -0.120260836006 0)
(-0.000402531427207 -0.120202701426 0)
(-0.00102981795852 -0.119954567244 0)
(-0.00162560629498 -0.119525872066 0)
(-0.00218997407274 -0.118926034477 0)
(-0.00272317094276 -0.118164420568 0)
(-0.00322548047607 -0.117250310296 0)
(-0.00369735381968 -0.116192869919 0)
(-0.00413926155466 -0.115001120752 0)
(-0.00455183349928 -0.113683914643 0)
(-0.00493570132084 -0.112249906855 0)
(-0.0052916439832 -0.110707535733 0)
(-0.0056204224832 -0.109065000908 0)
(-0.00592293027356 -0.107330247944 0)
(-0.00620002180792 -0.105510952635 0)
(-0.00645266746138 -0.103614511116 0)
(-0.00668177797473 -0.101648030584 0)
(-0.00688836298417 -0.099618324774 0)
(-0.00707335349623 -0.0975319109359 0)
(-0.00723776321084 -0.0953950102722 0)
(-0.00738251136489 -0.0932135506378 0)
(-0.00750858560119 -0.0909931710731 0)
(-0.00761686739688 -0.0887392292291 0)
(-0.00770829533326 -0.0864568088829 0)
(-0.00778369532885 -0.0841507308452 0)
(-0.00784394276068 -0.0818255620144 0)
(-0.00788979935231 -0.0794856281697 0)
(-0.00792207267368 -0.0771350230612 0)
(-0.00794146124604 -0.0747776215088 0)
(-0.00794870955802 -0.0724170870285 0)
(-0.00794446235404 -0.0700568836659 0)
(-0.00792941342056 -0.067700280976 0)
(-0.00790416961112 -0.0653503634854 0)
(-0.00786939146928 -0.0630100322823 0)
(-0.00782566702231 -0.0606820114069 0)
(-0.00777364267687 -0.0583688459176 0)
(-0.00771390660045 -0.0560729052232 0)
(-0.00764710850369 -0.0537963780607 0)
(-0.00757385222436 -0.051541273229 0)
(-0.0074948036443 -0.049309412393 0)
(-0.00741059215886 -0.0471024291829 0)
(-0.00732190635807 -0.0449217610137 0)
(-0.00722940408727 -0.0427686476213 0)
(-0.00713379613635 -0.0406441231474 0)
(-0.00703576474917 -0.0385490152694 0)
(-0.00693603583657 -0.0364839386793 0)
(-0.00683530582302 -0.0344492957191 0)
(-0.00673430324574 -0.0324452721195 0)
(-0.00663372388882 -0.0304718398577 0)
(-0.00653428263907 -0.0285287556975 0)
(-0.00643665677855 -0.0266155665845 0)
(-0.00634152897255 -0.0247316111285 0)
(-0.0062495384661 -0.0228760274985 0)
(-0.00616131574844 -0.021047757484 0)
(-0.00607744106276 -0.0192455560707 0)
(-0.00599847087247 -0.0174679965262 0)
(-0.00592490281701 -0.0157134788874 0)
(-0.00585719434187 -0.0139802308133 0)
(-0.00579573590557 -0.0122663049729 0)
(-0.00574087218619 -0.0105695577093 0)
(-0.00569291476919 -0.00888761155411 0)
(-0.00565225226562 -0.00721777943456 0)
(-0.00561953916044 -0.00555698436379 0)
(-0.00559502460412 -0.00390053738643 0)
(-0.00555377605198 -0.00227032440015 0)
(-0.00500742632714 -0.00066348931492 0)
(0.0279350999484 -0.00304047152926 0)
(0.0309584280083 -0.010287945096 0)
(0.0308375902952 -0.0174827847466 0)
(0.0303945990326 -0.0246911381556 0)
(0.0297984172953 -0.031758074541 0)
(0.0290686364162 -0.0386571719426 0)
(0.0282181364633 -0.0453573954117 0)
(0.0272605957287 -0.0518313702698 0)
(0.0262103936945 -0.0580556093586 0)
(0.0250821082063 -0.064010595829 0)
(0.0238900738317 -0.0696806784724 0)
(0.0226480038319 -0.0750538675594 0)
(0.0213687213519 -0.0801215461294 0)
(0.0200639576861 -0.0848781299477 0)
(0.0187442561665 -0.089320701111 0)
(0.017418921439 -0.0934486408146 0)
(0.0160960539906 -0.0972632763549 0)
(0.0147825982645 -0.100767557481 0)
(0.0134844524944 -0.103965766967 0)
(0.0122065617733 -0.106863271741 0)
(0.0109530548604 -0.109466311966 0)
(0.009727341073 -0.111781828962 0)
(0.00853224151868 -0.11381732529 0)
(0.0073700653543 -0.115580755382 0)
(0.0062427189607 -0.117080438528 0)
(0.0051517517749 -0.11832499229 0)
(0.00409843960167 -0.119323278436 0)
(0.00308380066323 -0.120084360403 0)
(0.00210865727086 -0.12061746558 0)
(0.0011736285363 -0.120931953109 0)
(0.000279178043308 -0.121037278036 0)
(-0.0005744080889 -0.120942981289 0)
(-0.00138697569624 -0.120658613646 0)
(-0.00215854004828 -0.120193745887 0)
(-0.00288924047057 -0.11955792216 0)
(-0.00357937445565 -0.118760628211 0)
(-0.00422935264237 -0.1178112595 0)
(-0.00483973373775 -0.116719090779 0)
(-0.00541117502397 -0.115493245783 0)
(-0.00594446720441 -0.114142669939 0)
(-0.0064404803963 -0.112676104056 0)
(-0.00690019889811 -0.111102061573 0)
(-0.00732466347684 -0.109428807682 0)
(-0.00771500645454 -0.107664342228 0)
(-0.00807239150343 -0.105816384987 0)
(-0.0083980495906 -0.103892364673 0)
(-0.00869321759398 -0.101899410751 0)
(-0.00895917556385 -0.099844348595 0)
(-0.00919718552118 -0.0977336975305 0)
(-0.00940853043647 -0.0955736716518 0)
(-0.00959445451088 -0.0933701835547 0)
(-0.00975620411878 -0.0911288500238 0)
(-0.00989497081562 -0.0888550003157 0)
(-0.0100119344041 -0.086553685462 0)
(-0.0101082097308 -0.0842296898021 0)
(-0.0101848917836 -0.081887542427 0)
(-0.0102430070635 -0.0795315301744 0)
(-0.0102835603711 -0.0771657094612 0)
(-0.0103074911098 -0.07479391905 0)
(-0.0103157209967 -0.0724197906141 0)
(-0.0103091151703 -0.0700467595298 0)
(-0.0102885297431 -0.0676780727142 0)
(-0.0102547771198 -0.0653167962988 0)
(-0.010208672009 -0.0629658198724 0)
(-0.0101510000488 -0.0606278603317 0)
(-0.010082560884 -0.0583054622589 0)
(-0.0100041390992 -0.0560009981182 0)
(-0.00991654310418 -0.053716665239 0)
(-0.00982057750433 -0.0514544830056 0)
(-0.00971707694762 -0.049216287398 0)
(-0.00960687935187 -0.0470037264064 0)
(-0.00949085429847 -0.0448182534474 0)
(-0.00936987688535 -0.042661122293 0)
(-0.00924485074629 -0.0405333806991 0)
(-0.00911668262384 -0.0384358662007 0)
(-0.00898630042904 -0.0363692011785 0)
(-0.00885462885476 -0.0343337905335 0)
(-0.00872260315283 -0.0323298190914 0)
(-0.00859114622882 -0.0303572519172 0)
(-0.00846117887615 -0.0284158346014 0)
(-0.00833359878774 -0.0265050964891 0)
(-0.0082092879685 -0.0246243539377 0)
(-0.00808909401426 -0.0227727163251 0)
(-0.00797383527781 -0.0209490918405 0)
(-0.00786428467884 -0.019152195386 0)
(-0.0077611732837 -0.0173805555482 0)
(-0.00766517747842 -0.0156325224141 0)
(-0.00757692327878 -0.0139062726103 0)
(-0.00749698202591 -0.0121998133226 0)
(-0.00742588750816 -0.0105109818191 0)
(-0.00736416513582 -0.00883744860988 0)
(-0.00731240562466 -0.00717673147282 0)
(-0.00727129578189 -0.00552627091849 0)
(-0.00723996500416 -0.00388208955315 0)
(-0.00718274263026 -0.00226825705992 0)
(-0.00644987728658 -0.000666679281191 0)
(0.0345850058416 -0.00311583720704 0)
(0.0383257170866 -0.0105408634245 0)
(0.0381687628336 -0.0179075622923 0)
(0.0376089369175 -0.0252824499467 0)
(0.0368563177257 -0.0325049009818 0)
(0.0359361261695 -0.0395463976001 0)
(0.0348652377952 -0.0463741660445 0)
(0.033661476968 -0.0529597304043 0)
(0.0323434563403 -0.0592791162044 0)
(0.0309299266188 -0.0653128722546 0)
(0.0294391947473 -0.071045878972 0)
(0.0278886509258 -0.0764670431914 0)
(0.0262944253394 -0.0815689060906 0)
(0.0246711598942 -0.0863472037751 0)
(0.023031896334 -0.0908004134825 0)
(0.0213880497653 -0.0949293126989 0)
(0.0197494630192 -0.0987365699477 0)
(0.0181245055895 -0.102226380193 0)
(0.0165202160023 -0.105404150479 0)
(0.0149424527636 -0.108276237919 0)
(0.0133960606362 -0.110849737202 0)
(0.0118850208471 -0.113132313739 0)
(0.010412600587 -0.11513207565 0)
(0.00898147323085 -0.116857478581 0)
(0.00759383219842 -0.118317255711 0)
(0.00625147113183 -0.119520367193 0)
(0.00495585945014 -0.120475962302 0)
(0.00370818557699 -0.121193350168 0)
(0.00250940154284 -0.121681974308 0)
(0.00136023925378 -0.121951389067 0)
(0.000261235468908 -0.122011229837 0)
(-0.000787270261921 -0.12187121611 0)
(-0.00178510948693 -0.121541055408 0)
(-0.00273230447881 -0.121030485225 0)
(-0.00362904565916 -0.120349206118 0)
(-0.00447570012444 -0.119506855651 0)
(-0.00527279477959 -0.118512975171 0)
(-0.00602102061702 -0.117376977761 0)
(-0.00672121215606 -0.1161081169 0)
(-0.00737434898888 -0.114715457449 0)
(-0.00798153139538 -0.113207848428 0)
(-0.00854397960673 -0.111593899001 0)
(-0.00906300652352 -0.109881956971 0)
(-0.00954001561994 -0.108080090972 0)
(-0.0099764719921 -0.10619607558 0)
(-0.0103739000352 -0.104237380289 0)
(-0.0107338541377 -0.102211161503 0)
(-0.0110579171401 -0.100124258247 0)
(-0.0113476718929 -0.0979831908023 0)
(-0.0116047014839 -0.0957941626853 0)
(-0.0118305628296 -0.0935630652563 0)
(-0.0120267894744 -0.0912954850333 0)
(-0.0121948682512 -0.0889967131862 0)
(-0.0123362453969 -0.0866717568967 0)
(-0.0124523071757 -0.0843253522407 0)
(-0.0125443897192 -0.0819619778758 0)
(-0.0126137641416 -0.0795858694648 0)
(-0.0126616501752 -0.0772010337556 0)
(-0.0126892058441 -0.0748112625482 0)
(-0.0126975443397 -0.0724201451806 0)
(-0.0126877276978 -0.0700310801499 0)
(-0.0126607858651 -0.0676472843564 0)
(-0.0126177133046 -0.0652718009724 0)
(-0.0125594887116 -0.0629075043905 0)
(-0.0124870731011 -0.0605571036308 0)
(-0.0124014285401 -0.0582231427608 0)
(-0.0123035162436 -0.055907999992 0)
(-0.0121943128048 -0.0536138841363 0)
(-0.0120748070559 -0.0513428302621 0)
(-0.011946012769 -0.0490966933926 0)
(-0.0118089635164 -0.0468771421159 0)
(-0.0116647213354 -0.0446856510636 0)
(-0.011514369335 -0.0425234940417 0)
(-0.0113590164187 -0.040391736864 0)
(-0.0111997878673 -0.0382912314951 0)
(-0.0110378266096 -0.0362226105956 0)
(-0.0108742823317 -0.0341862838507 0)
(-0.010710310086 -0.0321824352125 0)
(-0.0105470586649 -0.0302110221947 0)
(-0.0103856674072 -0.0282717763481 0)
(-0.0102272545972 -0.0263642058171 0)
(-0.0100729133283 -0.0244875991051 0)
(-0.0099237006422 -0.0226410307095 0)
(-0.00978063322536 -0.0208233677263 0)
(-0.00964467802114 -0.0190332778286 0)
(-0.00951674877135 -0.0172692377256 0)
(-0.00939769951436 -0.0155295423726 0)
(-0.00928832447052 -0.0138123143553 0)
(-0.00918935879056 -0.0121155141054 0)
(-0.00910148950947 -0.0104369524064 0)
(-0.00902537490791 -0.00877431565066 0)
(-0.00896167255285 -0.00712519947082 0)
(-0.00891094720987 -0.00548718523963 0)
(-0.0088713677971 -0.00385633479405 0)
(-0.0087979594786 -0.00225649949325 0)
(-0.00789150995417 -0.000664529383608 0)
(0.0414165185363 -0.00320919489571 0)
(0.0458904778302 -0.0108548428665 0)
(0.0456909649675 -0.0184354781969 1.217675953e-27)
(0.0450034436592 -0.0260170159706 0)
(0.044080584745 -0.0334316876042 0)
(0.0429539094496 -0.0406483443341 0)
(0.0416450063135 -0.0476321037328 0)
(0.0401765666843 -0.0543532155856 0)
(0.0385721081782 -0.0607872301818 0)
(0.0368551341759 -0.0669149343337 0)
(0.0350483934671 -0.0727220372272 0)
(0.0331732985374 -0.0781987258762 0)
(0.0312495154738 -0.0833391316049 0)
(0.0292947142234 -0.0881407586017 0)
(0.027324463638 -0.0926039157508 0)
(0.0253522415475 -0.0967311831436 0)
(0.0233895359383 -0.100526933683 0)
(0.0214460051321 -0.103996921414 0)
(0.0195296772749 -0.1071479401 0)
(0.0176471631946 -0.109987550432 0)
(0.0158038720461 -0.112523869861 0)
(0.0140042117606 -0.114765417285 0)
(0.0122517725592 -0.116721003129 0)
(0.0105494819401 -0.118399655607 0)
(0.00889973622185 -0.119810573759 0)
(0.00730450125685 -0.120963099156 0)
(0.00576539213065 -0.121866698803 0)
(0.00428372660305 -0.122530953538 0)
(0.00286056489918 -0.12296554726 0)
(0.00149673074152 -0.123180254062 0)
(0.000192828784376 -0.123184916212 0)
(-0.00105076026421 -0.122989462807 0)
(-0.00223385322914 -0.122603784029 0)
(-0.00335648778041 -0.122037817862 0)
(-0.00441890523211 -0.121301453072 0)
(-0.00542155320609 -0.120404511888 0)
(-0.00636507671817 -0.119356713672 0)
(-0.00725031337029 -0.118167640801 0)
(-0.00807827973174 -0.116846705618 0)
(-0.0088501620397 -0.115403119321 0)
(-0.00956729813514 -0.113845863365 0)
(-0.0102311645597 -0.112183663819 0)
(-0.0108433553289 -0.110424969125 0)
(-0.0114055668491 -0.108577931331 0)
(-0.0119195751042 -0.106650391142 0)
(-0.0123872198882 -0.104649866571 0)
(-0.0128103819232 -0.102583545533 0)
(-0.0131909677913 -0.100458281873 0)
(-0.0135308883802 -0.0982805951663 0)
(-0.013832045763 -0.0960566735821 0)
(-0.0140963142342 -0.0937923801739 0)
(-0.0143255302826 -0.0914932616522 0)
(-0.0145214773949 -0.0891645599666 0)
(-0.0146858801561 -0.0868112255891 0)
(-0.014820393793 -0.084437932754 0)
(-0.0149266031579 -0.0820490954116 0)
(-0.0150060176004 -0.079648884001 0)
(-0.0150600750921 -0.0772412418574 0)
(-0.0150901423762 -0.0748299012041 0)
(-0.0150975237707 -0.0724183977346 0)
(-0.0150834657822 -0.0700100835818 0)
(-0.0150491693701 -0.0676081380991 0)
(-0.0149957974944 -0.0652155761679 0)
(-0.0149244890192 -0.0628352539374 0)
(-0.0148363672353 -0.060469871678 0)
(-0.0147325533492 -0.0581219741798 0)
(-0.0146141739915 -0.0557939484348 0)
(-0.0144823724226 -0.0534880193968 0)
(-0.0143383134279 -0.0512062436305 0)
(-0.0141831909278 -0.0489505018619 0)
(-0.0140182293112 -0.0467224903477 0)
(-0.0138446868492 -0.0445237120458 0)
(-0.0136638532429 -0.0423554675952 0)
(-0.0134770489472 -0.0402188469274 0)
(-0.0132856193224 -0.0381147216023 0)
(-0.0130909305003 -0.0360437384086 0)
(-0.012894360951 -0.0340063143703 0)
(-0.0126972948524 -0.0320026334207 0)
(-0.0125011120933 -0.0300326449101 0)
(-0.0123071802198 -0.0280960639215 0)
(-0.0121168439315 -0.0261923735529 0)
(-0.0119314166622 -0.0243208289188 0)
(-0.0117521705604 -0.0224804629879 0)
(-0.0115803286882 -0.0206700938502 0)
(-0.0114170564614 -0.018888333461 0)
(-0.0112634555807 -0.0171335975003 0)
(-0.0111205582885 -0.0154041165314 0)
(-0.0109893248846 -0.0136979482932 0)
(-0.0108706433693 -0.0120129928125 0)
(-0.0107653336276 -0.0103470109752 0)
(-0.0106741543549 -0.00869765233613 0)
(-0.0105978026963 -0.00706248961565 0)
(-0.0105367534489 -0.00543906878493 0)
(-0.0104884812121 -0.0038232880021 0)
(-0.0103994483015 -0.00223840328293 0)
(-0.00932463390207 -0.000659652793303 0)
(0.0484707256657 -0.00332265597595 0)
(0.0536978725372 -0.0112365189312 0)
(0.0534474389541 -0.0190770455378 -1.21702729853e-27)
(0.052618137866 -0.0269088799918 0)
(0.0515072222649 -0.0345553534895 0)
(0.0501534575883 -0.041982035253 0)
(0.0485841040877 -0.0491515191543 0)
(0.0468276661721 -0.0560326359452 0)
(0.044913433151 -0.0626005558114 0)
(0.0428703975788 -0.068836593972 0)
(0.0407263293971 -0.0747277216219 0)
(0.0385070754127 -0.0802659282924 0)
(0.0362360908693 -0.0854474976886 0)
(0.0339341848189 -0.0902722631303 0)
(0.031619448714 -0.0947428939501 0)
(0.0293073286397 -0.098864248476 0)
(0.0270108023662 -0.102642814721 0)
(0.0247406229326 -0.106086247471 0)
(0.0225055981352 -0.109203001256 0)
(0.0203128790401 -0.11200205217 0)
(0.0181682397388 -0.114492697794 0)
(0.0160763334244 -0.116684422473 0)
(0.0140409178757 -0.118586814759 0)
(0.0120650442092 -0.120209524202 0)
(0.0101512094525 -0.121562245629 0)
(0.00830147246045 -0.122654720431 0)
(0.00651753849647 -0.123496745976 0)
(0.00480081520386 -0.124098186258 0)
(0.00315244761159 -0.124468978815 0)
(0.0015733353817 -0.124619133252 0)
(6.41479305384e-05 -0.124558723027 0)
(-0.00137470024621 -0.124297907879 0)
(-0.00274301442585 -0.123846793104 0)
(-0.00404084797009 -0.123215547493 0)
(-0.00526849610676 -0.122414281871 0)
(-0.00642649423613 -0.121453037521 0)
(-0.00751561202929 -0.120341745769 0)
(-0.00853684552666 -0.119090191252 0)
(-0.00949140438326 -0.117707976085 0)
(-0.01038069766 -0.1162044864 0)
(-0.0112063154063 -0.114588861521 0)
(-0.0119700097469 -0.112869966787 0)
(-0.0126736726737 -0.111056369864 0)
(-0.0133193143943 -0.109156321355 0)
(-0.0139090393164 -0.107177739221 0)
(-0.0144450235866 -0.105128197695 0)
(-0.0149294910835 -0.103014919967 0)
(-0.0153646918299 -0.100844775227 0)
(-0.0157528795614 -0.0986242792446 0)
(-0.0160962925174 -0.0963595989439 0)
(-0.0163971340193 -0.0940565600982 0)
(-0.0166575570387 -0.0917206584177 0)
(-0.0168796491464 -0.089357073166 0)
(-0.0170654221939 -0.0869706832658 0)
(-0.0172168028527 -0.0845660850583 0)
(-0.0173356284366 -0.0821476113243 0)
(-0.0174236438097 -0.0797193508455 0)
(-0.0174825037702 -0.0772851677647 0)
(-0.0175137763506 -0.0748487202278 0)
(-0.0175189512333 -0.0724134773383 0)
(-0.0174994484698 -0.0699827342352 0)
(-0.0174566313965 -0.0675596242751 0)
(-0.0173918188771 -0.0651471285358 0)
(-0.0173063003706 -0.0627480817438 0)
(-0.017201349209 -0.0603651752632 0)
(-0.0170782371756 -0.0580009565043 0)
(-0.0169382462967 -0.0556578257341 0)
(-0.0167826805528 -0.0533380299226 0)
(-0.0166128741632 -0.0510436547995 0)
(-0.0164301988185 -0.0487766149938 0)
(-0.0162360672981 -0.0465386434459 0)
(-0.0160319355566 -0.0443312801015 0)
(-0.0158193014395 -0.042155860951 0)
(-0.0155997018625 -0.0400135074688 0)
(-0.0153747071682 -0.0379051172968 0)
(-0.0151459142772 -0.0358313562062 0)
(-0.0149149377389 -0.0337926519283 0)
(-0.0146834001088 -0.031789189834 0)
(-0.0144529209927 -0.0298209108051 0)
(-0.0142251060134 -0.0278875112031 0)
(-0.0140015351789 -0.0259884450593 0)
(-0.0137837517478 -0.0241229283259 0)
(-0.0135732511528 -0.0222899451278 0)
(-0.0133714709271 -0.0204882558279 0)
(-0.0131797812826 -0.0187164067371 0)
(-0.012999477177 -0.0169727413909 0)
(-0.0128317716411 -0.0152554133434 0)
(-0.0126777910934 -0.0135624009392 0)
(-0.0125385723947 -0.0118915242285 0)
(-0.0124150617761 -0.0102404652679 0)
(-0.0123081133569 -0.00860679776505 0)
(-0.0122184742554 -0.00698800886458 0)