/*--------------------------------*- C++ -*----------------------------------*\
| =========                 |                                                 |
| \\      /  F ield         | OpenFOAM: The Open Source CFD Toolbox           |
|  \\    /   O peration     | Version:  v1906                                 |
|   \\  /    A nd           | Web:      www.OpenFOAM.com                      |
|    \\/     M anipulation  |                                                 |
\*---------------------------------------------------------------------------*/
FoamFile
{
    version     2.0;
    format      ascii;
    class       surfaceScalarField;
    location    "88";
    object      phia;
}
// * * * * * * * * * * * * * * * * * * * * * * * * * * * * * * * * * * * * * //

dimensions      [0 3 -1 0 0 0 0];
oriented        oriented;


internalField   nonuniform List<scalar> 
18240
(
0.00108501035886
-0.00107800828051
0.00227410111382
-0.00118108087892
0.00346490209942
-0.00118353206749
0.00464639505434
-0.00117323698464
0.005811984741
-0.00115843216337
0.00695978510294
-0.00113922681515
0.00808387685324
-0.00111702454215
0.00918394446799
-0.00109109176373
0.0102538335893
-0.00106290445632
0.0112946697704
-0.00103138091619
0.0122999318768
-0.000998376102952
0.0132722932185
-0.000962357596083
0.0142045275419
-0.000925471918513
0.0151009538747
-0.000885815593559
0.01595383963
-0.000846297232217
0.016769539868
-0.000804437044169
0.0175391712848
-0.000763271548523
0.0182707949574
-0.000719679154195
0.0189541989629
-0.000677352575396
0.0195995890133
-0.000632751877751
0.0201953581112
-0.000590100584466
0.0207538427266
-0.000545156339217
0.0212618743551
-0.000502841927624
0.0217339642811
-0.000458086343557
0.022155081849
-0.00041648237326
0.0225420901213
-0.000372352016495
0.0228778813813
-0.000331799121572
0.0231816568514
-0.000288490924763
0.0234346657684
-0.000249716312416
0.0236587001662
-0.000208148397065
0.0238331752019
-0.000171953933808
0.0239817743708
-0.000132138115146
0.0240805695243
-9.70833197174e-05
0.0241567775687
-5.92064396264e-05
0.0241856186743
-2.8005831716e-05
0.0241965365374
6.58588066361e-06
0.0241618840404
3.45722207841e-05
0.0241135413318
6.6293131688e-05
0.0240215980062
9.08644831273e-05
0.0239206444396
0.000119280380709
0.0237787452696
0.000139763531276
0.0236326156794
0.000164735080181
0.023447350589
0.00018196711499
0.0232621998048
0.000203910011118
0.0230398235199
0.000217845822921
0.0228214186905
0.000237149796915
0.0225670455515
0.000248493869428
0.0223193004334
0.000266266251039
0.0220358124759
0.000276194699183
0.0217605556086
0.00029329010472
0.0214487953669
0.000302963015894
0.0211457740135
0.0003202668732
0.0208052471147
0.000330211477018
0.0204730801155
0.000348297782142
0.0201022026964
0.000359031162649
0.0197389715203
0.000377936386654
0.0193361008805
0.000389582197356
0.0189400130021
0.000409087829741
0.0185045878955
0.00042080125206
0.0180757679768
0.000439903276145
0.017608509821
0.000451503560138
0.0171476238476
0.000469907160341
0.016650338939
0.000480613958496
0.0161599920987
0.000497249114056
0.0156361329314
0.000506561354253
0.0151195896104
0.000521343834775
0.0145736383973
0.000528301794206
0.0140369386712
0.000539496133947
0.0134759464539
0.000543296753553
0.0129259750193
0.000550911644117
0.0123563697429
0.000552123504318
0.0117991413364
0.000556501604271
0.0112275494627
0.000554572467903
0.0106699681183
0.000555407858398
0.010102625205
0.000550983435394
0.00955071232174
0.00054853715128
0.00899399768102
0.000541192082044
0.00845425063952
0.000535412244551
0.00791432183715
0.000525375971286
0.00739231482019
0.000516965666891
0.00687389557505
0.000504956693141
0.00637463341172
0.000493794769829
0.00588284056109
0.000479527206641
0.00541212684819
0.000465109199428
0.00495421253228
0.000446892878641
0.00452185885583
0.000426778151565
0.00411374828774
0.000398299773311
0.0037521142506
0.000356140647135
0.00345167097297
0.000291576548339
0.00318563167361
0.0002597733664
0.00286896886707
0.000307495682279
0.00248454100017
0.000375616334811
0.00202582237738
0.000447400730706
0.00143746565316
0.000575645256821
0.000706617663131
0.000716504589008
0.00069916903703
0.00119749717854
-0.00226795322154
0.00253526055904
-0.00251066900928
0.00386914388222
-0.00250939036022
0.00518991196707
-0.00248568899258
0.00649270596335
-0.00245316288314
0.00777453544782
-0.00241256408131
0.00903062585601
-0.00236496190757
0.0102586133742
-0.00231034989595
0.0114539421478
-0.00224995621797
0.0126152292035
-0.00218365211917
0.0137381815458
-0.00211290378403
0.014822506045
-0.00203734202754
0.0158641426596
-0.0019585323272
0.0168640238645
-0.00187600834524
0.0178178451856
-0.00179139590416
0.0187271755943
-0.00170372167642
0.0195877576546
-0.001615013156
0.0204027391583
-0.00152426623628
0.0211679924581
-0.00143368382585
0.0218873047694
-0.0013413437786
0.0225558645699
-0.00124971365153
0.0231784477997
-0.00115672964053
0.0237496036697
-0.00106508245367
0.0242753521373
-0.000972579747863
0.0247499585654
-0.000882273347001
0.0251804614794
-0.000791402486147
0.0255607643173
-0.000703440536959
0.025899179223
-0.000615300488299
0.0261882436728
-0.000530334231682
0.0264373377737
-0.00044552721618
0.026638337482
-0.000364765308751
0.0268019685502
-0.00028398511286
0.0269202161661
-0.000207454523863
0.0270041812252
-0.00013136167087
0.0270447098349
-6.1012058215e-05
0.0270547629189
8.31938529254e-06
0.0270244718844
7.19657322209e-05
0.026967942489
0.000134522935366
0.0268748426246
0.000190584702599
0.0267600769027
0.000245583617462
0.0266116928948
0.000294193843479
0.0264456534046
0.000342050672497
0.0262497202745
0.000383278200424
0.0260407041561
0.000423821729349
0.0258050219334
0.00045811092234
0.0255596267074
0.000492908428494
0.025288918739
0.000522860228931
0.0250104491044
0.000554384478709
0.0247079359743
0.000581279760237
0.0243987550228
0.000611194529638
0.0240649942119
0.00063805245744
0.0237243583713
0.000668477030639
0.0233582164191
0.000696274450207
0.0229841368235
0.000728577186689
0.022583239877
0.000758320229834
0.0221733998724
0.000792407618354
0.0217358453422
0.000823918165457
0.0212885618588
0.000859287945913
0.0208127962516
0.00089172740018
0.0203264433337
0.000927379456511
0.0198122905792
0.00095924400009
0.0192882677124
0.000993251496149
0.0187380651756
0.00102295472181
0.0181788557103
0.00105404898639
0.0175964287342
0.00107985623847
0.0170081031377
0.00110566239338
0.0164003055104
0.00112591660136
0.0157891220547
0.00114526201398
0.0151624696078
0.00115895378135
0.0145356071675
0.00117116364465
0.0138981449711
0.00117802735067
0.0132634906567
0.0011835878535
0.0126228629606
0.00118332135777
0.0119883310295
0.00118165662066
0.0113517570606
0.00117559581777
0.0107242091488
0.00116732425806
0.0100991932265
0.00115437167986
0.00948594720997
0.0011396470278
0.00887940958923
0.00112038737914
0.00828759416395
0.0010997405626
0.00770479684748
0.00107672506703
0.00713842992828
0.00105131362741
0.00658495579801
0.00102265693961
0.00605055804041
0.000991065060057
0.00553321878091
0.000954679008281
0.00503814183352
0.000913859601104
0.004565401996
0.000862285219675
0.00411981998971
0.000794160103405
0.00369879970513
0.000704477325216
0.00330665378587
0.000644443729506
0.00291890334961
0.000686818582651
0.00249984658748
0.000785340129389
0.00202838274548
0.000908113774361
0.00145894997988
0.00113267379557
0.000729049110165
0.00143290913026
0.00142168036445
0.00121528325714
-0.0034756475823
0.00256641677713
-0.0038536777573
0.00391595361394
-0.00385080929816
0.00525228097463
-0.00381379048175
0.00657046954671
-0.00376314418475
0.00786673244157
-0.0037004641062
0.00913693518584
-0.00362681740637
0.0103779135197
-0.00354277201287
0.0115859652028
-0.00344947593507
0.0127587206561
-0.00334761522453
0.0138929680361
-0.00323840537521
0.0149870563088
-0.00312237235991
0.0160383755124
-0.00300087346184
0.0170461027595
-0.00287439681483
0.0180081055381
-0.00274418884412
0.0189242824206
-0.00261027947767
0.0197926496457
-0.0024739513035
0.0206135829334
-0.00233531744048
0.0213850813767
-0.00219556742099
0.0221083290297
-0.00205447898696
0.0227816601264
-0.00191328518602
0.0234066859194
-0.0017714573135
0.0239818162701
-0.00163036478307
0.0245092022131
-0.00148953235738
0.0249872943674
-0.0013504810161
0.0254191462005
-0.00121273802195
0.0258028680272
-0.00107729951499
0.0261411004839
-0.000942982616322
0.0264322985409
-0.000811736928684
0.0266797858723
-0.000682477735574
0.0268818344764
-0.00055713862715
0.0270428862772
-0.000434558522908
0.0271611603006
-0.000316214406912
0.0272417155929
-0.00020154437171
0.0272822889371
-9.22892919612e-05
0.0272877443154
1.30765644849e-05
0.0272563990156
0.000112335335425
0.0271941236927
0.000206783388051
0.0270991346412
0.000294246229418
0.0269775169634
0.000376881879503
0.0268272473991
0.000452703738474
0.0266547068755
0.000523868391085
0.0264575078295
0.000588173410344
0.0262427209751
0.000647367703618
0.026006647482
0.000701218768148
0.0257554465463
0.000752207707304
0.0254859969719
0.00079852107259
0.0252040119393
0.000843638775446
0.0249039621554
0.000886552439526
0.0245914937741
0.000929901418254
0.0242613173387
0.000972265491601
0.0239176860458
0.00101710612322
0.0235540974005
0.0010625316029
0.0231758014712
0.0011104221216
0.0227768305223
0.00115841448362
0.0223621359467
0.00120903845379
0.0219254605473
0.00126006020625
0.021471813151
0.00131314324467
0.0209956126193
0.00136567276909
0.0205023819298
0.00141905088078
0.0199869859355
0.0014706888007
0.019455204992
0.00152174093163
0.0189027432461
0.00156985812349
0.0183358073461
0.0016160761321
0.0177510779568
0.00165758653863
0.0171546148066
0.00169576872238
0.01654352713
0.0017287570322
0.0159234575745
0.00175773144151
0.0152922445067
0.00178090744452
0.0146549496748
0.0017998449783
0.0140104821753
0.00181247013883
0.0133651103274
0.00181958611438
0.0127167852765
0.00182110953945
0.0120710710293
0.00181748942106
0.0114281483082
0.00180771244377
0.0107918105808
0.00179350934132
0.0101611161225
0.00177421378236
0.00953970622898
0.00175084856123
0.00892583153913
0.00172356609235
0.00832416348056
0.00169135428575
0.00773560468318
0.0016549406151
0.00716208073376
0.0016151434018
0.00660341080907
0.001571517949
0.00606133168954
0.00152399396986
0.00553543757375
0.00147140253568
0.00502728663244
0.00141340352089
0.0045372687963
0.0013437422915
0.00406309961862
0.00126023286192
0.00359780315106
0.0011617584011
0.00318307835689
0.00105136588082
0.0027951802417
0.00106624081477
0.00232024508769
0.00125075169266
0.00174857179057
0.00146934571906
0.00116487649007
0.00170545600235
0.000591369016385
0.00199521783393
0.00200736897922
0.00122888268396
-0.00469694938539
0.00259282460421
-0.00520954930786
0.00395546343331
-0.00520531639881
0.00530452554427
-0.00515466661056
0.00663501427892
-0.00508540343086
0.00794278335331
-0.00499991314592
0.00922373455793
-0.00489938470127
0.0104744180469
-0.00478494906409
0.0116914316157
-0.0046579052394
0.0128719355217
-0.00451938537374
0.0140131945785
-0.00437084507337
0.0151132306886
-0.00421341927177
0.0161700351391
-0.00404860511151
0.0171823240421
-0.00387742720643
0.0181483145221
-0.00370084699034
0.0190672040804
-0.00351964387184
0.0199379145986
-0.00333508448881
0.020760160952
-0.00314779128711
0.0215331280303
-0.00295873854155
0.0222569204952
-0.00276828572946
0.022931000769
-0.0025773948169
0.0235560153319
-0.00238631823128
0.0241313650913
-0.00219561652406
0.0246580435606
-0.00200593996254
0.025136070008
-0.00181833768635
0.0255662555447
-0.00163258728107
0.0259482554791
-0.0014491068818
0.0262835745914
-0.00126795006167
0.0265722782724
-0.00109027788646
0.026816327582
-0.000916207073284
0.0270156791357
-0.000746401894231
0.027172261445
-0.000580900981295
0.0272867722302
-0.000420764159241
0.0273616283233
-0.000266292143938
0.027397481901
-0.000118360304527
0.0273971198674
2.33559133107e-05
0.0273615543905
0.000157435702056
0.0272934563365
0.000284536960443
0.0271935829306
0.000403336181081
0.0270655747648
0.000514200742955
0.0269107537105
0.000616329779603
0.0267334897862
0.000710000997416
0.0265339498528
0.000796007627734
0.026314294308
0.000875339103302
0.026075544486
0.000947624025744
0.0258207276454
0.00101464824218
0.025548940176
0.00107718007803
0.02526296238
0.00113638094499
0.0249620887263
0.00119332567932
0.0246476771844
0.00125002220897
0.024317823886
0.00130684603038
0.0239736800001
0.00136569310683
0.0236132152914
0.00142633767206
0.0232361776852
0.0014904269396
0.0228397313777
0.00155663290142
0.022425244186
0.00162484714598
0.0219903198022
0.00169504541124
0.0215358655108
0.0017671601403
0.0210602074735
0.00183961480325
0.020564982221
0.00191205149084
0.0200487774245
0.00198342099061
0.0195137356761
0.00205282610093
0.0189590894483
0.00211937806237
0.018387373613
0.00218223751782
0.0177996395411
0.00223869431814
0.0171987321364
0.0022896942702
0.0165842639634
0.00233530038308
0.0159586280069
0.0023751716803
0.0153230958656
0.00240744182679
0.0146803730498
0.00243339946869
0.0140309937312
0.00245204013096
0.0133782834953
0.00246241513159
0.0127249838723
0.00246405145567
0.0120739302068
0.00245820696866
0.0114257108798
0.00244527612443
0.0107831905124
0.00242548206846
0.0101478509286
0.00239883077885
0.00952220313146
0.00236595522656
0.00890744135474
0.00232774384152
0.00830470360467
0.00228375890987
0.00771465995913
0.00223473026737
0.00713733354985
0.00218253533739
0.00657348086343
0.00212563548401
0.00602395051909
0.00206414678108
0.00548976959255
0.00199645034157
0.00497151600453
0.00192282977061
0.00446373462426
0.00184291828698
0.0039685233593
0.00174714855778
0.003479931987
0.00164220200954
0.00299160167041
0.00153165839217
0.0025271408133
0.00152220543457
0.00205571700234
0.00171295485276
0.00150877615486
0.00200658239927
0.00094396663128
0.00226045793054
0.000480861742119
0.00244855611321
0.0024833629994
0.00124586900165
-0.00593525604926
0.00262758611769
-0.00658319437413
0.00400773551203
-0.00657735015437
0.00537369776872
-0.00651245714326
0.00672027192688
-0.00642375309749
0.00804305359199
-0.00631439135358
0.00933798945668
-0.00618593552103
0.0106013449957
-0.0060398145292
0.0118297223243
-0.00587768977606
0.0130202875206
-0.00570123206691
0.0141704409611
-0.0055121640586
0.0152781553168
-0.00531215831036
0.0163416430918
-0.00510299477358
0.0173592379014
-0.00488577557043
0.0183295643203
-0.00466180719343
0.0192518751439
-0.0044324402571
0.0201253130508
-0.00419889851721
0.0209494340023
-0.0039621488543
0.0217238390778
-0.00372329045062
0.0224485218385
-0.00348299029768
0.0231230732072
-0.00324190260597
0.0237474991299
-0.00300059527679
0.0243220881677
-0.00276002090512
0.0248475740645
-0.00252115580996
0.0253241678466
-0.00228465420234
0.0257519308908
-0.00205000944098
0.0261312565638
-0.00181811482912
0.0264632727692
-0.00158960404497
0.0267482788995
-0.00136497154694
0.0269874898349
-0.00114508207697
0.0271818476447
-0.000930504701861
0.027333146985
-0.000721943757407
0.0274427273437
-0.00052019791994
0.0275118371334
-0.000325280848884
0.0275413880982
-0.000137936837783
0.0275336422804
4.10195486274e-05
0.0274904088126
0.000210402086727
0.027414465311
0.00037011814263
0.0273077166631
0.000519492243543
0.0271730930136
0.00065809697514
0.0270119121849
0.000786503718188
0.0268263368833
0.000904390609675
0.0266185718828
0.00101224780137
0.0263910781639
0.001111084099
0.0261459110037
0.00120063592985
0.0258856215518
0.00128249994598
0.0256115343402
0.00135833298457
0.0253243029425
0.00143032024462
0.0250232024358
0.00150053650993
0.0247089415292
0.00156993326745
0.0243807363673
0.00163999264606
0.0240381802286
0.00171261762463
0.0236797872177
0.00178828162773
0.0233049955119
0.00186808157799
0.0229118323514
0.00195174706961
0.0224992137731
0.00203863955334
0.022066068332
0.00212838849856
0.0216119966451
0.0022205985428
0.0211364094413
0.00231357732816
0.0206400148789
0.00240599608557
0.0201220950237
0.00249792871339
0.0195841870286
0.00258654787638
0.0190267707497
0.00267169740931
0.0184519122042
0.0027512883472
0.0178630746452
0.00282090521195
0.0172594600505
0.00288605551224
0.0166401447213
0.00294666067685
0.016007667805
0.00299917270991
0.0153647430856
0.00304131780805
0.0147131393781
0.00307555798225
0.0140547236102
0.00310058082983
0.0133933623104
0.00311364045154
0.0127317982661
0.00311518091365
0.0120716396651
0.0031078024986
0.0114140968919
0.00309209034624
0.0107620887073
0.0030667518411
0.0101186564537
0.00303147325023
0.00948574930882
0.00298817801196
0.00886386644211
0.00293899137782
0.00825416606432
0.0028830226398
0.00765797268591
0.00282063470926
0.00707667257698
0.00275382792771
0.00651053941723
0.0026819886677
0.00595963945494
0.00260559658287
0.00542178507803
0.00252511394605
0.00489584913154
0.00243984065528
0.0043809430965
0.00234915132923
0.00387184781293
0.00224779786362
0.00336963264405
0.00213609798033
0.00281224277359
0.00208069036918
0.00225014492219
0.00207591043949
0.00175296288475
0.00220153200629
0.0013016702674
0.00244893893667
0.000798256396385
0.00275501063409
0.00039126322848
0.00284712461304
0.00287032497097
0.00126717991284
-0.00719487801093
0.00267190175787
-0.00797988014774
0.0040745699491
-0.0079719051691
0.00546214591651
-0.00789187688284
0.00682919444081
-0.00778258310535
0.00817113490913
-0.00764803879624
0.00948365038906
-0.0074900700601
0.0107628852717
-0.00731056749166
0.0120056081225
-0.00711182083181
0.0132087945126
-0.00689570561619
0.0143699578113
-0.006664488258
0.0154872667568
-0.00642049403221
0.0165587378769
-0.00616535742816
0.0175828104481
-0.0059005998999
0.0185585295414
-0.00562814185377
0.0194850739617
-0.005349463454
0.0203617975581
-0.00506597292358
0.0211884651587
-0.00477904068335
0.0219645961581
-0.00448953288243
0.0226898455164
-0.00419824230223
0.0233642492053
-0.00390621795139
0.0239880174895
-0.00361418738084
0.0245617785172
-0.00332353832607
0.0250859108327
-0.00303497939518
0.0255599845343
-0.00274837785634
0.0259846491143
-0.00246428153197
0.0263604289034
-0.00218348586374
0.0266878684031
-0.0019066146509
0.0269681182396
-0.00163480241948
0.0272021059632
-0.00136865297326
0.0273912039175
-0.00110922582897
0.0275364265311
-0.000856819213662
0.0276384879558
-0.000611986486079
0.027699297238
-0.000375877786898
0.0277205349965
-0.000149074978412
0.0277043428569
6.72120631645e-05
0.0276524748938
0.0002721131814
0.0275675103018
0.000464785279171
0.0274513102045
0.000645193063499
0.0273056971352
0.000813023689053
0.027133362476
0.000967904968016
0.0269366406343
0.00110994518182
0.0267187246687
0.00123870889224
0.026483183048
0.00135488700983
0.0262315425036
0.00146019909111
0.0259653094808
0.00155630878631
0.0256863019882
0.00164450797421
0.0253960871619
0.00172727074316
0.0250952870381
0.00180756401322
0.0247829090869
0.00188800654207
0.0244572596805
0.00197070794186
0.0241177507356
0.00205654564576
0.0237631210801
0.00214656835499
0.0233919910077
0.00224210632938
0.0230024104053
0.00234334473228
0.0225927083183
0.00244950160519
0.0221620334164
0.0025592744026
0.0217100870232
0.00267185720502
0.0212358435212
0.00278617291241
0.0207401513132
0.00289915847575
0.0202222111437
0.00301241575402
0.0196830298363
0.00312141991305
0.0191294966065
0.00322006290753
0.0185587690746
0.00331604740773
0.0179669380816
0.00340598778936
0.0173560129246
0.00348954187772
0.0167287301037
0.00356584346378
0.0160882535726
0.00363097040456
0.0154364213343
0.00368393941506
0.0147752427899
0.00372708217833
0.0141073187187
0.00375846914473
0.0134344199628
0.00377619114554
0.0127586053261
0.00378041030739
0.0120850274656
0.00377062330685
0.0114170505929
0.0037492043463
0.0107538917861
0.00371899667897
0.0100974639098
0.00367701162201
0.00945180133539
0.00362300595589
0.00881981023428
0.00356028299753
0.00820093362412
0.00349134725925
0.00759729763369
0.00341393903827
0.00700858351201
0.00333244171156
0.00643390243827
0.00324685289767
0.00587422109225
0.00315575821652
0.0053286351355
0.00306146171963
0.00479426108686
0.00296524066649
0.00426950762483
0.0028651732546
0.00375163677309
0.00275713355168
0.00323617921704
0.00264308727518
0.00269636055109
0.00261202638301
0.00209907402786
0.00266475099003
0.00155264454018
0.00273976184622
0.00112594219957
0.00286758141899
0.000724721901175
0.0031481080184
0.000330852496045
0.0032332852583
0.00319738424855
0.00129333368398
-0.00848066897384
0.00272648956976
-0.00940498551851
0.00415692398139
-0.00939424419023
0.00557110433092
-0.00929790645624
0.00696329288156
-0.00916656319444
0.00832858961346
-0.00900505031016
0.00966246269298
-0.00881556916773
0.0109610577792
-0.00860068714769
0.0122210070878
-0.00836318228925
0.0134393393548
-0.00810532834159
0.0146138164419
-0.00783012678751
0.0157423071779
-0.00754001008418
0.0168229404373
-0.00723687760537
0.017854722087
-0.00692312621315
0.0188366968929
-0.00660072193289
0.0197681486502
-0.00627138025828
0.0206487615475
-0.00593691831473
0.0214780436002
-0.00559852536156
0.0222556228212
-0.00525719717456
0.0229816004462
-0.00491419171468
0.0236560139573
-0.00457050528298
0.0242792612929
-0.00422721578361
0.0248521801436
-0.0038861623608
0.0253743176019
-0.00354675066358
0.0258453840271
-0.00320902565391
0.0262660661911
-0.00287449672766
0.0266371309294
-0.00254405499689
0.0269594988187
-0.0022184611102
0.0272341545059
-0.0018989316004
0.0274622510781
-0.00158622401868
0.0276443063766
-0.00128078273394
0.0277812156057
-0.000983265452141
0.0278745867283
-0.000694955961798
0.0279261241487
-0.000417090543805
0.0279378534787
-0.000150583591048
0.0279114859599
0.000103674075155
0.0278488127559
0.000344732479917
0.0277517933273
0.000571571006377
0.0276222706344
0.000784288832145
0.0274626043624
0.000982033096361
0.0272764326249
0.00116318560936
0.0270676039662
0.00132761468333
0.0268383546623
0.00147652566932
0.0265910490049
0.00161046064795
0.0263293305919
0.00172986629807
0.0260564895165
0.00183675846557
0.0257733541357
0.0019348586027
0.0254804848579
0.00202694708314
0.02517847948
0.00211588040639
0.0248671174035
0.00220516328175
0.0245457751755
0.00229722918488
0.0242118514636
0.00239498963687
0.02386270234
0.00249949017185
0.0234969840772
0.00261078466369
0.023112686349
0.00272973528588
0.0227081405211
0.00285522861987
0.0222817809802
0.00298587779008
0.0218318603751
0.00312106743533
0.0213586623727
0.0032577217106
0.0208638925862
0.00339133573417
0.0203545178117
0.00351828223197
0.0198272160343
0.00364430896821
0.019273814959
0.00376817975948
0.0186957416599
0.00388799598542
0.0180934928101
0.00400134155797
0.0174730915446
0.00410232140796
0.0168372890161
0.00419337213897
0.0161846509498
0.00427473679568
0.0155196339265
0.00433955817671
0.0148452959591
0.00439157188263
0.0141640057626
0.00442952936449
0.0134797752668
0.00444988409607
0.0127930399306
0.00445637424814
0.0121049344073
0.0044477929843
0.0114207637321
0.00442234502164
0.0107451100468
0.00438359495209
0.0100789331123
0.00433214606264
0.00942271326207
0.00426828828212
0.00877816465452
0.00419401207449
0.00814880386006
0.00411008104171
0.0075349537163
0.00401736964844
0.00693726382336
0.00391997570525
0.00635513839259
0.00381909871255
0.00578665480473
0.00371466783328
0.00523077236235
0.00360805827133
0.00468679774511
0.00350019826288
0.0041493494423
0.00339381932205
0.00361345215031
0.00328443625714
0.00306632745024
0.00318172503708
0.00253974818189
0.00313020235449
0.00201405957572
0.00318216909848
0.00147262247086
0.00327321350371
0.00100461984672
0.00332785121242
0.000671440108566
0.00347384059414
0.000292234365206
0.00360535745864
0.00348608868276
0.00132476594574
-0.00979788973045
0.00279214372754
-0.0108643474371
0.00425596834731
-0.0108499740788
0.00570202331462
-0.0107358244109
0.00712423882925
-0.0105805774356
0.00851727053941
-0.0103898061141
0.00987648282448
-0.010166415413
0.0111978585005
-0.00991359500508
0.0124779889838
-0.00963473116508
0.0137140086102
-0.0093326436934
0.0149036066017
-0.00901088824805
0.0160447125933
-0.00867214279988
0.0171359833593
-0.0083190319951
0.0181765012763
-0.00795438464302
0.0191654870003
-0.00758030220715
0.0201025142845
-0.00719886121183
0.0209871194085
-0.00681183702859
0.0218189739308
-0.0064205626013
0.0225982254372
-0.00602650437704
0.0233249135485
-0.00563082076448
0.0239991737812
-0.00523459749763
0.0246222007573
-0.00483997866309
0.0251933244099
-0.00444693234709
0.0257121756404
-0.00405517343588
0.026179746176
-0.00366610008061
0.0265962643542
-0.00328046464157
0.0269625038561
-0.00289969896243
0.0272796588137
-0.00252498868414
0.0275481828605
-0.00215680870672
0.0277684358099
-0.00179582643721
0.0279417110282
-0.00144342584047
0.028069438551
-0.00110039475332
0.0281533114589
-0.000768293718086
0.0281944260741
-0.000447749430261
0.028194278921
-0.000140099469455
0.028155040336
0.000153115775625
0.0280784520846
0.000431345742354
0.0279661151962
0.000693745040723
0.027820562053
0.000939447957193
0.0276456497385
0.0011663129258
0.0274440910394
0.0013738454126
0.0272186720669
0.00156185901394
0.0269736248288
0.0017301148125
0.0267132571739
0.00187907339647
0.0264404895524
0.00201057943155
0.0261575783645
0.00212728463199
0.0258673626063
0.00223234392214
0.0255714717423
0.00232970214127
0.0252707928011
0.00242298414059
0.0249635734399
0.00251829562281
0.0246477276678
0.0026184044717
0.0243208336839
0.00272655599987
0.0239798866895
0.0028443465137
0.0236217159834
0.00297204780329
0.0232440583902
0.00310958652626
0.0228449047065
0.00325564437669
0.0224219832266
0.00340909031766
0.0219760381317
0.00356633336415
0.0215116389848
0.00372045178229
0.0210314486331
0.00386889603874
0.0205242452187
0.00402188388148
0.0199879553555
0.00417607812605
0.0194249480875
0.0043257522017
0.0188380945742
0.00446858858238
0.0182304417775
0.00460191125082
0.0176004508011
0.00472452561874
0.0169498088097
0.00483554821742
0.0162839293249
0.0049315573755
0.0156046200904
0.00500927067777
0.0149169408015
0.0050692058817
0.0142201597654
0.00511587314764
0.01351860016
0.00514071436775
0.0128161103192
0.00514789739749
0.0121155591988
0.00513722824862
0.0114186728636
0.00510803801345
0.0107283204582
0.00506272753405
0.0100459253403
0.00500338431258
0.00937582351353
0.0049273268818
0.00872058206608
0.00483834725653
0.00808067294671
0.00473927518224
0.00745618501794
0.00463138378781
0.00684937437863
0.00451657447699
0.00626014003357
0.00439841957113
0.00568823379725
0.00427695916722
0.00513075787858
0.00415621517747
0.00458446354968
0.00403742113391
0.0040423378219
0.0039271114169
0.00349745531725
0.00382066698938
0.00294610657929
0.00372460031384
0.00240928117659
0.00365874314897
0.00192107816952
0.00366225191224
0.0014537991282
0.00373265974567
0.000969918638497
0.0038043085749
0.000621731986139
0.00381492513852
0.000272182332666
0.00394805103313
0.00375499954847
0.0013619882547
-0.0111523487715
0.0028699168502
-0.0123642415204
0.00437320507709
-0.0123451857287
0.00585685616844
-0.0122113435077
0.00731425537378
-0.0120297870337
0.00873965623111
-0.0118069409685
0.0101282451342
-0.0115466485006
0.0114758489276
-0.0112527411227
0.0127790277049
-0.010929337351
0.0140350151828
-0.0105799346658
0.015241573318
-0.0102086162508
0.0163969578791
-0.00981855712158
0.0175002198913
-0.00941317886295
0.0185504028128
-0.00899530411825
0.0195468547039
-0.00856734296805
0.0204893773874
-0.00813182526652
0.0213778811831
-0.00769063977681
0.0222125267113
-0.00724536827264
0.0229934481869
-0.00679745579761
0.0237208145579
-0.00634809244492
0.0243954629845
-0.00589903706543
0.025017286486
-0.00545148516169
0.0255858546724
-0.00500508801874
0.0261017089247
-0.00456052573672
0.0265650559856
-0.00411886939201
0.0269767782779
-0.00368153885731
0.0273378010051
-0.00325001925121
0.0276483883447
-0.00282482569352
0.027908934181
-0.00240657678525
0.028120644473
-0.00199674395058
0.0282845569836
-0.00159655982897
0.0284023169131
-0.00120740759534
0.0284747403775
-0.000830034752345
0.0285032948073
-0.000465713831525
0.0284899073361
-0.000116249342215
0.0284358097792
0.000217511944091
0.0283423793534
0.00053488505299
0.0282121399306
0.000833857661216
0.028048899069
0.00111231878134
0.0278548019967
0.00136974877952
0.0276329243396
0.00160478503878
0.0273880019493
0.00181553015614
0.0271250407198
0.00200154933627
0.0268475042408
0.00216478330895
0.0265592031506
0.00230678728027
0.0262648682616
0.00242923386012
0.0259681765801
0.00253633557027
0.0256699501296
0.00263489874736
0.0253696042998
0.00272987686752
0.0250670863674
0.00282691662199
0.024758781762
0.00293223466588
0.0244412062115
0.00304901323433
0.0241099885198
0.00317968516675
0.0237614868583
0.00332382147665
0.0233924089331
0.00348101828027
0.0230012750637
0.00364816191231
0.0225875447935
0.00382319681839
0.0221584973541
0.00399472821627
0.0217083096357
0.00416895926115
0.0212236240967
0.00435087600779
0.0207090362105
0.00453277217983
0.0201670365552
0.00471340896999
0.0195982477147
0.00488897054086
0.0190032710069
0.00505710163669
0.0183816428374
0.00521629937028
0.0177402590741
0.0053579124901
0.017080274216
0.00548687558181
0.0164012959185
0.00560125910321
0.0157041776743
0.00569658359746
0.0149984287271
0.00576467839539
0.0142848606097
0.00581879479823
0.0135642190998
0.00585039486283
0.0128420473224
0.00585890065671
0.0121218351216
0.00584613659091
0.0114072327454
0.00581126130299
0.010701084263
0.00575751561214
0.0100064590125
0.00568670301817
0.00932381524278
0.00559879603979
0.00865407998471
0.00549707458144
0.00800099162908
0.00538158379055
0.00736658360947
0.00525525462421
0.00674966226729
0.00512325468407
0.00615291968634
0.00498521426488
0.00557360149093
0.00484665303592
0.00501343724788
0.00470704182401
0.00446708260981
0.00457471572843
0.00393238038609
0.0044529732493
0.00340142881802
0.00434297792478
0.00286920704104
0.004248344719
0.00234191928052
0.00417777969252
0.00184595833191
0.00415028331314
0.00140857118543
0.00416243223105
0.000984764817484
0.00422074404332
0.000587518830155
0.00420532585661
0.000260824686054
0.00426823392129
0.00401265354769
0.00140565675142
-0.0125504683704
0.00296108133951
-0.0139116664331
0.00451050337498
-0.0138865304193
0.00603789689986
-0.0137306195793
0.00753599753906
-0.0135197072202