/*--------------------------------*- C++ -*----------------------------------*\
| =========                 |                                                 |
| \\      /  F ield         | OpenFOAM: The Open Source CFD Toolbox           |
|  \\    /   O peration     | Version:  v1906                                 |
|   \\  /    A nd           | Web:      www.OpenFOAM.com                      |
|    \\/     M anipulation  |                                                 |
\*---------------------------------------------------------------------------*/
FoamFile
{
    version     2.0;
    format      ascii;
    class       surfaceScalarField;
    location    "867";
    object      phia;
}
// * * * * * * * * * * * * * * * * * * * * * * * * * * * * * * * * * * * * * //

dimensions      [0 3 -1 0 0 0 0];
oriented        oriented;


internalField   nonuniform List<scalar> 
18240
(
0.00085073338597
-0.000850762018244
0.00174360685417
-0.000892907272686
0.00263442854976
-0.000890850067275
0.00351805568046
-0.000883661763237
0.00439165449614
-0.000873625488571
0.00525266305977
-0.000861043598339
0.00609873792609
-0.000846099732636
0.00692765406423
-0.000828951236208
0.00773737347093
-0.000809742345688
0.00852597066064
-0.000788632012665
0.00929172114459
-0.000765771381165
0.0100330131205
-0.0007413262135
0.0107484421823
-0.000715447875143
0.0114367065726
-0.000688297763382
0.012096705262
-0.000660015394819
0.0127274186362
-0.000630745640935
0.0133280091204
-0.00060060512285
0.0138976903979
-0.000569712232417
0.0144358305166
-0.000538152737633
0.0149418133878
-0.00050601235228
0.0154151449366
-0.000473342250729
0.0158553108789
-0.00044019383073
0.0162618866383
-0.000406584642947
0.0166343952027
-0.000372534790429
0.0169724215012
-0.000338033507636
0.0172754735503
-0.000303076591056
0.0175431016391
-0.000267633753177
0.017774765282
-0.000231686530956
0.0179699575156
-0.000195196514899
0.0181280797729
-0.000158143568532
0.0182485714015
-0.000120494659505
0.0183307918438
-8.22402956679e-05
0.0183741559897
-4.33660705895e-05
0.0183780287474
-3.89129846788e-06
0.018341865164
3.61626741117e-05
0.018265112266
7.67355166009e-05
0.0181473538921
0.000117758405575
0.0179882186728
0.000159118866488
0.0177875264652
0.000200693185933
0.0175451977719
0.000242313288339
0.017261397821
0.000283801916862
0.016936442091
0.000324941277663
0.0165709344271
0.000365510752603
0.0161656653632
0.000405255672717
0.0157217441508
0.00044392559875
0.0152404920785
0.000481239940028
0.0147235745723
0.000516923399281
0.014172898983
0.00055066488815
0.0135907585989
0.000582147827943
0.0129797471642
0.000611002275177
0.0123429223894
0.000636833717486
0.0116837373805
0.000659177729719
0.0110062061469
0.000677541849035
0.0103148180234
0.000691383602705
0.00961464547284
0.000700185240703
0.00891117558714
0.000703468708331
0.00821029840327
0.000700891353864
0.007518045594
0.000692254705216
0.00684051886404
0.000677541013264
0.00618367473757
0.000656849747418
0.00555328678078
0.000630402925326
0.00495476489048
0.000598531956493
0.00439296088441
0.000561819441316
0.00387181622152
0.000521158313577
0.00339386094371
0.000477969640618
0.0029598777006
0.000434005033978
0.00256905985854
0.000390832618203
0.00221961561801
0.000349475339773
0.00190932187144
0.000310306211803
0.00163599839243
0.000273354682397
0.00139732831214
0.000238674214554
0.0011908016472
0.000206550611438
0.00101346110117
0.000177335073474
0.000862134380338
0.000151340780784
0.000733488473309
0.000128632959435
0.000624433608633
0.000109060628031
0.000532129686283
9.22874088192e-05
0.000454164878278
7.79650554834e-05
0.000388393688927
6.57539690952e-05
0.00033300450495
5.53862267618e-05
0.00028640066975
4.65874611304e-05
0.000247296877936
3.90997889335e-05
0.000214637090081
3.2645385693e-05
0.000187751510582
2.68820697385e-05
0.000166757017826
2.09823258123e-05
0.000149079221848
1.76736785314e-05
0.000132794870226
1.6273130941e-05
0.000118714911525
1.4074246416e-05
0.000105346680702
1.33565018916e-05
9.16322866912e-05
1.37061382731e-05
7.81693889334e-05
1.34493061422e-05
6.50146259942e-05
1.31430633797e-05
5.08939962596e-05
1.4106095821e-05
3.47987388643e-05
1.60776720935e-05
1.67921321623e-05
1.79841000067e-05
1.67810657489e-05
0.00089821436846
-0.0017490073667
0.00185196422017
-0.0018466908165
0.00280049814982
-0.00183941592327
0.00374046766079
-0.00182366473003
0.004669390313
-0.00180257926052
0.00558474709414
-0.0017764333569
0.00648409159421
-0.0017454742954
0.00736508597569
-0.00170997786974
0.00822555382431
-0.00167023895898
0.00906346445039
-0.00162657390134
0.0098769722188
-0.00157930642291
0.0106643858601
-0.00152876989682
0.0114242035635
-0.00147529120275
0.012155070923
-0.00141919375142
0.0128558124307
-0.00136078077159
0.0135253797369
-0.00130034001033
0.0141628801437
-0.00123812756806
0.0147675174064
-0.00117437487907
0.0153386184872
-0.00110927399718
0.0158755697687
-0.00104298726568
0.0163778438946
-0.000975634693769
0.0168449345974
-0.00090730637923
0.0172763856319
-0.000838052173028
0.0176717272752
-0.000767896499576
0.0180305091061
-0.000696830076135
0.0183522406622
-0.000624826477705
0.0186364293032
-0.000551835473921
0.0188825268341
-0.000477800739032
0.01908997326
-0.000402654478585
0.0192581504199
-0.000326335865896
0.0193864330601
-0.000248787436086
0.0194741524778
-0.000169973448247
0.0195206535799
-8.98760442715e-05
0.0195252654321
-8.51562900869e-06
0.0194873672982
7.40530669328e-05
0.019406368634
0.000157722823361
0.0192817808631
0.000242339471726
0.0191132030332
0.000327686360433
0.0189003965013
0.000413493997371
0.0186432715452
0.000499428889622
0.0183419599226
0.000585108830501
0.0179967965481
0.000670096323119
0.0176083849584
0.00075391875026
0.0171775700032
0.000836063470524
0.0167054950161
0.0009159983123
0.0161935675985
0.000993161598154
0.0156435151316
0.00106697511371
0.0150573548957
0.00113682093224
0.014437462896
0.00120204066665
0.0137865650598
0.00126189751767
0.0131078330595
0.00131556815978
0.0124049018803
0.00136210814804
0.0116819795974
0.00140046862048
0.0109438536237
0.00142951134711
0.0101959436536
0.00144810248815
0.00944420161394
0.00145521501713
0.00869501305181
0.00145008990844
0.00795494965447
0.00143232358855
0.00723060300244
0.00140189997332
0.00652841725577
0.00135904318833
0.00585464243694
0.00130419256789
0.00521526278506
0.00123792428914
0.00461575150738
0.0011613468216
0.00406076731488
0.00107615710554
0.00355327356929
0.000985479871825
0.00309393228214
0.000893366641038
0.00268137983045
0.000803405776183
0.00231311611073
0.000717766070612
0.00198645351222
0.000636989738143
0.00169907313964
0.000560758589044
0.00144869967616
0.00048906047516
0.00123272773346
0.000422537076825
0.00104798015588
0.000362085580735
0.00089087009262
0.000308455547431
0.0007576582922
0.000261839846199
0.00064489231095
0.000221824478305
0.000549537329042
0.00018763322767
0.000469041184305
0.000158455089591
0.000401190634228
0.000133593393693
0.00034406525557
0.000112503136464
0.000295985063026
9.46559678685e-05
0.000255553699331
7.95223900067e-05
0.000221550458062
6.66380283283e-05
0.000192802677997
5.56222802646e-05
0.000167511570536
4.62645082787e-05
0.000146057780102
3.91202190308e-05
0.000128717543942
3.36045360431e-05
0.000114366289495
2.84174416443e-05
0.000101553345982
2.61598795092e-05
8.91182946668e-05
2.61309331536e-05
7.61558355867e-05
2.63998436967e-05
6.31038975014e-05
2.61827496401e-05
4.97220566269e-05
2.74732357094e-05
3.47295234071e-05
3.10530023395e-05
1.69426512649e-05
3.57513774146e-05
3.37135679229e-05
0.000906435334422
-0.00265547432689
0.0018658534268
-0.00280614209217
0.00282110148642
-0.00279469704546
0.0037678547576
-0.00277045110436
0.00470338770059
-0.00273814457041
0.00562509992583
-0.00269817804631
0.00653050020735
-0.00265090602377
0.00741722760798
-0.00259673680973
0.00828307902475
-0.0025361206705
0.00912601450047
-0.00246953973674
0.00994417399048
-0.00239749483233
0.0107358715165
-0.00232049639012
0.0114996041874
-0.00223905124419
0.0122340372269
-0.00215365419374
0.0129380063029
-0.002064775527
0.0136104947792
-0.00197285419615
0.0142506305451
-0.0018782872311
0.0148576573459
-0.00178142560519
0.0154309279591
-0.00168256666244
0.0159698721619
-0.00158195356058
0.0164739887466
-0.00147977147192
0.0169428130992
-0.00137615097837
0.0173759107104
-0.00127116813191
0.0177728472001
-0.00116485141825
0.0181331855994
-0.00105718503669
0.0184564609827
-0.000948118535064
0.0187421830533
-0.000837572401284
0.0189898168112
-0.000725449514621
0.0191987914857
-0.000611642427283
0.0193684883712
-0.000496046238132
0.019498257128
-0.000378568017393
0.0195874114986
-0.00025913992046
0.0196352539777
-0.000137729050947
0.019641080861
-1.43533774152e-05
0.0196042155604
0.000110909001922
0.019524022335
0.000237906286159
0.0193999474024
0.000366406085786
0.0192315389651
0.000496086046232
0.0190184924316
0.00062653320845
0.0187606715567
0.000757241995099
0.018458151635
0.000887622440192
0.0181112346471
0.00101700658489
0.0177204835718
0.00114466464536
0.017286725674
0.00126981585071
0.0168110748368
0.00139164531099
0.0162949239198
0.00150930844235
0.0157399617583
0.00162193500094
0.0151481678109
0.00172861239693
0.0145218436214
0.00182836418327
0.0138636344281
0.00192010581384
0.0131766003125
0.00200260320301
0.0124642835822
0.00207442588885
0.0117308190343
0.00213393610693
0.010981013468
0.00217932094497
0.010220406806
0.00220871421805
0.00945522173404
0.00222040773925
0.00869219368266
0.00221312360918
0.00793827271546
0.00218625484957
0.0072003103732
0.00213986849953
0.00648498301188
0.00207438438595
0.0057987435355
0.00199044299077
0.00514808756419
0.00188859786093
0.00453916810165
0.00177028106302
0.00397790783239
0.00163743290999
0.00346804613915
0.0014953576411
0.00300983588018
0.00135159676726
0.00260061536385
0.00121264856863
0.00223641148337
0.00108199563489
0.00191374510815
0.000959678936776
0.00163049761643
0.000844025619414
0.00138491266886
0.000734659406681
0.00117460837137
0.00063285088183
0.000996261145415
0.000540437197143
0.000845783987346
0.000458933321018
0.000718873618859
0.000388747704204
0.000611720949403
0.00032897294406
0.000521225810272
0.000278122081309
0.000444923472853
0.000234750556124
0.000380725931534
0.000197782023261
0.000326742637284
0.000166477096167
0.000281301243795
0.000140087009421
0.000243064428104
0.000117749525053
0.000210903149003
9.87897480339e-05
0.000183815707187
8.27017301001e-05
0.000160723900211
6.93481668266e-05
0.000140761393038
5.90748288237e-05
0.000122603731722
5.17534612349e-05
0.000106176652052
4.48356945242e-05
9.28468123733e-05
3.94800302851e-05
8.19992586157e-05
3.69676843147e-05
6.95191951169e-05
3.88676562655e-05
5.55334870778e-05
4.01558889689e-05
4.16968351477e-05
4.12966186498e-05
2.73317639345e-05
4.5402377941e-05
1.38175508577e-05
4.92484521914e-05
4.75227903164e-05
0.000914863941343
-0.00357037033222
0.00188227047807
-0.00377358261818
0.00284559710487
-0.00375805719443
0.00380029506748
-0.00372518254517
0.00474351214688
-0.00368139460566
0.00567256335273
-0.00362726195806
0.00658489678329
-0.00356327153452
0.00747810929382
-0.00348998102485
0.00834996501285
-0.00340800732105
0.00919840573541
-0.00331801091682
0.0100215609422
-0.00322067959217
0.0108177487625
-0.00311671320908
0.0115854773069
-0.00300680777252
0.0123234368196
-0.00289164107615
0.013030493106
-0.00277185808616
0.0137056719634
-0.00264805866741
0.0143481460003
-0.00252078572411
0.0149572131224
-0.00239051649851
0.0155322788659
-0.00225765498577
0.0160728315876
-0.00212252816575
0.0165784232234
-0.00198538378673
0.0170486443979
-0.00184639214244
0.0174831067646
-0.00170564929603
0.0178814210725
-0.00156318385543
0.0182431836598
-0.00141896459225
0.0185679596022
-0.00127291081658
0.0188552748979
-0.00112490292854
0.0191046058541
-0.00097479512514
0.0193153778328
-0.000822428020071
0.019486961759
-0.000667643267255
0.0196186804641
-0.000510298865831
0.0197098132208
-0.000350284380372
0.0197596110913
-0.000187537746855
0.019767311483
-2.20642268699e-05
0.0197321633916
0.00014604743646
0.0196534519469
0.000316608383264
0.019530533101
0.00048931633149
0.0193628660954
0.000663744724235
0.019150053729
0.000839337971539
0.0188918769073
0.00101541148741
0.0185883328739
0.00119115989414
0.0182396626591
0.00136567054153
0.0178463775265
0.00153794435046
0.0174092701841
0.0017069181916
0.0169294229553
0.00187148849688
0.0164082011195
0.0020305267853
0.0158472485893
0.00218288507916
0.0152484788066
0.00232738031668
0.0146140842551
0.0024627578889
0.0139465618357
0.00258762793023
0.0132487806839
0.00270038525204
0.0125240856522
0.00279912240427
0.011776451798
0.00288157365844
0.0110106487876
0.00294512743296
0.0102323851622
0.00298698566654
0.00944830437387
0.00300449210354
0.00866577677442
0.00299566243307
0.00789237389329
0.00295965999843
0.00713532818199
0.00289692817597
0.00640152401278
0.00280819519699
0.00569749649919
0.00269448829414
0.00503047188438
0.00255563759734
0.00440749161821
0.00239327913658
0.00383735298026
0.00220758501604
0.00332564435112
0.00200708277396
0.00287173509057
0.0018055251926
0.00247020933778
0.00161419702943
0.00211399565945
0.00143823448244
0.00179810651678
0.0012755894854
0.00152140080181
0.00112074796001
0.00128348323668
0.000972587276557
0.00108251007448
0.000833830241764
0.000914867205659
0.00070808074897
0.000775485658122
0.000598314230134
0.00065887930865
0.00050534993293
0.00056064966583
0.00042719933364
0.000477687317269
0.000361078937033
0.000407834866436
0.000304597462579
0.000349297256441
0.000256311675351
0.000300216230985
0.000215549188027
0.000258854001214
0.000181439272262
0.000224023090518
0.000152570821089
0.000194765342547
0.000128038463372
0.000170248543468
0.000107210760869
0.000149848662188
8.97405621185e-05
0.000130118503185
7.8796829922e-05
0.000112393192316
6.94698100069e-05
9.70144963392e-05
6.02047484179e-05
8.24223519951e-05
5.40618049985e-05
6.8231910393e-05
5.11469759364e-05
5.77754828005e-05
4.93125822742e-05
4.49396658517e-05
5.29793708864e-05
3.10624962032e-05
5.51606139024e-05
1.99526511222e-05
5.64994367653e-05
1.02038806876e-05
5.89831539801e-05
5.77187962471e-05
0.000925763461902
-0.00449616648059
0.00190430055298
-0.00475215371825
0.00287860409947
-0.00473239504334
0.00384400271494
-0.00469061507149
0.00479753754695
-0.0046349630419
0.00573642975048
-0.00456618733405
0.0066580504836
-0.00448492493986
0.00755993733035
-0.00439190000353
0.00843981051963
-0.00428791200192
0.00929558466365
-0.00417381589129
0.010125376796
-0.00405050179878
0.0109275089382
-0.00391887466252
0.0117005068984
-0.00377983419736
0.0124430936828
-0.00363425548018
0.0131541795299
-0.00348297063614
0.013832847032
-0.00332675196941
0.014478333654
-0.00316629718235
0.0150900103122
-0.00300221705117
0.0156673586753
-0.00283502625188
0.0162099461018
-0.00266513753808
0.016717401124
-0.0024928597576
0.0171893884745
-0.00231839948803
0.0176255865204
-0.00214186635234
0.0180256658828
-0.00196328130034
0.0183892717494
-0.00178258759068
0.0187160082563
-0.00159966357047
0.0190054270539
-0.00141433707241
0.0192570182095
-0.00122640080483
0.0194702054822
-0.00103562898359
0.0196443442609
-0.000841794989074
0.0197787245239
-0.000644691314012
0.0198725770034
-0.000444148381392
0.0199250857595
-0.000240057346914
0.0199354052879
-3.23940161089e-05
0.0199026846008
0.000178758470332
0.0198260963998
0.000393187445424
0.0197048730195
0.00061053113045
0.0195383460849
0.000830263551847
0.0193259904384
0.00105168605528
0.0190674676802
0.00127392715458
0.0187626686428
0.00149595241814
0.0184117486771
0.0017165845179
0.0180151547027
0.00193453300919
0.0175736379325
0.00214843028058
0.0170882533879
0.00235686917469
0.0165603434343
0.00255843362419
0.015991512615
0.00275171368832
0.0153835983967
0.00293529307762
0.0147386548091
0.00310770088541
0.0140589631635
0.00326731979182
0.0133470960584
0.00341225337038
0.0126060543449
0.00354016692338
0.0118394925508
0.00364813822325
0.0110520265457
0.00373260076982
0.010249534308
0.00378948100836
0.00943932417293
0.0038147134323
0.00862984022697
0.00380514732574
0.00782978805531
0.00375972399158
0.00704678902482
0.00367992971354
0.00628789213191
0.00356710829816
0.00555897691587
0.00342341559064
0.0048683849453
0.00324625079455
0.00422323934438
0.00303844073317
0.00363918950619
0.00279164973957
0.00312611746313
0.00252017152888
0.00268144349715
0.00225021868828
0.00229409301271
0.00200157097727
0.00195055099875
0.00178180088354
0.00164297175976
0.00158318719291
0.0013736187315
0.00139011421565
0.00114534419138
0.00120086690402
0.000957268414506
0.00102190740584
0.000805208965871
0.000860138363822
0.000682184297455
0.000721334578953
0.000580251539589
0.000607280022016
0.000494114718132
0.000513332453457
0.000420945495316
0.000434245630128
0.000359402827762
0.000366135364657
0.000308356785399
0.000307352088435
0.000265867037758
0.000258030302485
0.000229815274715
0.000217482038434
0.000199365583313
0.000183010792659
0.000173821477585
0.000153574066185
0.000152396572918
0.00012862854413
0.000134818845386
0.000107311144025
0.000117575802932
9.60316580868e-05
0.000101134450823
8.59018158267e-05
8.3766676924e-05
7.75621028957e-05
6.81151266344e-05
6.97023336577e-05
5.3998275596e-05
6.52523520024e-05
4.30000177947e-05
6.02992309991e-05
3.4141691228e-05
6.18262905346e-05
2.30509160344e-05
6.62404650634e-05
1.36795380123e-05
6.58588761055e-05
6.82534168693e-06
6.58246332065e-05
6.45381415202e-05
0.000939444273583
-0.00543564402082
0.0019322334212
-0.00574497815925
0.00292053663116
-0.00572073307279
0.00389953980191
-0.00566965293647
0.00486616423517
-0.00560162170578
0.0058175206722
-0.00551757760981
0.00675088621501
-0.00541832377931
0.00766372321019
-0.00530476974324
0.00855369637127
-0.0051779172327
0.00941868511659
-0.00503883602764
0.0102567914327
-0.00488863870929
0.0110663423753
-0.00472845541867
0.0118458879838
-0.00455940872277
0.0125941938738
-0.00438258942805
0.0133102295266
-0.00419903337537
0.0139931516339
-0.00400970024665
0.0146422838422
-0.00381545453671
0.0152570925352
-0.00361704993852
0.0158371604648
-0.00341511732373
0.0163821582445
-0.00321015749297
0.0168918158907
-0.00300253852018
0.0173658945801
-0.00279249833274
0.0178041607601
-0.00258015164557
0.0182063624586
-0.00236550117649
0.0185722093885
-0.00214845169308
0.0189013560711
-0.00192882653557
0.0191933889713
-0.00170638530797
0.0194478165236
-0.00148084286472
0.0196640629555
-0.0012518890501
0.019841465094
-0.00101921001042
0.0199792736371
-0.000782511952836
0.0200766581914
-0.000541544361712
0.0201327186747
-0.000296128556934
0.0201465025621
-4.61880404538e-05
0.0201170297844
0.000208221730547
0.0200433248897
0.000466883349891
0.0199244572037
0.000729390389674
0.0197595873435
0.00099512547888
0.0195480191249
0.00126324688394
0.019289253195
0.00153268619858
0.0189830391906
0.00180216011205
0.018629420555
0.00207019741463
0.0182287671859
0.00233518131242
0.017781789488
0.0025954036181
0.0172895304881
0.00284912462675
0.0167533336473
0.00309462775349
0.0161747904085
0.00333025508768
0.0155556758122
0.00355440665725
0.0148978901738
0.00376548638487
0.0142034314989
0.00396177898544
0.0134744375455
0.0041412494442
0.0127133393238
0.00430126745134
0.0119231862512
0.00443829751698
0.0111081507084
0.00454764002325
0.0102741892459
0.00462345284914
0.00942954662434
0.00465935752303
0.00858462204612
0.00465008216052
0.00775023875773
0.00459410658813
0.00693429229532
0.00449588842938
0.00614395253534
0.00435745637249
0.00538221712612
0.00418517052694
0.00465980995814
0.00396867807515
0.00397865831929
0.00371961144903
0.00337204173292
0.00339828223222
0.00285969624037
0.00303253428034
0.0024343254784
0.00267561063841
0.00207335649222
0.00236256446486
0.0017495547051
0.00210562412787
0.00144921674686
0.00188354242407
0.00118528157173
0.00165405661853
0.000967658194218
0.00141849184506
0.000796543597077
0.0011930207812
0.000666638544012
0.000990037988702
0.000567376515486
0.000820595287649
0.000485416321117
0.000689237686699
0.000414364363539
0.00058438572508
0.000352539622426
0.000496068953188
0.000300580756976
0.000418094330716
0.000258852414389
0.000349075437844
0.000224898974416
0.000291977294819
0.000195132843112
0.00024723916697
0.000169789364599
0.000208345478719
0.00014862162777
0.000174733553134
0.000130535985186
0.000146707861296
0.000113759404564
0.000124080917099
9.75984454706e-05
0.000112184688174
8.30053546299e-05
0.000100485276718
6.96718624247e-05
9.08843854714e-05
5.51437571307e-05
8.42181828744e-05
4.17758115632e-05
7.86081119768e-05
2.91196452272e-05
7.29446740375e-05
2.14100040752e-05
6.95255673089e-05
1.58042606748e-05
7.18351712305e-05
9.09320213154e-06
7.25600455184e-05
4.44833844739e-06
7.04592091618e-05
6.89803611892e-05
0.000956117157449
-0.00639179533045
0.00196635893918
-0.00675525541078
0.00297179464415
-0.00672620463122
0.00396742423765
-0.00666531791486
0.00495001991307
-0.0065842524661
0.00591655854216
-0.00648415081867
0.00686420253314
-0.00636600183821
0.00779032217268
-0.00623092282404
0.00869251417837
-0.00608014202003
0.00956861509631
-0.00591496896584
0.0104167091238
-0.00573676397819
0.0112351305931
-0.00554690725325
0.0120224608775
-0.00534676850044
0.012777520071
-0.00513767714823
0.0134993531826
-0.00492089407135
0.0141872113872
-0.00469758500436
0.014840528277
-0.00446879699
0.0154588921539
-0.00423543830657
0.0160420148417
-0.00399826348744
0.0165896987336
-0.00375786377181
0.0171018030682
-0.00351466422308
0.0175782114881
-0.00326892703864
0.0180188018101
-0.00302076125232
0.0184234196072
-0.0027701372063
0.0187918557062
-0.0025169050627
0.0191238281811
-0.00226081528056
0.0194189680203
-0.00200154051348
0.0196768084407
-0.00173869772249
0.019896776995
-0.00147187121349
0.0200781909172
-0.00120063669858
0.0202202559283
-0.000924588986064
0.0203220693174
-0.000643369023245
0.0203826292425
-0.000356699097653
0.0204008513912
-6.44201439631e-05
0.0203755942803
0.000233469467712
0.0203056945028
0.000536774343061
0.0201900120277
0.000845064610647
0.0200274852804
0.00115764452228
0.0198171940172
0.00147353096332
0.0195584268793
0.00179144670907
0.0192507483946
0.00210983253478
0.0188940586177
0.00242688175683
0.0184886369778
0.00274059820276
0.0180351613003
0.00304887530922
0.017534694018
0.00334958876525
0.0169886304289
0.00364068906996
0.0163986099144
0.00392027423367
0.0157663986556
0.00418661736688
0.0150937636289
0.00443812167193
0.0143823703833
0.00467317349994
0.0136337564534
0.00488986533919
0.0128494622021
0.00508556631128
0.0120314264493
0.00525633722573
0.0111827925847
0.00539628295561
0.0103091512867
0.00549709738235
0.00941999507825
0.00554852253002
0.00852927609505
0.00554080138849
0.00765245321907
0.00547093587466
0.00679669026368
0.00535165609897
0.00597046145847
0.00518370078906
0.00516692687134
0.00498872359065
0.0044058839637
0.00472974419507
0.00366097290999
0.00446454238454
0.00301497609603
0.00404429437757
0.00250916898757
0.00353835801894
0.0021238383901
0.00306096489745
0.00181376689506
0.00267265526222
0.00152140763185
0.00239800399066
0.0012189692421
0.00218599821342
0.000952283027005
0.0019207399993
0.000744797089695
0.00162598901009
0.00059562218582
0.00134218044934
0.000497626936653
0.00108803955802
0.000434121271542
0.000884093754432
0.000378874602385
0.000744488159552
0.000325003517863
0.000638258080598
0.000274353103155
0.000546723168938
0.00023196364192
0.000460484257445
0.000201681250238
0.000379355126094
0.000179253377296
0.000314399916937
0.000156057821462
0.00027042826365
0.000136129139592
0.000228265724405
0.000120184544111
0.000190671547038
0.000105999793939
0.000160886978618
9.11179532185e-05
0.00013895692881
7.74997287839e-05
0.000125794898566
6.3466112756e-05
0.000114508825412
5.02737550937e-05
0.000104064784329
3.78821565349e-05
9.65970118487e-05
2.81364138301e-05
8.83418683018e-05
1.84543191999e-05
8.26153175931e-05
1.06814531035e-05
7.72886366704e-05
8.110046111e-06
7.43981547505e-05
4.68098795263e-06
7.59792288515e-05
2.2258541577e-06
7.29039699607e-05
7.12013047229e-05
0.000975976639931
-0.00736780690163
0.00200702765404
-0.00778634355678
0.00303288317649
-0.00775209672758
0.00404830739338
-0.00768077857713
0.00504988890607
-0.00758586991235
0.00603444154451
-0.00746873895429
0.00699898941934
-0.00733058461712
0.00794079199032
-0.00717275968373
0.00885736472711
-0.00699674830902
0.00974649327197
-0.00680413030809
0.010606241665
-0.00659654429989
0.0114349543485
-0.00637565099976
0.0122312524932
-0.00614309673227
0.0129940241645
-0.00590047795654
0.0137224087883
-0.0056493067763
0.0144157753648
-0.00539097865129
0.015073695213
-0.00512674279849
0.0156959092133
-0.00485767721949
0.0162822912185
-0.00458466926644
0.0168328085411
-0.00430840380638
0.017347482113
-0.00402935936424
0.0178263477741
-0.00374781321641
0.0182694213117
-0.00346385418502
0.0186766680378
-0.00317740230634
0.0190479782453
-0.00288823256744
0.0193831477003
-0.00259600106517
0.0196818629438
-0.00230027107744
0.0199436896001
-0.00200053880419
0.0201680633656
-0.00169625848098
0.0203542827909
-0.00138686881758
0.0205015052145
-0.00107182327634
0.0206087459997
-0.000750620959407
0.0206748848202
-0.000422848339891
0.0206986798971
-8.82250139932e-05
0.0206787932111
0.000253347003885
0.0206138280437
0.000601730922805
0.020502380437
0.00095650421487
0.0203431042462
0.00131691324135
0.0201347887128
0.00168183959401
0.0198764446701
0.0020497843997
0.0195673935496
0.00241887791757
0.0192073497671
0.00278692044536
0.0187964847491
0.00315145886024
0.0183354583723
0.00350989813315
0.0178254039515
0.00385964049611
0.0172678557076
0.00419823556899
0.0166646143389
0.00452351468379
0.0160175569936
0.00483367467878
0.0153284095808
0.00512726978673
0.0145985160396
0.0054030684662
0.0138286650646
0.00565971943449
0.0130190826175
0.005895152477
0.0121698026
0.0061056240501
0.0112817361804
0.00628435513849
0.0103588937956
0.00641994730486
0.00941182435193
0.00649559531351
0.00846120482212
0.00649142490506
0.00753371829682
0.0063984246503
0.00663133330437
0.00625405097725
0.00577097893148
0.00604407108349
0.00491461607177
0.00584510566975
0.00412330937997
0.00552107522461
0.0032491966514
0.00533867217644
0.00252803371663
0.00476546615329
0.00204337011667
0.00402304137081
0.00174027412633
0.00336407206316
0.00153290957761
0.0028800405734
0.00129484822233
0.00263608885987
0.000957423199221
0.00252342622851
0.000670196979156
0.00220798743375
0.000472926344078
0.00182324561682
0.000351795471744
0.00146331872093
0.000298906871387
0.00114091791478
0.000291668824797
0.000891324341951
0.000270606715934
0.000765556959879
0.000232498375068
0.000676359053299
0.000188584974549
0.000590646346543
0.000152612058724
0.000496448749484
0.000136988917854
0.000394980983939
0.000132727817398
0.000318654674688
0.000114062038183
0.000289088341504
9.88516602081e-05
0.000243470791116
8.94968414306e-05
0.000200021408255
7.82733127577e-05
0.00017210736126
6.62225423072e-05
0.000151003003523
5.44825744581e-05
0.000137527307507
4.29938836049e-05
0.000125987575377
3.10197471548e-05
0.000116026108724
2.14303882775e-05
0.000106173534482
1.25522442733e-05
9.72077915789e-05
7.41503017963e-06
8.77420810261e-05
2.77217089624e-06
8.19219347399e-05
5.22507875294e-07
7.66382448757e-05
4.84035447272e-07
7.60092652688e-05
5.70310590549e-08
7.33220580833e-05
7.12527636052e-05
0.000999239159505
-0.00836708216171
0.00205466529606
-0.0088418071465
0.00310442400482
-0.00880189333881
0.00414299284986
-0.00871938479237
0.00516673640978
-0.00860965051447
0.00617227256084
-0.00847431158103
0.00715646004746
-0.00831480801156
0.00811642700418
-0.00813276184742
0.00904959321335
-0.00792994899377
0.00995368528993
-0.00770825601092
0.0108267448119
-0.00746963658703
0.011667130157
-0.00721606813461
0.0124735118211
-0.00694950922422
0.0132448615766
-0.00667185746664
0.0139804346843
-0.00638490860219
0.0146797453716
-0.00609031691363
0.0153425349178
-0.00578955883388
0.0159687333788
-0.00548390098401
0.0165584154644
-0.0051743755441
0.0171117531764
-0.00486176450912
0.01762896717
-0.00454659523622
0.0181102805052
-0.00422914723952
0.0185558769167
-0.00390947019506
0.0189658663542
-0.0035874101889
0.0193402579255
-0.00326264154168
0.0196789403066
-0.00293469975737
0.0199816671497
-0.00260301325888
0.0202480458411
-0.00226693182602
0.0204775270453
-0.00192575313045
0.0206693948815
-0.00157874919039
0.0208227580602
-0.00122519820321
0.0209365437929
-0.00086441763698
0.0210094983514
-0.000495813152217
0.0210401971627
-0.000118933374269
0.0210270677181
0.000266467508173
0.0209684287283
0.000660361601607
0.020862547373
0.00106237781575
0.0207077162274
0.00147173722473
0.0205023488469
0.00188720036426
0.02024509112
0.00230703612664
0.0199349411291
0.00272902252737
0.0195713663106
0.00315049058501
0.0191544011328
0.00356842012494
0.0186847045
0.00397959168996
0.0181635538754
0.00438078897944
0.0175927553966
0.00476903277162
0.0169744578214
0.00514181191767
0.0163108697401
0.00549726303215
0.0156038949025
0.00583424571347
0.0148547075183
0.00615225759914
0.0140633130188
0.0064511170176
0.0132281985123
0.00673027178023
0.0123463495664
0.00698747915634
0.0114142593781
0.00721645336422
0.0104312167795
0.00740299611009
0.00940654149835
0.00752027609015
0.00837328318886
0.00752468713008
0.0073886326154
0.00738308029553
0.00643084060159
0.00721185349741
0.00555653544438
0.00691839040067
0.0046189623724
0.00678269787397
0.00387912575789
0.0062609297581
0.00270471875723
0.00651308808261
0.00184711864478
0.00562307539234
0.00143038143555
0.00443978091445
0.00130709078037
0.00348737707756
0.00135795561767
0.00282918754408
0.00131410196092
0.0026799638237
0.000862645200365
0.00297491112938
0.000520335423488
0.00255032642086
0.000317968611764
0.00202562252847
0.000181977558002
0.00159931865375
0.000128298078758
0.00119456363332
0.000187251867231
0.000832379407091
0.000196674296763
0.000756107197607
0.000160338867252
0.000712706430036
0.000107947273267
0.000643017994446
6.53910605439e-05
0.000539006926298
6.72571392444e-05
0.000393104304575
9.67828084625e-05
0.000289118870516
7.07792309734e-05
0.000315092039417
5.70250759869e-05
0.000257215499317
5.92089682534e-05
0.000197834869619