/*--------------------------------*- C++ -*----------------------------------*\
| =========                 |                                                 |
| \\      /  F ield         | OpenFOAM: The Open Source CFD Toolbox           |
|  \\    /   O peration     | Version:  v1906                                 |
|   \\  /    A nd           | Web:      www.OpenFOAM.com                      |
|    \\/     M anipulation  |                                                 |
\*---------------------------------------------------------------------------*/
FoamFile
{
    version     2.0;
    format      ascii;
    class       surfaceScalarField;
    location    "214";
    object      phia;
}
// * * * * * * * * * * * * * * * * * * * * * * * * * * * * * * * * * * * * * //

dimensions      [0 3 -1 0 0 0 0];
oriented        oriented;


internalField   nonuniform List<scalar> 
18240
(
0.00137079048886
-0.00136958750152
0.00287194044804
-0.00149970016696
0.00437241627023
-0.00149925838487
0.00585493164274
-0.00148102591181
0.00731110133728
-0.00145501673625
0.00873488653105
-0.00142226960541
0.0101196800976
-0.00138370898838
0.0114608389583
-0.00133962725637
0.0127527298563
-0.00129087771977
0.0139919677129
-0.00123769998653
0.0151739277864
-0.00118102121111
0.0162965060087
-0.00112104250074
0.0173561057041
-0.00105873537488
0.0183518647848
-0.00099423243478
0.0192811644764
-0.000928510122426
0.0201442826598
-0.000861605926817
0.0209394721802
-0.000794472627491
0.0216680045419
-0.000727038406367
0.022328865542
-0.000660215515561
0.0229241575901
-0.00059381899558
0.0234534505805
-0.000528715909335
0.0239195150813
-0.000464614081475
0.0243223628988
-0.000402337713756
0.0246652868403
-0.000341497269452
0.024948614152
-0.000282881459324
0.0251760316601
-0.000226015616137
0.0253480737448
-0.000171659847084
0.025468714037
-0.00011926432668
0.025538601914
-6.95674176647e-05
0.0255619041679
-2.19538836569e-05
0.0255393089849
2.2853524048e-05
0.025475097294
6.5530286978e-05
0.0253699169976
0.000105377648008
0.0252280779797
0.000143124863446
0.025050140261
0.000178073284081
0.0248403958185
0.00021099412834
0.0245992710439
0.000241199694328
0.0243309819667
0.000269498698092
0.0240357867372
0.000295209068273
0.0237177839137
0.000319168374621
0.0233770417167
0.000340696810832
0.0230175074695
0.000360651633589
0.0226390493014
0.000378354080724
0.0222454413374
0.000394673403963
0.0218363513002
0.000408930214768
0.0214153640258
0.000421997256787
0.0209819553761
0.000433194814935
0.0205395146965
0.000443392282624
0.0200873415453
0.000451909393512
0.0196286274981
0.000459604786728
0.019162517361
0.000465799257283
0.0186920103031
0.000471335099818
0.0182161219602
0.000475535266389
0.0177376660336
0.000479219851768
0.0172555574416
0.000481716864511
0.0167724360964
0.000483820300255
0.0162871453561
0.00048486572567
0.0158021616799
0.000485617119421
0.0153162854779
0.000485421828513
0.0148318415108
0.000485011805341
0.0143476132371
0.000483749978866
0.01386578135
0.000482334242007
0.0133851348725
0.000480148265738
0.0129077168356
0.000477855382205
0.0124323394765
0.000474864440565
0.0119609090311
0.000471803407683
0.0114922737713
0.000468111468086
0.0110282019228
0.000464381351667
0.0105675854567
0.000460086565745
0.0101120485097
0.000455784074343
0.00966053029977
0.000450985751904
0.009214503834
0.000446212652117
0.00877295558881
0.000441017581779
0.00833719787418
0.000435884717128
0.00790626252063
0.000430410015788
0.0074812927762
0.000425039890906
0.00706136295031
0.000419414224727
0.00664743909768
0.000413940042314
0.00623863584641
0.000408301479311
0.00583573717649
0.000402864462787
0.00543789762657
0.000397356472126
0.00504571706148
0.000392099790403
0.00465839343993
0.000386863442599
0.00427634720505
0.000381922192811
0.00389883121368
0.000377081527328
0.00352610631571
0.000372559260981
0.00315751777778
0.0003681800643
0.00279324251055
0.000364069564788
0.00243286630393
0.000359992388999
0.00207682839333
0.000355800598476
0.00172573142171
0.000350747863131
0.00138218342112
0.000343294859069
0.0010534021545
0.000328495920623
0.000760566759363
0.000292564451176
0.000438715345027
0.00032145408422
0.000438480044067
0.00151526793581
-0.00288353381035
0.0032071552666
-0.00319012856862
0.00489037524799
-0.00318108826979
0.00655047728426
-0.00313966819917
0.00818000984387
-0.00308318828561
0.00977242627158
-0.00301323677427
0.0113209937018
-0.00293095183898
0.0128200492945
-0.00283725181488
0.0142638831768
-0.00273343024403
0.0156480970101
-0.00262050857531
0.0169682034121
-0.00249989439499
0.0182211568129
-0.00237262254751
0.0194037215723
-0.00224011885377
0.0205141717389
-0.00210334570298
0.0215504555011
-0.00196366632841
0.0225120535394
-0.00182190652425
0.0233979651286
-0.00167931147104
0.0242087158359
-0.00153653291626
0.0249441885393
-0.00139466988235
0.0256057719621
-0.00125418818239
0.0261940562937
-0.00111603587927
0.0267111147511
-0.000980500409689
0.027158079147
-0.00084839047015
0.0275375462904
-0.000719834193226
0.0278510441777
-0.000595519850851
0.0281015551293
-0.000475438215719
0.0282908799442
-0.000360176470354
0.0284222695198
-0.000249607644933
0.0284976921664
-0.000144233422303
0.0285205659277
-4.38243109604e-05
0.0284929323918
5.11919904608e-05
0.028418286353
0.00014113543468
0.0282986754686
0.000225640482138
0.0281376090921
0.000305104152766
0.0279370644858
0.000379215913529
0.027700483492
0.000448439649024
0.0274297182363
0.000512507386741
0.0271280944118
0.000571936188063
0.0267972984071
0.000626490921594
0.0264404986356
0.000676728572176
0.0260591865157
0.000722436859629
0.0256563432291
0.000764199845665
0.0252332480763
0.000801818878941
0.0247926761296
0.000835892973845
0.0243356879846
0.000866229328456
0.023864843132
0.000893431038199
0.0233809864209
0.000917304521856
0.0228864610179
0.00093844717347
0.0223819067209
0.00095665949716
0.0218694564758
0.00097252482747
0.0213495623503
0.000985833801722
0.02082415927
0.000997148653138
0.0202935335966
0.00100624779774
0.0197594383445
0.00101366703209
0.019222019522
0.00101917162056
0.0186828671925
0.00102326726701
0.0181420134979
0.00102570698008
0.0176009048383
0.0010269646423
0.0170594855345
0.00102678344883
0.016519076802
0.00102560546469
0.0159795586505
0.00102316815989
0.0154421424602
0.00101988339865
0.0149066637083
0.00101548809165
0.0143742356234
0.00101036664478
0.013844663906
0.00100426138241
0.0133189702581
0.000997532668695
0.0127969401557
0.000989934257419
0.0122795059474
0.000981805949567
0.0117664371797
0.000972918572891
0.0112585744041
0.000963594396219
0.0107556712361
0.000953625935874
0.0102584710458
0.00094332008528
0.0097667081848
0.000932494397795
0.00928102119693
0.000921441389862
0.00880112009765
0.000910005446317
0.00832753077946
0.000898464482981
0.00785993342481
0.000886690017741
0.00739873406282
0.000874943902935
0.00694357866307
0.000863123623805
0.00649474864476
0.000851472383623
0.00605185367918
0.000839911080674
0.00561504890633
0.000828660276837
0.0051839093932
0.000817659845971
0.00475846756665
0.000807101265074
0.00433827139811
0.000796934648175
0.00392324255652
0.000787308537873
0.00351291992904
0.00077816020791
0.00310713962599
0.000769554390065
0.00270545236975
0.000761336842505
0.00230760277236
0.000753340202705
0.00191299678141
0.000745028419634
0.0015205611006
0.000735430908357
0.00112616395481
0.00072257796588
0.000715572916651
0.000702864246393
0.000320507251051
0.000716208675348
0.000758815252197
0.00154146155467
-0.00442365216987
0.00325433552498
-0.00490156254585
0.00496113415661
-0.00488645739474
0.00664468372757
-0.0048217796484
0.00829693494821
-0.00473403128554
0.00991086198093
-0.00462574496704
0.0114797445199
-0.00449845509598
0.0129975997955
-0.00435371564704
0.0144588505463
-0.0041933373181
0.0158588005745
-0.00401910159176
0.0171931862392
-0.00383297803304
0.0184586830469
-0.00363680216154
0.0196523607502
-0.00343254014547
0.0207722267141
-0.00322193808901
0.0218166008953
-0.00300683262745
0.0227846991808
-0.00278877706543
0.0236759418811
-0.00256939585027
0.0244905801533
-0.00234999033891
0.0252289514486
-0.00213193297399
0.0258921513992
-0.00191625423409
0.0264812461628
-0.00170407182685
0.0269979910044
-0.00149615791928
0.0274440076319
-0.00129339725059
0.0278215484154
-0.00109633357803
0.0281326420812
-0.00090565162456
0.0283799008107
-0.000721701143183
0.0285656365957
-0.000544998298993
0.0286927071837
-0.000375728011723
0.0287636030089
-0.000214263036669
0.0287813284416
-6.06457839923e-05
0.0287484614502
8.48763676053e-05
0.0286680669828
0.000222386464985
0.0285427308291
0.000351744251405
0.0283755028808
0.000473139445628
0.0281689078928
0.000586526750086
0.0279259154842
0.000692188286688
0.0276489314634
0.000790154049361
0.0273407922196
0.000880778363629
0.0270037408227
0.000964149566118
0.0266404413369
0.0010406757335
0.0262529427893
0.00111048600815
0.0258437092008
0.00117402401377
0.0254145764516
0.00123144395739
0.0249677928995
0.00128320875659
0.0245049726551
0.00132948324545
0.0240281418549
0.001370734854
0.0235386937863
0.00140712706996
0.0230384352534
0.00143911939166
0.022528547362
0.00146686345858
0.0220106268712
0.00149079999231
0.0214856581535
0.0015110608288
0.0209550438932
0.00152805959351
0.020419591967
0.00154190211102
0.0198805304019
0.00155296861291
0.0193385143978
0.00156133568097
0.0187946200204
0.00156734686013
0.0182493748021
0.00157104848372
0.0177037253129
0.00157274655969
0.0171580961355
0.00157245933479
0.016613326177
0.00157045744834
0.0160697591412
0.001566735278
0.0155281442696
0.00156153229507
0.0149887627178
0.00155482561337
0.0144522883116
0.00154682972234
0.0139189527273
0.00153751191526
0.0133893627901
0.00152706850307
0.0128637085044
0.00151546510662
0.0123425334449
0.00150288687257
0.0118259882946
0.00148930498798
0.0113145518332
0.00147489935083
0.0108083335386
0.00145965291359
0.0103077427319
0.00144374487873
0.00981284245207
0.00142717396915
0.00932396518459
0.00141012109865
0.00884112081717
0.0013926028284
0.00836455736512
0.00137480223147
0.00789422455328
0.00135675335256
0.00743027867661
0.00133863971798
0.0069726036938
0.00132051067553
0.00652125926141
0.00130254676467
0.00607606017557
0.00128480841935
0.00563696708588
0.00126746784417
0.00520372530532
0.00125059037525
0.00477619743967
0.00123433200039
0.00435406127866
0.00121875295778
0.00393708311484
0.00120397958565
0.00352487134718
0.00119004818035
0.00311708000577
0.00117702822778
0.00271319313016
0.00116489405552
0.00231259806314
0.00115361158366
0.0019142372805
0.00114305846287
0.00151617153133
0.00113318187258
0.00111413380518
0.00112431855345
0.000698639749895
0.00111803803503
0.000290202471587
0.00112433506157
0.00104887522474
0.00156427124663
-0.00598657047333
0.00329954955559
-0.00663538918826
0.00502893576744
-0.0066144007369
0.00673443533341
-0.00652583779071
0.0084075859762
-0.00640575724328
0.0100409961942
-0.00625773684229
0.011627791273
-0.00608385277434
0.0131617700183
-0.00588630628187
0.0146373289825
-0.00566753379849
0.016049637379
-0.00543005891246
0.0173945027838
-0.0051765217673
0.0186685318129
-0.00490952240171
0.0198689440081
-0.00463167590646
0.0209937255506
-0.00434545670517
0.0220414029192
-0.00405328126473
0.0230111972805
-0.00375735634216
0.0239027695378
-0.0034597884349
0.0247163827578
-0.00316243706191
0.0254526288839
-0.00286704844585
0.0261126053509
-0.00257511257243
0.0266976319639
-0.00228801638958
0.02720944595
-0.00200690146138
0.0276499140536
-0.00173283088902
0.028021247092
-0.00146664301937
0.0283257089484
-0.00120912602222
0.0285658490723
-0.00096086397475
0.0287442071502
-0.000722415407591
0.0288635604917
-0.000494150263015
0.028926622778
-0.000276431248265
0.0289363039803
-6.94426904725e-05
0.0288954025013
0.000126624316207
0.0288068756923
0.00031174962586
0.0286735259474
0.000485891153862
0.0284982820417
0.000649169960515
0.0282838803641
0.000801674603138
0.0280331569501
0.000943646631746
0.0277487240596
0.00107527992093
0.027433272503
0.00119691102655
0.0270892456066
0.00130881437185
0.0267191502469
0.00141139636322
0.0263252293142
0.00150498775503
0.0259097799603
0.00159004101176
0.0254748255368
0.0016669208045
0.0250224390863
0.00173610395605
0.0245544159992
0.00179796927498
0.0240726009215
0.0018529990283
0.0235785623052
0.00190156898618
0.0230739206609
0.00194415041412
0.0225600263734
0.00198110156762
0.0220382874488
0.00201286907199
0.0215098518372
0.00203978183233
0.0209759325852
0.00206225089559
0.0204374958973
0.00208056704641
0.0198955818195
0.00209509817354
0.0193509990825
0.00210609149194
0.0188046392139
0.00211386761669
0.0182571791323
0.00211862851533
0.0177093868404
0.00212064735218
0.017161832639
0.00212008288591
0.0166151844254
0.00211716424463
0.016069928379
0.00211201255749
0.015526652263
0.00210481964159
0.0149857764685
0.00209567731578
0.0144478237281
0.00208474904703
0.0139131614613
0.00207210745
0.013382256764
0.00205789785433
0.0128554311157
0.00204218425713
0.0123330996208
0.0020251038783
0.0118155391682
0.00200672194207
0.0113031113247
0.00198717635082
0.0107960451374
0.00196654153378
0.0102946431748
0.00194496255834
0.00979908005379
0.00192252842733
0.00930959142977
0.00189939508776
0.00882628933077
0.001875668483
0.00834933390637
0.00185151612831
0.00787876638642
0.00182706031495
0.00741466355298
0.00180247803974
0.0069569890732
0.0017779046902
0.00650573055887
0.00175352221533
0.00606076962526
0.00172947358018
0.00562200140207
0.00170593907799
0.00518922342273
0.0016830617017
0.0047622370211
0.00166101140773
0.00434075404767
0.00163992137412
0.00392447827914
0.00161994004104
0.00351302597938
0.00160117843656
0.00310597892534
0.00158375158483
0.00270280194701
0.00156774090706
0.0023028396044
0.0015532417242
0.00190519637266
0.00154038010782
0.0015086248601
0.00152943717224
0.00111148995572
0.00152112366982
0.000712535348402
0.0015166821457
0.000323243951954
0.00151331944367
0.00137195709652
0.00159345820001
-0.00757866305941
0.00335973926881
-0.00840021697777
0.00511959619789
-0.00837279892528
0.00685441179932
-0.00825920407044
0.00855532046878
-0.00810522744368
0.0102145572282
-0.0079155476335
0.011824992829
-0.0076928783152
0.0133802012266
-0.00744012047857
0.0148744705197
-0.0071604286004
0.0163028727064
-0.00685710564313
0.0176612310997
-0.00653354739227
0.0189461592644
-0.00619313905911
0.0201549900007
-0.00583921979017
0.0212857920614
-0.00547499455155
0.02233727175
-0.00510352264485
0.0233087777857
-0.00472764715462
0.0242001861837
-0.00435000799993
0.0250119032233
-0.00397298823466
0.0257447436651
-0.00359874953206
0.0263999405086
-0.00322919235274
0.026979024272
-0.00286600934571
0.0274838455815
-0.00251065348516
0.0279164601153
-0.00216440220332
0.0282791659119
-0.00182832625953
0.0285743938544
-0.0015033572829
0.02880475759
-0.00119025117355
0.028972946868
-0.000889654195591
0.0290817861565
-0.000602058914223
0.0291341275122
-0.00032786836172
0.0291329149492
-6.73460141963e-05
0.0290810759519
0.000179320272346
0.0289815896546
0.000412072191275
0.0288373787239
0.000630910263933
0.0286513816648
0.000835953494629
0.0284264445216
0.00102736904568
0.0281653994636
0.00120542624589
0.0278709573239
0.00137042642649
0.0275457912804
0.00152275742256
0.0271924319935
0.00166282272302
0.026813355735
0.00179109658595
0.0264108820808
0.00190805326196
0.0259872657172
0.00201422307468
0.0255445969398
0.00211012245013
0.0250848962291
0.00219631074284
0.0246100172276
0.00227332121739
0.024121743395
0.00234171856928
0.0236216937
0.00240203114583
0.0231114206507
0.00245480875202
0.0225923184509
0.00250055614469
0.0220657218541
0.0025397911258
0.0215328170485
0.00257297969585
0.0209947405844
0.00260059417357
0.0204524927022
0.00262305022382
0.0199070356051
0.00264076508907
0.0193592093832
0.0026540969975
0.0188098286458
0.00266340321674
0.0182596006636
0.00266898207361
0.0177092194448
0.00267113076937
0.0171592861731
0.00267009034634
0.0166103996922
0.00266610277035
0.0160630788919
0.00265935884698
0.0155178488136
0.00265005423187
0.0149751651792
0.0026383403389
0.0144354953601
0.00262437857652
0.0138992449654
0.00260829397834
0.0133668332893
0.00259022719787
0.0128386224428
0.00257029069725
0.012314987029
0.00254861773486
0.011796246073
0.00252532085701
0.0112827269966
0.0025005374871
0.0107747011135
0.00247439057528
0.0102724420325
0.00244703028848
0.00977616519565
0.00241859673635
0.00928608105165
0.00238925763508
0.00880233942139
0.00235917318664
0.0083250776873
0.00232852956597
0.00785437039393
0.00229750609081
0.00739027276916
0.00226630467413
0.00693277607743
0.00223511951365
0.0064818465747
0.00220416256475
0.0060373866786
0.00217363596949
0.00559926937925
0.00214375377727
0.00516730510047
0.0021147173334
0.00474127108962
0.00208673338518
0.00432088294604
0.00205999277629
0.0039058176316
0.00203468557284
0.00349568745942
0.00201098431909
0.00309005169944
0.00198905874549
0.00268839055607
0.00196907078888
0.0022901021808
0.00195119949539
0.00189447861832
0.00193566763837
0.00150076653638
0.00192282860623
0.00110836253995
0.00191322855503
0.000717532523452
0.00190717897633
0.000334273535692
0.00189624293089
0.00170608076555
0.0016303093931
-0.00920759524233
0.00343666426941
-0.0102050951806
0.00523570233612
-0.0101703669149
0.00700807806019
-0.0100301154638
0.00874443199364
-0.00984013034818
0.0104365739833
-0.00960625106843
0.0120770410207
-0.00933192341085
0.0136591512796
-0.00902082546873
0.0151770360294
-0.00867692849419
0.016625679433
-0.00830438405532
0.0180009054844
-0.00790743182388
0.0192993791891
-0.00749029327188
0.020518556388
-0.00705710284042
0.0216566577093
-0.00661182514578
0.0227125938186
-0.00615821428362
0.0236859239021
-0.00569975676017
0.0245767686452
-0.00523965867935
0.0253857643132
-0.00478081375829
0.0261139746901
-0.00432581567273
0.0267628506505
-0.00387694760507
0.027334150443
-0.00343621357667
0.0278299117699
-0.00300534219087
0.0282523852539
-0.0025858273222
0.0286040207385
-0.00217893585425
0.0288874129665
-0.00178574723979
0.0291052985348
-0.00140715664697
0.0292605084829
-0.00104390730914
0.029355970334
-0.000696586188924
0.0293946625648
-0.000365649442674
0.0293796182961
-5.14132694866e-05
0.0293138796379
0.000245923426129
0.0292005015992
0.00052629125574
0.0290425093221
0.000789718469014
0.0288429036395
0.00103635068783
0.0286046182892
0.00126641963278
0.0283305319175
0.00148025234372
0.0280234272038
0.00167824318332
0.0276860077507
0.00186086233035
0.027320860202
0.00202862671216
0.0269304757897
0.00218210978263
0.0265172152809
0.00232191227971
0.0260833345506
0.00244867382772
0.0256309518859
0.0025630439526
0.0251620767891
0.00266569557244
0.0246785793967
0.00275729653845
0.0241822218848
0.00283852465992
0.0236746298337
0.002910039829
0.023157325659
0.00297250025114
0.0226317019287
0.00302653543727
0.0220990563808
0.00307276334434
0.0215605670767
0.00311176450739
0.0210173284678
0.00314410004275
0.0204703282306
0.00317028737123
0.019920483808
0.00319081908766
0.0193686205499
0.00320614056268
0.0188155080012
0.00321666977021
0.0182618389245
0.00322277705517
0.0177082646057
0.00322480587914
0.0171553742112
0.00322305475531
0.0166037283369
0.00321779877231
0.0160538382637
0.00320927361342
0.0155061971211
0.00319769749064
0.0149612586948
0.00318325688165
0.0144194656739
0.00316612844432
0.0138812278822
0.00314646604367
0.0133469474497
0.00312442198543
0.0128169965216
0.00310013489776
0.0122917392906
0.0030737496616
0.0117715095362
0.00304540571514
0.0112566297811
0.00301525516201
0.0107473891504
0.00298345111125
0.0102440600097
0.0029501635927
0.00974687674179
0.00291556781462
0.00925605035286
0.00287985767847
0.00877174876297
0.00284323393535
0.00829410979026
0.00280591531687
0.00782322349569
0.00276812675318
0.00735914391902
0.00273010827271
0.00690187383536
0.00269210356964
0.00645137542433
0.0026543668728
0.00600755758757
0.00261715217756
0.00557028556922
0.0025807184025
0.00513937063751
0.00254531965912
0.00471457838677
0.0025112090495
0.00429562013467
0.00247863057718
0.00388215924611
0.0024478224306
0.00347380358865
0.00241901194783
0.00307010967854
0.00239242110662
0.0026705768857
0.0023682676132
0.00227465619428
0.00234678148471
0.00188177688158
0.00232822303463
0.00149139210044
0.00231289398928
0.00110313733665
0.00230114593134
0.000717261179741
0.00229273825879
0.000337064351551
0.00227612198954
0.00204297652216
0.00167563140745
-0.0108818319991
0.00353153164176
-0.0120595124482
0.00537897011695
-0.0120163155801
0.00719764102287
-0.0118473081562
0.0089775733084
-0.0116185951557
0.0107100580913
-0.0113372834803
0.0123872266001
-0.0110076555293
0.0140020957742
-0.010634277261
0.0155486121402
-0.010222047251
0.0170216712784
-0.00977606813668
0.018417109842
-0.00930151785533
0.0197316789579
-0.00880353486975
0.0209629981374
-0.00828711869441
0.0221094978961
-0.00775704794622
0.0231703502813
-0.0072178146845
0.0241453948994
-0.0066735760843
0.0250350589174
-0.00612812239847
0.0258402796023
-0.00558486040021
0.0265624260035
-0.00504681259997
0.0272032304043
-0.00451662781435
0.0277647222308
-0.00399660508869
0.0282491775471
-0.00348872132588
0.0286590706341
-0.00299466747613
0.028997043407
-0.00251587872354
0.0292658718938
-0.00205356861566
0.0294684495343
-0.00160874945552
0.0296077602951
-0.00118225597601
0.0296868671491
-0.000774752905221
0.029708884564
-0.000386749769255
0.0296769671103
-1.86010037761e-05
0.0295942799397
0.000329481630165
0.0294639857321
0.000657433379292
0.0292892180806
0.000965309202873
0.0290730690962
0.00125329837951
0.0288185631601
0.00152169830888
0.028528650743
0.00177091168063
0.0282061857235
0.00200142797426
0.0278539231218
0.00221381727723
0.0274745015131
0.00240871231647
0.0270704442026
0.00258680215865
0.0266441462414
0.00274881594277
0.0261978782341
0.00289551729802
0.0257337772338
0.00302769024792
0.025253852503
0.0031461344615
0.0247599795115
0.00325165308469
0.024253907324
0.00334504878144
0.0237372552318
0.00342711312983
0.0232115217333
0.00349862336422
0.0226780833111
0.00356033302568
0.0221382050177
0.00361296962228
0.0215930410678
0.00365722654474
0.0210436468998
0.00369376190641
0.0204909810494
0.00372319186875
0.0199359183353
0.00374609105143
0.0193792525284
0.00376298757781
0.0188217100331
0.00377436526395
0.0182639526704
0.00378066055407
0.0177065911031
0.00378226662274
0.0171501871438
0.00377953227
0.0165952661187
0.00377276773478
0.0160423180383
0.00376224534191
0.0154918082081
0.00374820670025
0.0149441768552
0.00373086466622
0.0143998475677
0.00371041130365
0.0138592250429
0.00368702058413
0.0133227011415
0.00366085645029
0.0127906508473
0.00363207558727
0.0122634360458
0.003600834873
0.0117413999367
0.0035672935062
0.0112248689405
0.0035316193476
0.0107141460652
0.00349398993002
0.0102095115022
0.00345459721119
0.00971121552166
0.00341364721497
0.0092194783833
0.00337136308418
0.00873448344378
0.0033279832846
0.00825637692755
0.00328376306404
0.00778526171658
0.00323897136474
0.00732119747905
0.00319389095927
0.0068641955361
0.0031488144106
0.00641421960353
0.00310404324405
0.00597118180156
0.00305988331103
0.00553494413071
0.00301664347273
0.00510531549485
0.00297463080584
0.00468205381211
0.00293414930517
0.00426486370373
0.00289549557242
0.00385339924634
0.0028589584054
0.00344726288139
0.00282481610543
0.00304600898087
0.00279333825135
0.00264915026099
0.00276478817942
0.00225616909655
0.00273942649251
0.00186653390276
0.00271751516396
0.00147976714617
0.00269933512424
0.00109550649769
0.00268510761001
0.000713673294585
0.00267423036323
0.000336457968886
0.0026529917587
0.0023792829502
0.00173018961684
-0.0126106117289
0.00364580475555
-0.0139736150256
0.00555150716295
-0.0139205132494
0.00742580601265
-0.0137201089157
0.00925795861619
-0.0134492642515
0.0110386329048
-0.0131164884504
0.0127594720482
-0.0127270435705
0.0144131485591
-0.0122865214607
0.0159934009267
-0.0118008895613
0.0174950463937
-0.0112763257441
0.0189139561429
-0.0107190650435
0.0202470165809
-0.0101352571911
0.0214920628706
-0.00953085396666
0.0226478086503
-0.00891150828949
0.0237137558658
-0.00828250415088
0.0246901081892
-0.00764869648071
0.0255776718542
-0.00701448146179
0.0263777664691
-0.00638377578475
0.0270921314182
-0.00576002457519
0.0277228482888
-0.00514621624842
0.0282722668317
-0.00454492005892
0.0287429503283
-0.00395832482295
0.0291376284779
-0.00338828906275
0.0294591672963
-0.00283638374226
0.0297105443049
-0.00230393414701
0.0298948330705
-0.0017920490147
0.0300151873475
-0.00130164273359
0.0300748271886
-0.000833447465788
0.0300770210876
-0.000388020093521
0.0300250674581
3.4253486478e-05
0.0299222734496
0.000433154131626
0.0297719321896
0.00080862948064
0.0295773020541
0.00116077049675
0.0293415863459
0.00148982044634
0.0290679131687
0.00179615264484
0.0287593210877
0.00208025879729
0.0284187431904
0.0023427339441
0.0280489986133
0.00258426241992
0.0276527809597
0.00280560181846
0.027232655182
0.00300757093869
0.0267910495175
0.00319103429602
0.0263302565511
0.00335689300615
0.0258524276626
0.003506070351
0.0253595771641
0.00363950544716
0.0248535786939
0.0037581397558
0.0243361717791
0.00386291281215
0.0238089600355
0.00395474948977
0.0232734198169
0.00403455716992
0.0227309002756
0.00410321391407
0.0221826339039
0.00416156677894
0.0216297384038
0.00421042127452
0.02107322883
0.00425054091667
0.0205140210136
0.00428263852214
0.0199529448351
0.00430737729245
0.0193907486569
0.00432536438183
0.0188281130422
0.00433715388361
0.0182656554757
0.00434324294221
0.0177039437213
0.00434407683904
0.0171434999902
0.00434004761381
0.0165848130714
0.00433150120682
0.0160283411637
0.00431873830934
0.0154745220924
0.00430202311479
0.014923774228
0.00428158578122
0.0143765041932
0.004257632226
0.0138331055648
0.00423034742429
0.0132939639115
0.00419990533548
0.0127594533035
0.0041664722165
0.0122299388247
0.00413021579865
0.0117057712245
0.00409130784943
0.0111872873556
0.00404993185244
0.0106748036009
0.00400628421705
0.0101686148759
0.0039605799179
0.00966898760308
0.00391305209496
0.00917615797706
0.0038639554879
0.00869032524394
0.00381356435925
0.00821164988997
0.00376217386764
0.00774024785814
0.00371009660477
0.00727618914233
0.00365766219738
0.00681949337927
0.00360521293123
0.0063701291109
0.00355310203117
0.00592801094476
0.00350168887605
0.00549299959313
0.00345133646238
0.00506490052255
0.00340240681076
0.00464346478431
0.00335525813272
0.00422838906997
0.0033102410848
0.00381931759801
0.00326769630333
0.00341584432405
0.00322795231492
0.0030175180016
0.00319132451256
0.00262384823056
0.00315811384189
0.00223431833357
0.00312860980832
0.00184841442739
0.00310309072326
0.00146562844261
0.0030817965737
0.0010854959231
0.00306489356833
0.000707761313312
0.00305164459704
0.000334094564196
0.00302633727548
0.00271320521049
0.00179488727144
-0.0144040672361
0.00378127489285
-0.0159584806972
0.00575595169819
-0.0158936611887
0.00769594726285
-0.0156585887473
0.00958958463841
-0.0153413980347
0.0114267787726
-0.0149521960712
0.0131986050344
-0.0144974012575
0.0148973452061
-0.0139838145206
0.0165165222899
-0.0134186415558
0.0180508913878
-0.0128092950539
0.0194964031738
-0.012163201849
0.0208501365639
-0.0114876434307
0.0221102198305
-0.010789616394
0.0232757305317
-0.0100757271263
0.0243465944212
-0.00935210289497
0.0253234695372
-0.00862433533721
0.0262076370379
-0.00789743896277
0.027000884701
-0.00717584129314
0.0277054053669
-0.00646338834575
0.0283236981958
-0.00576337837134
0.0288584922803
-0.00507860745686
0.0293126819635
-0.00441143213555
0.0296892855674
-0.00376383317846
0.029991417214
-0.00313747848156
0.0302222728308
-0.00253377492518
0.0303851226689
-0.00195390532611
0.0304833037374
-0.00139885206379
0.0305202124862
-0.000869405163385
0.0304992880632
-0.000366166681966
0.0304239963754
0.000110453216596
0.0302978045202
0.00056023114566
0.0301241624468
0.000983134677053
0.0299064696611
0.00137930226765
0.0296480619388
0.00174904351602
0.029352185169
0.00209281925635
0.029021981575
0.00241122662675
0.0286604731561
0.00270497959178
0.0282705528434
0.00297489220074
0.0278549751941
0.00322186040762
0.0274163514999
0.00344684575661
0.0269571463593
0.00365086068528
0.0264796751439
0.0038349539131
0.025986104782
0.0040001994937
0.025478452503
0.00414768374325
0.0249585896904
0.00427849707143
0.0244282417609
0.00439372189435
0.0238889945058
0.00449442622248
0.0233422955169
0.00458165234982
0.0227894626401
0.00465641160444
0.0222316874183
0.004719674117
0.0216700453238
0.00477236476611
0.0211055013446
0.00481535458007
0.0205389215271
0.00484945825421
0.019971080363
0.0048754278586
0.0194026730302
0.0048939524723
0.0188343238054
0.00490565467253
0.0182665982042
0.00491109270892
0.0177000113869
0.00491075997756
0.0171350393174
0.00490508990462
0.0165721260509
0.00489445821957
0.0160116931399
0.00487919020578
0.0154541448421
0.00485956529456
0.014899875013
0.00483582608227
0.0143492696782
0.00480818433026
0.0138027110426
0.00477683079738
0.0132605772143
0.00474194162985
0.01272324332
0.00470368794525
0.0121910786095
0.00466224156658
0.011664445076
0.00461778326911
0.0111436925652
0.00457050704193
0.0106291555708
0.00452062626472
0.0101211471873
0.0044683758464
0.0096199549957
0.00441401590324
0.00912583474731
0.00435783171998
0.00863900618754
0.00430013487923
0.00815964728985
0.00424126121866
0.00768789071476
0.00418156977902
0.00722381918664
0.00412143923103
0.00676746303243
0.00406126517359
0.00631879707668
0.00400145565944
0.00587773938224
0.00394242741311
0.00544414984404
0.00388460114496
0.00501783006204
0.00382839725138
0.00459852374871
0.00377423156252
0.00418591763314
0.0037225111068
0.00377964410084
0.00367363088897
0.00337928404828
0.00362797020649
0.00298437190302
0.00358589041783
0.00259440564708
0.00354773346155
0.00220885564603
0.00351381648893
0.00182716892122
0.00348442552764
0.00144880862689
0.00345982427404
0.00107324378419
0.0034401572953
0.00070001303247
0.00342452713084
0.000330584739321
0.00339541320958
0.00304363769021
0.00187080419963
-0.0162734212271
0.00394017419023
-0.0180262942333
0.00599556765527
-0.0179475073952
0.00801223856012
-0.0176737202805
0.00997736684783
-0.0173050034993
0.011879981007
-0.016853303675
0.0137105001931
-0.0163264346687
0.0154607823482