/*--------------------------------*- C++ -*----------------------------------*\
| =========                 |                                                 |
| \\      /  F ield         | OpenFOAM: The Open Source CFD Toolbox           |
|  \\    /   O peration     | Version:  v1906                                 |
|   \\  /    A nd           | Web:      www.OpenFOAM.com                      |
|    \\/     M anipulation  |                                                 |
\*---------------------------------------------------------------------------*/
FoamFile
{
    version     2.0;
    format      ascii;
    class       volVectorField;
    location    "139";
    object      U;
}
// * * * * * * * * * * * * * * * * * * * * * * * * * * * * * * * * * * * * * //

dimensions      [0 1 -1 0 0 0 0];


internalField   nonuniform List<vector> 
9216
(
(0.00271702289158 -0.00271604231711 0)
(0.00286498895417 -0.00876521393715 1.19125930573e-27)
(0.00285692354212 -0.0149086846715 1.84160408297e-31)
(0.00281984429317 -0.021052862323 0)
(0.00276821900247 -0.0270946756037 0)
(0.00270376792448 -0.03300982324 0)
(0.00262787595211 -0.0387727119162 0)
(0.00254223281138 -0.0443603284266 0)
(0.00244774972009 -0.0497527307205 0)
(0.00234613197597 -0.0549324743586 0)
(0.00223816654674 -0.059885151963 0)
(0.00212558212626 -0.0645987419815 0)
(0.00200896335577 -0.0690640865711 0)
(0.0018899870114 -0.073274117752 0)
(0.00176897255409 -0.077224306986 0)
(0.0016475025365 -0.0809118013314 0)
(0.00152558856276 -0.084335856484 0)
(0.00140471264038 -0.0874969585567 0)
(0.00128459375456 -0.0903972861793 0)
(0.001166645786 -0.0930398397557 0)
(0.0010503171685 -0.0954289520378 0)
(0.000936982796958 -0.0975694381811 0)
(0.000825856543372 -0.0994671572065 0)
(0.000718311827215 -0.101128186538 0)
(0.000613356523332 -0.102559429692 0)
(0.000512396602025 -0.103767816271 0)
(0.000414257858569 -0.104760963775 0)
(0.00032040257809 -0.105546349899 0)
(0.00022950218091 -0.106132032441 0)
(0.000143081922461 -0.106525865647 0)
(5.96710384027e-05 -0.106736141805 0)
(-1.91434700828e-05 -0.106770946055 0)
(-9.50050327815e-05 -0.1066386483 0)
(-0.000166232325186 -0.106347249402 0)
(-0.000234569255995 -0.10590513237 0)
(-0.000298272872028 -0.105320253685 0)
(-0.000359223791013 -0.104600791142 0)
(-0.000415606619614 -0.103754521492 0)
(-0.000469415469166 -0.102789341929 0)
(-0.000518765517087 -0.10171272318 0)
(-0.000565753831982 -0.100532192786 0)
(-0.000608444549578 -0.099254845181 0)
(-0.000649028081132 -0.0978877285792 0)
(-0.000685500201849 -0.0964374753509 0)
(-0.000720130175501 -0.0949106373122 0)
(-0.000750864550463 -0.0933133297174 0)
(-0.000780031311953 -0.0916515573855 0)
(-0.000805535849973 -0.0899309010831 0)
(-0.000829746276298 -0.0881567922137 0)
(-0.000850528634987 -0.0863342857986 0)
(-0.000870278480685 -0.0844682535564 0)
(-0.000886825287662 -0.0825632400161 0)
(-0.000902575504681 -0.0806235914406 0)
(-0.000915337295054 -0.0786533876093 0)
(-0.000927508420692 -0.0766564984686 0)
(-0.000936880282796 -0.0746365932619 0)
(-0.000945834061492 -0.0725971294356 0)
(-0.000952153572959 -0.0705414236793 0)
(-0.000958184326018 -0.0684726039428 0)
(-0.000961720182377 -0.0663937136267 0)
(-0.000965073792072 -0.0643075847781 0)
(-0.000966053780857 -0.0622170462112 0)
(-0.000966923048469 -0.0601247043722 0)
(-0.000965521914984 -0.058033212298 0)
(-0.000964069980236 -0.0559449830233 0)
(-0.000960454685152 -0.0538625226735 0)
(-0.000956825958102 -0.0517880626464 0)
(-0.00095113698807 -0.0497239694863 0)
(-0.00094548343063 -0.0476723065732 0)
(-0.000937899537601 -0.0456352615512 0)
(-0.000930413959691 -0.0436146688926 0)
(-0.000921147240721 -0.0416125144966 0)
(-0.000912048601943 -0.0396303680608 0)
(-0.00090135272744 -0.0376699692944 0)
(-0.000890921209475 -0.0357325594898 0)
(-0.000879103933369 -0.0338195682662 0)
(-0.000867659107036 -0.0319318617104 0)
(-0.000855072305864 -0.030070516245 0)
(-0.000842979767755 -0.0282359714578 0)
(-0.00083001233981 -0.0264289050372 0)
(-0.000817655845366 -0.0246493040523 0)
(-0.000804687095615 -0.02289745805 0)
(-0.000792417427335 -0.0211729436484 0)
(-0.000779748248688 -0.0194757385747 0)
(-0.000767749865277 -0.0178051775801 0)
(-0.000755379350723 -0.0161612367838 0)
(-0.000743256938172 -0.0145435396143 0)
(-0.00072999513905 -0.0129531243343 0)
(-0.000715049791186 -0.011391510809 0)
(-0.000695665670401 -0.0098653597778 0)
(-0.000666174354646 -0.00838710217598 0)
(-0.000608044151643 -0.00698521232788 0)
(-0.00052151973212 -0.00549611850691 0)
(-0.000601356480899 -0.0044890558326 0)
(-0.0009097551525 -0.00322698692262 0)
(-0.00131430566731 -0.00131010673739 0)
(0.00879514094161 -0.00289108820002 0)
(0.00972525518393 -0.00978417270933 0)
(0.00970322661243 -0.0166643804674 -1.25095483672e-27)
(0.0095743581255 -0.0235503773767 0)
(0.00939578192069 -0.0303122936232 0)
(0.00917524591073 -0.0369284353744 0)
(0.00891670172307 -0.0433715535907 0)
(0.00862487279663 -0.0496164563692 0)
(0.00830348994364 -0.0556409110537 0)
(0.00795751428025 -0.0614256255427 0)
(0.00759052887277 -0.0669545281645 0)
(0.00720743016079 -0.0722144529077 0)
(0.00681129632808 -0.0771952685983 0)
(0.00640666048887 -0.0818894120999 0)
(0.00599585944294 -0.0862919669581 0)
(0.00558290143653 -0.0904000586947 0)
(0.00516928475411 -0.0942129992416 0)
(0.00475848712851 -0.0977316374958 0)
(0.00435120152071 -0.100958534126 0)
(0.00395044717929 -0.103897312385 0)
(0.00355620447377 -0.106552859724 0)
(0.00317116316766 -0.108930798759 0)
(0.00279471271209 -0.11103765796 0)
(0.00242933603627 -0.112880430063 0)
(0.00207394221907 -0.114466786833 0)
(0.00173090739146 -0.115804646831 0)
(0.00139874722836 -0.116902426971 0)
(0.00107981132028 -0.117768680753 0)
(0.00077228194917 -0.118412276811 0)
(0.000478525957456 -0.118842122248 0)
(0.000196440757504 -0.119067395178 0)
(-7.15886604697e-05 -0.119097131804 0)
(-0.000327964157159 -0.118940612976 0)
(-0.000570220735101 -0.11860699339 0)
(-0.000800972031063 -0.118105510276 0)
(-0.00101772007143 -0.117445177485 0)
(-0.00122333807611 -0.116635044416 0)
(-0.00141526411646 -0.115683892338 0)
(-0.00159657944746 -0.114600461117 0)
(-0.0017646702447 -0.113393192461 0)
(-0.00192281271618 -0.112070396136 0)
(-0.00206834409121 -0.110640043795 0)
(-0.00220470392518 -0.109109968097 0)
(-0.00232915985053 -0.107487622463 0)
(-0.00244528967635 -0.105780252616 0)
(-0.00255030956487 -0.103994751925 0)
(-0.00264790158631 -0.10213771903 0)
(-0.00273521289719 -0.100215436485 0)
(-0.00281597728802 -0.0982339088819 0)
(-0.00288729479101 -0.0961987940009 0)
(-0.00295293368961 -0.0941154800217 0)
(-0.00300991227963 -0.0919890380021 0)
(-0.00306199864105 -0.0898242814126 0)
(-0.00310616532724 -0.0876257454347 0)
(-0.00314613506665 -0.0853977202771 0)
(-0.00317882652088 -0.083144273355 0)
(-0.00320791020436 -0.0808692460222 0)
(-0.00323026295753 -0.0785763107083 0)
(-0.00324947746073 -0.0762689426367 0)
(-0.0032624139251 -0.0739504697441 0)
(-0.00327258202915 -0.0716240818757 0)
(-0.00327684437248 -0.0692928763044 0)
(-0.0032786218494 -0.0669597886438 0)
(-0.00327480993944 -0.0646277228896 0)
(-0.00326874127063 -0.0622993854051 0)
(-0.0032573764951 -0.0599775765204 0)
(-0.00324395784827 -0.0576648002908 0)
(-0.00322554047978 -0.0553636456818 0)
(-0.00320529530383 -0.0530764781283 0)
(-0.00318040742364 -0.0508056550376 0)
(-0.00315397155817 -0.0485533397303 0)
(-0.00312332651555 -0.0463216542449 0)
(-0.0030914560848 -0.0441124631803 0)
(-0.00305590360555 -0.0419276097588 0)
(-0.00301955638532 -0.0397686073587 0)
(-0.00298013279892 -0.0376369369617 0)
(-0.00294039443044 -0.035533707162 0)
(-0.00289829249822 -0.0334599923657 0)
(-0.00285641458632 -0.0314164158474 0)
(-0.00281295137989 -0.0294036077219 0)
(-0.00277028118467 -0.0274216973728 0)
(-0.00272676308293 -0.0254707800329 0)
(-0.00268449960133 -0.0235505781209 0)
(-0.00264199376423 -0.0216607570874 0)
(-0.00260089145809 -0.0198006601242 0)
(-0.00255963084748 -0.0179697443871 0)
(-0.00251888091575 -0.0161672323516 0)
(-0.00247606170707 -0.0143928433091 0)
(-0.00242923697784 -0.0126460264039 0)
(-0.00237238530879 -0.0109273621128 0)
(-0.00229385472014 -0.00923863272881 0)
(-0.00216513233544 -0.00758084314835 0)
(-0.0019571780643 -0.0058144673166 0)
(-0.00205234956955 -0.00421171876159 0)
(-0.00279010769827 -0.00277144175757 0)
(-0.00323024677254 -0.00090180049431 0)
(0.0150559302639 -0.00293686006533 0)
(0.0166709878294 -0.00994472641046 0)
(0.0166109980941 -0.0169149964949 -1.24890090224e-27)
(0.0163808884646 -0.0239014724954 0)
(0.016070247542 -0.0307601901284 0)
(0.0156890273261 -0.0374679813498 0)
(0.0152435331536 -0.0439965179048 0)
(0.0147409263567 -0.0503201021696 0)
(0.0141882762388 -0.0564161327045 0)
(0.0135933224275 -0.0622652240576 0)
(0.0129631498451 -0.0678512947086 0)
(0.0123052259984 -0.0731613849992 0)
(0.0116259268876 -0.0781856057642 0)
(0.0109318830014 -0.0829168107313 0)
(0.0102283327521 -0.0873504418173 0)
(0.00952079177135 -0.091484166952 0)
(0.00881323006336 -0.0953176754681 0)
(0.00811004373389 -0.0988523563697 0)
(0.0074140000137 -0.102091088018 0)
(0.0067284997771 -0.105037972558 0)
(0.00605529567041 -0.107698197016 0)
(0.00539701766178 -0.110077764163 0)
(0.00475461978314 -0.11218344601 0)
(0.00413018079011 -0.114022547105 0)
(0.00352405164953 -0.115602909032 0)
(0.00293792978571 -0.116932703183 0)
(0.00237170865218 -0.118020504868 0)
(0.0018268211625 -0.118875026758 0)
(0.00130281396822 -0.119505258934 0)
(0.000800951768338 -0.119920323142 0)
(0.000320489640185 -0.120129431894 0)
(-0.000137449181638 -0.120141894976 0)
(-0.000573866877021 -0.119967034536 0)
(-0.000987734623351 -0.119614156693 0)
(-0.00138028330172 -0.119092576733 0)
(-0.00175060055576 -0.118411426528 0)
(-0.00210013797465 -0.117579841411 0)
(-0.00242805962875 -0.116606746392 0)
(-0.00273600862089 -0.115500945462 0)
(-0.00302323851136 -0.114271003649 0)
(-0.00329156912453 -0.112925299319 0)
(-0.00354030251428 -0.11147192916 0)
(-0.00377138572678 -0.109918761239 0)
(-0.00398414658267 -0.108273343687 0)
(-0.00418066866729 -0.106542984343 0)
(-0.00436029778378 -0.10473459177 0)
(-0.00452516512808 -0.102854844513 0)
(-0.00467460702401 -0.100910085346 0)
(-0.00481078115138 -0.0989063071392 0)
(-0.00493298509758 -0.0968491808628 0)
(-0.00504337022834 -0.0947441389908 0)
(-0.00514117402969 -0.0925962532617 0)
(-0.00522849998458 -0.090410298627 0)
(-0.00530450189606 -0.0881908364121 0)
(-0.0053712050159 -0.08594214535 0)
(-0.00542768849647 -0.0836682827974 0)
(-0.00547588887602 -0.0813730806991 0)
(-0.00551479147225 -0.0790601847042 0)
(-0.00554623319901 -0.0767330628052 0)
(-0.00556912411135 -0.0743950427852 0)
(-0.00558519880648 -0.0720493034826 0)
(-0.00559331616122 -0.0696989212447 0)
(-0.0055951311911 -0.0673468516346 0)
(-0.00558948149119 -0.0649959735868 0)
(-0.00557794808977 -0.0626490632648 0)
(-0.00555938141046 -0.0603088497582 0)
(-0.00553533462641 -0.0579779296299 0)
(-0.00550470823523 -0.0556588557665 0)
(-0.0054690418947 -0.0533540629684 0)
(-0.00542732376444 -0.0510659207503 0)
(-0.00538109041508 -0.0487966065314 0)
(-0.00532944895988 -0.046548320646 0)
(-0.0052739563754 -0.0443229856743 0)
(-0.00521384934378 -0.0421223953193 0)
(-0.0051506998185 -0.0399482396798 0)
(-0.00508389255833 -0.0378019429444 0)
(-0.00501499382695 -0.0356846994038 0)
(-0.00494353791035 -0.0335975381621 0)
(-0.00487105796926 -0.0315411931564 0)
(-0.00479719286888 -0.0295161144599 0)
(-0.00472342485829 -0.0275226638317 0)
(-0.00464946271749 -0.0255607501067 0)
(-0.00457660608993 -0.0236301114278 0)
(-0.00450454309691 -0.0217302282351 0)
(-0.00443421950867 -0.0198602779539 0)
(-0.00436503809572 -0.0180192365579 0)
(-0.00429706478169 -0.0162057817266 0)
(-0.0042286483461 -0.0144182095433 0)
(-0.00415769433269 -0.0126537785606 0)
(-0.00407956240699 -0.0109073236074 0)
(-0.00398784163303 -0.00917263422215 0)
(-0.00386814332244 -0.00742795971706 0)
(-0.00370902539166 -0.00558963758908 0)
(-0.00372636015112 -0.00368829424509 0)
(-0.00421233930522 -0.00202049575048 0)
(-0.00446616332897 -0.000591065891339 0)
(0.0214644424905 -0.00298205231546 0)
(0.023785156626 -0.0100946701075 0)
(0.023696490421 -0.0171601361116 1.24831958451e-27)
(0.0233631166667 -0.0242425313949 0)
(0.0229140339838 -0.0311918119964 0)
(0.0223637662018 -0.0379833327983 0)
(0.0217216876229 -0.0445875747439 0)
(0.0209979628142 -0.0509781405338 0)
(0.0202031657278 -0.0571320729861 0)
(0.0193482467145 -0.0630299379042 0)
(0.0184438285256 -0.0686558353632 0)
(0.0175003514117 -0.0739972289267 0)
(0.0165274031456 -0.0790447645969 0)
(0.0155340680834 -0.0837919780996 0)
(0.0145282878171 -0.0882350129321 0)
(0.0135174098171 -0.0923722766472 0)
(0.0125075742583 -0.0962041895558 0)
(0.0115044086284 -0.099732835385 0)
(0.0105123756147 -0.102961735769 0)
(0.00953560738169 -0.105895579843 0)
(0.00857718508101 -0.108540049432 0)
(0.00764006974045 -0.110901606489 0)
(0.00672628363269 -0.112987397183 0)
(0.00583794052538 -0.114805041951 0)
(0.00497630693431 -0.116362666935 0)
(0.0041428901198 -0.117668682802 0)
(0.003338388065 -0.118731808094 0)
(0.00256388051578 -0.119560984441 0)
(0.00181968116801 -0.12016532971 0)
(0.00110655765238 -0.12055409844 0)
(0.00042448296717 -0.120736667571 0)
(-0.000226029438488 -0.120722409978 0)
(-0.000845293007306 -0.120520793147 0)
(-0.00143300472296 -0.120141219792 0)
(-0.00198974177919 -0.119593071968 0)
(-0.00251543159917 -0.118885639811 0)
(-0.00301087880329 -0.118028107252 0)
(-0.00347619839951 -0.117029528533 0)
(-0.00391241364591 -0.1158987288 0)
(-0.00431980754635 -0.114644385652 0)
(-0.00469959655838 -0.11327493609 0)
(-0.00505219168091 -0.111798536954 0)
(-0.00537897386821 -0.110223154894 0)
(-0.00568044315195 -0.108556309492 0)
(-0.00595808907468 -0.106805312818 0)
(-0.00621248157911 -0.104977199626 0)
(-0.0064451509003 -0.103078565337 0)
(-0.00665667746314 -0.101115777236 0)
(-0.0068486183885 -0.0990948387872 0)
(-0.00702152367882 -0.097021432361 0)
(-0.00717690106816 -0.0949009197828 0)
(-0.00731524406955 -0.0927383598363 0)
(-0.00743797928615 -0.0905385123496 0)
(-0.0075454851352 -0.0883058943229 0)
(-0.00763906493522 -0.0860446755084 0)
(-0.00771897180298 -0.0837588905542 0)
(-0.00778640350475 -0.0814523156839 0)
(-0.00784147595527 -0.0791285376264 0)
(-0.00788523522208 -0.0767909750663 0)
(-0.00791767297608 -0.0744429050838 0)
(-0.00793971733689 -0.0720874680032 0)
(-0.00795125843056 -0.0697276979945 0)
(-0.00795312925711 -0.0673665288295 0)
(-0.00794516104168 -0.0650068081989 0)
(-0.00792810136047 -0.0626513102833 0)
(-0.00790177531602 -0.0603027789046 0)
(-0.00786695011578 -0.0579638092464 0)
(-0.00782347596307 -0.0556369532638 0)
(-0.00777212014793 -0.0533246898725 0)
(-0.00771282184666 -0.051029402353 0)
(-0.00764640861723 -0.0487533511797 0)
(-0.0075729022388 -0.0464987080161 0)
(-0.00749323281508 -0.0442674676529 0)
(-0.00740757489203 -0.042061555597 0)
(-0.0073169405631 -0.0398826046105 0)
(-0.00722164871343 -0.0377321118543 0)
(-0.00712279411189 -0.0356113400567 0)
(-0.00702081008942 -0.033521335157 0)
(-0.00691686054793 -0.0314628673402 0)
(-0.00681144439589 -0.0294364554993 0)
(-0.00670571654744 -0.0274423162232 0)
(-0.0066002514771 -0.0254804057425 0)
(-0.00649607224239 -0.0235503061101 0)
(-0.00639366089265 -0.0216514812556 0)
(-0.00629379072219 -0.0197827833438 0)
(-0.00619666710137 -0.0179430357167 0)
(-0.00610249401011 -0.0161303333403 0)
(-0.00601062487934 -0.0143419169741 0)
(-0.00592041792457 -0.0125742989912 0)
(-0.00582993581699 -0.0108203299776 0)
(-0.0057400019047 -0.00907178033073 0)
(-0.00565254486674 -0.00730890414248 0)
(-0.00558381074731 -0.00549697723427 0)
(-0.00562235872638 -0.00363675747858 0)
(-0.00581206150734 -0.00191570512315 0)
(-0.00548096327747 -0.000510319852802 0)
(0.0279794403838 -0.00304139042222 0)
(0.0310076573447 -0.0102917955055 0)
(0.030887696471 -0.0174893432582 0)
(0.030445740733 -0.0247006505252 0)
(0.0298509219363 -0.0317708315368 0)
(0.0291228541303 -0.0386735298683 0)
(0.0282743884495 -0.0453777874347 0)
(0.0273192278155 -0.0518563063142 0)
(0.0262717139399 -0.058085662624 0)
(0.0251464605509 -0.0640464153618 0)
(0.0239577697571 -0.069722985459 0)
(0.0227194010299 -0.0751034527966 0)
(0.0214441499057 -0.0801792846149 0)
(0.0201438046774 -0.0849449729591 0)
(0.0188288670717 -0.0893976761519 0)
(0.0175087157267 -0.093536871266 0)
(0.0161914152442 -0.0973639832365 0)
(0.0148839871831 -0.100882061083 0)
(0.0135922827604 -0.104095500721 0)
(0.0123213259002 -0.107009777664 0)
(0.0110751791075 -0.109631265321 0)
(0.00985732701132 -0.111966999974 0)
(0.00867050417529 -0.114024617541 0)
(0.00751710281521 -0.115812207347 0)
(0.00639892494788 -0.117338199156 0)
(0.00531756226042 -0.118611337574 0)
(0.00427415168647 -0.119640546155 0)
(0.00326976544882 -0.120435037231 0)
(0.00230506330091 -0.121004078853 0)
(0.00138070994426 -0.121357118679 0)
(0.000496971741503 -0.121503662686 0)
(-0.000345832174404 -0.121453286675 0)
(-0.00114776319986 -0.121215562282 0)
(-0.00190881975217 -0.120800065666 0)
(-0.00262937936224 -0.120216255134 0)
(-0.00330972829605 -0.119473577212 0)
(-0.00395052672297 -0.118581334336 0)
(-0.00455234050192 -0.117548672296 0)
(-0.00511610104134 -0.116384602479 0)
(-0.00564259504144 -0.115097813484 0)
(-0.0061330030084 -0.113696924742 0)
(-0.00658829673765 -0.112190045321 0)
(-0.00700984929238 -0.110585254764 0)
(-0.0073987928184 -0.108890131724 0)
(-0.0077565811728 -0.107112066039 0)
(-0.00808444094143 -0.105258064638 0)
(-0.00838392303378 -0.103334799739 0)
(-0.00865627113673 -0.101348642187 0)
(-0.00890303506435 -0.0993055131713 0)
(-0.00912542278289 -0.0972111069661 0)
(-0.00932492362357 -0.0950707402517 0)
(-0.00950267516742 -0.0928894263868 0)
(-0.00966004723596 -0.0906718710417 0)
(-0.00979804293188 -0.0884224858886 0)
(-0.00991787625076 -0.0861454660673 0)
(-0.0100203522719 -0.0838446685197 0)
(-0.0101065331554 -0.0815238351389 0)
(-0.0101770592772 -0.0791864630143 0)
(-0.0102327846575 -0.0768359000563 0)
(-0.0102741759346 -0.0744753536393 0)
(-0.0103019488886 -0.0721079063908 0)
(-0.0103164196451 -0.0697365364671 0)
(-0.0103181848353 -0.0673641440687 0)
(-0.0103074418973 -0.0649935402204 0)
(-0.0102846775429 -0.0626275256677 0)
(-0.010250170384 -0.0602688368779 0)
(-0.0102044372385 -0.0579199857076 0)
(-0.0101476775573 -0.0555836037338 0)
(-0.0100804219283 -0.0532621910442 0)
(-0.0100030258221 -0.0509581739433 0)
(-0.00991612690771 -0.0486738829122 0)
(-0.00982014130205 -0.0464115446062 0)
(-0.00971586903519 -0.0441732627934 0)
(-0.00960394720497 -0.0419609642858 0)
(-0.00948531226349 -0.0397763880159 0)
(-0.00936072215914 -0.0376210628779 0)
(-0.00923125906741 -0.0354963555712 0)
(-0.00909786131068 -0.0334033484864 0)
(-0.00896172097261 -0.0313428414939 0)
(-0.00882383722462 -0.0293153704949 0)
(-0.00868545725936 -0.0273211596994 0)
(-0.00854764202153 -0.0253601226694 0)
(-0.00841158078549 -0.0234319128875 0)
(-0.00827823875353 -0.0215357209975 0)
(-0.00814864409884 -0.0196704261258 0)
(-0.00802354272349 -0.0178344442071 0)
(-0.00790371308061 -0.016025712984 0)
(-0.0077894986878 -0.0142413909191 0)
(-0.00768150108989 -0.0124772010778 0)
(-0.00758131394042 -0.0107283674552 0)
(-0.00749140521612 -0.0089857193762 0)
(-0.0074208577539 -0.00724226640024 0)
(-0.00738741899726 -0.00548912354058 0)
(-0.0074322826935 -0.00374046605913 0)
(-0.00753431062217 -0.00208605443913 0)
(-0.00692202564121 -0.000584549089689 0)
(0.0346387188482 -0.00311658818809 0)
(0.038385359447 -0.0105441496824 0)
(0.0382294881348 -0.0179131637148 0)
(0.0376709401424 -0.0252906198838 0)
(0.0369200109643 -0.0325159318678 0)
(0.0360019298025 -0.0395606551471 0)
(0.0349335585961 -0.0463920919845 0)
(0.0337327156175 -0.0529818300775 0)
(0.0324180068802 -0.0593059730951 0)
(0.0310081877495 -0.06534513064 0)
(0.0295215601732 -0.0710842539493 0)
(0.0279755383691 -0.07651231668 0)
(0.0263862563666 -0.0816219472007 0)
(0.0247683728779 -0.0864089316039 0)
(0.0231349419058 -0.0908718446281 0)
(0.0214974190467 -0.0950115501336 0)
(0.019865655502 -0.0988308137804 0)
(0.0182480640758 -0.10233393275 0)
(0.0166516868695 -0.105526439143 0)
(0.0150824131906 -0.10841478441 0)
(0.013545077546 -0.111006199817 0)
(0.012043686501 -0.113308475981 0)
(0.010581489054 -0.115329846132 0)
(0.00916117584182 -0.117078934402 0)
(0.00778487959978 -0.118564570304 0)
(0.00645436678322 -0.119795817569 0)
(0.00517103525341 -0.120781988576 0)
(0.00393604303689 -0.121532451337 0)
(0.00275024185631 -0.122056772604 0)
(0.0016143150745 -0.122364581663 0)
(0.000528671547573 -0.122465575789 0)
(-0.000506423855908 -0.122369541723 0)
(-0.00149096329335 -0.122086171497 0)
(-0.00242505995543 -0.121625217864 0)
(-0.0033090817732 -0.120996349646 0)
(-0.00414349353102 -0.12020914543 0)
(-0.00492901295453 -0.119273096422 0)
(-0.00566645547073 -0.118197435173 0)
(-0.00635688034047 -0.116991375376 0)
(-0.00700140056186 -0.115663656929 0)
(-0.00760136359747 -0.114223024131 0)
(-0.00815812873982 -0.112677736301 0)
(-0.00867324051628 -0.111035896295 0)
(-0.00914825607181 -0.109305216772 0)
(-0.00958487979268 -0.107493143165 0)
(-0.00998477521506 -0.105606644323 0)
(-0.0103497211964 -0.103652455659 0)
(-0.0106814301575 -0.101636906763 0)
(-0.0109817007044 -0.0995659708475 0)
(-0.0112521906377 -0.0974453082096 0)
(-0.0114946063291 -0.0952801163734 0)
(-0.011710496908 -0.0930753829807 0)
(-0.0119014274346 -0.0908357309206 0)
(-0.0120687892432 -0.0885654848565 0)
(-0.0122139491372 -0.0862687499554 0)
(-0.0123380566457 -0.0839492732341 0)
(-0.0124422462543 -0.081610703807 0)
(-0.0125274516369 -0.079256424545 0)
(-0.0125945798885 -0.0768897302894 0)
(-0.0126443149253 -0.0745136643228 0)
(-0.0126774104247 -0.0721313107615 0)
(-0.0126942986656 -0.0697455131795 0)
(-0.0126955223895 -0.0673591091122 0)
(-0.0126815845764 -0.0649751514381 0)
(-0.0126528634257 -0.0625959980962 0)
(-0.0126098020645 -0.0602244813704 0)
(-0.0125528431406 -0.0578631741901 0)
(-0.0124823366412 -0.0555148236822 0)
(-0.01239878781 -0.0531818759157 0)
(-0.0123027395403 -0.0508668510995 0)
(-0.0121948286877 -0.0485721714732 0)
(-0.0120756771643 -0.0463001420382 0)
(-0.011946126041 -0.0440528668114 0)
(-0.0118070598376 -0.041832414363 0)
(-0.0116595721909 -0.039640704838 0)
(-0.0115047084816 -0.0374792982731 0)
(-0.0113436680821 -0.0353495944124 0)
(-0.0111777088359 -0.0332527191955 0)
(-0.011008292952 -0.0311896415932 0)
(-0.0108367848982 -0.0291609012597 0)
(-0.0106646397883 -0.0271666819186 0)
(-0.0104933526008 -0.0252069969976 0)
(-0.0103243679443 -0.0232813316998 0)
(-0.0101590933682 -0.0213888676785 0)
(-0.00999894517485 -0.0195284374981 0)
(-0.00984522399989 -0.0176983878495 0)
(-0.00969914298467 -0.0158964683168 0)
(-0.00956194233505 -0.0141200723276 0)
(-0.00943513710397 -0.012365128417 0)
(-0.00932248044362 -0.0106285760596 0)
(-0.0092265301574 -0.00890368523626 0)
(-0.00915343287598 -0.00718669579325 0)
(-0.0091157535475 -0.00547906129 0)
(-0.00912605620127 -0.00379155361706 0)
(-0.00913154495236 -0.00217336954056 0)
(-0.00826601119085 -0.000629792018849 0)
(0.0414792378847 -0.00320973256128 0)
(0.0459601300917 -0.0108574429124 0)
(0.0457619102098 -0.0184399238443 1.23869498173e-27)
(0.0450759198751 -0.0260235546701 0)
(0.0441550867199 -0.0334406264578 0)
(0.0430309344431 -0.0406600608935 0)
(0.041725031472 -0.0476470455726 0)
(0.040260062082 -0.0543718976582 0)
(0.0386595379387 -0.060810239604 0)
(0.0369469559691 -0.0669429134296 0)
(0.0351450718432 -0.0727556933798 0)
(0.0332753194052 -0.0782388426951 0)
(0.0313573609736 -0.083386535008 0)
(0.0294088974937 -0.0881963598392 0)
(0.0274455237846 -0.0926687052359 0)
(0.0254807519053 -0.0968062373367 0)
(0.0235261006592 -0.100613424071 0)
(0.0215912679904 -0.104096137053 0)
(0.0196842945115 -0.107261263658 0)
(0.0178118234205 -0.110116499794 0)
(0.0159792763799 -0.112670093109 0)
(0.0141910753649 -0.114930694804 0)
(0.0124508220826 -0.116907271842 0)
(0.0107614222991 -0.118609010911 0)
(0.00912520848689 -0.120045204589 0)
(0.00754412602294 -0.121225338235 0)
(0.00601972327395 -0.122159023169 0)
(0.00455325431701 -0.122855954691 0)
(0.0031456960514 -0.123325933357 0)
(0.00179777961548 -0.12357881937 0)
(0.000509978743193 -0.123624560501 0)
(-0.000717451120098 -0.123473084136 0)
(-0.00188447872195 -0.123134355057 0)
(-0.00299126925909 -0.122618308472 0)
(-0.00403824264136 -0.121934812233 0)
(-0.0050260090518 -0.1210936698 0)
(-0.00595540970708 -0.120104502185 0)
(-0.00682746473946 -0.118976787359 0)
(-0.0076434311428 -0.117719806638 0)
(-0.00840470124286 -0.116342548678 0)
(-0.00911283275649 -0.114853822984 0)
(-0.00976952481553 -0.113262087059 0)
(-0.0103766244793 -0.111575544087 0)
(-0.0109360443945 -0.109801923362 0)
(-0.01144980775 -0.107948735914 0)
(-0.0119199773292 -0.10602305743 0)
(-0.0123486794557 -0.104031651752 0)
(-0.0127380126318 -0.101980769941 0)
(-0.0130900999249 -0.0998764099118 0)
(-0.0134070030861 -0.0977241474102 0)
(-0.0136907489937 -0.0955291859986 0)
(-0.0139432529138 -0.0932964386759 0)
(-0.014166350394 -0.0910303521663 0)
(-0.0143617432615 -0.0887351849194 0)
(-0.014531046627 -0.0864149161291 0)
(-0.0146756679075 -0.0840731566664 0)
(-0.0147969176889 -0.0817134727671 0)
(-0.0148959328216 -0.0793390309773 0)
(-0.0149737371086 -0.0769530573165 0)
(-0.0150311097039 -0.0745584940255 0)
(-0.0150688196327 -0.0721582406899 0)
(-0.0150876096267 -0.0697555119603 0)
(-0.015087936616 -0.0673524674173 0)
(-0.0150703855889 -0.0649521454063 0)
(-0.0150353969332 -0.0625570918144 0)
(-0.0149833343116 -0.0601700018917 0)
(-0.0149147353345 -0.0577937272056 0)
(-0.0148299997669 -0.0554308163995 0)
(-0.0147296289546 -0.0530838013467 0)
(-0.0146142889487 -0.0507553658415 0)
(-0.0144846543448 -0.0484479830278 0)
(-0.014341517782 -0.0461640733632 0)
(-0.014185846931 -0.0439058706108 0)
(-0.0140186778077 -0.041675567731 0)
(-0.0138411963112 -0.0394749881118 0)
(-0.0136548107806 -0.0373060910135 0)
(-0.0134609344003 -0.0351702744903 0)
(-0.0132611260563 -0.0330688169172 0)
(-0.0130570251015 -0.0310025629077 0)
(-0.0128504134868 -0.0289722898563 0)
(-0.0126430636659 -0.0269781671509 0)
(-0.0124368218961 -0.0250201892205 0)
(-0.0122335512948 -0.0230979105482 0)
(-0.0120350041513 -0.0212104064739 0)
(-0.0118430054939 -0.0193564836081 0)
(-0.0116593183294 -0.0175344090424 0)
(-0.0114857286926 -0.0157421010834 0)
(-0.0113240038353 -0.0139768709114 0)
(-0.0111762496048 -0.0122354222092 0)
(-0.011046017037 -0.0105146806735 0)
(-0.0109375586533 -0.00881210363193 0)
(-0.0108533721817 -0.00712387002056 0)
(-0.0107987622752 -0.00545058926608 0)
(-0.0107788098135 -0.0037999669586 0)
(-0.0107283960769 -0.00220393769321 0)
(-0.0096556501941 -0.000645265117324 0)
(0.048542005551 -0.00332295120617 0)
(0.0537770499823 -0.0112383040948 0)
(0.0535281246068 -0.019080112162 -1.23803430954e-27)
(0.0527006209258 -0.0269134873374 0)
(0.0515920807848 -0.0345618193794 0)
(0.0502412656505 -0.0419907544696 0)
(0.0486754099925 -0.0491629518086 0)
(0.046923005635 -0.0560473098563 0)
(0.0450133338435 -0.062619064272 0)
(0.042975374293 -0.0688595777591 0)
(0.0408369108229 -0.0747558882747 0)
(0.0386237957554 -0.0803000316719 0)
(0.0363595000792 -0.085488348778 0)
(0.0340648680398 -0.090320746699 0)
(0.0317580261623 -0.0947999680859 0)
(0.029454459885 -0.0989309526469 0)
(0.0271671925782 -0.102720295332 0)
(0.0249070111431 -0.106175737165 0)
(0.0226827624215 -0.109305864697 0)
(0.0205016329765 -0.112119783379 0)
(0.0183694186074 -0.114626930072 0)
(0.0162908037551 -0.116836926396 0)
(0.0142695521571 -0.118759590687 0)
(0.0123086584443 -0.120404596113 0)
(0.0104105914194 -0.121781894621 0)
(0.00857737024984 -0.122901324805 0)
(0.00681063993987 -0.12377285477 0)
(0.00511173096589 -0.124406475721 0)
(0.00348168669223 -0.124812280174 0)
(0.00192128637432 -0.125000335246 0)
(0.000431054517675 -0.12498083387 0)
(-0.000988743089585 -0.124763997187 0)
(-0.00233806242728 -0.124359986054 0)
(-0.00361713496306 -0.123779012971 0)
(-0.00482644611701 -0.123031124605 0)
(-0.00596673101111 -0.122126388202 0)
(-0.0070389874769 -0.121074640876 0)
(-0.00804444481354 -0.119885586436 0)
(-0.00898457252972 -0.118568659678 0)
(-0.00986101402922 -0.117133105382 0)
(-0.0106756204625 -0.115587894017 0)
(-0.0114304132131 -0.113941567607 0)
(-0.0121275769164 -0.112202450722 0)
(-0.0127693920068 -0.110378439716 0)
(-0.0133582453219 -0.108477119769 0)
(-0.0138965868749 -0.106505552127 0)
(-0.0143869323649 -0.104470524723 0)
(-0.0148317838127 -0.102378365502 0)
(-0.0152336301981 -0.10023499759 0)
(-0.01559494869 -0.0980459973615 0)
(-0.0159180977758 -0.0958164037108 0)
(-0.0162053811733 -0.0935510791587 0)
(-0.0164589477272 -0.0912543297548 0)
(-0.0166808082053 -0.0889303364926 0)
(-0.0168728184429 -0.0865827837163 0)
(-0.0170366629986 -0.0842153118563 0)
(-0.0171738299932 -0.081831139082 0)
(-0.0172856511787 -0.0794334153502 0)
(-0.0173731466767 -0.077025153073 0)
(-0.017437327357 -0.0746093565534 0)
(-0.017479109205 -0.0721887157156 0)
(-0.0174991987268 -0.0697657255994 0)
(-0.017498212688 -0.0673431593297 0)
(-0.0174766324088 -0.0649237164463 0)
(-0.0174349119274 -0.06251008302 0)
(-0.0173734649931 -0.060104986722 0)
(-0.0172927135334 -0.0577108985348 0)
(-0.017193203418 -0.0553308468286 0)
(-0.0170754156804 -0.0529672426114 0)
(-0.0169400517169 -0.050622890246 0)
(-0.0167879185337 -0.0483005033343 0)
(-0.0166198256021 -0.0460023513334 0)
(-0.016436934903 -0.043731078503 0)
(-0.0162404484347 -0.041488906184 0)
(-0.0160317418322 -0.0392779261313 0)
(-0.0158123833785 -0.037100023699 0)
(-0.0155841117488 -0.0349568706479 0)
(-0.0153487164936 -0.032849714269 0)
(-0.0151082530653 -0.0307797884519 0)
(-0.0148647829719 -0.0287477016938 0)
(-0.0146204092111 -0.0267537287261 0)
(-0.0143774189215 -0.0247979531807 0)
(-0.0141379978379 -0.0228798406767 0)
(-0.013904406907 -0.0209986028123 0)
(-0.0136788383477 -0.0191529441644 0)
(-0.0134634943 -0.0173411183784 0)
(-0.0132606449581 -0.0155610990267 0)
(-0.0130723371357 -0.0138101320843 0)
(-0.012901115009 -0.0120855023944 0)
(-0.0127500668654 -0.0103843209794 0)
(-0.0126229021262 -0.00870461889458 0)
(-0.0125226330448 -0.00704453892767 0)