/*--------------------------------*- C++ -*----------------------------------*\
| =========                 |                                                 |
| \\      /  F ield         | OpenFOAM: The Open Source CFD Toolbox           |
|  \\    /   O peration     | Version:  v1906                                 |
|   \\  /    A nd           | Web:      www.OpenFOAM.com                      |
|    \\/     M anipulation  |                                                 |
\*---------------------------------------------------------------------------*/
FoamFile
{
    version     2.0;
    format      ascii;
    class       surfaceScalarField;
    location    "205";
    object      phia;
}
// * * * * * * * * * * * * * * * * * * * * * * * * * * * * * * * * * * * * * //

dimensions      [0 3 -1 0 0 0 0];
oriented        oriented;


internalField   nonuniform List<scalar> 
18240
(
0.0121978249267
-0.0121978256203
0.0250788001991
-0.0128809762039
0.0378851740397
-0.0128063744666
0.0505306454079
-0.0126454723248
0.062955932582
-0.0124252877136
0.0751084859528
-0.0121525543559
0.0869406961531
-0.0118322106623
0.0984097400405
-0.0114690448987
0.109477703581
-0.0110679639329
0.120111714593
-0.0106340120461
0.130284003967
-0.010172289704
0.139971857785
-0.00968785487213
0.149157481888
-0.00918562437633
0.15782777291
-0.00867029209456
0.165974032923
-0.00814626023552
0.173591623949
-0.00761759211143
0.180679601394
-0.00708797762253
0.1872403184
-0.00656071809984
0.19327903809
-0.00603871982621
0.198803539741
-0.00552450274876
0.203823752656
-0.00502021301298
0.208351398028
-0.00452764646767
0.212399669645
-0.00404827167963
0.215982929066
-0.00358326050926
0.219116444047
-0.00313351500958
0.221816142588
-0.00269969961653
0.224098410352
-0.00228226776034
0.225979902133
-0.00188149283818
0.227477395685
-0.00149749351672
0.228607659996
-0.0011302653458
0.229387371698
-0.000779711635695
0.229833061473
-0.000445690783276
0.22996115686
-0.000128095291474
0.229788138874
0.000173017010311
0.229327737928
0.000460401071726
0.228594683805
0.000733053182182
0.227603425162
0.000991258794789
0.226367873032
0.00123555122528
0.224901425677
0.00146644753064
0.223216962389
0.00168446242239
0.221326853248
0.00189010933966
0.219242956146
0.0020838962761
0.216976630298
0.00226632606887
0.214538737824
0.00243789168958
0.211939661073
0.00259907699087
0.209189307558
0.00275035277284
0.206297129593
0.00289217822331
0.20327213118
0.0030249977135
0.200122888694
0.00314924275952
0.196857558676
0.00326532936337
0.193483898656
0.00337366030707
0.190009275162
0.00347462288218
0.186440684091
0.0035685913692
0.182784758486
0.00365592503748
0.179047788094
0.00373697069968
0.175235726669
0.00381206089974
0.171354210519
0.0038815164649
0.167408565211
0.00394564482421
0.163403823029
0.00400474250266
0.159344729053
0.00405909353366
0.155235757517
0.0041089718588
0.151081117305
0.00415463981067
0.146884767236
0.00419635039293
0.142650421053
0.00423434582155
0.138381561704
0.00426885967038
0.134081445917
0.00430011546466
0.129753117552
0.00432832868283
0.125399411865
0.00435370540228
0.121022968025
0.00437644415357
0.116626233156
0.00439673462088
0.112211474116
0.00441475934697
0.107780781411
0.00443069249362
0.103336080311
0.00444470139869
0.0988791347323
0.00445694540234
0.0944115577634
0.00446757725763
0.0899348155924
0.00447674202962
0.0854502375074
0.00448457836225
0.080959019943
0.00449121745617
0.0764622360135
0.00449678419349
0.0719608397377
0.00450139619932
0.067455675163
0.00450516482324
0.0629474808334
0.0045081942832
0.0584368985732
0.00451058249127
0.0539244782996
0.00451242025641
0.0494106866178
0.00451379189438
0.0448959122709
0.00451477435936
0.0403804751362
0.00451543732999
0.0358646336473
0.00451584153321
0.0313485973865
0.00451603644043
0.0268325445989
0.0045160528617
0.0223166601524
0.00451588460552
0.0178012232008
0.00451543704887
0.0132868670813
0.00451435624365
0.00877532909965
0.00451153811645
0.00428057885877
0.00449475038625
0.00428057892879
0.0128052749106
-0.0250031013121
0.0264780384395
-0.0265537406113
0.0400294589062
-0.0263577957033
0.0533996300995
-0.0260156443603
0.0665344859851
-0.0255601443135
0.0793821688523
-0.0250002380305
0.0918939118044
-0.0243439542671
0.104025295999
-0.0236004298593
0.115736768719
-0.0227794372389
0.126993913299
-0.0218911573448
0.137767552046
-0.0209459289672
0.148033715782
-0.0199540192745
0.157773509464
-0.0189254185041
0.166972886106
-0.0178696693497
0.175622355973
-0.0167957304799
0.183716641144
-0.0157118778419
0.191254301104
-0.014625637893
0.198237335674
-0.0135437531782
0.20467078754
-0.0124721719416
0.210562345635
-0.0114160613024
0.215921967608
-0.0103798351785
0.220761517718
-0.00936719699127
0.225094434787
-0.00838118889162
0.228935422589
-0.00742424868323
0.232300174622
-0.00649826714072
0.235205122828
-0.00560464815749
0.237667220412
-0.00474436540402
0.239703746334
-0.00391801906211
0.241332139989
-0.00312588719907
0.242569850605
-0.00236797623499
0.243434204085
-0.00164406511414
0.243942259122
-0.000953746068672
0.244110605048
-0.000296441192631
0.243954844386
0.00032877745037
0.243492334226
0.000922911282768
0.242738955826
0.00148643138346
0.24170990416
0.00202031052861
0.240419882584
0.00252557262024
0.238883079359
0.00300325083572
0.237113158741
0.00345438287365
0.235123259651
0.00388000852112
0.232925993623
0.00428116215146
0.230533451752
0.00465886803798
0.227957209138
0.00501413416309
0.225208336867
0.00534794936768
0.222297410458
0.0056612790534
0.219234524794
0.00595506399715
0.216029304855
0.00623021753507
0.212690922144
0.00648762558436
0.209228106521
0.0067281448787
0.205649163142
0.00695260380424
0.201961984581
0.0071618013455
0.198174067635
0.00735650843548
0.194292525226
0.0075374673596
0.190324102648
0.00770539340066
0.186275188951
0.00786097451952
0.182151832402
0.00800487313855
0.177959751187
0.00813772597295
0.173704347971
0.00826014584418
0.169390719873
0.00837272157651
0.165023672091
0.00847601976733
0.160607727163
0.00857058469387
0.156147137691
0.00865693999348
0.151645894931
0.00873558854702
0.147107740691
0.00880701404072
0.142536175323
0.00887168080877
0.137934468875
0.00893003526174
0.133305668584
0.00898250568156
0.128652609359
0.00902950351079
0.123977920879
0.00907142310087
0.119284037497
0.00910864286278
0.114573205028
0.00914152497426
0.109847490165
0.0091704163963
0.105108787043
0.00919564854827
0.100358826241
0.00921753819699
0.0955991811966
0.00923638710988
0.0908312768726
0.00925248282426
0.0860563960882
0.00926609828857
0.0812756879016
0.00927749251853
0.0764901739259
0.00928691023401
0.0717007564829
0.0092945824041
0.0669082249564
0.0093007258788
0.062113263774
0.00930554380976
0.0573164588615
0.00930922524756
0.0525183055197
0.00931194537066
0.0477192150545
0.00931386491391
0.0429195225879
0.00931512993139
0.0381194937079
0.00931587051563
0.0333193312429
0.0093161990428
0.0285191779636
0.00931620625764
0.0237191077446
0.00931595495388
0.0189190732685
0.00931547164025
0.0141187116242
0.0093147180226
0.00931704759516
0.00931320228115
0.00451829663729
0.00929350149209
0.00879887565363
0.0129692437515
-0.0379723458764
0.0267761428485
-0.0403606405555
0.0404737688923
-0.0400554225675
0.0539882392801
-0.0395301155681
0.0672607053885
-0.0388326111993
0.0802371636788
-0.0379766971054
0.092867511948
-0.0369743032707
0.105106373056
-0.035839291715
0.11691353122
-0.0345865960947
0.128254190102
-0.0332318169369
0.139099061429
-0.0317908009441
0.149424312546
-0.0302792710644
0.159211399194
-0.0287125057625
0.168446804411
-0.0271050752039
0.177121708279
-0.0254706349204
0.185231606724
-0.0238217768911
0.192775900875
-0.0221699325805
0.19975747055
-0.020525323425
0.206182248464
-0.0188969503583
0.212058803174
-0.017292616554
0.217397942216
-0.0157189746913
0.222212338376
-0.0141815936623
0.226516186271
-0.0126850372269
0.230324888289
-0.0112329511851
0.233654774009
-0.0098281532719
0.23652284952
-0.00847272412405
0.238946578839
-0.00716809510507
0.240943692134
-0.00591513278516
0.242532021506
-0.00471421692514
0.243729357154
-0.00356531228424
0.244553322401
-0.0024680306882
0.245021258764
-0.00142168280516
0.245150128463
-0.000425311191766
0.244956633511
0.000522272061694
0.244457577412
0.00142196712107
0.243668588094
0.00227542039448
0.242604835069
0.00308406331852
0.241281043442
0.00384936396585
0.239711431577
0.00457286249069
0.237909687317
0.00525612687712
0.235888962422
0.00590073323027
0.23366187288
0.00650825146292
0.23124050527
0.00708023548575
0.228636424392
0.00761821483507
0.225860684698
0.00812368892291
0.222923841659
0.00859812190955
0.219835965891
0.00904293964809
0.216606656469
0.00945952679795
0.213245056341
0.00984922561681
0.209759866445
0.0102133346387
0.206159361468
0.0105531087057
0.202451404025
0.0108697586735
0.198643460162
0.0111644522428
0.194742613119
0.0114383143088
0.190755578218
0.0116924282645
0.186688715942
0.0119278367218
0.182548046004
0.0121455430567
0.178339259613
0.012346512309
0.174067732643
0.0125316728108
0.169738537047
0.0127019171357
0.165356453123
0.0128581037035
0.160925980101
0.0130010576951
0.156451347555
0.0131315725652
0.151936525226
0.0132504108714
0.147385233651
0.0133583056553
0.142800953312
0.0134559611578
0.138186934578
0.0135440540482
0.133546206269
0.0136232340142
0.12888158501
0.0136941248331
0.124195683312
0.0137573248365
0.119490918423
0.0138134078253
0.11476952003
0.0138629234174
0.110033538694
0.0139063978157
0.105284853255
0.0139443340494
0.100525178936
0.0139772126084
0.0957560745271
0.0140054915919
0.0909789502294
0.0140296072222
0.0861950746847
0.0140499739164
0.0814055826196
0.0140669846905
0.0766114817782
0.0140810111669
0.0718136604165
0.0140924038776
0.0670128941829
0.0141014922107
0.062209853499
0.014108584609
0.0574051104118
0.0141139684388
0.0525991458553
0.0141179100457
0.0477923564033
0.0141206544767
0.0429850611802
0.014122425278
0.0381775078993
0.0141234239164
0.0333698778747
0.0141238291971
0.0285622876183
0.0141237966407
0.0237547834501
0.014123459256
0.0189473208905
0.0141229343231
0.0141397315122
0.0141223075194
0.00933196775297
0.0141209661895
0.00453286877352
0.0140926006332
0.0133317444971
0.0131458729652
-0.0511182196684
0.027130790071
-0.0543455585242
0.0410033364069
-0.0539279697333
0.0546861931628
-0.0532129731469
0.0681172041832
-0.0522636230139
0.0812400613842
-0.0510995550896
0.0940030135752
-0.0497372562168
0.106359565931
-0.0481958448145
0.118268844071
-0.0464958749493
0.129695807925
-0.0446587814941
0.140611295195
-0.0427062888868
0.150991918661
-0.040659895193
0.160819842791
-0.0385404305238
0.170082465318
-0.0363676983531
0.178772030031
-0.0341602002236
0.18688519346
-0.0319349409041
0.194422566963
-0.0297073066347
0.201388250791
-0.0274910077994
0.207789375149
-0.02529807523
0.213635658201
-0.0231389001147
0.21893898987
-0.0210223068377
0.223713045832
-0.0189556500987
0.227972935804
-0.0169449276409
0.231734886526
-0.0149949023479
0.235015960458
-0.013109227614
0.237833808122
-0.011290572196
0.240206453354
-0.0095407407152
0.242152108191
-0.00786078799963
0.243689015989
-0.00625112507071
0.244835319589
-0.0047116162315
0.245608954321
-0.00324166573922
0.24602756448
-0.00184029328299
0.246108454566
-0.000506201567414
0.245868585021
0.000762141324491
0.245324020707
0.00196653118811
0.244490708764
0.00310873208968
0.24338403667
0.00419073519059
0.24201881051
0.00521458990177
0.240409280616
0.0061823921859
0.238569144211
0.00709626308051
0.236511548152
0.00795832911271
0.234249093709
0.00877070572625
0.23179384471
0.00953548432911
0.229157337524
0.0102547218627
0.226350593349
0.0109304329627
0.223384131328
0.0115645837921
0.220267983111
0.0121590877491
0.217011707535
0.0127158022551
0.213624406151
0.0132365269043
0.210114738427
0.0137230022632
0.206490937399
0.0141769096542
0.202760824724
0.0145998712668
0.19893182591
0.0149934509958
0.195010984794
0.0153591553605
0.191004978063
0.0156984349495
0.186920128925
0.0160126858125
0.182762420743
0.0163032512099
0.178537509805
0.0165714232148
0.174250738031
0.0168184445703
0.16990714482
0.0170455103294
0.16551147884
0.0172537696831
0.161068209003
0.01744432753
0.156581535395
0.0176182461867
0.152055399455
0.0177765468216
0.147493494139
0.0179202109974
0.142899273389
0.0180501819321
0.138275961625
0.0181673658504
0.133626562618
0.0182726330573
0.128953868409
0.0183668190914
0.124260467682
0.0184507256116
0.119548754209
0.0185251213578
0.114820934824
0.0185907428617
0.110079037484
0.018648295227
0.105324918923
0.0186984526802
0.100560272423
0.0187418591895
0.0957866352214
0.0187791288732
0.0910053960568
0.0188108464765
0.0862178024027
0.0188375676594
0.0814249678422
0.0188598193485
0.0766278791836
0.0188780999221
0.0718274037106
0.0188928794545
0.0670242962136
0.0189045998105
0.0622192061397
0.0189136747916
0.0574126845442
0.0189204901423
0.0526051911008
0.0189254036025
0.0477971008621
0.0189287448294
0.0429887108866
0.0189308153736
0.0381802462928
0.0189318886324
0.033371865521
0.0189322100975
0.0285636640104
0.0189319982825
0.0237556758801
0.0189314475112
0.0189478745744
0.0189307357527
0.0141401956422
0.018929986592
0.00933286790834
0.0189282940611
0.00453543080162
0.0188900378888
0.0178671753811
0.0133776073424
-0.0644958278575
0.0276080624506
-0.0685760144756
0.0417183984652
-0.0680383065955
0.0556287320764
-0.0671233075834
0.0692734063645
-0.0659082981089
0.0825933399343
-0.0644194894463
0.0955346248374
-0.0626785418854
0.108049260591
-0.0607104813138
0.120095484272
-0.0585420993547
0.131637938064
-0.0562012359893
0.142647650728
-0.0537160022318
0.153101862151
-0.0511141072776
0.162983720425
-0.0484222894379
0.172281882636
-0.0456658611839
0.18099004944
-0.0428683676266
0.189106460115
-0.0400513521594
0.196633371239
-0.0372342183172
0.203576537462
-0.0344341745649
0.209944709073
-0.0316662473627
0.215749156647
-0.0289433481936
0.221003230199
-0.0262763808751
0.225721956816
-0.0236743771871
0.229921679005
-0.0211446502808
0.233619733634
-0.0186929574137
0.236834170603
-0.0163236650021
0.239583508874
-0.0140399108724
0.241886527458
-0.0118437596866
0.243762088071
-0.00973634898766
0.245228986634
-0.00771802399134
0.246305830287
-0.00578846023072
0.247010937369
-0.00394677314929
0.247362258338
-0.00219161456994
0.247377322126
-0.00052126565427
0.247073177806
0.00106628536656
0.246466349475
0.00257335926853
0.245572793798
0.00400228752561
0.244407929915
0.00535559884727
0.242986608253
0.00663591134564
0.241323105165
0.00784589507173
0.239431124351
0.00898824369977
0.237323802411
0.0100656508722
0.235013717109
0.0110807908556
0.232512898173
0.0120363031057
0.229832839825
0.0129347800597
0.226984514855
0.0137787577935
0.223978389568
0.0145707089481
0.220824439516
0.0153130376826
0.217532165486
0.0160080761729
0.214110609777
0.0166580825138
0.210568372314
0.0172652396341
0.206913626731
0.0178316551554
0.203154136047
0.0183593618759
0.199297268112
0.0188503188675
0.195350010508
0.0193064129075
0.191318985101
0.0197294603093
0.187210462004
0.0201212088694
0.183030373137
0.0204833400456
0.178784325186
0.0208174711407
0.17447761216
0.0211251575813
0.170115227357
0.0214078951224
0.165701874968
0.0216671220706
0.161241981124
0.0219042213784
0.156739704614
0.0221205227094
0.152198947109
0.0223173043435
0.147623363105
0.0224957950266
0.143016369422
0.0226571756453
0.138381154477
0.0228025808332
0.133720687175
0.0229331004008
0.129037725622
0.0230497806932
0.124334825511
0.0231536257766
0.119614348372
0.0232455985568
0.114878469561
0.0233266217369
0.110129186144
0.0233975787144
0.105368324568
0.0234593143312
0.100597548266
0.0235126355725
0.0958183650882
0.023558312135
0.0910321347021
0.0235970769525
0.0862400758456
0.0236296266088
0.0814432735787
0.0236566217132
0.0766426864128
0.0236786871883
0.071839153452
0.0236964125193
0.067033401438
0.0237103519305
0.0622260517985
0.0237210245401
0.0574176276011
0.0237289144503
0.0526085604847
0.0237344708328
0.0477991974465
0.0237381079839
0.0429898075046
0.0237402054361
0.0381805880898
0.0237411081721
0.0333716711554
0.0237411271601
0.0285631290608
0.0237405405066
0.0237549810395
0.0237395956681
0.0189472026771
0.0237385142417
0.0141397598648
0.0237374295214
0.00933291804231
0.023735136036
0.00453622607475
0.0236867300219
0.0224034015261
0.0136719916529
-0.0781678203754
0.0282182537254
-0.0831222774185
0.0426335812505
-0.0824536349721
0.0568348153048
-0.0813245424779
0.0707519590115
-0.0798254426317
0.0843225007505
-0.0779900319834
0.09748984255
-0.0758458844608
0.110204121509
-0.073424761029
0.122422516892
-0.070760495471
0.134109362039
-0.0678880818504
0.14523604151
-0.0648426823929
0.155780714253
-0.0616587806911
0.165727900979
-0.0583694768122
0.175067974777
-0.0550059356101
0.183796591019
-0.0515969844753
0.191914087766
-0.0481688494952
0.199424882377
-0.0447450134939
0.20633688416
-0.0413461768977
0.212660937726
-0.0379903014564
0.218410306714
-0.034692717694
0.223600203861
-0.0314662785134
0.228247369937
-0.0283215437393
0.23236970192
-0.0252669827205
0.235985928765
-0.0223091847008
0.239115332174
-0.019453068835
0.241777508798
-0.0167020879051
0.243992170129
-0.0140584214096
0.245778976034
-0.0115231552713
0.247157398142
-0.00909644646029
0.248146609379
-0.00677767181532
0.248765396245
-0.00456556034796
0.249032090646
-0.00245830929007
0.248964518298
-0.000453693606486
0.248579927225
0.00145087616557
0.247895018909
0.00325826733538
0.246925901623
0.00497140457558
0.24568808584
0.00659341440741
0.244196475607
0.00812752136527
0.242465372124
0.00957699835519
0.240508480126
0.0109451355078
0.238338917718
0.0122352131024
0.235969228543
0.0134504798625
0.233411395855
0.014594135637
0.230676857918
0.0156693178492
0.227776524402
0.016679091173
0.224720793348
0.0176264398752
0.221519568493
0.0185142624215
0.21818227665
0.0193453679083
0.214717885032
0.0201224740342
0.211134918301
0.0208482062762
0.207441475304
0.0215250980734
0.203645245344
0.0221555917645
0.199753524001
0.0227420401489
0.195773228374
0.0232867084804
0.191710911836
0.0237917768028
0.187572778152
0.0242593425149
0.183364695103
0.0246914230656
0.179092207498
0.0250899587239
0.17476054969
0.025456815375
0.170374657539
0.0257937872663
0.165939179904
0.0261025997061
0.16145848964
0.0263849116489
0.156936694182
0.0266423181809
0.152377645688
0.0268763528579
0.147784950825
0.0270884899162
0.143161980185
0.0272801463177
0.138511877397
0.0274526836594
0.133837567929
0.0276074099128
0.129141767645
0.0277455810278
0.124426991104
0.0278684023731
0.119695559673
0.0279770300483
0.114949609432
0.0280725720449
0.110191098927
0.0281560892903
0.105421816778
0.0282285965573
0.100643389166
0.0282910632658
0.0958572872077
0.0283444141795
0.0910648342534
0.0283895299975
0.0862672130981
0.0284272478587
0.0814654731412
0.0284583617687
0.0766605374867
0.0284836229445
0.071853210009
0.0285037401021
0.0670441823691
0.0285193796777
0.06223404101
0.0285311660092
0.0574232741004
0.028539681472
0.0526122784468
0.028545466601
0.0478013663395
0.0285490202089
0.0429907723438
0.0285507995534
0.0381806600314
0.0285512206098
0.0333711287577
0.0285506585643
0.0285622207571
0.0285494486416
0.0237539293524
0.0285478871981
0.0189462097586
0.0285462339615
0.0141390097505
0.0285446296755
0.00933255022391
0.0285415957007
0.00453630448397
0.0284829759108
0.0269397060942
0.0140346478603
-0.0922024691301
0.0289712273042
-0.0980588577088
0.0437630729123
-0.0972454814534
0.058322657891
-0.0958841283043
0.0725745151429
-0.0940773007149
0.086451896803
-0.0918674144522
0.099894932409
-0.0892889208557
0.112851553437
-0.0863813828231
0.12527776572
-0.0831867084999
0.137137682962
-0.0797479998148
0.148403306801
-0.0761083069338
0.159054111369
-0.0723095859385
0.169076483322
-0.0683918494236
0.178463067176
-0.0643925201004
0.1872120599
-0.0603459778156
0.195326491255
-0.0562832814451
0.202813518454
-0.0522320412686
0.209683756015
-0.0482164150132
0.215950654866
-0.0442572008442
0.221629939032
-0.0403720023771
0.226739103677
-0.0365754436581
0.23129697481
-0.0328794153529
0.235323328564
-0.0292933369391
0.238838566271
-0.0258244228543
0.241863440617
-0.0224779436117
0.244418827688
-0.0192574753893
0.246525539616
-0.0161651337355
0.248204172694
-0.0132017887307
0.249474986162
-0.0103672602952
0.250357807264
-0.00766049326851
0.250871958564
-0.00507971198462
0.251036203691
-0.00262255473876
0.250868704976
-0.000286195194276
0.2503869394
0.00193264146938
0.249607841401
0.00403736508795
0.248547656376
0.0060315893667
0.247221986338
0.00791908422353
0.245645786948
0.00970372054582
0.243833378085
0.0113894070206
0.241798456053
0.0129800573528
0.239554108514
0.0144795604646
0.237112831121
0.0158917570906
0.234486545387
0.0172204212156
0.231686617345
0.018469245747
0.228723876642
0.0196418317414
0.22560863579
0.0207416806029
0.222350709348
0.0217721887487
0.218959432852
0.0227366442992
0.215443681368
0.0236382254225
0.211811887552
0.0244800000054
0.208072059162
0.0252649263859
0.20423179595
0.0259958549079
0.200298305927
0.0266755301118
0.196278420964
0.0273065933914
0.192178611746
0.0278915859773
0.188005002066
0.0284329521593
0.183763382497
0.0289330426075
0.179459223438
0.0293941177628
0.175097687589
0.0298183512113
0.170683641855
0.0302078329951
0.166221668734
0.0305645728283
0.161716077211
0.0308905031806
0.157170913193
0.031187482214
0.152589969524
0.0314572965488
0.147976795611
0.0317016638568
0.143334706695
0.0319222352676
0.138666792801
0.0321205975931
0.133975927396
0.0322982753638
0.129264775789
0.0324567326864
0.124535803297
0.0325973749223
0.119791283208
0.0327215501993
0.115033304568
0.0328305507522
0.110263779803
0.0329256141282
0.105484452214
0.0330079242245
0.100696903353
0.0330786122095
0.0959025603095
0.0331387573106
0.0911027029078
0.033189387491
0.0862984708425
0.0332314800199
0.0814908707603
0.0332659619504
0.0766807832971
0.0332937105107
0.0718689700824
0.0333155534227
0.0670560807134
0.0333322691552
0.0622426597082
0.0333445871253
0.057429153435
0.0333531878583
0.0526159170258
0.0333587031258
0.0478032212745
0.033361716079
0.0429912595403
0.03336276141
0.0381801547005
0.033362325577
0.0333699662652
0.0333608471296
0.02856069789
0.0333587171478
0.0237523057673
0.0333562794598
0.0189447083297
0.0333538315282
0.0141378125719
0.033351525549
0.00933177665344
0.0333476317752
0.00453601978966
0.0332787329442
0.0314757259533
0.0144718174107
-0.106674287462
0.0298794011683
-0.113466442344
0.0451249845057
-0.112491065669
0.0601154288272
-0.110874573493
0.074768451302
-0.108730324032
0.0890121319216
-0.106111095896
0.102782695558
-0.103059485293
0.116025545528
-0.0996242335734
0.128695472406
-0.0958566361344
0.140756570217
-0.0918090983612
0.152181851942
-0.0875335893701
0.162952645401
-0.0830803800883
0.1730578379
-0.0784970425895
0.182493033356
-0.0738277162035
0.191259675587
-0.0691126206706
0.199364180162
-0.0643877866241
0.206817106099
-0.0596849677881
0.213632388499
-0.0550316979771
0.219826644694
-0.050451457582
0.225418559632
-0.0459639178405
0.230428351155
-0.0415852356868
0.234877312202
-0.0373283768876
0.238787424629
-0.0332034498356
0.242181038017
-0.0292180366952
0.245080606227
-0.0253775122564
0.247508474395
-0.021685343977
0.249486709386
-0.0181433691281
0.251036967205
-0.0147520469365
0.252180391566
-0.0115106850272
0.252937538418
-0.008417640476
0.253328322136
-0.00547049604307
0.253371979808
-0.00266621273693
0.253087042316
-1.25800495397e-06
0.252491224596
0.0025284589201
0.251601704414
0.00492688502574
0.250434866442
0.00719842710781
0.249006399705
0.00934755074213
0.247331302689
0.0113788173546
0.245423901852
0.0132968076621
0.243297870458
0.0151060885624
0.240966249308
0.0168111814413
0.238441468373
0.0184165378627
0.235735368923
0.0199265205137
0.232859225778
0.0213453887499
0.229823769414
0.022677287973
0.226639207711
0.0239262421838
0.223315247185
0.0250961491631
0.219861113592
0.0261907777883
0.216285571835
0.0272137670866
0.212596945089
0.0281686266665
0.208803133157
0.029058738243
0.204911630001
0.029887357997
0.200929540484
0.0306576195702
0.196863596313
0.0313725375124
0.192720171206
0.0320350110436
0.188505295327
0.0326478280043
0.184224669006
0.0332136689033
0.179883675775
0.033735110975
0.175487394784
0.0342146321913
0.171040612608
0.0346546151683
0.166547834502
0.0350573509373
0.16201329515
0.0354250425423
0.157440968932
0.0357598084492
0.152834579758
0.036063685746
0.148197610515
0.0363386331291
0.14353331215
0.0365865336679
0.138844712436
0.0368091973494
0.134134624444
0.0370083634027
0.129405654771
0.037185702412
0.124660211536
0.0373428182153
0.119900512177
0.0374812496221
0.115128591079
0.0376024719199
0.110346307061
0.0377078982205
0.105555350732
0.0377988806319
0.100757251747
0.0378767112789
0.0959533859678
0.0379426231785
0.0911449825647
0.0379977909871
0.086333131055
0.0380433316266
0.0815187883
0.0380803048062
0.0767027854682
0.0381097134466
0.0718858349751
0.0381325040228
0.0670685374058
0.0381495668341
0.0622513884275
0.0381617362155
0.0574347856971
0.038169790703
0.0526190357739
0.0381744531657
0.0478043610435
0.0381763909291
0.0429909066854
0.0381762158918
0.0381787477216
0.0381744846681
0.0333678962338
0.03817169875
0.0285583088782
0.0381683046402
0.0237498949043
0.0381646935594
0.0189425246404
0.0381612019198
0.0141360531944
0.0381579971464
0.00933057239665
0.0381531127115
0.00453546535456
0.0380738401357
0.0360111913935
0.014991029859
-0.121665318282
0.0309583069655
-0.129433720297
0.0467420849048
-0.128274844515
0.0622422016525
-0.126374691117
0.0773679806986
-0.123856103939
0.0920412672708
-0.120784383305
0.106193711667
-0.117211930506
0.119767913045
-0.113198435744
0.132717516756
-0.108806240617
0.145006953855
-0.104098536207
0.156610824581
-0.0991374608213
0.167513038343
-0.0939825945501
0.177705801293
-0.0886898062185
0.187188532653
-0.0833104482195
0.195966774674
-0.0778908633261
0.204051144693
-0.072472157255
0.211456362354
-0.0670901860419
0.218200371922
-0.0617757081157
0.224303569085
-0.0565546552958
0.229788133803
-0.0514484830897
0.234677465232
-0.0464745676292
0.238995711234
-0.0416466233827
0.242767383007
-0.0369751220846
0.246017044569
-0.0324676987151
0.248769066785
-0.0281295349139
0.251047436167
-0.0239637137822
0.252875609487
-0.0199715428559
0.254276406265
-0.0161528441047
0.255271932174
-0.0125062113122
0.255883527338
-0.00902923599827
0.25613173516
-0.00571870420968
0.256036290916
-0.00257076882157
0.255616113874
0.000418918735254
0.254889158588
0.00325541393987
0.253872841845
0.00594320152802
0.252583677507
0.00848759121775
0.251037427376
0.0108938006577
0.249249116373
0.0131671281534
0.247233058754
0.0153128650879
0.24500288436
0.0173362627756
0.242571565728
0.0192424999022
0.239951445212
0.021036658219
0.237154261734
0.0227237038413
0.234191176921
0.0243084734244
0.231072800424
0.02579566434
0.227809214332
0.0271898281568
0.224409996569
0.0284953668153
0.220884243266
0.0297165309913
0.217240590056
0.0308574202056
0.21348723232
0.0319219843199
0.209631944388
0.0329140261019
0.205682097716
0.033837204605
0.201644678089
0.034695039141
0.197526301885
0.0354909136691
0.193333231441
0.0362280814479
0.189071389583
0.0369096698309
0.184746373359
0.0375386851035
0.180363467035
0.0381180172824
0.175927654405
0.038650444812
0.171443630462
0.03913863911
0.166915812484
0.0395851689202
0.16234835059
0.0399925044488
0.157745137798
0.0403630212593
0.153109819651
0.0406990039174
0.148445803437
0.0410026493749
0.143756267048
0.0412760700933
0.139044167534
0.0415212969062
0.134312249359
0.0417402816273
0.129563052416
0.0419348994091
0.124798919826
0.0421069508647
0.120022005553
0.0422581639604
0.11523428185
0.042390195694
0.110437546575
0.0425046335703
0.1056334304
0.0426029968875
0.100823403915
0.0426867378498
0.0960087846652
0.0427572425179
0.0911907441326
0.0428158316138
0.0863703146651
0.0428637611924
0.0815483963796
0.0429022231936
0.0767257640423
0.0429323458891
0.0719030739365
0.0429551942368
0.0670808707265
0.0429717701549
0.0622595943242
0.0429830127308
0.0574395867666
0.0429897983759
0.0526210991102
0.0429929409399
0.0478042983623
0.0429931917978
0.0429892744595
0.0429912399191
0.0381760473336
0.0429877119235
0.0333645741019
0.0429831721135
0.0285547564432
0.0429781224312
0.0237464482349
0.0429730019101
0.0189394631467
0.0429681871394
0.0141335973115
0.0429638630959
0.00932887402583
0.0429578361568
0.00453464587467
0.0428680684609
0.0405458373363
0.0156015600663
-0.137266879346
0.0322272656709
-0.146059426781
0.0486427129829
-0.14469029274
0.0647390677894
-0.142471046824
0.0804153938073
-0.139532430832
0.0955861032065
-0.13595509356
0.110177582686
-0.131803410816
0.124129439344
-0.127150293211
0.137394412036
-0.122071214092
0.149937846542
-0.116641971474
0.161736752635
-0.11093636765
0.172778598295
-0.105024440924
0.183059961578
-0.09897117019
0.192585142172
-0.0928356294802
0.201364809796
-0.0866705315936
0.209414742979
-0.0805220910604
0.216754691155
-0.0744301348172
0.22340737634
-0.0684283938802
0.229397638174
-0.0625449176873
0.234751717356
-0.0568025628112
0.239496667002
-0.0512195177937
0.243659878344
-0.0458098352254
0.24726870602
-0.0405839502421
0.250350178191
-0.0355491713504
0.252930777601
-0.030710134769
0.25503628097
-0.0260692175802
0.256691645652
-0.0216269079495
0.257920934021
-0.0173821328695
0.258747267522
-0.0133325451912
0.259192803115
-0.00947477195556
0.259278727289
-0.00580462873035
0.259025275553
-0.00231731741741
0.258451761197
0.000992432792029
0.25757639954
0.0041307753361
0.256416784929
0.00710281590129
0.254989548718
0.00991482720462
0.253310502544
0.0125728466192
0.251394673679
0.0150829568171
0.249256338132
0.0174512004456
0.246909055564
0.0196835451652
0.24436570338
0.0217858519195
0.241638509748
0.0237638516933
0.238739085267
0.0256231281755
0.235678453158
0.0273691053969
0.232467077941
0.0290070394303
0.229114892581
0.0305420134001
0.22563132411
0.0319789351792
0.222025317772
0.0333225372314
0.21830535973
0.0345773781588
0.214479498402
0.0357478455683
0.210555364486
0.0368381599473
0.206540189751
0.0378523792786
0.202440824659
0.0387944041794
0.198263754903
0.039667983379
0.194015116925
0.0404767193889
0.189700712485
0.0412240742413
0.185326022366
0.0419133752009
0.180896219267