/*--------------------------------*- C++ -*----------------------------------*\
| =========                 |                                                 |
| \\      /  F ield         | OpenFOAM: The Open Source CFD Toolbox           |
|  \\    /   O peration     | Version:  v1906                                 |
|   \\  /    A nd           | Web:      www.OpenFOAM.com                      |
|    \\/     M anipulation  |                                                 |
\*---------------------------------------------------------------------------*/
FoamFile
{
    version     2.0;
    format      ascii;
    class       volVectorField;
    location    "551";
    object      U;
}
// * * * * * * * * * * * * * * * * * * * * * * * * * * * * * * * * * * * * * //

dimensions      [0 1 -1 0 0 0 0];


internalField   nonuniform List<vector> 
9216
(
(0.00270949241606 -0.00271198393086 0)
(0.00285675452147 -0.00875200729323 1.17220714332e-27)
(0.00284859732189 -0.0148860855904 1.84083661273e-31)
(0.00281131441236 -0.021020550101 0)
(0.00275956225322 -0.0270522105374 0)
(0.00269478986148 -0.0329568075316 0)
(0.00261869647849 -0.0387084963252 0)
(0.00253261019637 -0.044284304246 0)
(0.00243784971742 -0.0496640351329 0)
(0.00233566714656 -0.054830288842 0)
(0.00222734964718 -0.0597683950293 0)
(0.0021140771902 -0.0644663821555 0)
(0.00199703423699 -0.0689148223653 0)
(0.00187724814222 -0.073106708835 0)
(0.0017557340833 -0.0770372256392 0)
(0.00163332030209 -0.0807035758867 0)
(0.00151082770974 -0.084104723714 0)
(0.00138887917945 -0.0872412169573 0)
(0.00126811078446 -0.090114939682 0)
(0.00114896114936 -0.0927289591192 0)
(0.00103191099755 -0.0950873103759 0)
(0.00091724889845 -0.0971948806605 0)
(0.000805336077162 -0.0990572338151 0)
(0.00069634655735 -0.100680532986 0)
(0.000590555441094 -0.102071402049 0)
(0.000488052554975 -0.103236879867 0)
(0.000389052853608 -0.104184311458 0)
(0.000293584286563 -0.104921324976 0)
(0.000201820081446 -0.105455744101 0)
(0.000113743154289 -0.105795580436 0)
(2.95019203284e-05 -0.10594894779 0)
(-5.09705034552e-05 -0.105924130562 0)
(-0.000127578084701 -0.105729359695 0)
(-0.000200412104701 -0.105372908597 0)
(-0.000269374446166 -0.10486306027 0)
(-0.000334587019524 -0.104208076209 0)
(-0.000395978850866 -0.10341614637 0)
(-0.000453701910473 -0.102495386766 0)
(-0.000507704946164 -0.101453790311 0)
(-0.000558165026451 -0.100299226064 0)
(-0.000605047420865 -0.0990393969314 0)
(-0.000648550093374 -0.0976818390515 0)
(-0.000688651777544 -0.0962338872798 0)
(-0.000725566984054 -0.0947026754795 0)
(-0.000759284280606 -0.093095109764 0)
(-0.000790029869794 -0.0914178694697 0)
(-0.000817798624667 -0.0896773889029 0)
(-0.00084282380237 -0.0878798593985 0)
(-0.000865102972709 -0.086031218898 0)
(-0.000884871877676 -0.08413715432 0)
(-0.000902127836423 -0.0822030990362 0)
(-0.000917105285348 -0.0802342354016 0)
(-0.000929798791249 -0.0782354988271 0)
(-0.000940438264858 -0.0762115792241 0)
(-0.000949014103154 -0.0741669312207 0)
(-0.000955749618033 -0.0721057739831 0)
(-0.000960630363371 -0.0700321059356 0)
(-0.000963871771141 -0.067949701533 0)
(-0.000965455054638 -0.0658621298771 0)
(-0.000965587615463 -0.0637727479034 0)
(-0.000964247460407 -0.0616847213953 0)
(-0.000961634376884 -0.0596010134568 0)
(-0.000957725103423 -0.0575244076791 0)
(-0.000952712881832 -0.0554574918315 0)
(-0.000946575220869 -0.0534026823152 0)
(-0.000939499857451 -0.0513622026415 0)
(-0.000931467246937 -0.0493381096107 0)
(-0.000922660634511 -0.0473322671775 0)
(-0.000913065086304 -0.0453463742362 0)
(-0.000902859778027 -0.0433819341063 0)
(-0.000892035661384 -0.0414402848861 0)
(-0.000880767799011 -0.0395225655478 0)
(-0.000869053511762 -0.0376297491296 0)
(-0.00085706294908 -0.0357626059172 0)
(-0.000844799792655 -0.0339217404709 0)
(-0.00083242801148 -0.0321075527961 0)
(-0.000819956991223 -0.0303202793937 0)
(-0.000807542716686 -0.0285599527526 0)
(-0.00079519933569 -0.0268264470739 0)
(-0.000783072815477 -0.025119436663 0)
(-0.000771180758819 -0.0234384462483 0)
(-0.000759656796557 -0.021782808461 0)
(-0.000748520455994 -0.0201517191175 0)
(-0.000737890341756 -0.0185441944631 0)
(-0.0007277854427 -0.0169591317953 0)
(-0.000718304849666 -0.0153952683587 0)
(-0.000709460405447 -0.0138512508159 0)
(-0.000701317508777 -0.0123256048759 0)
(-0.00069385005538 -0.0108168330531 0)
(-0.000687013345255 -0.00932344754978 0)
(-0.000680544898204 -0.00784421510706 0)
(-0.000673769426982 -0.00637863128466 0)
(-0.000664783519611 -0.00492850710902 0)
(-0.000645041355935 -0.00351139093343 0)
(-0.000609138235148 -0.00200298028542 0)
(-0.000921568185857 -0.000921392802392 0)
(0.00877172755376 -0.00288699511609 0)
(0.0096991729103 -0.00976976721755 0)
(0.00967676468878 -0.0166397427402 -1.23095363999e-27)
(0.00954731586651 -0.0235151014803 0)
(0.0093681878972 -0.030265948575 0)
(0.00914671698211 -0.0368705308393 0)
(0.00888732321099 -0.0433014170922 0)
(0.00859419495238 -0.0495333641254 0)
(0.00827166564714 -0.0555439574982 0)
(0.00792402533368 -0.0613138526653 0)
(0.0075555962358 -0.0668267917748 0)
(0.00717046240405 -0.0720695583559 0)
(0.00677258757681 -0.0770318259674 0)
(0.0063655415511 -0.081705984505 0)
(0.00595269211189 -0.0860868979999 0)
(0.00553693540302 -0.0901716744875 0)
(0.00512095974215 -0.0939593958791 0)
(0.00470696968699 -0.0974508852282 0)
(0.0042970099303 -0.100648452873 0)
(0.00389266921358 -0.103555694592 0)
(0.00349545182841 -0.106177277689 0)
(0.0031064494157 -0.108518784214 0)
(0.00272675009628 -0.110586543643 0)
(0.00235707065967 -0.112387521057 0)
(0.00199819734551 -0.113929191852 0)
(0.00165057508572 -0.115219466689 0)
(0.00131477692582 -0.116266598464 0)
(0.000991050855958 -0.117079132947 0)
(0.000679817493911 -0.117665836969 0)
(0.000381177653104 -0.118035662779 0)
(9.54405259353e-05 -0.118197695798 0)
(-0.0001774242642 -0.118161072232 0)
(-0.00043722866101 -0.117935065422 0)
(-0.000684100586234 -0.117528983704 0)
(-0.000917916987927 -0.116952094623 0)
(-0.00113890207357 -0.116213632064 0)
(-0.00134701758967 -0.115322753011 0)
(-0.00154257729226 -0.114288519908 0)
(-0.00172561557012 -0.113119864169 0)
(-0.00189652412235 -0.111825568991 0)
(-0.00205539963613 -0.110414237512 0)
(-0.00220269917333 -0.108894278202 0)
(-0.00233857009324 -0.107273878929 0)
(-0.00246352081833 -0.105560995681 0)
(-0.00257773624311 -0.103763333012 0)
(-0.00268176098233 -0.101888336428 0)
(-0.00277580403538 -0.0999431795299 0)
(-0.00286043121872 -0.097934760083 0)
(-0.00293586253178 -0.0958696935643 0)
(-0.00300267081165 -0.0937543125198 0)
(-0.0030610756115 -0.0915946660982 0)
(-0.00311164470643 -0.0893965220485 0)
(-0.00315458787974 -0.0871653712712 0)
(-0.00319045825067 -0.0849064314697 0)
(-0.00321944964084 -0.0826246557472 0)
(-0.00324209429083 -0.0803247368203 0)
(-0.00325856700156 -0.0780111183113 0)
(-0.00326937612366 -0.0756879982738 0)
(-0.00327467786278 -0.0733593420656 0)
(-0.00327495702025 -0.0710288841035 0)
(-0.00327035435444 -0.0687001411091 0)
(-0.00326133385631 -0.0663764111359 0)
(-0.00324802623547 -0.0640607865226 0)
(-0.00323087916972 -0.0617561496875 0)
(-0.00321001957206 -0.0594651852788 0)
(-0.00318588361025 -0.0571903725477 0)
(-0.00315860065818 -0.0549339968571 0)
(-0.0031285996576 -0.0526981389561 0)
(-0.00309601739237 -0.0504846861542 0)
(-0.00306127817877 -0.0482953190328 0)
(-0.00302452941108 -0.0461315230868 0)
(-0.00298619143048 -0.043994573708 0)
(-0.00294642311805 -0.0418855489819 0)
(-0.00290563918203 -0.0398053136997 0)
(-0.00286400884449 -0.0377545341892 0)
(-0.00282193765549 -0.0357336621376 0)
(-0.00277960214357 -0.0337429519799 0)
(-0.00273739355632 -0.0317824450362 0)
(-0.002695491484 -0.0298519899924 0)
(-0.00265426677258 -0.0279512277849 0)
(-0.00261389688032 -0.0260796153145 0)
(-0.00257472536629 -0.0242364112528 0)
(-0.00253692161551 -0.0224207031821 0)
(-0.00250079396935 -0.0206313946084 0)
(-0.00246649563871 -0.0188672355796 0)
(-0.00243428765559 -0.0171268112974 0)
(-0.00240429001332 -0.0154085764338 0)
(-0.00237668512419 -0.0137108451138 0)
(-0.00235149922236 -0.0120318236192 0)
(-0.00232870573594 -0.0103695813424 0)
(-0.00230794126613 -0.0087220039471 0)
(-0.00228828296579 -0.00708649507331 0)
(-0.00226724846584 -0.00545885072155 0)
(-0.00223786187385 -0.00382977083899 0)
(-0.00216361374054 -0.00215894747693 0)
(-0.00200145705363 -0.000607107236697 0)
(0.0150165217268 -0.00293287149868 0)
(0.0166271160392 -0.00993055891248 0)
(0.0165664095032 -0.016890789695 -1.22891471261e-27)
(0.0163354249105 -0.0238667956667 0)
(0.0160237181199 -0.0307146262073 0)
(0.0156410540096 -0.0374110164009 0)
(0.0151939445518 -0.0439274988289 0)
(0.0146893162095 -0.0502382764494 0)
(0.0141345037865 -0.0563206130425 0)
(0.0135369514384 -0.0621550252065 0)
(0.0129040658738 -0.0677252866758 0)
(0.0122429602917 -0.0730183486579 0)
(0.0115603917328 -0.0780241715032 0)
(0.0108625676907 -0.0827355101066 0)
(0.010155175095 -0.0871476541618 0)
(0.00944324528553 -0.0912581604986 0)
(0.00873126140383 -0.0950665726102 0)
(0.00802306121623 -0.0985741587901 0)
(0.00732199943303 -0.101783657497 0)
(0.00663086378564 -0.1046990553 0)
(0.0059520692155 -0.107325380437 0)
(0.00528756663633 -0.109668532673 0)
(0.0046390518616 -0.111735129009 0)
(0.00400785386158 -0.113532382757 0)
(0.00339514858555 -0.115067993875 0)
(0.00280182070821 -0.11635006661 0)
(0.00222867866945 -0.117387032487 0)
(0.00167628949729 -0.118187593937 0)
(0.00114519549331 -0.118760667693 0)
(0.000635724570692 -0.119115343095 0)
(0.000148209073675 -0.11926083891 0)
(-0.000317214161123 -0.119206467506 0)
(-0.000760378171778 -0.1189615966 0)
(-0.00118131976333 -0.11853562056 0)
(-0.00158003690271 -0.11793792131 0)
(-0.00195672140971 -0.117177840757 0)
(-0.00231151303797 -0.116264645845 0)
(-0.00264474541089 -0.115207502204 0)
(-0.00295668860435 -0.114015443534 0)
(-0.00324780243469 -0.112697347793 0)
(-0.00351846993851 -0.11126191046 0)
(-0.00376925717013 -0.109717624378 0)
(-0.00400063909662 -0.108072758081 0)
(-0.0042132648894 -0.106335340193 0)
(-0.00440767785375 -0.104513143253 0)
(-0.00458458537552 -0.102613672963 0)
(-0.00474457467149 -0.100644157921 0)
(-0.00488838646489 -0.0986115438302 0)
(-0.00501662828481 -0.0965224887403 0)
(-0.00513005100816 -0.0943833617352 0)
(-0.00522926147262 -0.0922002433304 0)
(-0.00531500086835 -0.0899789280212 0)
(-0.00538785828498 -0.0877249287555 0)
(-0.00544854996132 -0.0854434822346 0)
(-0.00549763535249 -0.0831395565349 0)
(-0.005535796039 -0.0808178580501 0)
(-0.00556355567094 -0.0784828407787 0)
(-0.00558155729423 -0.0761387135111 0)
(-0.00559028841087 -0.0737894496879 0)
(-0.00559035521471 -0.0714387936976 0)
(-0.00558221372823 -0.0690902699717 0)
(-0.00556643938149 -0.0667471873103 0)
(-0.00554346508763 -0.0644126465856 0)
(-0.00551384439762 -0.0620895425747 0)
(-0.00547799720413 -0.0597805696973 0)
(-0.00543646477771 -0.0574882211224 0)
(-0.00538966385943 -0.055214792802 0)
(-0.00533813186585 -0.0529623802268 0)
(-0.00528229015266 -0.0507328810749 0)
(-0.00522267791377 -0.0485279901879 0)
(-0.00515972562388 -0.0463492017712 0)
(-0.00509397625795 -0.0441978035012 0)
(-0.00502587002843 -0.042074879 0)
(-0.00495595181154 -0.0399813018785 0)
(-0.00488466850602 -0.0379177394673 0)
(-0.00481256160887 -0.0358846476087 0)
(-0.00474007854861 -0.0338822761713 0)
(-0.00466774949843 -0.0319106651021 0)
(-0.00459601410821 -0.0299696522975 0)
(-0.00452538157957 -0.028058871294 0)
(-0.00445627409003 -0.0261777615853 0)
(-0.00438916914013 -0.0243255680328 0)
(-0.00432446080371 -0.0225013537031 0)
(-0.00426258304848 -0.0207040009145 0)
(-0.00420388934167 -0.0189322261361 0)
(-0.00414875492812 -0.0171845819432 0)
(-0.00409747379482 -0.015459472315 0)
(-0.00405033562556 -0.0137551513443 0)
(-0.00400753554549 -0.0120697286743 0)
(-0.00396921918819 -0.0104011406837 0)
(-0.00393540725466 -0.0087470891465 0)
(-0.00390606028423 -0.00710486283635 0)
(-0.003881186355 -0.00547087860463 0)
(-0.00386095187917 -0.0038389941573 0)
(-0.00383034680698 -0.00222061977293 0)
(-0.00350220411544 -0.000639317550423 0)
(0.0214091262121 -0.0029782137056 0)
(0.0237235809197 -0.0100809826418 0)
(0.0236338677594 -0.017136757115 1.22834415636e-27)
(0.0232992937781 -0.0242090204898 0)
(0.022848650297 -0.0311477590846 0)
(0.0222963875776 -0.0379282136513 0)
(0.0216519518768 -0.0445207399275 0)
(0.0209254304702 -0.0508988352043 0)
(0.0201274853171 -0.0570394114266 0)
(0.0192689676564 -0.0629229309174 0)
(0.0183606091226 -0.0685333664754 0)
(0.0174127248715 -0.073858070151 0)
(0.0164350277659 -0.0788875586772 0)
(0.0154364511515 -0.0836152463856 0)
(0.0144250880902 -0.0880371437029 0)
(0.0134081200351 -0.0921515464372 0)
(0.0123918552666 -0.0959587267826 0)
(0.0113817293435 -0.0994606433964 0)
(0.0103824050444 -0.102660673469 0)
(0.00939780689192 -0.105563376882 0)
(0.0084312477516 -0.108174289111 0)
(0.00748546712507 -0.110499747816 0)
(0.00656275962397 -0.112546745881 0)
(0.00566499818592 -0.11432281305 0)
(0.00479375100464 -0.115835917309 0)
(0.00395028138859 -0.117094387172 0)
(0.00313564899029 -0.118106845974 0)
(0.00235068599757 -0.118882159555 0)
(0.00159608466635 -0.119429389498 0)
(0.000872353866665 -0.11975775422 0)
(0.000179897224008 -0.119876589472 0)
(-0.000481039901542 -0.119795328541 0)
(-0.00111029416254 -0.119523434405 0)
(-0.00170785722086 -0.119070398441 0)
(-0.00227379525292 -0.118445698298 0)
(-0.00280831725233 -0.117658766288 0)
(-0.0033116962144 -0.116718957434 0)
(-0.00378434098436 -0.11563552014 0)
(-0.00422671305461 -0.11441756679 0)
(-0.00463939932291 -0.113074047419 0)
(-0.00502302488462 -0.111613724096 0)
(-0.00537832659825 -0.110045148771 0)
(-0.00570606263291 -0.108376642523 0)
(-0.00600708687855 -0.106616278433 0)
(-0.00628225617175 -0.10477186637 0)
(-0.00653250586702 -0.102850941373 0)
(-0.00675875581868 -0.100860754206 0)
(-0.00696198730069 -0.0988082652131 0)
(-0.00714314873459 -0.0967001404249 0)
(-0.00730323424386 -0.09454275051 0)
(-0.00744319012825 -0.0923421718589 0)
(-0.00756399511345 -0.09010418984 0)
(-0.00766656840629 -0.0878343039146 0)
(-0.00775185173566 -0.0855377341632 0)
(-0.00782071975321 -0.0832194292528 0)
(-0.00787406365113 -0.0808840749019 0)
(-0.00791270440004 -0.0785361033038 0)
(-0.00793747764418 -0.0761797021475 0)
(-0.00794915007527 -0.0738188241172 0)
(-0.00794850489351 -0.071457195096 0)
(-0.00793626126948 -0.0690983224722 0)
(-0.00791315953829 -0.0667455014612 0)
(-0.00787988353108 -0.0644018213522 0)
(-0.00783714435063 -0.0620701692637 0)
(-0.00778560516485 -0.0597532338948 0)
(-0.00772596249008 -0.0574535065903 0)
(-0.00765887311682 -0.0551732827449 0)
(-0.00758503179179 -0.0529146605214 0)
(-0.00750510004812 -0.0506795404573 0)
(-0.0074197795096 -0.0484696225973 0)
(-0.00732974270157 -0.0462864052138 0)
(-0.0072357013532 -0.0441311812975 0)
(-0.00713833948996 -0.0420050373466 0)
(-0.00703837647445 -0.0399088501861 0)
(-0.00693650295643 -0.0378432867676 0)
(-0.00683343847643 -0.0358088021285 0)
(-0.00672987094979 -0.0338056408761 0)
(-0.00662650884341 -0.0318338368635 0)
(-0.00652402494584 -0.029893216833 0)
(-0.0064231030356 -0.0279834021135 0)
(-0.00632438659828 -0.0261038145512 0)
(-0.00622851988899 -0.0242536802441 0)
(-0.00613610212439 -0.0224320376463 0)
(-0.00604772257826 -0.0206377430235 0)
(-0.0059639204627 -0.0188694800686 0)
(-0.00588521345977 -0.0171257659539 0)
(-0.00581206324393 -0.0154049604332 0)
(-0.0057448971084 -0.0137052687255 0)
(-0.0056840809489 -0.0120247426134 0)
(-0.00562994123628 -0.0103612667862 0)
(-0.00558276871676 -0.00871253592012 0)
(-0.00554290217032 -0.00707599915339 0)
(-0.0055108406425 -0.00544879269355 0)
(-0.00548640766845 -0.00382646022003 0)
(-0.00544409666039 -0.00223078344387 0)
(-0.00490148928467 -0.000653387083912 0)
(0.0279085599033 -0.00303775527933 0)
(0.0309287582217 -0.0102787654242 0)
(0.0308074307664 -0.0174670808978 0)
(0.0303639304402 -0.0246687240961 0)
(0.0297670707707 -0.031728826016 0)
(0.0290364327224 -0.0386209168383 0)
(0.0281848928679 -0.0453139199044 0)
(0.0272261276063 -0.0517804176764 0)
(0.0261745141278 -0.057996879354 0)
(0.0250446301564 -0.0639437436181 0)
(0.0238508100443 -0.0696053145377 0)
(0.0226067698418 -0.0749695575468 0)
(0.0213253354304 -0.0800278114471 0)
(0.0200182444573 -0.0847744485487 0)
(0.0186960462812 -0.089206509054 0)
(0.017368055626 -0.0933233339558 0)
(0.0160423822217 -0.0971262128174 0)
(0.0147259841718 -0.100618060167 0)
(0.0134247718897 -0.10380312683 0)
(0.0121437074682 -0.106686750997 0)
(0.0108869344884 -0.109275148065 0)
(0.00965788240611 -0.111575238428 0)
(0.00845938955732 -0.113594508333 0)
(0.00729378823569 -0.115340900322 0)
(0.00616300428428 -0.11682272701 0)
(0.00506861318518 -0.118048604273 0)
(0.00401191229703 -0.119027397997 0)
(0.00299394872002 -0.119768181261 0)
(0.00201556830579 -0.120280197463 0)
(0.00107742184372 -0.120572827805 0)
(0.000179998570032 -0.120655556293 0)
(-0.000676381779403 -0.120537961934 0)
(-0.00149153690105 -0.120229634228 0)
(-0.00226544599437 -0.119740197161 0)
(-0.00299821992775 -0.119079252668 0)
(-0.00369011755293 -0.118256352679 0)
(-0.00434152050924 -0.117280967182 0)
(-0.0049529479223 -0.116162453483 0)
(-0.00552502854451 -0.114910026438 0)
(-0.00605851386137 -0.113532730685 0)
(-0.00655424736975 -0.112039414646 0)
(-0.00701317623439 -0.110438707181 0)
(-0.0074363183143 -0.108738996685 0)
(-0.00782477297976 -0.106948413236 0)
(-0.00817968682006 -0.105074813491 0)
(-0.00850226441031 -0.103125768779 0)
(-0.00879373367849 -0.101108556084 0)
(-0.00905535738764 -0.0990301520938 0)
(-0.00928839911444 -0.0968972299776 0)
(-0.00949413615747 -0.0947161589207 0)
(-0.00967382697057 -0.0924930061115 0)
(-0.00982872608579 -0.0902335409809 0)
(-0.00996005374726 -0.0879432413555 0)
(-0.0100690133202 -0.0856273012201 0)
(-0.0101567636809 -0.0832906398031 0)
(-0.0102244393467 -0.0809379114743 0)
(-0.0102731259311 -0.0785735161959 0)
(-0.0103038829439 -0.0762016099653 0)
(-0.0103177222562 -0.0738261151251 0)
(-0.0103156331183 -0.0714507298674 0)
(-0.0102985632095 -0.0690789369493 0)
(-0.0102674450782 -0.0667140110042 0)
(-0.0102231790123 -0.064359024716 0)
(-0.0101666598198 -0.062016853226 0)
(-0.0100987605899 -0.0596901772711 0)
(-0.0100203586764 -0.0573814845289 0)
(-0.00993231944129 -0.0550930699475 0)
(-0.0098355204069 -0.052827034507 0)
(-0.00973083430417 -0.0505852833916 0)
(-0.00961915068191 -0.048369523041 0)
(-0.00950135793176 -0.0461812582575 0)
(-0.00937836199313 -0.044021788681 0)
(-0.00925106741212 -0.0418922059193 0)
(-0.00912039316068 -0.0397933905272 0)
(-0.00898725310031 -0.0377260102242 0)
(-0.00885256916177 -0.0356905182932 0)
(-0.00871725177485 -0.0336871535995 0)
(-0.00858221079876 -0.0317159409941 0)
(-0.00844833653586 -0.0297766936173 0)
(-0.00831650877293 -0.0278690155928 0)
(-0.0081875789375 -0.0259923066897 0)
(-0.00806237754319 -0.0241457672564 0)
(-0.00794169793171 -0.0223284050514 0)
(-0.00782630227163 -0.02053904202 0)
(-0.00771690722926 -0.0187763225989 0)
(-0.00761418875292 -0.0170387213472 0)
(-0.00751877042426 -0.0153245513182 0)
(-0.00743122851291 -0.0136319702626 0)
(-0.00735208694704 -0.0119589864219 0)
(-0.00728183136485 -0.0103034607412 0)
(-0.00722092903059 -0.0086631120486 0)
(-0.00716988258195 -0.00703552915659 0)
(-0.00712922409849 -0.00541822294122 0)
(-0.00709784176814 -0.00380722295062 0)
(-0.0070404008119 -0.0022259443513 0)
(-0.00631942158822 -0.000654736468063 0)
(0.0345527264444 -0.0031131994201 0)
(0.0382896295932 -0.0105319509188 0)
(0.0381320783388 -0.0178923167502 0)
(0.0375716311952 -0.0252606906215 0)
(0.0368181842336 -0.0324765061168 0)
(0.0358969446956 -0.0395111982055 0)
(0.0348247835012 -0.0463319512602 0)
(0.0336195216022 -0.0529102460645 0)
(0.0322997687084 -0.0592220635384 0)
(0.0308842742949 -0.0652479067947 0)
(0.029391345242 -0.0709726099108 0)
(0.0278383741725 -0.0763850331549 0)
(0.0262414952286 -0.081477671495 0)
(0.0246153571694 -0.0862462156609 0)
(0.0229730101156 -0.0906890989494 0)
(0.021325880555 -0.0948070567755 0)
(0.0196838239551 -0.0986027179921 0)
(0.0180552254155 -0.102080240632 0)
(0.0164471399633 -0.105244998002 0)
(0.0148654455469 -0.108103316936 0)
(0.0133150069208 -0.110662265697 0)
(0.0117998282897 -0.112929487347 0)
(0.0103232000698 -0.114913072116 0)
(0.00888782195848 -0.11662146242 0)
(0.00749591365931 -0.118063383259 0)
(0.00614929834234 -0.119247791824 0)
(0.00484947463039 -0.12018384004 0)
(0.00359766357018 -0.120880845453 0)
(0.00239484920221 -0.121348266153 0)
(0.00124179904295 -0.121595677124 0)
(0.000139085634593 -0.121632741504 0)
(-0.000912914223424 -0.121469216565 0)
(-0.00191399428797 -0.1211148463 0)
(-0.00286413540475 -0.120579420867 0)
(-0.00376348849028 -0.119872697614 0)
(-0.00461237730631 -0.119004379799 0)
(-0.00541128790283 -0.117984082897 0)
(-0.00616086695745 -0.116821302608 0)
(-0.00686190811074 -0.11552538385 0)
(-0.00751534724929 -0.114105491577 0)
(-0.00812224558836 -0.112570583705 0)
(-0.00868378236704 -0.110929386714 0)
(-0.00920123553152 -0.109190374048 0)
(-0.00967597282469 -0.107361747678 0)
(-0.010109431214 -0.105451422825 0)
(-0.0105031075397 -0.103467016018 0)
(-0.0108585378777 -0.101415836344 0)
(-0.0111772888167 -0.0993048799372 0)
(-0.0114609378298 -0.0971408274877 0)
(-0.0117110661805 -0.0949300446723 0)
(-0.0119292412785 -0.0926785852265 0)
(-0.0121170120501 -0.0903921964298 0)
(-0.0122758941015 -0.0880763266769 0)
(-0.0124073682749 -0.0857361347907 0)
(-0.0125128692678 -0.0833765006798 0)
(-0.0125937877959 -0.0810020369002 0)
(-0.0126514629696 -0.078617100717 0)
(-0.0126871881378 -0.0762258061677 0)
(-0.0127022068876 -0.0738320357469 0)
(-0.0126977220976 -0.0714394512274 0)
(-0.0126748948961 -0.0690515033572 0)
(-0.0126348559995 -0.0666714400333 0)
(-0.012578706538 -0.0643023128578 0)
(-0.0125075303539 -0.0619469818148 0)
(-0.0124223953444 -0.0596081181956 0)
(-0.0123243653296 -0.0572882056735 0)
(-0.012214500616 -0.0549895398505 0)
(-0.0120938681793 -0.0527142263061 0)
(-0.0119635404455 -0.0504641776354 0)
(-0.0118246029793 -0.0482411095836 0)
(-0.0116781509726 -0.0460465368371 0)
(-0.0115252941067 -0.0438817685725 0)
(-0.0113671507344 -0.0417479043363 0)
(-0.0112048500939 -0.0396458302917 0)
(-0.0110395245997 -0.0375762163572 0)
(-0.0108723098808 -0.0355395141526 0)
(-0.0107043358226 -0.0335359562144 0)
(-0.0105367250826 -0.0315655562733 0)
(-0.0103705835961 -0.0296281109925 0)
(-0.0102069981811 -0.0277232028226 0)
(-0.0100470271457 -0.0258502043227 0)
(-0.00989169752109 -0.0240082834934 0)
(-0.00974199630387 -0.0221964104232 0)
(-0.00959886774064 -0.0204133646833 0)
(-0.00946320572099 -0.0186577437194 0)
(-0.00933585172085 -0.0169279715935 0)
(-0.00921758937104 -0.0152223083491 0)
(-0.00910914479709 -0.0135388595219 0)
(-0.00901118656048 -0.0118755862517 0)
(-0.00892433407207 -0.0102303169249 0)
(-0.00884917122144 -0.00860077000515 0)
(-0.0087862650321 -0.00698457831649 0)
(-0.00873606520285 -0.00537934096888 0)
(-0.00869664546391 -0.00378110222544 0)
(-0.00862381495363 -0.00221307796259 0)
(-0.00773416455455 -0.000651918044978 0)
(0.0413786864177 -0.00320665104574 0)
(0.0458481824867 -0.0108462501626 0)
(0.0456479689808 -0.018420780904 1.21877439391e-27)
(0.0449597175194 -0.0259960400559 0)
(0.0440358846331 -0.0334043152992 0)
(0.0429079743684 -0.0406144111748 0)
(0.0415975688976 -0.0475914033266 0)
(0.0401273543417 -0.0543054975627 0)
(0.0385208440681 -0.0607321983787 0)
(0.0368015389926 -0.0668522452395 0)
(0.0349921874232 -0.072651298954 0)
(0.0331142040309 -0.078119497679 0)
(0.031187259619 -0.0832509240697 0)
(0.0292290318756 -0.0880430344413 0)
(0.027255099962 -0.0924960912547 0)
(0.0252789549785 -0.0966126301414 0)
(0.0233121004738 -0.100396982046 0)
(0.0213642130497 -0.10385486193 0)
(0.0194433410716 -0.106993027773 0)
(0.0175561180897 -0.109819008038 0)
(0.0157079776468 -0.112340891876 0)
(0.0139033544579 -0.114567174028 0)
(0.0121458670076 -0.11650664526 0)
(0.0104384734219 -0.11816831884 0)
(0.00878360197983 -0.119561383926 0)
(0.00718325285035 -0.12069517749 0)
(0.00563907661986 -0.121579167555 0)
(0.00415242889929 -0.1222229418 0)
(0.00272440876323 -0.12263619715 0)
(0.00135588090176 -0.122828726063 0)
(4.74953377282e-05 -0.122810399225 0)
(-0.00120032499563 -0.122591177677 0)
(-0.00238735284489 -0.122180991243 0)
(-0.003513575151 -0.121589826826 0)
(-0.00457918507725 -0.120827629464 0)
(-0.00558457966526 -0.119904286235 0)
(-0.00653035338326 -0.118829590054 0)
(-0.00741729181051 -0.117613205827 0)
(-0.00824636051953 -0.116264637627 0)
(-0.0090186942631 -0.114793197678 0)
(-0.00973558166085 -0.113207977762 0)
(-0.0103984508253 -0.11151782348 0)
(-0.0110088511129 -0.109731311737 0)
(-0.0115684366239 -0.107856731644 0)
(-0.0120789465384 -0.105902068961 0)
(-0.0125421879887 -0.103874994135 0)
(-0.0129600164296 -0.101782853905 0)
(-0.0133343192521 -0.0996326663658 0)
(-0.0136669974835 -0.0974311193654 0)
(-0.0139599513406 -0.0951845720354 0)
(-0.0142150643942 -0.0928990592314 0)
(-0.0144341921262 -0.0905802985891 0)
(-0.0146191495686 -0.0882336998554 0)
(-0.0147717037738 -0.0858643761138 0)
(-0.0148935657196 -0.0834771564697 0)
(-0.0149863873134 -0.0810765997136 0)
(-0.0150517579795 -0.0786670084436 0)
(-0.0150912063304 -0.0762524431405 0)
(-0.0151062012665 -0.0738367356795 0)
(-0.0150981577996 -0.0714235018001 0)
(-0.0150684418254 -0.0690161520996 0)
(-0.0150183789275 -0.0666179012189 0)
(-0.0149492613814 -0.0642317749698 0)
(-0.0148623582828 -0.0618606152665 0)
(-0.0147589230215 -0.0595070828248 0)
(-0.0146402029355 -0.0571736577368 0)
(-0.0145074455379 -0.0548626381077 0)
(-0.0143619061335 -0.0525761370413 0)
(-0.0142048515004 -0.050316078312 0)
(-0.0140375644588 -0.0480841911295 0)
(-0.0138613443464 -0.045882004413 0)
(-0.013677508206 -0.0437108409668 0)
(-0.0134873880734 -0.041571811956 0)
(-0.0132923290786 -0.0394658119995 0)
(-0.0130936840923 -0.0373935152078 0)
(-0.0128928094442 -0.0353553723363 0)
(-0.0126910577697 -0.0333516092785 0)
(-0.0124897722222 -0.0313822269365 0)
(-0.0122902784138 -0.0294470026097 0)
(-0.0120938779584 -0.0275454927956 0)
(-0.0119018403023 -0.025677037475 0)
(-0.0117153963062 -0.0238407656844 0)
(-0.0115357306223 -0.0220356023962 0)
(-0.0113639759032 -0.0202602764478 0)
(-0.0112012063392 -0.0185133295033 0)
(-0.011048433187 -0.0167931258618 0)
(-0.0109066003847 -0.015097863224 0)
(-0.0107765826796 -0.0134255842717 0)
(-0.0106591851973 -0.0117741905571 0)
(-0.0105551463863 -0.0101414588314 0)
(-0.0104651427841 -0.00852506387799 0)
(-0.0103897866086 -0.00692260583426 0)
(-0.0103294686167 -0.00533164515413 0)
(-0.0102816458747 -0.00374808923555 0)
(-0.0101938154612 -0.00219464471104 0)
(-0.00913968071551 -0.00064681754591 0)
(0.0484275604236 -0.00332022105848 0)
(0.0536496159171 -0.0112282963198 0)
(0.05339838274 -0.0190629828524 -1.21812559129e-27)
(0.0525682472062 -0.0268888120965 0)
(0.0514562167051 -0.0345291681227 0)
(0.0501010355975 -0.0419495745042 0)
(0.0485299553136 -0.0491125830475 0)
(0.0467714726896 -0.0559869797415 0)
(0.0448548708002 -0.0625478874415 0)
(0.0428091381356 -0.0687765719044 0)
(0.0406620432548 -0.0746599533348 0)
(0.0384394348282 -0.0801899694995 0)
(0.0361647733254 -0.0853628523381 0)
(0.0338588766008 -0.0901783842022 0)
(0.0315398482559 -0.0946391849545 0)
(0.0292231498635 -0.0987500656 0)
(0.0269217776198 -0.102517469472 0)
(0.0246465058863 -0.10594900977 0)
(0.0224061662753 -0.109053102845 0)
(0.0202079362153 -0.111838690343 0)
(0.0180576183697 -0.114315039363 0)
(0.0159598968778 -0.116491608021 0)
(0.0139185625393 -0.118377963141 0)
(0.0119367017924 -0.119983737345 0)
(0.0100168489681 -0.121318613595 0)
(0.00816110245827 -0.122392326776 0)
(0.00637120895267 -0.123214673381 0)
(0.00464861970513 -0.123795522468 0)
(0.00299452518762 -0.124144823056 0)
(0.00140987258433 -0.124272599366 0)
(-0.000104620656723 -0.12418896476 0)
(-0.00154848362039 -0.123904074882 0)
(-0.00292147265573 -0.12342810684 0)
(-0.00422358371847 -0.12277126355 0)
(-0.00545505482332 -0.121943712627 0)
(-0.00661636235999 -0.120955558642 0)
(-0.00770821601895 -0.119816805606 0)
(-0.00873155088689 -0.118537320324 0)
(-0.00968751571779 -0.117126796885 0)
(-0.0105774588865 -0.115594723294 0)
(-0.0114029112015 -0.113950350825 0)
(-0.0121655673082 -0.112202666695 0)
(-0.0128672648953 -0.110360370335 0)
(-0.0135099635008 -0.108431853541 0)
(-0.0140957220738 -0.106425184565 0)
(-0.0146266770775 -0.104348096212 0)
(-0.0151050201853 -0.102207977827 0)
(-0.0155329773104 -0.100011871118 0)
(-0.0159127879401 -0.0977664695996 0)
(-0.0162466864955 -0.0954781214938 0)
(-0.0165368846292 -0.0931528358006 0)
(-0.0167855561722 -0.0907962912615 0)
(-0.0169948236032 -0.0884138478414 0)
(-0.0171667477226 -0.0860105603099 0)
(-0.017303319313 -0.0835911934303 0)
(-0.0174064543663 -0.0811602382057 0)
(-0.0174779915095 -0.0787219286065 0)
(-0.0175196930304 -0.0762802581468 0)
(-0.0175332479206 -0.0738389957207 0)
(-0.0175202781051 -0.0714017000969 0)
(-0.0174823460645 -0.0689717325953 0)
(-0.0174209648113 -0.0665522674938 0)
(-0.0173376082698 -0.0641462999064 0)
(-0.0172337228863 -0.0617566509326 0)
(-0.017110738499 -0.0593859701062 0)
(-0.0169700792844 -0.0570367352251 0)
(-0.0168131729209 -0.0547112498579 0)
(-0.0166414588859 -0.0524116388504 0)
(-0.0164563942638 -0.0501398423136 0)
(-0.0162594581513 -0.0478976085527 0)
(-0.0160521533182 -0.0456864864776 0)
(-0.0158360063717 -0.0435078179637 0)
(-0.0156125653568 -0.0413627306448 0)
(-0.0153833961441 -0.0392521315198 0)
(-0.0151500767344 -0.0371767017071 0)
(-0.0149141908391 -0.0351368925917 0)
(-0.0146773199897 -0.0331329235336 0)
(-0.0144410354647 -0.0311647812409 0)
(-0.0142068893372 -0.0292322208369 0)
(-0.0139764058088 -0.0273347686067 0)
(-0.0137510721685 -0.025471726356 0)
(-0.0135323304041 -0.023642177291 0)
(-0.0133215688404 -0.0218449932921 0)
(-0.0131201147128 -0.0200788434684 0)
(-0.0129292271235 -0.0183422038692 0)
(-0.0127500912146 -0.0166333683044 0)
(-0.0125838131252 -0.0149504603077 0)
(-0.012431416497 -0.0132914466042 0)
(-0.0122938400856 -0.0116541520672 0)
(-0.0121719369067 -0.0100362770616 0)
(-0.0120664727575 -0.00843542367611 0)