/*--------------------------------*- C++ -*----------------------------------*\
| =========                 |                                                 |
| \\      /  F ield         | OpenFOAM: The Open Source CFD Toolbox           |
|  \\    /   O peration     | Version:  v1906                                 |
|   \\  /    A nd           | Web:      www.OpenFOAM.com                      |
|    \\/     M anipulation  |                                                 |
\*---------------------------------------------------------------------------*/
FoamFile
{
    version     2.0;
    format      ascii;
    class       volVectorField;
    location    "314";
    object      U;
}
// * * * * * * * * * * * * * * * * * * * * * * * * * * * * * * * * * * * * * //

dimensions      [0 1 -1 0 0 0 0];


internalField   nonuniform List<vector> 
9216
(
(0.00159646379298 -0.00159813033698 0)
(0.00158896369637 -0.0048574423064 6.54255951199e-28)
(0.00158314133835 -0.00817758857483 1.08875670408e-31)
(0.00156200542208 -0.0114608456076 0)
(0.00153146595214 -0.0146891894233 0)
(0.00149329691847 -0.0178453201324 0)
(0.00144864891745 -0.020914739382 0)
(0.00139835851916 -0.023884895362 0)
(0.00134331575253 -0.0267449463828 0)
(0.00128425728085 -0.0294857895136 0)
(0.00122202966585 -0.0320999211421 0)
(0.00115728071172 -0.0345814546557 0)
(0.00109077189875 -0.0369259203083 0)
(0.00102301185616 -0.0391302329002 0)
(0.000954637676376 -0.0411924436033 0)
(0.000885992125138 -0.0431116864111 0)
(0.000817577713239 -0.0448879132687 0)
(0.000749572336341 -0.0465218470567 0)
(0.000682356178032 -0.0480147255447 0)
(0.00061596067056 -0.0493682787613 0)
(0.000550668360921 -0.050584495301 0)
(0.000486390844875 -0.0516656293208 0)
(0.000423340648425 -0.0526139956773 0)
(0.000361336789491 -0.0534320053474 0)
(0.00030054796511 -0.0541219898256 0)
(0.00024072622084 -0.0546862580652 0)
(0.00018201853192 -0.055126951413 0)
(0.000124132817118 -0.0554461156044 0)
(6.72138450342e-05 -0.0556455873993 0)
(1.09484620169e-05 -0.0557270717994 0)
(-4.45058696908e-05 -0.0556920760925 0)
(-9.94653453689e-05 -0.0555419653942 0)
(-0.000153739443786 -0.0552779495072 0)
(-0.000207616909642 -0.0549011541907 0)
(-0.000260861282714 -0.0544126369781 0)
(-0.000313711900238 -0.0538134515881 0)
(-0.000365872082723 -0.0531047214295 0)
(-0.000417506717973 -0.0522876816591 0)
(-0.000468250224394 -0.0513638142485 0)
(-0.000518172928639 -0.0503348561966 0)
(-0.000566839115063 -0.0492029938581 0)
(-0.000614210925654 -0.0479708242939 0)
(-0.00065978937284 -0.0466416045268 0)
(-0.000703421191299 -0.0452191595595 0)
(-0.000744554907651 -0.0437081784189 0)
(-0.000782917601366 -0.0421140725965 0)
(-0.00081791536143 -0.0404433078078 0)
(-0.000849155847437 -0.0387032281441 0)
(-0.000876016201591 -0.036902395529 0)
(-0.000898007104487 -0.0350503881534 0)
(-0.000914520475309 -0.0331580804087 0)
(-0.000925053492645 -0.0312373916013 0)
(-0.000929124773163 -0.0293013895304 0)
(-0.000926390642418 -0.0273639372434 0)
(-0.000916672994509 -0.0254395105934 0)
(-0.000899994001717 -0.0235427266837 0)
(-0.000876622695589 -0.0216879046275 0)
(-0.000847043359827 -0.0198885756438 0)
(-0.000811954825476 -0.0181569984105 0)
(-0.000772205228895 -0.0165038153374 0)
(-0.000728749717587 -0.0149377513385 0)
(-0.000682595946465 -0.0134654723308 0)
(-0.000634757731879 -0.0120915307411 0)
(-0.000586202998093 -0.010818384165 0)
(-0.000537829363841 -0.00964656847788 0)
(-0.000490398175507 -0.00857485045429 0)
(-0.000444566648264 -0.00760055929436 0)
(-0.00040080764595 -0.00671980809706 0)
(-0.000359513776302 -0.00592785087328 0)
(-0.000320896764074 -0.0052192832579 0)
(-0.000285141435638 -0.00458831773095 0)
(-0.00025227251734 -0.00402893056275 0)
(-0.000222328374916 -0.00353504585917 0)
(-0.000195202458863 -0.00310065504861 0)
(-0.000170826305347 -0.00271993450439 0)
(-0.000149008472303 -0.0023873394757 0)
(-0.000129616759098 -0.00209765864928 0)
(-0.000112421115083 -0.0018460702396 0)
(-9.72610825015e-05 -0.00162815000096 0)
(-8.38868298912e-05 -0.0014399047957 0)
(-7.20887259615e-05 -0.00127779621424 0)
(-6.14808136083e-05 -0.00113882072504 0)
(-5.12226021313e-05 -0.00102201110327 0)
(-3.91920589138e-05 -0.000912421001634 0)
(-3.59216839816e-05 -0.000848675420623 0)
(-3.62862623726e-05 -0.000774402436929 0)
(-3.19876588888e-05 -0.000700391994305 0)
(-2.72236680465e-05 -0.000641949893603 0)
(-2.78302166634e-05 -0.000593058025842 0)
(-3.0975893462e-05 -0.000534074269734 0)
(-3.1509125458e-05 -0.000473943585859 0)
(-3.24724232796e-05 -0.000408430879103 0)
(-3.75568704802e-05 -0.000335926342298 0)
(-4.2913205202e-05 -0.000255539746951 0)
(-4.82286041786e-05 -0.000157429715109 0)
(-5.14951807829e-05 -5.02354584929e-05 0)
(0.00486887312674 -0.00160715632291 0)
(0.00512136416435 -0.00516180284615 0)
(0.00508925841528 -0.00869841063418 -6.72751343472e-28)
(0.00501527928657 -0.0122064232881 0)
(0.00491489955256 -0.0156474146531 0)
(0.00479130132569 -0.0190087364339 0)
(0.00464725462143 -0.0222759829141 0)
(0.00448528409471 -0.0254361335311 0)
(0.00430807289867 -0.0284778017327 0)
(0.00411809202701 -0.0313913841732 0)
(0.00391793454674 -0.0341690204257 0)
(0.00370983141302 -0.0368045614423 0)
(0.00349607631336 -0.0392934172045 0)
(0.003278475477 -0.0416324509609 0)
(0.00305888863586 -0.0438197739982 0)
(0.0028386126259 -0.0458546134031 0)
(0.00261904026731 -0.0477370946027 0)
(0.00240096557846 -0.0494681161242 0)
(0.0021853557236 -0.0510491468205 0)
(0.00197256498415 -0.0524821265593 0)
(0.0017632149608 -0.053769291606 0)
(0.00155730734345 -0.0549131078611 0)
(0.00135520822102 -0.0559161281567 0)
(0.00115665525327 -0.0567809565483 0)
(0.000961843393104 -0.0575101359911 0)
(0.000770326831566 -0.0581061385835 0)
(0.000582202135994 -0.0585712811056 0)
(0.000396911126493 -0.0589077356323 0)
(0.000214515713197 -0.0591174712151 0)
(3.44124176308e-05 -0.059202281629 0)
(-0.000143314340186 -0.0591637470134 0)
(-0.000319249841035 -0.0590032952978 0)
(-0.00049322575464 -0.0587221852492 0)
(-0.000665733797235 -0.0583215617482 0)
(-0.000836464891593 -0.0578024927188 0)
(-0.00100574689631 -0.0571660309583 0)
(-0.00117307477299 -0.0564132876447 0)
(-0.00133854422883 -0.0555454984035 0)
(-0.00150141327789 -0.0545641332848 0)
(-0.00166149355528 -0.0534709584267 0)
(-0.00181778828945 -0.0522681764306 0)
(-0.00196979648377 -0.0509584723346 0)
(-0.00211627424756 -0.0495451764757 0)
(-0.00225640057073 -0.0480322870602 0)
(-0.00238870569175 -0.0464246484839 0)
(-0.00251204869734 -0.0447279515331 0)
(-0.00262475286443 -0.0429489248715 0)
(-0.0027253627045 -0.0410953227682 0)
(-0.00281202528328 -0.0391761207085 0)
(-0.00288303429529 -0.0372014888003 0)
(-0.00293649297903 -0.0351829438817 0)
(-0.00297069656837 -0.0331332586545 0)
(-0.00298407825527 -0.0310664600715 0)
(-0.00297548013853 -0.0289975712403 0)
(-0.00294428626441 -0.0269423323242 0)
(-0.00289055668792 -0.0249167199359 0)
(-0.00281514570523 -0.0229364098565 0)
(-0.00271964284716 -0.0210162081917 0)
(-0.00260633002194 -0.0191694997337 0)
(-0.00247797876536 -0.0174078409892 0)
(-0.00233770511465 -0.0157406506774 0)
(-0.00218878550973 -0.014175056838 0)
(-0.00203451210756 -0.0127158417622 0)
(-0.00187803519777 -0.0113654852481 0)
(-0.00172224630605 -0.0101243344944 0)
(-0.00156962886416 -0.0089908246422 0)
(-0.00142225952516 -0.00796181688511 0)
(-0.00128168899791 -0.00703290754968 0)
(-0.0011491087388 -0.0061987868856 0)
(-0.00102523674776 -0.00545350262028 0)
(-0.000910585378013 -0.00479071910805 0)
(-0.00080529023105 -0.00420389229384 0)
(-0.000709391035913 -0.0036864397829 0)
(-0.000622609821644 -0.00323187597068 0)
(-0.000544640722185 -0.00283393553394 0)
(-0.000474932261334 -0.00248667100933 0)
(-0.00041297915581 -0.00218451596079 0)
(-0.0003581096235 -0.00192232759622 0)
(-0.000309748114216 -0.00169539398933 0)
(-0.000267194789643 -0.0014994281313 0)
(-0.000229830063769 -0.00133052034014 0)
(-0.000196817482498 -0.00118500229295 0)
(-0.000167099889083 -0.0010594421507 0)
(-0.000137837024738 -0.000946086550887 0)
(-0.00011877107582 -0.000832399275029 0)
(-0.000112351017697 -0.000762435261338 0)
(-9.53201761076e-05 -0.000681741713689 0)
(-8.16196890971e-05 -0.000627778899017 0)
(-8.13656810766e-05 -0.000569497458172 0)
(-8.92828514381e-05 -0.000523391765746 0)
(-9.40033470494e-05 -0.000473211098053 0)
(-0.000100743934408 -0.000404319728882 0)
(-0.000112393032292 -0.000330210688306 0)
(-0.000140040725577 -0.000263246562097 0)
(-0.000171155051627 -0.000168528360242 0)
(-0.0001532245758 -4.59306357827e-05 0)
(0.00825341288204 -0.00163403277428 0)
(0.00869023043516 -0.00523445162169 0)
(0.0086155978914 -0.00880022026411 -6.71805886355e-28)
(0.00848360322595 -0.0123472575404 0)
(0.00831016619081 -0.0158254942023 0)
(0.00809863931229 -0.019221283973 0)
(0.00785286466272 -0.0225196610945 0)
(0.00757699745447 -0.0257073791237 0)
(0.0072754337136 -0.02877297922 0)
(0.00695250624513 -0.0317068844543 0)
(0.00661250494363 -0.0345013676402 0)
(0.00625939146193 -0.0371504777492 0)
(0.00589690404452 -0.0396498952659 0)
(0.00552828999037 -0.0419967796224 0)
(0.00515649850949 -0.0441895737445 0)
(0.00478392364027 -0.0462278270469 0)
(0.00441267565726 -0.0481119945363 0)
(0.004044317151 -0.0498432716018 0)
(0.0036801978158 -0.051423415411 0)
(0.00332116560609 -0.0528546104373 0)
(0.00296795143616 -0.0541393236018 0)
(0.00262084202061 -0.0552802054771 0)
(0.00228010569454 -0.0562799803956 0)
(0.00194562013538 -0.0571413806429 0)
(0.00161733509354 -0.0578670671525 0)
(0.00129485393044 -0.0584595907323 0)
(0.000977931709493 -0.0589213388101 0)
(0.000666014014617 -0.0592545186114 0)
(0.000358769515883 -0.059461126519 0)
(5.5592024429e-05 -0.0595429498272 0)
(-0.000243833190322 -0.0595015606031 0)
(-0.000540056159997 -0.0593383321105 0)
(-0.000833271562125 -0.0590544587191 0)
(-0.00112386295385 -0.0586509947465 0)
(-0.00141179469895 -0.058128898673 0)
(-0.00169716765365 -0.0574890928863 0)
(-0.00197961036189 -0.0567325370662 0)
(-0.00225883576305 -0.0558603053328 0)
(-0.00253405182983 -0.0548736858634 0)
(-0.00280450779342 -0.0537742680664 0)
(-0.00306894570903 -0.0525640593511 0)
(-0.00332611944932 -0.0512455704784 0)
(-0.0035743052085 -0.0498219383784 0)
(-0.00381176858201 -0.0482969994928 0)
(-0.00403634506789 -0.0466754115913 0)
(-0.00424582732778 -0.0449627152141 0)
(-0.00443762569864 -0.0431654603839 0)
(-0.00460906419036 -0.0412912711919 0)
(-0.00475714914014 -0.0393489881066 0)
(-0.00487880882641 -0.0373487410028 0)
(-0.0049708326969 -0.0353020800368 0)
(-0.00503013947354 -0.0332219968065 0)
(-0.00505394359777 -0.0311229189557 0)
(-0.00504010089262 -0.029020525599 0)
(-0.00498741584019 -0.0269314138151 0)
(-0.00489592459545 -0.0248725844028 0)
(-0.00476705371103 -0.022860780383 0)
(-0.00460360190774 -0.0209118054119 0)
(-0.00440956456338 -0.0190398644516 0)
(-0.00418981316569 -0.0172570961534 0)
(-0.00394977389394 -0.0155732717622 0)
(-0.0036951479044 -0.0139956457283 0)
(-0.00343164270191 -0.0125289244719 0)
(-0.00316472667045 -0.0111753148495 0)
(-0.0028993763951 -0.00993471580443 0)
(-0.00263987577123 -0.00880499975403 0)
(-0.00238970810864 -0.00778239414201 0)
(-0.00215150675364 -0.00686188305236 0)
(-0.00192716002649 -0.00603759065558 0)
(-0.00171787851661 -0.00530309599213 0)
(-0.0015243889609 -0.00465166797126 0)
(-0.00134695726721 -0.00407643446584 0)
(-0.00118552961734 -0.00357052727904 0)
(-0.00103968618264 -0.00312721759733 0)
(-0.000908783301267 -0.00274004583261 0)
(-0.000791934185092 -0.00240292258411 0)
(-0.000688168286402 -0.00211019257413 0)
(-0.000596409069329 -0.00185666398914 0)
(-0.000515605153822 -0.00163761003257 0)
(-0.000444689622611 -0.00144874485768 0)
(-0.000382686648969 -0.00128617158074 0)
(-0.000328677315864 -0.00114625639175 0)
(-0.000281968449012 -0.00102583034076 0)
(-0.000242840674129 -0.000917604850515 0)
(-0.000210538826641 -0.000813183376056 0)
(-0.000188775464878 -0.000741515581279 0)
(-0.000167114188195 -0.000679512642743 0)
(-0.000143433577413 -0.000598860100495 0)
(-0.000130411415969 -0.000529293044106 0)
(-0.000137142885873 -0.000489368214554 0)
(-0.000161121187625 -0.000458805829863 0)
(-0.000167334303155 -0.000366782184005 0)
(-0.000193077813859 -0.000304826330162 0)
(-0.000227553592965 -0.000223781404528 0)
(-0.000256898147716 -0.000135333204568 0)
(-0.000248934178991 -4.17632908442e-05 0)
(0.0116867214489 -0.00166251027968 0)
(0.0123209095928 -0.00531931931637 0)
(0.0122130663018 -0.00893574837627 6.71717044663e-28)
(0.0120225934519 -0.0125338331681 0)
(0.0117728522005 -0.0160599673416 0)
(0.0114689763554 -0.0194995336407 0)
(0.0111164835154 -0.0228368750902 0)
(0.0107214147661 -0.0260583808832 0)
(0.0102900972953 -0.0291524662131 0)
(0.00982884938398 -0.0321096167654 0)
(0.00934381866207 -0.0349223293866 0)
(0.00884075990876 -0.0375849957471 0)
(0.00832496923314 -0.0400937321159 0)
(0.00780113646535 -0.0424461851762 0)
(0.00727337124418 -0.044641316201 0)
(0.00674511548082 -0.0466791897979 0)
(0.00621924072496 -0.0485607631451 0)
(0.0056979943681 -0.050287696894 0)
(0.00518314204363 -0.0518621772252 0)
(0.00467592178595 -0.0532867661795 0)
(0.00417720985651 -0.0545642653193 0)
(0.0036874645278 -0.0556976074499 0)
(0.00320690214865 -0.0566897590628 0)
(0.00273542155372 -0.0575436473712 0)
(0.00227278520825 -0.0582620942544 0)
(0.00181852242711 -0.0588477708425 0)
(0.0013721156088 -0.0593031559046 0)
(0.000932885437182 -0.0596305117347 0)
(0.000500184818574 -0.0598318627591 0)
(7.32711977453e-05 -0.0599089892301 0)
(-0.000348488736956 -0.0598634292654 0)
(-0.000765754176655 -0.0596964843509 0)
(-0.00117899573624 -0.0594092467634 0)
(-0.00158863335438 -0.0590026331154 0)
(-0.00199481490629 -0.0584774305651 0)
(-0.00239755700802 -0.0578343580657 0)
(-0.00279652608495 -0.0570741409127 0)
(-0.00319118430983 -0.0561975964904 0)
(-0.00358058618928 -0.0552057338228 0)
(-0.00396353239435 -0.0540998564154 0)
(-0.00433839450631 -0.0528816754917 0)
(-0.00470327437605 -0.0515534151383 0)
(-0.00505586208625 -0.0501179233842 0)
(-0.00539358626263 -0.0485787649588 0)
(-0.0057134969594 -0.046940319964 0)
(-0.00601238213922 -0.0452078642194 0)
(-0.00628666399701 -0.0433876697014 0)
(-0.00653247177684 -0.0414871004928 0)
(-0.00674557316276 -0.0395147522505 0)
(-0.00692145980653 -0.0374805961945 0)
(-0.00705541200358 -0.0353961598788 0)
(-0.00714274370318 -0.0332746634048 0)
(-0.0071791364457 -0.0311310952759 0)
(-0.00716114418381 -0.0289820947204 0)
(-0.00708672703483 -0.0268456093928 0)
(-0.00695574556967 -0.0247402654785 0)
(-0.00677021579281 -0.022684528201 0)
(-0.00653432713544 -0.0206957978871 0)
(-0.00625409474086 -0.0187895550182 0)
(-0.00593681027113 -0.0169788067531 0)
(-0.0055905209655 -0.0152738176654 0)
(-0.00522362717526 -0.0136820094521 0)
(-0.00484453816819 -0.0122079399891 0)
(-0.00446129458292 -0.0108533626407 0)
(-0.00408118044318 -0.00961744101627 0)
(-0.00371040268657 -0.00849711462644 0)
(-0.00335390162977 -0.00748758908377 0)
(-0.00301532631026 -0.00658285844978 0)
(-0.0026971775299 -0.00577618133926 0)
(-0.00240101551404 -0.00506043378033 0)
(-0.00212771132521 -0.00442832461461 0)
(-0.00187757483669 -0.0038725179275 0)
(-0.00165043669216 -0.00338573420478 0)
(-0.00144565670085 -0.00296088670979 0)
(-0.00126220799288 -0.00259123226132 0)
(-0.00109877132224 -0.002270486105 0)
(-0.000953869936028 -0.00199288232735 0)
(-0.00082594560238 -0.00175318826885 0)
(-0.000713451050244 -0.0015466933726 0)
(-0.000614890719457 -0.0013691786852 0)
(-0.000528893143637 -0.00121687575663 0)
(-0.00045426839829 -0.00108638983747 0)
(-0.000390196114875 -0.000975380794828 0)
(-0.000337313808728 -0.000872804217295 0)
(-0.000296042903833 -0.000785912785039 0)
(-0.000263792843516 -0.000715878506951 0)
(-0.000235320414727 -0.00064380545213 0)
(-0.000207878023441 -0.000563838083254 0)
(-0.000197196383154 -0.00051170792184 0)
(-0.000190557782786 -0.000439439686912 0)
(-0.000207226459757 -0.000380033251115 0)
(-0.000249308629219 -0.000341246958379 0)
(-0.000263227271363 -0.000248718468821 0)
(-0.000300165791727 -0.000175185855595 0)
(-0.000337845561733 -0.000107629514254 0)
(-0.000336334157846 -3.53710025069e-05 0)
(0.0151861350541 -0.00169850139192 0)
(0.0160126596262 -0.00543191591583 0)
(0.0158697659255 -0.00912077697999 0)
(0.0156175409925 -0.0127887806615 0)
(0.015287028761 -0.0163799686832 0)
(0.0148854337464 -0.0198786704261 0)
(0.0144203015957 -0.0232684142456 0)
(0.0138998380967 -0.0265351253895 0)
(0.0133325679718 -0.0296670666761 0)
(0.0127269858004 -0.03265484019 0)
(0.0120912840027 -0.0354912818448 0)
(0.0114331124878 -0.0381712917966 0)
(0.0107594318723 -0.0406916152591 0)
(0.0100763925659 -0.0430505979618 0)
(0.00938930482682 -0.0452479306778 0)
(0.00870261318423 -0.0472844008655 0)
(0.00801994942777 -0.0491616580885 0)
(0.0073441632449 -0.0508820036961 0)
(0.00667741916049 -0.0524482043218 0)
(0.00602124732803 -0.0538633339102 0)
(0.00537665412809 -0.0551306392923 0)
(0.00474416919373 -0.0562534310801 0)
(0.00412395263557 -0.0572349932059 0)
(0.0035158273282 -0.0580785119731 0)
(0.00291937704891 -0.0587870179933 0)
(0.00233396269072 -0.0593633422687 0)
(0.00175881301595 -0.0598100810011 0)
(0.00119302912027 -0.0601295710209 0)
(0.000635673038088 -0.0603238720589 0)
(8.57670248961e-05 -0.0603947573252 0)
(-0.000457614012161 -0.0603437181059 0)
(-0.000995342298407 -0.0601719627401 0)
(-0.00152813824347 -0.0598804466307 0)
(-0.00205656619359 -0.0594699014223 0)
(-0.00258092978502 -0.0589408823264 0)
(-0.00310126679483 -0.0582938303448 0)
(-0.00361724722382 -0.0575291507669 0)
(-0.00412817576099 -0.0566473058713 0)
(-0.00463290638703 -0.0556489224026 0)
(-0.00512986385131 -0.0545349069513 0)
(-0.00561698820519 -0.0533065682119 0)
(-0.00609178094523 -0.0519657356041 0)
(-0.00655128115992 -0.050514872996 0)
(-0.00699212300139 -0.048957177028 0)
(-0.0074105221581 -0.0472966650505 0)
(-0.00780230866257 -0.0455382500613 0)
(-0.00816288858835 -0.0436878237114 0)
(-0.00848722527223 -0.0417523560074 0)
(-0.00876978447482 -0.0397400502954 0)
(-0.00900453052871 -0.0376605496135 0)
(-0.00918500206591 -0.0355252270194 0)
(-0.00930456400228 -0.0333474760382 0)
(-0.00935689278171 -0.031142965048 0)
(-0.00933671616941 -0.028929652535 0)
(-0.00924069298605 -0.0267274430242 0)
(-0.00906825280094 -0.024557394061 0)
(-0.00882200643645 -0.0224405783607 0)
(-0.00850783523968 -0.0203967995155 0)
(-0.00813428765955 -0.0184433654178 0)
(-0.00771157135806 -0.0165944473959 0)
(-0.00725075305468 -0.0148609258359 0)
(-0.00676330193021 -0.0132504175536 0)
(-0.00626070707206 -0.0117672694791 0)
(-0.00575396115629 -0.0104125633434 0)
(-0.0052529698164 -0.00918436440745 0)
(-0.00476604329801 -0.00807820131219 0)
(-0.00429960512447 -0.00708774345886 0)
(-0.00385819217699 -0.00620553520911 0)
(-0.00344471146287 -0.00542361166821 0)
(-0.00306084849566 -0.00473392184069 0)
(-0.00270747423908 -0.00412848396269 0)
(-0.00238485799953 -0.00359938514553 0)
(-0.00209269009948 -0.00313880678319 0)
(-0.00183002943149 -0.00273916220551 0)
(-0.00159537472032 -0.00239331244132 0)
(-0.00138684871113 -0.00209471789313 0)
(-0.0012023866085 -0.00183748400564 0)
(-0.00103986261677 -0.001616348175 0)
(-0.000897183925887 -0.00142664602855 0)
(-0.000772356526245 -0.00126426728751 0)
(-0.000663541543503 -0.00112562016104 0)
(-0.000569104517757 -0.00100761094359 0)
(-0.000487916636282 -0.00090855232808 0)
(-0.000418274551773 -0.00081124534459 0)
(-0.000376446673563 -0.000749793508865 0)
(-0.000341654364259 -0.00068303210493 0)
(-0.000315474365797 -0.000616399912455 0)
(-0.00028516473317 -0.000539126940694 0)
(-0.000255237307797 -0.000448643354387 0)
(-0.000254990441855 -0.000392415469918 0)
(-0.000260438077286 -0.000318983821849 0)
(-0.000304898186481 -0.000277270769499 0)
(-0.000355248883929 -0.000221296417508 0)
(-0.000368307852008 -0.000141246752589 0)
(-0.000390910660269 -8.28140109124e-05 0)
(-0.000389796717176 -2.75670164138e-05 0)
(0.0187697486374 -0.00174397713892 0)
(0.0197900610705 -0.0055759163462 0)
(0.0196087770488 -0.00935917668556 0)
(0.0192897951665 -0.0131174424661 0)
(0.0188721334305 -0.0167921266018 0)
(0.0183653697841 -0.0203662934594 0)
(0.0177794601138 -0.0238225079562 0)
(0.017125140012 -0.0271461568177 0)
(0.0164134721202 -0.030325365732 0)
(0.0156554049722 -0.0333509526496 0)
(0.0148614077915 -0.0362162590799 0)
(0.0140411814973 -0.0389169084839 0)
(0.0132034638481 -0.0414505166274 0)
(0.012355907802 -0.0438163805417 0)
(0.0115050404961 -0.0460151673812 0)
(0.010656270085 -0.0480486202154 0)
(0.00981394668728 -0.0499192910689 0)
(0.00898144082838 -0.051630307854 0)
(0.00816125132903 -0.0531851762928 0)
(0.00735510660085 -0.054587616569 0)
(0.00656407975714 -0.0558414307743 0)
(0.00578868277598 -0.0569503979839 0)
(0.00502896841523 -0.0579181914576 0)
(0.00428460521483 -0.0587483147426 0)
(0.00355496106702 -0.059444051709 0)
(0.00283915919351 -0.0600084285033 0)
(0.00213614734768 -0.0604441837 0)
(0.001444741555 -0.0607537463222 0)
(0.000763689234849 -0.0609392196278 0)
(9.17098215174e-05 -0.0610023704982 0)
(-0.000572439272707 -0.0609446334063 0)
(-0.00122991653979 -0.060767103231 0)
(-0.00188172220543 -0.0604705649479 0)
(-0.00252864309528 -0.0600555184007 0)
(-0.00317116945794 -0.0595222241784 0)
(-0.00380943553869 -0.0588707676009 0)
(-0.0044431372799 -0.0581011408741 0)
(-0.00507148182993 -0.0572133453646 0)
(-0.00569312448573 -0.0562075101542 0)
(-0.00630614678635 -0.0550840248225 0)
(-0.00690803262765 -0.0538436773369 0)
(-0.00749568870409 -0.0524877908249 0)
(-0.00806546414183 -0.0510183459684 0)
(-0.00861319930277 -0.0494380841019 0)
(-0.0091342554776 -0.0477505812071 0)
(-0.00962353407543 -0.0459603034971 0)
(-0.0100754470095 -0.0440726562577 0)
(-0.0104838373762 -0.0420940632729 0)
(-0.0108418621558 -0.0400321212088 0)
(-0.0111418701855 -0.0378958741762 0)
(-0.0113753956744 -0.0356962503298 0)
(-0.0115333728212 -0.0334466076002 0)
(-0.0116067511027 -0.0311632973532 0)
(-0.0115875868152 -0.0288659412203 0)
(-0.0114704771767 -0.0265771886924 0)
(-0.0112539911042 -0.0243216180303 0)
(-0.0109412841551 -0.0221241463109 0)
(-0.0105404957 -0.0200081115745 0)
(-0.0100636000164 -0.0179933206674 0)
(-0.00952447613783 -0.0160952990119 0)
(-0.00893771254263 -0.014325572656 0)
(-0.00831826679624 -0.0126919856226 0)
(-0.0076812338336 -0.0111986192515 0)
(-0.0070411331539 -0.00984564343067 0)
(-0.00641098106532 -0.00862953932666 0)
(-0.00580146968566 -0.00754376433815 0)
(-0.00522051003419 -0.00657975072059 0)
(-0.00467328768037 -0.00572797603275 0)
(-0.0041627377043 -0.00497884753475 0)
(-0.00369028817308 -0.00432320521791 0)
(-0.00325658520902 -0.00375234171337 0)
(-0.00286181501018 -0.00325774044948 0)
(-0.00250554839471 -0.00283091147966 0)
(-0.00218647823136 -0.00246357645396 0)
(-0.00190246396216 -0.00214805603331 0)
(-0.00165088930226 -0.00187750193436 0)
(-0.00142897460373 -0.0016458996944 0)
(-0.00123392727287 -0.00144798863121 0)
(-0.00106304615515 -0.00127918996555 0)
(-0.000913777373656 -0.00113553863845 0)
(-0.000783761429954 -0.00101362472209 0)
(-0.000670868879477 -0.000910733400907 0)
(-0.000573966317418 -0.00082356589607 0)
(-0.000489959648646 -0.000736009667736 0)
(-0.000442712334808 -0.000677719200259 0)
(-0.000407848987443 -0.000616079442733 0)
(-0.000370749043393 -0.000540289405111 0)
(-0.000352726836171 -0.000484874580201 0)
(-0.000340594205204 -0.000423464655084 0)
(-0.000340112877464 -0.000362381767713 0)
(-0.000320989570159 -0.000272035963003 0)
(-0.000344652948326 -0.000212472444827 0)
(-0.000409066049329 -0.000177662763466 0)
(-0.000433788049045 -0.000121821007606 0)
(-0.00044136123842 -6.86386588715e-05 0)
(-0.000441487794372 -2.28447405892e-05 0)
(0.0224589712337 -0.00180036074892 0)
(0.0236763280104 -0.00575494534685 0)
(0.0234519852044 -0.00965601429812 6.66978910526e-28)
(0.0230594021721 -0.0135264781024 0)
(0.0225460438389 -0.0173044275337 0)
(0.0219242767135 -0.020971346678 0)
(0.0212069452132 -0.0245086461795 0)
(0.0204077891642 -0.0279011156538 0)
(0.0195408446288 -0.0311368041171 0)
(0.0186198781656 -0.0342069070492 0)
(0.0176579225193 -0.0371055079806 0)
(0.0166669270153 -0.0398292385308 0)
(0.015657528172 -0.042376891874 0)
(0.01463892705 -0.0447490243575 0)
(0.0136188613412 -0.0469475715562 0)
(0.0126036469387 -0.0489754979429 0)
(0.0115982735754 -0.0508364907096 0)
(0.010606529412 -0.0525347025008 0)
(0.00963114471353 -0.0540745420638 0)
(0.00867393524461 -0.0554605090489 0)
(0.00773594382267 -0.0566970667218 0)
(0.00681756674146 -0.0577885460489 0)
(0.00591867055063 -0.0587390744025 0)
(0.00503868980523 -0.0595525229508 0)
(0.00417671590913 -0.0602324676256 0)
(0.00333156932513 -0.0607821595677 0)
(0.00250186794895 -0.0612045021772 0)
(0.00168608411698 -0.0615020326178 0)
(0.000882604508094 -0.0616769071949 0)
(8.97847469108e-05 -0.0617308885399 0)
(-0.000693986593627 -0.0616653479803 0)
(-0.00147022347489 -0.0614812492664 0)
(-0.00224026601867 -0.0611791768605 0)
(-0.00300520074356 -0.0607593524295 0)
(-0.00376576884678 -0.0602216786034 0)
(-0.00452227680887 -0.0595658020774 0)
(-0.00527450154412 -0.0587912010423 0)
(-0.00602160918715 -0.0578972971301 0)
(-0.00676208270929 -0.0568835914735 0)
(-0.0074936789863 -0.0557498192602 0)
(-0.00821341033254 -0.0544961143356 0)
(-0.00891756648233 -0.0531231713461 0)
(-0.00960176353512 -0.0516323878211 0)
(-0.0102610194175 -0.0500259725602 0)
(-0.0108898253947 -0.0483070039541 0)
(-0.0114821873237 -0.046479445618 0)
(-0.0120315963185 -0.0445481308866 0)
(-0.0125308898151 -0.0425187748329 0)
(-0.0129720113682 -0.0403980865472 0)
(-0.013345688546 -0.0381940863009 0)
(-0.0136412007382 -0.0359167325136 0)
(-0.0138464248752 -0.0335788339719 0)
(-0.0139485328511 -0.0311971811284 0)
(-0.0139355430699 -0.0287933801859 0)
(-0.0137986790018 -0.0263938482862 0)
(-0.0135349648672 -0.0240282014043 0)
(-0.0131479093442 -0.0217270827749 0)
(-0.0126488931077 -0.0195191148494 0)
(-0.0120550193531 -0.0174273452591 0)
(-0.0113850175929 -0.0154685594616 0)
(-0.0106573613831 -0.0136547162779 0)
(-0.00989089859122 -0.0119939388995 0)
(-0.00910501491651 -0.0104901361358 0)
(-0.00831864522944 -0.00914231105238 0)
(-0.00754870234717 -0.00794470150435 0)
(-0.00680867983709 -0.00688773084206 0)
(-0.00610793667076 -0.00595956193721 0)
(-0.00545187066845 -0.00514776324439 0)
(-0.00484273467101 -0.00444061240651 0)
(-0.00428104922086 -0.00382776950083 0)
(-0.00376688901921 -0.00330001090713 0)
(-0.00330043802497 -0.00284834842028 0)
(-0.00288136933346 -0.00246347008346 0)
(-0.00250796737716 -0.00213607784081 0)
(-0.00217715829926 -0.00185772356869 0)
(-0.00188528686195 -0.00162122858182 0)
(-0.00162868966194 -0.00142052201578 0)
(-0.00140380767819 -0.00125041975961 0)
(-0.00120726434179 -0.00110649615201 0)
(-0.00103590182187 -0.000984982406432 0)
(-0.000886768657919 -0.000882706205007 0)
(-0.000757107384176 -0.000797648398421 0)
(-0.000645314603053 -0.000722562893927 0)
(-0.000564734483647 -0.000660581077133 0)
(-0.00050936242202 -0.000601550992403 0)
(-0.000471136113676 -0.000543792185373 0)
(-0.000437227285399 -0.00048396711626 0)
(-0.000407909426225 -0.000419072839901 0)
(-0.000403070471746 -0.000366897169235 0)
(-0.000393671551886 -0.000298449613726 0)
(-0.000407119770154 -0.000246850376201 0)
(-0.000398866286326 -0.000174268598684 0)
(-0.000431428891608 -0.000132364475201 0)
(-0.00047954958335 -0.000100747379532 0)
(-0.000483154221474 -5.69707356893e-05 0)
(-0.000484016888901 -1.89906351679e-05 0)
(0.0262779956031 -0.0018691010155 0)
(0.0276967636983 -0.0059732916289 0)
(0.0274233090443 -0.0100179442711 -6.66876524926e-28)
(0.0269481842432 -0.0140246439569 0)
(0.0263280163736 -0.0179272911496 0)
(0.0255785588454 -0.0217053944144 0)
(0.0247161853709 -0.0253389966873 0)
(0.0237582639751 -0.0288122585044 0)
(0.0227223640734 -0.0321132777929 0)
(0.0216255318494 -0.0352338757956 0)
(0.0204837122508 -0.0381692112568 0)
(0.0193113345318 -0.0409173038619 0)
(0.0181210590832 -0.0434785176387 0)
(0.016923667371 -0.0458550484401 0)
(0.015728069278 -0.0480504485845 0)
(0.0145413971647 -0.0500692090956 0)
(0.013369158065 -0.051916409728 0)
(0.012215417378 -0.0535974378594 0)
(0.0110829941948 -0.055117771607 0)
(0.00997365214133 -0.0564828186009 0)
(0.00888827684005 -0.0576978004041 0)
(0.00782703338821 -0.0587676723595 0)
(0.00678950307101 -0.0596970694662 0)
(0.00577479847311 -0.0604902704178 0)
(0.00478166056681 -0.0611511731775 0)
(0.00380853944737 -0.0616832774007 0)
(0.00285366419199 -0.0620896697894 0)
(0.00191510434474 -0.0623730105837 0)
(0.000990829251415 -0.0625355197329 0)
(7.87676960934e-05 -0.0625789615415 0)
(-0.000823126217204 -0.0625046425229 0)
(-0.00171679794996 -0.0623133836426 0)
(-0.00260400770823 -0.062005543298 0)
(-0.0034862316096 -0.0615810224111 0)
(-0.00436455169628 -0.0610393015322 0)
(-0.00523953881747 -0.0603795016976 0)
(-0.00611113192215 -0.0596004747663 0)
(-0.00697852553138 -0.0587009281608 0)
(-0.0078400730998 -0.0576795817023 0)
(-0.00869322312048 -0.0565353543109 0)
(-0.0095344959835 -0.0552675668092 0)
(-0.0103595163624 -0.0538761461051 0)
(-0.0111630964054 -0.0523618010658 0)
(-0.0119393655431 -0.0507261481835 0)
(-0.0126819101209 -0.0489717513614 0)
(-0.0133838778484 -0.0471020766523 0)
(-0.0140379734485 -0.0451213609158 0)
(-0.0146362660432 -0.0430344803748 0)
(-0.0151697736703 -0.040846921835 0)
(-0.0156277988048 -0.0385650652516 0)
(-0.0159972530267 -0.0361969881542 0)
(-0.0162622417112 -0.0337539409625 0)
(-0.0164046151975 -0.0312524164646 0)
(-0.0164061400008 -0.0287160877985 0)
(-0.0162523271898 -0.0261766102039 0)
(-0.0159377535619 -0.0236708473198 0)
(-0.0154653756988 -0.0212380727426 0)
(-0.0148516690229 -0.0189152193683 0)
(-0.0141225762771 -0.0167294430019 0)
(-0.0133031792582 -0.014697639283 0)
(-0.0124157350703 -0.0128314524141 0)
(-0.0114829662424 -0.0111396384535 0)
(-0.0105294903839 -0.00962636568112 0)
(-0.0095801486501 -0.00828933103405 0)
(-0.00865703854165 -0.00711957433014 0)
(-0.00777711138015 -0.00610299911593 0)
(-0.00695108215839 -0.00522294192367 0)
(-0.00618369141809 -0.00446277424496 0)
(-0.00547531463824 -0.00380802612564 0)
(-0.00482430977461 -0.00324735948531 0)