/*--------------------------------*- C++ -*----------------------------------*\
| =========                 |                                                 |
| \\      /  F ield         | OpenFOAM: The Open Source CFD Toolbox           |
|  \\    /   O peration     | Version:  v1906                                 |
|   \\  /    A nd           | Web:      www.OpenFOAM.com                      |
|    \\/     M anipulation  |                                                 |
\*---------------------------------------------------------------------------*/
FoamFile
{
    version     2.0;
    format      ascii;
    class       volScalarField;
    location    "116";
    object      pa;
}
// * * * * * * * * * * * * * * * * * * * * * * * * * * * * * * * * * * * * * //

dimensions      [0 2 -2 0 0 0 0];


internalField   nonuniform List<scalar> 
9216
(
946.244773583
945.953047377
945.349680839
944.428616563
943.194760061
941.652522998
939.808588673
937.669580786
935.244460121
932.541662045
929.572011169
926.345365946
922.873996525
919.168782971
915.243024359
911.10825213
906.778410081
902.265338675
897.583289805
892.74413198
887.762135138
882.648955351
877.418639781
872.082441015
866.653988689
861.143987272
855.565500927
849.928577298
844.245561701
838.52574545
832.780695794
827.018933087
821.251166758
815.485021898
809.730297007
803.993820003
798.284479528
792.608259739
786.973140613
781.384303386
775.848853432
770.371230455
764.957711155
759.612035076
754.339716693
749.143888437
744.029368128
738.998741811
734.056211368
729.203896414
724.44545397
719.782609358
715.218546189
710.754651573
706.39369761
702.136783009
697.986315385
693.943133552
690.009313146
686.185458979
682.473328354
678.873282436
675.386770223
672.01390385
668.755820303
665.612384096
662.584413479
659.671462958
656.874004994
654.191315454
651.623528728
649.169636651
646.82945117
644.601687242
642.485845451
640.480404997
638.584589451
636.796676518
635.115650885
633.539639628
632.067444019
630.697108647
629.427291531
628.255996567
627.18175898
626.202533524
625.316642017
624.521761929
623.815593445
623.196028213
622.660932535
622.207505553
621.859599322
621.641363148
621.532287798
621.493832916
946.536602951
946.243450055
945.638850364
944.714294794
943.47523706
941.926639804
940.074988085
937.92740221
935.492530457
932.779379977
929.798390331
926.560064669
923.076215391
919.358428521
915.419483178
911.271663957
906.928319636
902.402075887
897.706532559
892.854376661
887.859173778
882.733414579
877.490402409
872.142232936
866.701759582
861.180538257
855.590830968
849.94353706
844.250199235
838.520944345
832.766537328
826.99630209
821.220133456
815.446484105
809.684356065
803.94134406
798.225556022
792.543721051
786.903061991
781.309476151
775.769343387
770.287770544
764.87033403
759.521420741
754.245875572
749.047440534
743.930300774
738.897608192
733.95297307
729.099049484
724.338936064
719.674864624
715.109495902
710.6446915
706.282737565
702.025181007
697.873973537
693.830381997
689.896063531
686.072021672
682.359613592
678.759586969
675.273017714
671.900387168
668.642468288
665.499478806
662.471906799
659.55963881
656.762822879
654.081046467
651.514129615
649.061368748
646.722276237
644.495846595
642.381291246
640.377357
638.482993241
636.6967232
635.017273028
633.442990799
631.972450169
630.603893614
629.335776274
628.166295341
627.093830038
626.116535634
625.232698836
624.44036833
623.737569885
623.122554158
622.594711861
622.153651615
621.813047153
621.598352672
621.493653511
621.455203503
947.14332126
946.846093979
946.236799699
945.305217774
944.056756307
942.496605076
940.631249968
938.468139708
936.015923544
933.283989379
930.282758071
927.023149499
923.516924885
919.776107692
915.813382642
911.641475279
907.273603449
902.722835244
898.002595384
893.125993421
888.106382747
882.956672648
877.689920361
872.31863514
866.855399618
861.312168087
855.700917015
850.03293598
844.319454871
838.570985258
832.797972225
827.010097761
821.216935082
815.427278369
809.649815614
803.89246016
798.162986159
792.468427435
786.81568451
781.210931155
775.660224681
770.168933738
764.742327276
759.385033381
754.101599587
748.895986163
743.772082452
738.733260538
733.782864226
728.923731921
724.158706942
719.490216866
714.920680498
710.452132994
706.086649308
701.825947375
697.671782718
693.625590779
689.688846256
685.862718099
682.148404716
678.546812792
675.058867149
671.685201057
668.42645629
665.283000094
662.255181046
659.343029111
656.546556246
653.865485535
651.299495645
648.848002602
646.510400741
644.285772055
642.173199049
640.171536547
638.279599853
636.495990372
634.819318866
633.24798215
631.780436615
630.415011866
629.150060625
627.983858397
626.914732836
625.940937772
625.060854161
624.272841617
623.575277551
622.966730116
622.448134476
622.021940621
621.697496219
621.492755004
621.387735399
621.344626734
948.075409858
947.773630975
947.15703102
946.214434276
944.951357136
943.373202449
941.486627941
939.299390242
936.820353215
934.059263023
931.026764838
927.734153379
924.193403934
920.416909685
916.417539128
912.208362256
907.802737978
903.214051767
898.45582514
893.541452327
888.484340624
883.297650418
877.994459701
872.587505892
867.089361645
861.512193125
855.867933058
850.168050067
844.423727514
838.645636909
832.844156185
827.029112106
821.20998061
815.395690889
809.594820283
803.815383387
798.065039827
792.350912121
786.679772499
781.057853872
775.491077142
769.98485975
764.544340405
759.174198949
753.878814303
748.662185914
743.528074273
738.479866063
733.520766576
728.653647955
723.881229991
719.205954186
714.630128485
710.155833234
705.78504377
701.519508158
697.360898624
693.310697526
689.370311682
685.540964265
681.823798056
678.219779351
674.729785866
671.354512394
668.094563604
664.950366327
661.922228476
659.010228529
656.214336382
653.534313462
650.969799864
648.520251467
646.184983105
643.963114118
641.853674885
639.855510755
637.96736865
636.187848096
634.515477861
632.948669336
631.485811249
630.125209252
628.865155558
627.703944876
626.639862595
625.671241883
624.796592864
624.014375544
623.323300955
622.722676524
622.21446124
621.801274068
621.489780739
621.285662506
621.172067795
621.126152396
949.336040463
949.028462709
948.401893203
947.444217513
946.161160776
944.558394225
942.642863397
940.42269498
937.907114132
935.106288002
932.031248299
928.693725338
925.106071786
921.281099154
917.232011823
912.972257095
908.515484692
903.87540714
899.065778184
894.100266093
888.992460082
883.755751033
878.403343817
872.9481745
867.402918597
861.779896809
856.091105391
850.348142748
844.562242167
838.744180598
832.90434714
827.052649514
821.198559281
815.351065817
809.518714634
803.709543397
797.931166326
792.190702848
786.494861554
780.849862836
775.26154722
769.735309366
764.276171939
758.88877333
753.57740105
748.346005021
743.198235115
738.137446463
733.166736795
728.288924772
723.506641053
718.82228312
714.238082756
709.756079081
705.378193899
701.106168878
696.94161416
692.886014202
688.940748316
685.10705472
681.386057054
677.778750006
674.286000241
670.908529876
667.64696771
664.501769984
661.473215672
658.561402384
655.766307574
653.087692163
650.525182288
648.078245538
645.746172187
643.528063327
641.42289185
639.429475835
637.546510716
635.772558592
634.10607306
632.545429013
631.08893797
629.734834842
628.481386802
627.326853532
626.269484499
625.307640868
624.439811723
623.664568687
622.980710725
622.388253575
621.888573614
621.482925984
621.173833867
620.960545582
620.834866285
620.78416543
950.930613187
950.615719059
949.976410954
948.999414103
947.690766356
946.056483624
944.103913476
941.841644082
939.279393681
936.427857337
933.298590163
929.903859892
926.256531366
922.369921214
918.25769503
913.933750648
909.412135247
904.706939502
899.832244594
894.802029225
889.630134635
884.330201144
878.915638877
873.399587943
867.794887631
862.114000403
856.369050615
850.57176739
844.733468186
838.865033019
832.976905822
827.079064043
821.181009021
815.291749407
809.419828202
803.573289654
797.759722597
791.98621398
786.25941741
780.585506783
774.970228101
769.418914099
763.936490861
758.527510162
753.19617913
747.946354755
742.781574628
737.705099763
732.719915483
727.828777137
723.034214072
718.338538906
713.7439069
709.252293416
704.865562795
700.585417949
696.413425677
692.351050647
688.399663418
684.560503519
680.834681833
677.223217769
673.726967818
670.346740007
667.083200959
663.936736958
660.907613714
657.996009636
655.20191573
652.525061907
649.965085606
647.521479482
645.19348352
642.980137446
640.880388762
638.893023344
637.016677738
635.249819178
633.590828735
632.038026818
630.589623886
629.243788287
627.998724557
626.852591446
625.803589509
624.850047208
623.990378174
623.223184534
622.547277431
621.96273157
621.469700384
621.068170603
620.758078497
620.537297997
620.400228627
620.339661754
952.86596261
952.542077398
951.887069121
950.886252554
949.546063378
947.872962193
945.874811583
943.5607836
940.941220579
938.027475694
934.831764568
931.367021567
927.646747523
923.684874516
919.495645821
915.093500132
910.492972363
905.708606787
900.754877768
895.646123465
890.396500826
885.019934151
879.530087285
873.940327926
868.263682291
862.512794374
856.699938706
850.836989126
844.935386243
839.006114388
833.059703106
827.106192361
821.155117294
815.215525777
809.295957804
803.404458132
797.548581412
791.735375946
785.971421912
780.262815566
774.615214704
769.033854743
763.523573225
758.088813051
752.733646733
747.46181333
742.276747344
737.181585631
732.179183639
727.272178579
722.462983237
717.753831552
713.146779901
708.643711737
704.246426095
699.956566191
695.775673648
691.705179768
687.746436728
683.900688582
680.169008355
676.552533128
673.052174097
669.668655385
666.402645619
663.254553065
660.224709449
657.313356678
654.520451706
651.845718415
649.288826092
646.849264198
644.52621513
642.318714831
640.225620536
638.2456469
636.377386896
634.619236872
632.969451373
631.42625109
629.98775421
628.652016503
627.417138308
626.281171543
625.242224226
624.298510354
623.448382799
622.690422126
622.023357934
621.446619973
620.959628374
620.561558505
620.251336404
620.027153517
619.884365861
619.818104513
955.15047979
954.81576191
954.141869436
953.112395135
951.734284404
950.014548791
947.961701362
945.585635415
942.897468697
939.909357757
936.634333703
933.086130966
929.279026973
925.227692559
920.947062643
916.452211656
911.758259156
906.880268302
901.833175771
896.631733202
891.29046057
885.823602145
880.245121473
874.568625151
868.807348714
862.974158581
857.081508479
851.141431699
845.16551826
839.16487394
833.150113787
827.131352794
821.11818487
815.119693112
809.144423171
803.20039889
797.295139089
791.435637608
785.628381936
779.879375675
774.194195836
768.577959168
763.035356404
757.570697408
752.187938878
746.890674794
741.682172341
736.565424307
731.543151548
726.617853465
721.791808215
717.067119608
712.445725292
707.929432985
703.519937472
699.218828143
695.027599819
690.94763284
686.980273518
683.12683571
679.388467321
675.766204417
672.260904479
668.873388565
665.604356511
662.45433296
659.423621957
656.512491817
653.720948659
651.048705641
648.495481407
646.060726968
643.74355026
641.542973607
639.457807319
637.486697816
635.628122454
633.880344404
632.241536536
630.709826581
629.283139847
627.959433558
626.736645118
625.61269462
624.585568102
623.65334088
622.814270522
622.066708739
621.409208615
620.840710654
620.36025795
619.966529923
619.657840753
619.432876152
619.288112828
619.219454656
957.794253005
957.446686994
956.75042749
955.68703545
954.264078008
952.489255301
950.371878401
947.9227295
945.153870266
942.078433347
938.710426344
935.064546876
931.155992478
927.000309465
922.613243135
918.010610016
913.208194079
908.221657069
903.066460349
897.757817318
892.310646755
886.739567264
881.058837699
875.28233459
869.423551965
863.495579067
857.511081602
851.482284684
845.42093161
839.338261985
833.245010147
827.151376174
821.06702273
815.001057434
808.962031503
802.957958963
796.996299629
791.083968944
785.227356248
779.432382281
773.704485046
768.048632145
762.469374338
756.970874557
751.55691349
746.230905279
740.995954888
735.85488919
730.810262017
725.864377337
721.019371147
716.277192878
711.639647232
707.108428938
702.685132965
698.371276447
694.168287922
690.077505405
686.100457223
682.238392124
678.492268999
674.863179073
671.352102732
667.95991408
664.687378331
661.535009038
658.503191428
655.592305676
652.802295072
650.132934937
647.583957373
645.154766479
642.844448044
640.651977764
638.576105694
636.615369292
634.768122248
633.032533306
631.406665703
629.888398776
628.475566815
627.165942922
625.957298097
624.847373325
623.833998727
622.915069284
622.088613672
621.352783943
620.70597007
620.146713319
619.673680178
619.285392471
618.980087601
618.755961351
618.611581583
618.542444203
960.80922756
960.446567323
959.724109937
958.621010539
957.145610444
955.306457133
953.113842875
950.579630327
947.717025744
944.54033207
941.06472183
937.30602845
933.280539322
929.004813368
924.495533491
919.769366838
914.842856518
909.732328326
904.453827048
899.023065512
893.455407217
887.76584475
881.96896998
876.078947632
870.109545388
864.074106481
857.985534678
851.856253739
845.698184887
839.522732527
833.340760742
827.16257669
820.997903292
814.855882741
808.745082789
802.673478184
796.648455975
790.67685637
784.764972164
778.918569035
773.142934283
767.442897697
761.822832915
756.286693532
750.838065629
745.480197502
740.215988294
735.048034479
729.978705893
725.010111722
720.144188151
715.382701351
710.727308187
706.179560144
701.740951519
697.412903153
693.196772469
689.094111807
685.106278377
681.234281606
677.479282914
673.842416422
670.324724432
666.927149381
663.65050549
660.495379258
657.462286293
654.551527883
651.763191478
649.097119564
646.552980613
644.130156438
641.827728003
639.64459831
637.579463095
635.630733796
633.796630463
632.075189378
630.464287317
628.961624125
627.564842977
626.271516651
625.079230276
623.985495758
622.987962061
622.084271108
621.27223796
620.549839381
619.915167028
619.366433924
618.902015716
618.520364205
618.21987103
617.998405063
617.855517027
617.78710834
964.209396977
963.829131656
963.076192611
961.926945888
960.390677624
958.476983225
956.19735465
953.564968196
950.594404732
947.301368426
943.702408501
939.814690798
935.655764942
931.24336891
926.595252577
921.729047658
916.662141316
911.411596268
905.994083679
900.425852311
894.72273162
888.90009778
882.972870449
876.955540688
870.862160104
864.706351145
858.501262332
852.259542761
845.993330289
839.714208053
833.433195737
827.160707836
820.906542807
814.679894794
808.489321446
802.342747222
796.24749977
790.210315831
784.23734062
778.334195223
772.506005038
766.757393194
761.092518359
755.515131705
750.028610529
744.635967294
739.339853129
734.142661094
729.046503891
724.053259183
719.164631217
714.3821784
709.707370604
705.14160272
700.686233316
696.342622667
692.112305488
687.996599902
683.996573592
680.11344413
676.348484788
672.702843886
669.177647084
665.773861635
662.492395768
659.334078178
656.299368386
653.388686753
650.602174631
647.939753291
645.401081586
642.985432543
640.691918388
638.519491936
636.466686504
634.531735685
632.712724465
631.007543012
629.41380171
627.92903604
626.550715034
625.276153818
624.102619666
623.027469111
622.048034545
621.161754488
620.366200468
619.6591079
619.038293275
618.501688316
618.047503816
617.673982551
617.379490288
617.162426031
617.021861516
616.954710246
968.011048147
967.610313972
966.822066107
965.619421005
964.012840047
962.013210206
959.633496191
956.888464712
953.794349672
950.368512588
946.629131619
942.59492483
938.284899947
933.718136012
928.913603614
923.89000732
918.665671235
913.258450679
907.685684417
901.964178835
896.110218348
890.139569095
884.067483212
877.908766386
871.677785544
865.388442186
859.054154681
852.687838544
846.301876569
839.908059198
833.517561257
827.1409368
820.788082737
814.468223866
808.189901337
801.961004517
795.788772556
789.679800296
783.640088875
777.675086435
771.789696268
765.988297395
760.274849686
754.652855532
749.125412485
743.695294587
738.364902737
733.136349682
728.011464609
722.991856784
718.078947148
713.27405655
708.578423346
703.99326664
699.519861445
695.159664553
690.913924443
686.783721137
682.770212446
678.8747916
675.098775842
671.443233742
667.909420749
664.498554477
661.211679265
658.049536484
655.012846342
652.102090453
649.317522987
646.65911186
644.126393013
641.71876288
639.435460129
637.275218344
635.236352602
633.317051915
631.515227352
629.828542009
628.254416466
626.790193532
625.43295735
624.179784976
623.027692833
621.973709298
621.014921695
620.148478658
619.371708268
618.682048446
618.077021567
617.554379145
617.112147685
616.748438609
616.461522164
616.249927917
616.112728567
616.047092473
972.233050566
971.80856421
970.979482353
969.7151807
968.027580172
965.929173853
963.434732618
960.560955161
957.326053076
953.749353939
949.850935741
945.651322208
941.171194576
936.431161132
931.451557594
926.252286729
920.852687941
915.271466277
909.526644095
903.635600021
897.615038528
891.481073533
885.249298052
878.934829093
872.552332428
866.116007719
859.639587736
853.136293283
846.618768878
840.099036766
833.588485603
827.09782013
820.637027329
814.215364231
807.841376623
801.522892378
795.267020837
789.080236309
782.968348287
776.936562923
770.989534887
765.131413431
759.365873933
753.696123495
748.125010091
742.655000639
737.288214097
732.026447685
726.871218315
721.823798219
716.885283651
712.056691343
707.338996775
702.733247992
698.24087016
693.862910367
689.600323099
685.454382923
681.426234019
677.517269781
673.728823202
670.062180591
666.518778658
663.099934996
659.806648272
656.640024234
653.600874313
650.689845733
647.907277335
645.253033305
642.726859782
640.328343233
638.056498358
635.909828794
633.886697506
631.985121504
630.202804125
628.537169133
626.985389823
625.544467091
624.211225879
622.982403709
621.854696077
620.824783519
619.889456874
619.045569719
618.290095072
617.620195997
617.033150835
616.526538814
616.098120132
615.745872857
615.468021073
615.263055968
615.130133139
615.066408049
976.897230158
976.445161936
975.568854484
974.233374828
972.452485899
970.240685115
967.614973659
964.594394177
961.19952849
957.452019447
953.37416368
948.988560412
944.317807208
939.384237386
934.20971947
928.815469563
923.221930385
917.448693037
911.514471356
905.437150841
899.233845551
892.920960429
886.514363991
880.029461099
873.481220597
866.884170545
860.25240073
853.599466536
846.93831765
840.281275396
833.639959056
827.025237011
820.447196822
813.915156312
807.437649254
801.022402363
794.676427118
788.405991958
782.216663709
776.113418524
770.100618859
764.182083195
758.361194979
752.640867194
747.023602905
741.511574645
736.106582007
730.810074945
725.623207558
720.546855525
715.581700719
710.728398787
705.98763495
701.360545015
696.848160025
692.451102201
688.170514935
684.007606983
679.963495959
676.039657499
672.237555359
668.558549306
665.004329579
661.576203479
658.275496587
655.103584726
652.061412594
649.149803692
646.369009904
643.719182078
641.200365097
638.81193039
636.552675333
634.421227908
632.415801188
630.53422291
628.773963411
627.132170338
625.605709361
624.191233727
622.885213503
621.684026435
620.583980475
619.581337516
618.672596011
617.854254251
617.122868648
616.475384798
615.9087832
615.420399019
615.00778912
614.668753174
614.401469744
614.204302524
614.076359436
614.015148629
982.028837375
981.544664439
980.61362806
979.195857085
977.307454021
974.965454933
972.189619966
969.001847228
965.425547819
961.485087213
957.205328287
952.611253881
947.727630255
942.57873867
937.188146333
931.57851774
925.771470034
919.787506409
913.646007338
907.365301583
900.962780531
894.455072317
887.858245733
881.187931466
874.459391584
867.687537552
860.886852559
854.071295289
847.254205782
840.448232311
833.665251999
826.916331715
820.211696946
813.560718686
806.971897532
800.452884344
794.010506414
787.650787233
781.379060828
775.19997139
769.117522428
763.13521442
757.256051003
751.482601134
745.817040653
740.261197908
734.816533727
729.484119383
724.264712859
719.158703466
714.16621738
709.2874861
704.523248939
699.874039245
695.34043015
690.923260029
686.623570691
682.44245
678.380991251
674.441020928
670.623858052
666.930942646
663.364415091
659.925638463
656.616375429
653.438128091
650.392143871
647.479271836
644.700113276
642.055150089
639.544301015
637.166729001
634.921456885
632.807006381
630.821432661
628.962354636
627.226974657
625.612122091
624.114295277
622.729758964
621.454560942
620.284692296
619.215849476
618.244075717
617.365421447
616.575905977
615.871788172
615.249628935
614.706094937
614.238352368
613.843708667
613.519763429
613.264510846
613.076378422
612.954256807
612.896012293
987.657160355
987.135444495
986.140741
984.627529191
982.614924701
980.123208892
977.175591321
973.797439555
970.015541463
965.857442162
961.350957413
956.523768819
951.403098926
946.015401958
940.386140229
934.539555948
928.498519867
922.284451307
915.917331991
909.415813461
902.797403816
896.07877572
889.276059852
882.405050785
875.481313267
868.520177544
861.536617455
854.545090234
847.559400759
840.59258808
833.656845891
826.763472149
819.922847093
813.144394189
806.436582888
799.806941863
793.26206776
786.807742076
780.448948286
774.18995158
768.03437605
761.985274785
756.045259021
750.216505724
744.500830179
738.899707236
733.414263544
728.045211941
722.792855566
717.656958079
712.636870365
707.732748134
702.944694907
698.272380833
693.716691409
689.278527446
684.958727499
680.75810945
676.678144139
672.720577886
668.886574622
665.178212253
661.597579801
658.146475907
654.827006744
651.641105823
648.590376121
645.675692224
642.898035399
640.257998771
637.755431653
635.389735607
633.159914015
631.064380357
629.101014752
627.267201674
625.559836435
623.975381771
622.50989628
621.159224757
619.918853419
618.784216442
617.75066466
616.813801187
615.969094921
615.212100688
614.538711824
613.945094613
613.427615094
612.983154658
612.608737759
612.30184137
612.060287522
611.882340067
611.766942361
611.712078546
993.816286513
993.250383808
992.181183194
990.55673414
988.400115216
985.735791699
982.591308175
978.996269881
974.981454476
970.578096883
965.817371961
960.730001795
955.345940218
949.694077624
943.801976114
937.695614572
931.399187628
924.935035738
918.323615059
911.583695858
904.732656631
897.786944219
890.762527546
883.675253205
876.541004633
869.375632967
862.194751208
855.013451877
847.846112199
840.706242258
833.606403514
826.558172629
819.572099021
812.657672401
805.823306606
799.07637308
792.423227696
785.869279725
779.419129402
773.076579317
766.84477094
760.726287799
754.72323054
748.83735853
743.070100448
737.422594813
731.895665922
726.489702085
721.204553016
716.039199759
710.992224237
706.062897568
701.250681711
696.554287035
691.97537854
687.515624488
683.175170749
678.954478762
674.854555282
670.877411282
667.024911992
663.298868705
659.701904275
656.236595563
652.905355792
649.710359287
646.653286032
643.735822945
640.959088269
638.323907002
635.830260965
633.477472622
631.264664505
629.190138318
627.251567078
625.446085338
623.770238958
622.220091099
620.79108901
619.478490338
618.277328193
617.182526482
616.18896565
615.29150046
614.485080165
613.76466092
613.125846536
612.564335906
612.076162778
611.657822033
611.30613548
611.018368518
610.792228178
610.625827525
610.517968579
610.466833182
1000.54614507
999.927788438
998.770709173
997.015727712
994.691240384
991.827192212
988.456599236
984.614220913
980.335526067
975.655954697
970.610446596
965.233097437
959.556891267
953.613417456
947.432581163
941.042285995
934.468167694
927.733450129
920.858908011
913.863105884
906.762902414
899.574074535
892.31208225
884.992678442
877.632104936
870.246933023
862.85366386
855.468227281
848.105718593
840.780199391
833.504657898
826.290989654
819.149951094
812.091097637
805.122777251
798.252157855
791.485255399
784.827095396
778.281756041
771.85248907
765.541847009
759.351829549
753.283998959
747.339582945
741.519621811
735.82494668
730.256180128
724.813502334
719.496502775
714.303618653
709.230621311
704.27512378
699.438390312
694.71924426
690.121156089
685.643516658
681.282745555
677.039620311
672.916663255
668.917317902
665.042124331
661.294102674
657.677583084
654.194592359
650.849014992
647.642243456
644.577301903
641.656109828
638.879561524
636.249292703
633.764887921
631.425906169
629.231761566
627.18056198
625.269633872
623.495892911
621.855482029
620.343837374
618.955833044
617.686239201
616.529519233
615.479837533
614.531364194
613.678337978
612.914873329
612.235606936
611.635656885
611.110161411
610.654825753
610.265717198
609.939452633
609.673115118
609.464233552
609.310700758
609.21125422
609.164295411
1007.89388951
1007.21253586
1005.95071733
1004.0411961
1001.51970826
998.423489794
994.792480185
990.667671727
986.089958078
981.099477813
975.735285072
970.035144523
964.03535118
957.770500779
951.273130144
944.573329512
937.698332323
930.672231501
923.515898364
916.247254771
908.881949623
901.434423606
893.919094609
886.351362901
878.747985118
871.126628422
863.505073231
855.900425883
848.328667612
840.804477689
833.341303271
825.951419695
818.645825823
811.434165182
804.324682796
797.324283598
790.438606895
783.672121152
777.028311063
770.509745888
764.118251918
757.855118356
751.721241519
745.717283221
739.843810481
734.101409761
728.49071426
723.011946816
717.665166898
712.447011139
707.34667117
702.373916361
697.529947126
692.798676126
688.180990829
683.678181651
679.290548137
675.019373684
670.868537715
666.840282254
662.937213551
659.163653491
655.523673061
652.020189294
648.656912647
645.434796526
642.359867248
639.432857156
636.655768717
634.029880897
631.554745644
629.23070468
627.057090319
625.031418665
623.151173666
621.413000442
619.812313528
618.343892853
617.002350597
615.781507487
614.674983595
613.676189213
612.778546
611.97541418
611.260267851
610.627347713
610.071016153
609.585790428
609.16713438
608.810651627
608.512753934
608.270244154
608.080485944
607.941315181
607.851286941
607.808934864
1015.91582481
1015.15773638
1013.76935657
1011.67479131
1008.92017278
1005.55258555
1001.62073845
997.17303509
992.256485911
986.916299617
981.195866951
975.136820724
968.779031559
962.16041661
955.31656355
948.280118772
941.08019323
933.741797037
926.285608877
918.72826187
911.083204634
903.362393712
895.578274055
887.745584749
879.88191872
872.00675217
864.13989167
856.300081135
848.504347965
840.767979579
833.104879255
825.527757226
818.047942215
810.675186159
803.417601389
796.281740909
789.27274488
782.394453434
775.649581948
769.039850792
762.566185873
756.229018692
750.028412174
743.964314759
738.036796991
732.246241537
726.593533709
721.078898352
715.702881343
710.472716137
705.378570395
700.411080517
695.55127629
690.79373519
686.145853524
681.610433745
677.190191816
672.888472466
668.70593421
664.64433523
660.709906421
656.907274875
653.241228917
649.713183374
646.327046392
643.087327719
639.999203485
637.063607299
634.28394445
631.660773128
629.195226623
626.886864581
624.735216508
622.737692691
620.891914315
619.193344194
617.63728591
616.217802339
614.928632573
613.76285618
612.713044417
611.771692996
610.931370739
610.184299635
609.523596401
608.942628064
608.435012692
607.994813833
607.617030619
607.296965352
607.030549742
606.814528529
606.64594595
606.522626798
606.443016155
606.405833541
1024.68012598
1023.82685847
1022.28295196
1019.96361424
1016.93032072
1013.24361291
1008.96319914
1004.14607189
998.845806809
993.112779733
986.994685092
980.537062836
973.783562624
966.775832578
959.553029505
952.150982413
944.601170163
936.929753997
929.156927687
921.29708822
913.359949866
905.353092777
897.285394378
889.170392721
881.027292064
872.878796873
864.748024732
856.656015724
848.620919712
840.658385978
832.782632791
825.006942953
817.343131802
809.801127871
802.388836455
795.112338015
787.976143393
780.983308162
774.135606521
767.433702939
760.877447113
754.466155915
748.19883881
742.074508586
736.092622235
730.253366999
724.557317037
719.002046487
713.627252177
708.438741203
703.357380113
698.369916794
693.477491306
688.686761209
684.004453125
679.434525459
674.97945074
670.64315771
666.42349404
662.325780838
658.357480086
654.52437312
650.82672998
647.270498785
643.859023608
640.59788994
637.492927676
634.546790898
631.761436199
629.139132845
626.681537498
624.388827241
622.260641395
620.294175437
618.486306289
616.832147141
615.32639507
613.962205153
612.732256258
611.628656079
610.643013263
609.766539859
608.990723489
608.306891863
607.707364939
607.184631026
606.731354711
606.341475378
606.009084882
605.729385158
605.497942294
605.311119942
605.165922079
605.060160274
604.992006911
604.960497356
1034.27082296
1033.29704538
1031.55782505
1028.96048311
1025.59012154
1021.52577236
1016.8405731
1011.60091656
1005.86688065
999.69354094
993.132447561
986.232818647
979.042200989
971.606473142
963.969182969
956.170298678
948.244599681
940.219926934
932.115852175
923.943301001
915.70583224
907.403462527
899.038536296
890.622497044
882.177881318
873.733469479
865.317923657
856.955511976
848.665127082
840.462014927
832.36039298
824.374361496
816.516622326
808.797408965
801.22426323
793.802582626
786.536094821
779.42692009
772.475675072
765.681701976
759.043509371
752.559019627
746.225870559
740.041887116
734.005582283
728.115670731
722.368162347
716.80569423
711.504318239
706.373340767
701.264499987
696.230021195
691.299447401
686.474480999
681.75348638
677.146038301
672.652792485
668.276516611
664.018273364
659.88430729
655.879640615
652.009749242
648.278535878
644.689871896
641.247845734
637.963135145
634.839282486
631.878752863
629.084009867
626.461018259
624.009959325
621.732559221
619.628533655
617.695083131
615.928660545
614.324192414
612.874869322
611.573050623
610.410322916
609.37729187
608.464233346
607.660992644