/*--------------------------------*- C++ -*----------------------------------*\
| =========                 |                                                 |
| \\      /  F ield         | OpenFOAM: The Open Source CFD Toolbox           |
|  \\    /   O peration     | Version:  v1906                                 |
|   \\  /    A nd           | Web:      www.OpenFOAM.com                      |
|    \\/     M anipulation  |                                                 |
\*---------------------------------------------------------------------------*/
FoamFile
{
    version     2.0;
    format      ascii;
    class       surfaceScalarField;
    location    "750";
    object      phi;
}
// * * * * * * * * * * * * * * * * * * * * * * * * * * * * * * * * * * * * * //

dimensions      [0 3 -1 0 0 0 0];
oriented        oriented;


internalField   nonuniform List<scalar> 
18240
(
-0.000200120692375
0.000200188165927
-0.00040970384078
0.00020966943748
-0.00061791827991
0.000208280109823
-0.000823093662794
0.000205266173139
-0.00102422495112
0.000201192015762
-0.0012203285611
0.000196198618476
-0.00141064545898
0.000190372562997
-0.0015943849624
0.000183838534101
-0.00177100954181
0.000176674997745
-0.00193991899959
0.000169012239219
-0.00210079430058
0.000160920144809
-0.00225321424946
0.00015252617398
-0.00239705761199
0.000143882427155
-0.00253205396054
0.000135105643566
-0.00265824549426
0.000126224469839
-0.00277547493367
0.000117341357397
-0.00288390831101
0.000108459978665
-0.0029834628299
9.96685112768e-05
-0.0030743902644
9.09473340733e-05
-0.00315664756746
8.23727402316e-05
-0.00323053958518
7.39050414212e-05
-0.00329603526347
6.56118343493e-05
-0.00335346665892
5.74372282157e-05
-0.00340279400434
4.94434379541e-05
-0.0034443574038
4.15619864932e-05
-0.00347809470583
3.38524781912e-05
-0.00350434079516
2.62372690893e-05
-0.0035230032071
1.87757939765e-05
-0.00353440359616
1.13843156804e-05
-0.00353841712594
4.12419042148e-06
-0.00353534911161
-3.09127319547e-06
-0.00352504498525
-1.01971218978e-05
-0.00350779529775
-1.72797264622e-05
-0.00348342511875
-2.42677918627e-05
-0.00345221800967
-3.12435987569e-05
-0.00341399337054
-3.81277797166e-05
-0.00336904050719
-4.49951292067e-05
-0.00331719352342
-5.17564898948e-05
-0.00325876474624
-5.84761972104e-05
-0.00319362658067
-6.50546941379e-05
-0.00312213363737
-7.15445698469e-05
-0.00304422040287
-7.78372562036e-05
-0.00296030104622
-8.39743477093e-05
-0.00287039127065
-8.98415590003e-05
-0.00277497651803
-9.54721085944e-05
-0.00267416612763
-0.000100750119751
-0.0025685224965
-0.000105702607
-0.00245825634848
-0.000110214080733
-0.00234401213359
-0.000114304116891
-0.00222611378098
-0.000117855123524
-0.00210530088897
-0.000120873405166
-0.00198203299245
-0.000123234413636
-0.00185716646819
-0.000124927187284
-0.00173131993808
-0.000125823546789
-0.00160547441418
-0.000125905693593
-0.00148039819029
-0.000125063657764
-0.00135715631133
-0.000123300512824
-0.00123659892591
-0.000120554175189
-0.00111978150458
-0.000116873292851
-0.00100752111961
-0.000112264468614
-0.000900737465358
-0.000106835588688
-0.0008000820067
-0.000100664104388
-0.000706220601458
-9.39084262965e-05
-0.000619547563295
-8.66836216945e-05
-0.000540403870464
-7.9185259213e-05
-0.000468814640418
-7.16003990108e-05
-0.000404685909745
-6.41653486486e-05
-0.000347650783228
-5.70471561356e-05
-0.000297304873083
-5.03786888199e-05
-0.00025313098922
-4.41871449703e-05
-0.000214682112778
-3.84784541729e-05
-0.00018147408271
-3.3222143519e-05
-0.000153075138286
-2.84254471067e-05
-0.00012899074445
-2.40982911921e-05
-0.000108737143594
-2.02770077242e-05
-9.17854142223e-05
-1.69646154464e-05
-7.76591419973e-05
-1.41469208967e-05
-6.590567742e-05
-1.1765530118e-05
-5.61636541798e-05
-9.76065674476e-06
-4.81094023617e-05
-8.06612578301e-06
-4.14864918685e-05
-6.64014415295e-06
-3.60602618037e-05
-5.43809607565e-06
-3.16514612248e-05
-4.42476884059e-06
-2.81197670995e-05
-3.5431945561e-06
-2.54642971574e-05
-2.67023376357e-06
-2.32678030208e-05
-2.20842440638e-06
-2.12605607047e-05
-2.02260016353e-06
-1.95406573661e-05
-1.73451637385e-06
-1.78448534446e-05
-1.71423875791e-06
-1.59822012596e-05
-1.88278132095e-06
-1.40433238827e-05
-1.96340779434e-06
-1.20009792766e-05
-2.07059368359e-06
-9.61377950616e-06
-2.41960321219e-06
-6.69655398897e-06
-2.95309449643e-06
-3.27561449081e-06
-3.46046943e-06
-3.29594087173e-06
-0.000211713358593
0.000411976209424
-0.00043602901833
0.000434068186868
-0.000658138644518
0.000430467182179
-0.000876776846229
0.000423988337528
-0.00109096035408
0.000415451563794
-0.0012997197493
0.000405042650013
-0.00150221482773
0.000392942116298
-0.00169765574714
0.000379364612731
-0.0018854203499
0.000364512226287
-0.0020649337451
0.000348611048156
-0.00223579920408
0.000331856124495
-0.0023976466656
0.000314459001286
-0.00255028196754
0.000296585804034
-0.00269350779892
0.000278416440811
-0.00282729406694
0.000260076058956
-0.00295157423598
0.000241705690268
-0.00306643876563
0.000223386658247
-0.00317190916331
0.000205221800109
-0.00326815535714
0.000187252125414
-0.00335524917087
0.000169547655275
-0.00343340542761
0.000152115867774
-0.00350271609271
0.000135001244623
-0.00356341405752
0.000118185331198
-0.00361558911771
0.000101694308736
-0.00365947281437
8.54909336879e-05
-0.00369513756387
6.95895134903e-05
-0.00372280052956
5.39402551163e-05
-0.00374250764813
3.85511078236e-05
-0.00375445425389
2.33653553133e-05
-0.00375865614968
8.38963901978e-06
-0.00375528458486
-6.43421659212e-06
-0.00374432754641
-2.10957612146e-05
-0.00372593592809
-3.56487533857e-05
-0.00370007753939
-5.00734122215e-05
-0.00366689182731
-6.44128221065e-05
-0.00362634071288
-7.86321511212e-05
-0.00357856788559
-9.2757587044e-05
-0.00352354969281
-0.000106734253469
-0.00346145481004
-0.000120566653453
-0.00339229832924
-0.000134177178128
-0.00331629705702
-0.000147547070316
-0.00323352935703
-0.000160577349947
-0.0031442810555
-0.000173229082982
-0.00304871333989
-0.000185387889115
-0.00294719499975
-0.000197001618919
-0.00283998119836
-0.000207948552421
-0.00272752955104
-0.000218169720049
-0.00261019422944
-0.000227539963509
-0.00248852590256
-0.000235992036013
-0.00236298711807
-0.000243390630638
-0.00223423653485
-0.000249647828917
-0.00210286990722
-0.000254604425749
-0.00196968389808
-0.000258141396392
-0.00183543935349
-0.000260078365804
-0.00170109000013
-0.000260287357976
-0.00156755748794
-0.000258613036143
-0.00143591161847
-0.000254981909564
-0.00130715881445
-0.000249329056071
-0.00118238107035
-0.000241688098812
-0.00106254054497
-0.000232130371976
-0.000948586263451
-0.000220826491309
-0.000841284509035
-0.000207992198862
-0.000741308678415
-0.00019391872457
-0.000649149931166
-0.000178867434025
-0.000565162622135
-0.000163203865418
-0.00048941512279
-0.000147370778855
-0.000421744680378
-0.000131864078799
-0.000361726381066
-0.000117087093752
-0.000308835565831
-0.000103295748991
-0.0002624989527
-9.05448460103e-05
-0.000222208979847
-7.87930096427e-05
-0.000187481301375
-6.79702204388e-05
-0.000157861480844
-5.80678966095e-05
-0.000132845359285
-4.91333394454e-05
-0.000111892259555
-4.12503469908e-05
-9.44222471356e-05
-3.44516246046e-05
-7.98919518219e-05
-2.86952576304e-05
-6.78164915981e-05
-2.38565265747e-05
-5.78085453763e-05
-1.97852523729e-05
-4.95438154803e-05
-1.63457104608e-05
-4.27510227623e-05
-1.34487743079e-05
-3.71856122026e-05
-1.10179083166e-05
-3.26342292407e-05
-8.99112023159e-06
-2.88803710559e-05
-7.31067854546e-06
-2.56198547432e-05
-5.94448933332e-06
-2.28788359414e-05
-4.96247129921e-06
-2.07461827508e-05
-4.16961153574e-06
-1.90070185358e-05
-3.48876016092e-06
-1.74141452466e-05
-3.32419207908e-06
-1.57814922933e-05
-3.53545611896e-06
-1.39322726229e-05
-3.83676669647e-06
-1.18876764494e-05
-4.14217226736e-06
-9.61618105116e-06
-4.72166779466e-06
-6.8630495005e-06
-5.74196170298e-06
-3.40231960855e-06
-6.9583630109e-06
-6.71522560406e-06
-0.000214571857299
0.000626624188916
-0.000441173170782
0.000660750602566
-0.000665746342281
0.000655120729296
-0.000886776877606
0.000645100561694
-0.00110318889614
0.000631943307945
-0.00131399091581
0.000615926240284
-0.00151830615011
0.000597336306178
-0.00171535378289
0.00057649349163
-0.00190448833701
0.000553724775599
-0.00208516259793
0.000529365961715
-0.00225696479199
0.000503735051147
-0.00241956679495
0.000477140764211
-0.00257276288625
0.00044985707765
-0.00271640692585
0.000422139001998
-0.00285045594564
0.000394198324466
-0.0029748993723
0.000366226011238
-0.00308980990895
0.000338368129487
-0.003195266902
0.000310753609496
-0.00329141570947
0.000283469073263
-0.00337838635897
0.000256590559819
-0.00345636172983
0.000230156140904
-0.00352549194279
0.000204200628338
-0.00358597087835
0.000178725403953
-0.00363794645451
0.000153735455494
-0.00368160481476
0.000129206225666
-0.00371707660611
0.000105122756397
-0.00374452790967
8.14437950119e-05
-0.00376406286279
5.81429192116e-05
-0.00377582060186
3.51702664454e-05
-0.00377987482878
1.24956732698e-05
-0.00377633592717
-9.93141700651e-06
-0.00376524837653
-3.21369553382e-05
-0.00374669747022
-5.41637010376e-05
-0.00372070573857
-7.60246066947e-05
-0.00368734332137
-9.77453088957e-05
-0.00364662459308
-0.000119316432768
-0.00359862127748
-0.000140737107595
-0.00354336020399
-0.000161967148062
-0.00348093750131
-0.000182971744655
-0.00341141794956
-0.000203674825699
-0.00333494811265
-0.000224005302494
-0.00325165700174
-0.000243852715884
-0.00316176530028
-0.000263114963189
-0.00306548676377
-0.000281656601025
-0.00296313114382
-0.000299356848473
-0.00285500644438
-0.000316069092986
-0.00274151486535
-0.000331666100285
-0.00262305854641
-0.000345997644621
-0.00250013136292
-0.000358929166476
-0.00237323383213
-0.000370295271809
-0.00224296543585
-0.000379931616938
-0.00210995371492
-0.000387629268723
-0.00197494659456
-0.000393169529683
-0.00183874938229
-0.000396295053443
-0.00170229984658
-0.000396763363217
-0.00156659286925
-0.000394345436105
-0.00143271750844
-0.000388888275167
-0.00130177170833
-0.000380304430652
-0.00117488251207
-0.000368610837406
-0.00105310552533
-0.000353938727069
-0.000937439281889
-0.000336526653939
-0.000828717156843
-0.00031674521559
-0.000727609698415
-0.000295058078042
-0.000634697405338
-0.000271808459704
-0.000550405359146
-0.000247524432081
-0.000474841593136
-0.000222960490597
-0.000407758830402
-0.000198972489133
-0.000348589224012
-0.000176280907914
-0.000296627544037
-0.000155281605247
-0.000251203723363
-0.000135991751872
-0.000211781379934
-0.000118238411971
-0.000177922364549
-0.00010185108988
-0.000149222043279
-8.67897272766e-05
-0.000125203880064
-7.31713504255e-05
-0.000105284828142
-6.11887271207e-05
-8.88129331435e-05
-5.09410286203e-05
-7.51706992061e-05
-4.23547547861e-05
-6.38440292167e-05
-3.51991469751e-05
-5.44572980239e-05
-2.91880581596e-05
-4.6722646383e-05
-2.40957549959e-05
-4.03861761955e-05
-1.98007260818e-05
-3.52160118261e-05
-1.62030191802e-05
-3.10075251209e-05
-1.32143670766e-05
-2.75671300433e-05
-1.07650337911e-05
-2.46924970056e-05
-8.83262433259e-06
-2.22628802728e-05
-7.40561502676e-06
-2.00627292017e-05
-6.38415056696e-06
-1.8016372791e-05
-5.55012749369e-06
-1.63781634793e-05
-4.97922821568e-06
-1.50366422112e-05
-4.89677344082e-06
-1.32128338795e-05
-5.68356697841e-06
-1.09420268383e-05
-6.43962602885e-06
-8.48584170381e-06
-7.20853079255e-06
-5.70768097206e-06
-8.55090927224e-06
-2.92914554037e-06
-9.767419494e-06
-9.66054394539e-06
-0.000217993014595
0.000844693738321
-0.000447949438544
0.000890788517826
-0.000675800171535
0.000883052463722
-0.000899934625504
0.000869316406206
-0.00111920800399
0.000851297362681
-0.00133258803919
0.000829387260712
-0.00153916405067
0.000803992484984
-0.00173814711678
0.000775557020708
-0.00192888338257
0.000744540453637
-0.00211084212868
0.00071140439995
-0.00228362142557
0.00067659274037
-0.00244692639546
0.000640524360175
-0.00260057106264
0.000603578781842
-0.00274445091873
0.000566096076142
-0.00287854489704
0.000528367639233
-0.00300288567751
0.000490642213269
-0.00311756450522
0.000453120159981
-0.00322270131546
0.000415963602009
-0.00331845375746
0.000379292146229
-0.003404987986
0.00034319525458
-0.00348249211527
0.000307727821641
-0.00355114768286
0.000272923442693
-0.00361114717247
0.000238788889561
-0.00366266582176
0.000205317634001
-0.0037058825971
0.000172482934854
-0.00374095197639
0.000140251460633
-0.00376802783516
0.000108575086436
-0.00378723504037
7.74047947097e-05
-0.00379869585204
4.66815648946e-05
-0.00380250141514
1.63508278825e-05
-0.00379874050841
-1.36471553929e-05
-0.00378747129791
-4.33620364065e-05
-0.00376875250191
-7.28430163696e-05
-0.00374261598538
-0.000102122801768
-0.00370910036757
-0.000131227411218
-0.00366822504326
-0.000160159513619
-0.00362002616007
-0.000188908664497
-0.0035645323482
-0.000217434966585
-0.00350180244297
-0.000245680583293
-0.00343190254254
-0.000273555019147
-0.00335494396487
-0.000300949046218
-0.00327106024561
-0.000327722945062
-0.00318044285596
-0.000353723595034
-0.00308331606649
-0.000378775959634
-0.00297996775286
-0.000402702282156
-0.00287072073169
-0.00042531455858
-0.00275595798852
-0.000446431658166
-0.00263609258481
-0.000465867339118
-0.00251159161802
-0.000483438716642
-0.00238295255539
-0.000498944644654
-0.00225073550894
-0.000512163268491
-0.00211555564558
-0.00052282570611
-0.00197812851145
-0.000530617640055
-0.00183927177541
-0.000535174533311
-0.00169994088491
-0.000536121502329
-0.00156120080151
-0.000533114194114
-0.00142421018614
-0.000525911017257
-0.00129016970554
-0.000514377284561
-0.00116031637406
-0.000498498257835
-0.00103581623361
-0.000478472655739
-0.0009177883752
-0.00045458819851
-0.000807142160386
-0.000427423863858
-0.000704495290053
-0.000397736438239
-0.000610581747986
-0.000365751075999
-0.000526023344198
-0.000332111197275
-0.000451010956378
-0.000297998246728
-0.000385168410673
-0.000264840666526
-0.000327623192732
-0.00023384966719
-0.000277330580205
-0.000205598316558
-0.000233437717719
-0.00017990736656
-0.000195400785826
-0.000156298187979
-0.000162890825377
-0.000134382957181
-0.000135640119633
-0.000114061392842
-0.000113238248802
-9.55932863581e-05
-9.50239924985e-05
-7.94214492901e-05
-8.01880751061e-05
-6.57945950071e-05
-6.79687277593e-05
-5.4590473737e-05
-5.7797319332e-05
-4.53866363001e-05
-4.93454356786e-05
-3.76554536984e-05
-4.24119743272e-05
-3.10448356505e-05
-3.67748299718e-05
-2.54531454258e-05
-3.2216519533e-05
-2.07765538232e-05
-2.85504298556e-05
-1.68951521423e-05
-2.56007174103e-05
-1.37288289277e-05
-2.32236324535e-05
-1.12232338128e-05
-2.09482811915e-05
-9.69485234722e-06
-1.88944980618e-05
-8.45255974309e-06
-1.70981887654e-05
-7.36174858533e-06
-1.52565609072e-05
-6.83751047353e-06
-1.3308289087e-05
-6.863614004e-06
-1.17902171664e-05
-7.22379276488e-06
-9.60585149807e-06
-8.64987254196e-06
-6.95409000379e-06
-9.88697808357e-06
-4.62266742176e-06
-1.09103349495e-05
-2.40322024501e-06
-1.20149838365e-05
-1.20770524103e-05
-0.000222559548646
0.00106733009977
-0.000457186422337
0.00112549626217
-0.000689531315094
0.00111547889133
-0.000917890517214
0.00109775693313
-0.00114104294005
0.00107453089914
-0.00135790068039
0.00104632598793
-0.00156751422605
0.0010136866421
-0.00176907847999
0.000977201732381
-0.00196193733375
0.000937479239022
-0.00214557696882
0.000895123711567
-0.00231962014739
0.000850714891625
-0.00248381043779
0.000804793247203
-0.00263800112802
0.000757847179143
-0.00278213554556
0.00071030766907
-0.00291623532036
0.000662543479215
-0.00304038080868
0.000614863062376
-0.00315470178394
0.000567515154145
-0.00325936010285
0.000520695027046
-0.00335454405051
0.000474547595628
-0.00344045379936
0.000429175378799
-0.0035172993934
0.000384641928946
-0.00358528862622
0.000340979828175
-0.00364462799967
0.000298193284202
-0.00369551233
0.000256265406488
-0.00373812794654
0.000215159618172
-0.00377264339314
0.000174826170927
-0.00379921424901
0.000135202589696
-0.00381797455144
9.62197441764e-05
-0.00382904295485
5.78017908144e-05
-0.00383251482433
1.98723154435e-05
-0.00382846970482
-1.76456897503e-05
-0.00381696438178
-5.48231580734e-05
-0.00379804204405
-9.17243600588e-05
-0.0037717268352
-0.000128399582699
-0.00373803511849
-0.000164884067129
-0.00369697216031
-0.000201190115843
-0.00364854590769
-0.00023730603109
-0.00359276610195
-0.000273188704103
-0.00352966034005
-0.00030876380685
-0.00345927509047
-0.000343920604612
-0.00338169269509
-0.000378515307248
-0.00329703231954
-0.000412370102031
-0.00320546492184
-0.000445281273431
-0.00310721074592
-0.0004770233306
-0.00300254841153
-0.000507361241271
-0.00289180571509
-0.000536056792329
-0.00277536101301
-0.000562879343583
-0.00265362844478
-0.000587605719135
-0.00252705751849
-0.00061001912829
-0.0023961235952
-0.000629890896399
-0.00226134234583
-0.000646960671853
-0.00212328479255
-0.00066090224859
-0.0019826213996
-0.000671303496967
-0.00184016146421
-0.000677660263274
-0.00169689262447
-0.000679418630716
-0.00155397517023
-0.000676063621131
-0.00141267674137
-0.000667242436387
-0.0012743274372
-0.000652761105121
-0.00114035193827
-0.000632508444697
-0.00101203864646
-0.000606820552527
-0.000890753270576
-0.00057590750756
-0.000777515194169
-0.000540694314751
-0.000672630158116
-0.000502652197615
-0.000577150607399
-0.000461260059086
-0.000492162577306
-0.000417125906253
-0.000418073136748
-0.000372113693351
-0.000354295873099
-0.000328641686438
-0.000299362633392
-0.000288807287629
-0.000251566103832
-0.000253417794414
-0.000209764002287
-0.000221732684492
-0.000173472890703
-0.00019261176244
-0.000142616375263
-0.000165260959491
-0.000117239718481
-0.000139459036666
-9.70959614468e-05
-0.000115755986546
-8.13660776756e-05
-9.51698928176e-05
-6.89057303887e-05
-7.8271241244e-05
-5.86747109058e-05
-6.48379497206e-05
-5.00071102768e-05
-5.40691436708e-05
-4.27143495421e-05
-4.49638891367e-05
-3.68009653002e-05
-3.69732450696e-05
-3.20773976919e-05
-3.0192231486e-05
-2.83196661934e-05
-2.45494448847e-05
-2.53674410912e-05
-1.98622435218e-05
-2.30429565405e-05
-1.60674345438e-05
-2.12483480579e-05
-1.30315611228e-05
-1.95355734566e-05
-1.1422074246e-05
-1.77779851159e-05
-1.02250785267e-05
-1.56767953135e-05
-9.4783039088e-06
-1.3665713704e-05
-8.86502941799e-06
-1.17233237041e-05
-8.82476365396e-06
-1.00188113688e-05
-8.94870411234e-06
-8.40051493756e-06
-1.02923582384e-05
-6.06284112478e-06
-1.22516661799e-05
-3.80898448606e-06
-1.31883612741e-05
-1.9373193986e-06
-1.39097576233e-05
-1.40268497706e-05
-0.00022841556632
0.00129582257971
-0.000469093474074
0.00136625592295
-0.000707240143607
0.0013537070833
-0.00094102934436
0.00133162772756
-0.0011691451653
0.00130272802234
-0.00139042845517
0.00126769044041
-0.00160388363671
0.0012272227188
-0.00180868600225
0.0011820847386
-0.00200418227902
0.00113305578157
-0.00218988258712
0.00108090390382
-0.00236544819015
0.00102635986195
-0.00253067382136
0.000970097712312
-0.00268546954744
0.000912721047463
-0.00282984021132
0.000854755773437
-0.00296386739107
0.00079664721422
-0.00308769072067
0.000738762045837
-0.00320149335485
0.000681392330325
-0.00330548728252
0.000624762381438
-0.00339990330329
0.000569035694572
-0.00348498045074
0.000514323255442
-0.00356095996623
0.000460690570938
-0.00362807794592
0.000408165356484
-0.00368656225334
0.000356743293995
-0.0037366272946
0.000306394343139
-0.00377847282681
0.000257066956382
-0.00381227996637
0.000208693100636
-0.00383821117615
0.000161191278615
-0.00385640698394
0.000114470812782
-0.00386698681156
6.84343490727e-05
-0.00387004630076
2.2982129109e-05
-0.00386565907599
-2.19853286455e-05
-0.00385387502434
-6.65622171324e-05
-0.00383472354671
-0.000110833793388
-0.00380821344326
-0.00015487040574
-0.00377433843939
-0.000198722926539
-0.00373307959419
-0.000242415735032
-0.00368441390251
-0.000285941802186
-0.00362831983666
-0.000329255885539
-0.00356478924536
-0.000372270952827
-0.00349383565363
-0.000414853884057
-0.00341550817179
-0.00045682603461
-0.00332990017594
-0.000497964555875
-0.0032371614897
-0.000538010048661
-0.00313750252982
-0.000576675672434
-0.00303119872173
-0.000613662070858
-0.00291858424401
-0.000648671669756
-0.00280004389006
-0.00068142350091
-0.00267599617072
-0.000711661064177
-0.00254687745612
-0.000739148488166
-0.00241313045617
-0.000763652744206
-0.00227520657156
-0.000784902185195
-0.00213359476304
-0.000802535291621
-0.00198888085479
-0.000816042028842
-0.00184183110034
-0.000824736488005
-0.00169347488068
-0.000827805733023
-0.00154511493183
-0.000824455719015
-0.00139817886161
-0.000814213277555
-0.0012541258073
-0.000796848528521
-0.00111472497494
-0.000771943841294
-0.000981292292105
-0.000740287249385
-0.000855768298972
-0.000701464016626
-0.000739434810938
-0.00065705929875
-0.000631350242858
-0.00061076695629
-0.00053333521794
-0.000559303198334
-0.000447569249332
-0.000502919310958
-0.000374970629385
-0.000444737180609
-0.000314636461631
-0.000389001604633
-0.000263885825909
-0.000339581861204
-0.000219691263084
-0.000297637136505
-0.000180499326972
-0.00026094806671
-0.000146092940902
-0.000227040594209
-0.00011692017731
-0.000194455574512
-9.36940550594e-05
-0.000162704242604
-7.65813921745e-05
-0.000132887869816
-6.44123554324e-05
-0.0001073549893
-5.53269600273e-05
-8.73729961269e-05
-4.77390739693e-05
-7.24399217904e-05
-4.08152313962e-05
-6.10081174864e-05
-3.47315525448e-05
-5.10617724802e-05
-3.00054207286e-05
-4.17148290603e-05
-2.64046181437e-05
-3.3808152167e-05
-2.36163256947e-05
-2.73532085569e-05
-2.15366116226e-05
-2.19568897014e-05
-1.99638533857e-05
-1.76544736758e-05
-1.85277528298e-05
-1.44816860607e-05
-1.71234908652e-05
-1.28408225074e-05
-1.5794321625e-05
-1.15690083832e-05
-1.4485130728e-05
-1.0803234996e-05
-1.2760876619e-05
-1.06066274776e-05
-1.07458053412e-05
-1.08584323963e-05
-8.49785330467e-06
-1.12169518451e-05
-6.87784658109e-06
-1.19342960753e-05
-5.36914236058e-06
-1.37828327624e-05
-3.38427024397e-06
-1.51962001568e-05
-1.70473215709e-06
-1.56113088692e-05
-1.57417510535e-05
-0.000235706777234
0.00153160651977
-0.000483931726471
0.00161456198909
-0.000729296406751
0.00159915370978
-0.000969814810408
0.00157222778059
-0.0012040493186
0.00153704410543
-0.00143075221924
0.00149447470635
-0.00164887366489
0.00144542531752
-0.00185756886428
0.00139086083979
-0.00205619483052
0.00133176231317
-0.00224429783499
0.00126908710336
-0.00242159468553
0.00120373642307
-0.0025879494547
0.00113653167232
-0.00274334895784
0.00106819909101
-0.00288787782746
0.000999362484163
-0.0030216957472
0.000930542129986
-0.00314501656437
0.000862158956525
-0.00325809100321
0.000794541804882
-0.0033611917679
0.000727937051949
-0.00345460222513
0.00066251876725
-0.00353860694329
0.0005983992235
-0.00361348511795
0.000535638472603
-0.0036795049801
0.000474253339832
-0.00373692029135
0.000414224971516
-0.00378596704007
0.000355505623492
-0.00382686160623
0.000298024084261
-0.0038597985833
0.000241690583311
-0.00388494968969
0.000186400713266
-0.00390246206692
0.000132039254185
-0.00391245755014
7.84835249518e-05
-0.0039150313279
2.56071233671e-05
-0.0039102516909
-2.67163240593e-05
-0.00389815951248
-7.86084414679e-05
-0.00387876922927
-0.000130180895339
-0.00385207003505
-0.000181529324
-0.0038180292207
-0.000232726437396
-0.00377659643681
-0.000283814328311
-0.00372771071703
-0.000334796488275
-0.00367130898257
-0.000385629902561
-0.00360733753116
-0.000436218024525
-0.00353576488713
-0.000486405661995
-0.00345659674096
-0.00053597683208
-0.0033698905572
-0.000584657085017
-0.0032757693977
-0.000632121274354
-0.00317443133812
-0.00067800755513
-0.00306615336299
-0.000721937735798
-0.00295128503668
-0.000763541118333
-0.00283023365137
-0.000802480396009
-0.00270343532101
-0.000838467557862
-0.00257132621177
-0.00087127085259
-0.00243430796971
-0.000900686269066
-0.00229274287307
-0.000926487159001
-0.0021469771112
-0.000948323290357
-0.00199743385169
-0.000965609972162
-0.00184476808389
-0.000977430111941
-0.00169004092385
-0.000982562078914
-0.00153481676318
-0.000979713230925
-0.00138075419095
-0.000968308956161
-0.00122931868145
-0.000948316682294
-0.00108306967028
-0.000918225411477
-0.000942755187128
-0.000880634089229
-0.0008118916046
-0.000832359019623
-0.000692733200658
-0.000776248378714
-0.000579921788316
-0.000723608079337
-0.000477466675221
-0.000661788144067
-0.000390110377422
-0.0005903034569
-0.000319887302604
-0.000514988655093
-0.000265484393101
-0.00044343093699
-0.000221637625141
-0.000383455612531
-0.000182560763633
-0.000336742369113
-0.000146300603134
-0.000297231622152
-0.000113447928352
-0.000259918055738
-8.54040764978e-05
-0.000222518126641
-6.42449678506e-05
-0.000183882574152
-5.12077425086e-05
-0.000145940982276
-4.43204344127e-05
-0.000114258160176
-4.01150314217e-05
-9.15916168396e-05
-3.59806893035e-05
-7.65884696837e-05
-3.07424031797e-05
-6.62592774341e-05
-2.55031586556e-05
-5.63157385891e-05
-2.20964088062e-05
-4.51362308128e-05
-1.98914560401e-05
-3.60287158578e-05
-1.82149450257e-05
-2.90453342262e-05
-1.71834058362e-05
-2.30035874828e-05
-1.65292323723e-05
-1.83230428316e-05
-1.57240992621e-05
-1.53011535759e-05
-1.49758074465e-05
-1.36037277812e-05
-1.39393158681e-05
-1.26206187619e-05
-1.27426005792e-05
-1.20158237277e-05
-1.12495544901e-05
-1.21168548719e-05
-9.73404705199e-06
-1.23921361063e-05
-7.80070450897e-06
-1.31694363391e-05
-5.81458473635e-06
-1.39404117917e-05
-4.62387104949e-06
-1.49950978154e-05
-3.04545822429e-06
-1.6794799401e-05
-1.53068469838e-06
-1.71448191367e-05
-1.728261484e-05
-0.000244608041854
0.00177629176717
-0.00050203911962
0.0018720751705
-0.000756184683207
0.00185338114231
-0.00100485122958
0.00182097629818
-0.001246448092
0.00177872270134
-0.00147961893329
0.00172772715717
-0.00170325201891
0.00166913981991
-0.00191648537997
0.00160417537985
-0.00211869830526
0.0015340561327
-0.00230949161616
0.00145996093896
-0.00248866032843
0.00138298523816
-0.00265616220238
0.00130411312314
-0.00281208526174
0.00122420113662
-0.00295661671346
0.00114397221697
-0.0030900149374
0.00106401785076
-0.00321258546481
0.000984806070083
-0.00332466131077
0.000906693233226
-0.00342658746641
0.000829937658197
-0.00351870920307
0.00075471371954
-0.00360136347261
0.000681125345974
-0.00367487290728
0.000609218287651
-0.00373954161512
0.000538990840219
-0.0037956524482
0.000470402895828
-0.00384346501428
0.000403383476559
-0.00388321438578
0.000337836820383
-0.00391510986123
0.000273647418096
-0.00393933401413
0.000210684093182
-0.00395604141797
0.000148803683982
-0.00396535757498
8.78543639844e-05
-0.00396737746093
2.76792917437e-05
-0.00396216451027
-3.18795618188e-05
-0.00394974955229
-9.0976297047e-05
-0.00393013081824
-0.000149755338501
-0.00390327443065
-0.000208344253005
-0.00386911701251
-0.000266845463452
-0.00382756962858
-0.000325326385852
-0.00377852499738
-0.000383809130009
-0.00372186684986
-0.000442259370475
-0.00365748343757
-0.000500576378294
-0.00358528329259
-0.000558584325917
-0.00350521468651
-0.000616027857915
-0.00341728551161
-0.000672572585292
-0.00332158323285
-0.000727813911368
-0.00321829026565
-0.000781295001735
-0.00310769105944
-0.000832535096969
-0.00299016723693
-0.00088106766217
-0.00286617250319
-0.000926480527006
-0.0027361944799
-0.000968456370719
-0.00260069114136
-0.00100678663082
-0.00246003565738
-0.00104135950667
-0.00231446446571
-0.00107207746108
-0.00216409585112
-0.00109871398979
-0.00200904381859
-0.00112068631202
-0.00184969430636
-0.0011368045939
-0.00168709569288
-0.0011451896744
-0.00152335450564
-0.00114348457953
-0.00136056293898
-0.00113113082811
-0.00119951200399
-0.00110940034348
-0.0010451684563
-0.00107260164366
-0.00089500233677
-0.00103083407821
-0.000757296055562
-0.000970098635766
-0.000638371376462
-0.000895206904874
-0.000517908503169
-0.000844111695023
-0.00040691034021
-0.000772816242659
-0.000316099304117
-0.000681150450334
-0.000249589102698
-0.000581526406286
-0.000205999092846
-0.000487047260939
-0.000174037256067
-0.000415453986849
-0.0001419808119
-0.000368814955121
-0.000108298934658
-0.000330946793638
-7.57682074828e-05
-0.000292461582652
-4.71702514432e-05
-0.000251139093739
-2.71170185629e-05
-0.000203950806928
-1.98342654139e-05
-0.000153239769063
-2.1388365505e-05
-0.000112719135038
-2.45608282777e-05
-8.84317591446e-05
-2.49586041428e-05
-7.62043226025e-05
-2.05971294624e-05
-7.06330817585e-05
-1.48023852244e-05
-6.21237483406e-05
-1.29879125818e-05
-4.69660101871e-05
-1.27433891964e-05
-3.62888126172e-05
-1.22163745654e-05
-2.95877458196e-05
-1.24236053284e-05
-2.28112111304e-05
-1.27962802391e-05
-1.79648724512e-05
-1.28194043981e-05
-1.5292367202e-05
-1.27863553237e-05
-1.36514562544e-05
-1.23588625378e-05
-1.30634222277e-05
-1.13978888233e-05
-1.29927841775e-05
-1.0182801766e-05
-1.3348637978e-05
-8.60511025802e-06
-1.39872710133e-05
-7.24107736839e-06
-1.45520879451e-05
-5.53984653537e-06
-1.56606004801e-05
-4.04875584884e-06
-1.65041867291e-05
-2.85536228142e-06
-1.80077749529e-05
-1.40540202938e-06
-1.86133326664e-05
-1.86963318497e-05
-0.000255339633149
0.00203170888184
-0.000523853185359
0.00214067012196
-0.000788530705043
0.0021181409685
-0.00104691624895
0.0020794438714
-0.00129722705892
0.00202911552213
-0.00153797644658
0.00196855838803
-0.00176798467946
0.00189922974594
-0.00198638057484
0.00182265276892
-0.00219258479896
0.00174034158165
-0.00238627933658
0.00165373638645
-0.00256736836053
0.00156415475842
-0.00273593525186
0.00147276004263
-0.00289220008849
0.00138054541899
-0.00303648039659
0.00128833131876
-0.00316915728386
0.00119677275374
-0.00329064757626
0.00110637351739
-0.00340138222864
0.00101750404786
-0.00350179027006
0.000930420774271
-0.00359228764044
0.000845284944944
-0.00367326975509
0.000762179996151
-0.00374510700873
0.000681126632308
-0.00380814220483
0.000602095579245
-0.00386268932806
0.00052501790089
-0.00390903298269
0.000449793247789
-0.00394742815099
0.000376296241951
-0.00397809989759
0.000304381444082
-0.00400124282181
0.000233887237128
-0.0040170201328
0.000164639034365