/*--------------------------------*- C++ -*----------------------------------*\
| =========                 |                                                 |
| \\      /  F ield         | OpenFOAM: The Open Source CFD Toolbox           |
|  \\    /   O peration     | Version:  v1906                                 |
|   \\  /    A nd           | Web:      www.OpenFOAM.com                      |
|    \\/     M anipulation  |                                                 |
\*---------------------------------------------------------------------------*/
FoamFile
{
    version     2.0;
    format      ascii;
    class       volScalarField;
    location    "30";
    object      p;
}
// * * * * * * * * * * * * * * * * * * * * * * * * * * * * * * * * * * * * * //

dimensions      [0 2 -2 0 0 0 0];


internalField   nonuniform List<scalar> 
9216
(
360.504269633
360.651282793
361.003040848
361.521485297
362.208191404
363.067998676
364.097935823
365.29220536
366.649307952
368.166693313
369.841794228
371.660047411
373.617077736
375.67435674
377.824907813
380.09934198
382.512261294
385.069076631
387.731035515
390.496713492
393.355477241
396.223211743
399.097617011
402.022343897
404.966311468
407.934904815
410.91709832
413.881357448
416.815042537
419.723909857
422.596730127
425.374517582
428.108343925
430.862591936
433.544149579
436.17279604
438.737588622
441.181554026
443.504933629
445.718234049
447.810760944
449.774587698
451.608170066
453.313593259
454.891216969
456.347849043
457.696940301
458.944277213
460.078768802
461.09515326
462.009872217
462.834853863
463.571010502
464.223875971
464.807340224
465.327057888
465.784818335
466.185467904
466.542651508
466.860514053
467.14493995
467.399204604
467.628728864
467.834465703
468.020691342
468.188037648
468.340886648
468.478520419
468.603923545
468.719144492
468.826631725
468.920369573
469.00415179
469.078845883
469.148640879
469.2099256
469.264394039
469.311395527
469.355665621
469.393740613
469.427108788
469.45523867
469.481576385
469.504084476
469.523891482
469.540421605
469.55633875
469.569815813
469.578837009
469.58252393
469.582598282
469.580293652
469.577962084
469.575352148
469.572452041
469.570175605
360.357694894
360.50546559
360.843747339
361.360318336
362.04886047
362.912020888
363.943639195
365.13888415
366.498518538
368.018585173
369.692908247
371.519664205
373.481507923
375.544064727
377.708661205
379.993413041
382.420271386
384.989252214
387.643642518
390.400622623
393.27014325
396.157342674
399.060929571
402.003505222
404.946858271
407.903057108
410.870104008
413.836012128
416.796893918
419.732856522
422.602277398
425.41763678
428.202812519
430.951838706
433.649573822
436.28746175
438.850913322
441.292071413
443.609106985
445.828802592
447.917886107
449.87244921
451.704494234
453.421945061
455.006055448
456.450450389
457.793997373
459.046443656
460.183955198
461.192333713
462.10379493
462.929293987
463.656594709
464.294836257
464.868144471
465.384971657
465.83473863
466.224542013
466.575918443
466.890013998
467.170579604
467.421783042
467.648507669
467.85009527
468.034490293
468.204260907
468.355203939
468.489066586
468.610819643
468.727835665
468.837045077
468.931804412
469.013560587
469.087244215
469.155759549
469.216777823
469.268745576
469.314661449
469.358292259
469.396974269
469.429910473
469.457517811
469.482705459
469.504720505
469.524299484
469.541109427
469.556669308
469.569097599
469.578408304
469.583046975
469.582230819
469.579448764
469.577164757
469.573824586
469.570113703
469.567868294
360.004581163
360.1667456
360.508182005
361.028489098
361.720803291
362.58500756
363.621847245
364.82512703
366.191313122
367.721103578
369.401949583
371.226252904
373.192007603
375.285865647
377.481248057
379.785408155
382.228729587
384.798479428
387.473678768
390.245218661
393.105292474
396.016600947
398.966045273
401.926112529
404.896274942
407.878804908
410.84646236
413.802121178
416.748479614
419.704169493
422.618923889
425.498848112
428.321355278
431.073859029
433.792538673
436.451087061
439.018233656
441.465540308
443.79817507
446.020777437
448.119892414
450.090689368
451.913129031
453.617794759
455.209187374
456.640357477
457.972796787
459.255585575
460.380239459
461.354947358
462.25004321
463.058272517
463.771829337
464.405396929
464.968401953
465.467659162
465.907277591
466.293470386
466.636932408
466.944869529
467.218680146
467.463840944
467.687963401
467.889309998
468.069930843
468.233697592
468.382012462
468.515968413
468.637715779
468.750897374
468.855325907
468.945512157
469.021620538
469.093713963
469.165259384
469.228996434
469.279708089
469.324551229
469.365493876
469.402116036
469.432656307
469.460559342
469.485363577
469.506071347
469.525603679
469.542648013
469.556041756
469.565804006
469.575188772
469.580733174
469.580156537
469.577601203
469.574226415
469.569947093
469.566588568
469.564922893
359.479016814
359.645845987
359.991596114
360.515572961
361.216445036
362.088166432
363.133571331
364.34827434
365.72563735
367.261399392
368.95556025
370.797532396
372.782615794
374.883213793
377.094453975
379.43718051
381.909779636
384.503026326
387.206422786
390.006333441
392.90198287
395.858185258
398.813788567
401.79343468
404.783189153
407.76525067
410.737705792
413.731584217
416.71394124
419.668408365
422.619248971
425.543753785
428.418559768
431.229790227
433.99575969
436.710608738
439.297611296
441.74915239
444.099232426
446.352475551
448.447248246
450.378264687
452.149652946
453.815104887
455.390337393
456.83271935
458.180652017
459.434629658
460.581209626
461.577192621
462.459960518
463.259396817
463.952942338
464.572178649
465.119967826
465.602241915
466.028064787
466.400014521
466.72897922
467.028636016
467.291838507
467.524988387
467.74600768
467.945288243
468.118141336
468.275553211
468.41995154
468.549533291
468.666837853
468.775820797
468.883390324
468.974978505
469.053938083
469.120807546
469.185992138
469.246095675
469.292762386
469.333710897
469.373678153
469.409299462
469.440674736
469.468353728
469.487910024
469.505659891
469.525920831
469.543442442
469.555805488
469.564237108
469.571460586
469.575816195
469.576976215
469.574147402
469.569998829
469.565666518
469.562106935
469.560341112
358.774205326
358.946010023
359.297584108
359.826105986
360.53444124
361.417949749
362.476012699
363.702719701
365.093898964
366.648635223
368.362625776
370.231280404
372.223011072
374.334748564
376.583062728
378.961627565
381.470193931
384.0973355
386.845731231
389.682364295
392.595902066
395.589304464
398.599918985
401.606657076
404.57638067
407.57069381
410.583619578
413.588667684
416.616940457
419.644674626
422.659521651
425.662214542
428.591356289
431.433257474
434.246090412
436.99835219
439.641295802
442.158476454
444.480760114
446.600235124
448.616216992
450.54990641
452.358068842
454.102900626
455.685384579
457.109758832
458.466520427
459.715953917
460.831473283
461.831647112
462.756337105
463.541449193
464.192763536
464.791526162
465.320951269
465.780040603
466.18962618
466.526338906
466.833078243
467.129888325
467.36888832
467.58339041
467.805148558
467.994333354
468.156377964
468.309209362
468.449437543
468.576499769
468.687092915
468.797015984
468.907151901
468.996746603
469.076150508
469.151469773
469.214018432
469.264749134
469.304840611
469.342262596
469.382724955
469.417142339
469.44917978
469.477455161
469.497036359
469.51656782
469.535198018
469.548614698
469.556422496
469.56006497
469.565440209
469.571387903
469.571932033
469.570133516
469.565362957
469.560480755
469.556414475
469.554730156
357.88828925
358.063461897
358.421377374
358.959388443
359.676720391
360.57358856
361.646269955
362.888259039
364.29938761
365.876345165
367.618036304
369.502052447
371.515818641
373.655697074
375.940534838
378.357010577
380.914856277
383.584554573
386.357176174
389.243436154
392.231488755
395.263318356
398.28901599
401.29722918
404.275499012
407.286571767
410.352878263
413.439448308
416.534056174
419.649491585
422.722540551
425.741379932
428.737783351
431.672035079
434.578471813
437.422796135
440.016156214
442.375155256
444.632356462
446.804145624
448.907485938
450.857854844
452.647683874
454.379689593
455.987671068
457.460619192
458.863700335
460.101231639
461.181493476
462.160213745
463.075297277
463.831897146
464.457094895
465.049974423
465.534308925
465.959652537
466.304293708
466.603179566
466.908340189
467.172332654
467.392009771
467.60320588
467.811127345
467.999235561
468.166448756
468.321293257
468.462508107
468.591232131
468.707738098
468.818462281
468.921832175
469.013268997
469.099240237
469.172765312
469.225427467
469.273828711
469.31613753
469.355210659
469.390569749
469.423247759
469.454346552
469.483942816
469.507965812
469.528340616
469.542187552
469.551979739
469.55601474
469.560836245
469.566811135
469.567974574
469.566924684
469.564718889
469.558931182
469.554413702
469.550219396
469.548471789
356.817288637
356.995335119
357.360062133
357.909505508
358.640864976
359.554815263
360.645956108
361.905430071
363.338907192
364.942544608
366.718252361
368.622609105
370.656108924
372.83349526
375.166781968
377.628548557
380.212901212
382.93243619
385.766760966
388.713178869
391.771930095
394.845598262
397.855151017
400.850913118
403.878681755
406.970712743
410.112444444
413.295574487
416.448728614
419.58225951
422.729449175
425.856983767
428.965773452
431.958027043
434.901201283
437.678502771
440.171744336
442.562713941
444.926598712
447.105352719
449.154243857
451.142440027
453.013040798
454.79908196
456.411412816
457.869784011
459.248901413
460.497144339
461.577684461
462.518940588
463.394844512
464.112764465
464.715756701
465.236274669
465.668728226
466.035779492
466.347463777
466.636750369
466.920300118
467.17048751
467.395093083
467.608595358
467.814455242
468.005771435
468.178174555
468.334833354
468.478016492
468.608226531
468.726224178
468.834728125
468.934098459
469.022936115
469.102769599
469.17179894
469.230278866
469.280396128
469.324085215
469.364701089
469.402462079
469.436172544
469.468698879
469.50034319
469.523452478
469.534292472
469.543616854
469.548814249
469.554230607
469.560366718
469.564679021
469.566191956
469.565703973
469.56080936
469.553556499
469.54738954
469.542988074
469.540776932
355.559252994
355.737974712
356.109754438
356.674229072
357.415708817
358.349054002
359.466346163
360.750497082
362.207553483
363.841129233
365.644947301
367.588770867
369.658310559
371.87701467
374.236029369
376.747524385
379.391823495
382.16779247
385.065684334
388.08919832
391.187807317
394.277946547
397.29034483
400.31899173
403.431791598
406.6082445
409.846035701
413.072982454
416.278890821
419.51870528
422.769835806
426.020650264
429.194844962
432.213590717
435.095310328
437.773471354
440.319461683
442.839806636
445.183901489
447.355435948
449.488962158
451.578174613
453.451172676
455.168368159
456.803299849
458.355582001
459.70001607
460.875383604
461.95969676
462.881291872
463.681295152
464.331962347
464.871049671
465.320758247
465.706542369
466.053134306
466.354087755
466.635342812
466.90948241
467.163571975
467.397241462
467.617293909
467.825403879
468.018663278
468.194707629
468.354618645
468.499683783
468.630626465
468.748511796
468.855118506
468.951483146
469.03758901
469.114303284
469.181889638
469.240435573
469.291067137
469.335524683
469.375992414
469.412725442
469.445327968
469.474874539
469.500578734
469.519609614
469.533748671
469.545367996
469.556459981
469.563695708
469.56184826
469.561139154
469.565387858
469.565319071
469.558306006
469.549517887
469.539504093
469.534704551
469.53207404
354.103857441
354.284984348
354.662864578
355.241968057
356.001630107
356.951862027
358.09500717
359.411633043
360.90134177
362.57586098
364.409045549
366.390930123
368.498322678
370.757573367
373.17173098
375.735157559
378.439126849
381.278232337
384.244258
387.340081345
390.462455331
393.544532313
396.613576702
399.722228153
402.923942091
406.202785012
409.489468388
412.772475574
416.093321156
419.450083064
422.834310579
426.155868122
429.330619702
432.340635643
435.160319233
437.872354308
440.5616076
443.075786495
445.42449333
447.691705168
449.907508323
451.968897779
453.842423095
455.62667373
457.308116372
458.811776858
460.132263791
461.263340703
462.289896827
463.137790344
463.871977078
464.439821174
464.910952366
465.330979731
465.691512383
466.021252022
466.327851367
466.61886331
466.898134069
467.160329064
467.404003619
467.631405312
467.843538281
468.039528567
468.218509411
468.380816199
468.527100382
468.658145885
468.77513684
468.879710141
468.973220997
469.056423999
469.130295018
469.195516992
469.25258509
469.302369659
469.346166273
469.385358837
469.420410756
469.451305997
469.478445858
469.501557874
469.520124349
469.534480548
469.54583095
469.554166961
469.558332049
469.561433954
469.565911476
469.566897512
469.562610233
469.557446423
469.544184023
469.531667404
469.524823275
469.521710954
352.443171382
352.63138699
353.01781523
353.608219905
354.390450491
355.36553632
356.538364937
357.888681608
359.414661429
361.127913797
363.004646627
365.018270817
367.180138386
369.487015639
371.957315576
374.580999349
377.351370775
380.262521444
383.315914536
386.46654427
389.601063371
392.680045564
395.818321687
399.042276869
402.354922881
405.69085965
409.039985059
412.446817717
415.882137521
419.383096996
422.856167201
426.191625718
429.362870156
432.327432787
435.195395272
438.0595986
440.753483209
443.293345642
445.796770983
448.084252308
450.226165263
452.329206887
454.359217113
456.146394129
457.740789911
459.228683674
460.483892088
461.546727105
462.484298214
463.291051444
463.938464077
464.460991409
464.884413996
465.269125662
465.629713065
465.971148578
466.294595601
466.601268552
466.891797782
467.164103873
467.417230641
467.651876552
467.868723003
468.067853193
468.249209118
468.413023209
468.559765749
468.690219812
468.805597232
468.907597897
468.997882034
469.077711916
469.148304727
469.210554303
469.265198198
469.313069069
469.355181781
469.392516893
469.425595136
469.454596572
469.479757122
469.501068073
469.518487597
469.532142442
469.542513097
469.549775797
469.554337777
469.55725022
469.558706054
469.558402997
469.556609641
469.552053464
469.540074781
469.525018143
469.51317492
469.509847916
350.578918891
350.774519177
351.171053831
351.777061149
352.582008229
353.584649703
354.790489111
356.177908321
357.744369733
359.493888766
361.424415771
363.478093029
365.683685536
368.055036509
370.588570531
373.279092421
376.12072741
379.1093973
382.247628526
385.407871196
388.552990912
391.726724211
394.956839882
398.295147818
401.668856776
405.073334546
408.554728777
412.108827094
415.647985488
419.230988049
422.761051067
426.118570732
429.257023061
432.272446081
435.305366902
438.178890658
440.904655132
443.605633845
446.092865226
448.385028256
450.612344767
452.800256927
454.811661682
456.612761284
458.180740982
459.585771282
460.724160422
461.67672297
462.563396392
463.30223211
463.900727057
464.376534213
464.787081947
465.180449582
465.55911685
465.9209632
466.264340173
466.58841941
466.892691982
467.176213622
467.438582559
467.680234531
467.901860734
468.10405535
468.287229162
468.451748771
468.598090759
468.727075839
468.839972463
468.938663502
469.025084939
469.100845163
469.167450146
469.225984633
469.277338241
469.322364748
469.361937227
469.396842707
469.427597724
469.454475738
469.477682966
469.497301522
469.513378541
469.525978925
469.535307473
469.541584229
469.545257646
469.546856136
469.546678863
469.545005149
469.541212396
469.535878479
469.534133371
469.51766609
469.501452669
469.496653818
348.511160339
348.714020224
349.117410693
349.740180377
350.57024902
351.604157885
352.847447983
354.277649261
355.89576469
357.68868879
359.65732288
361.768040236
364.027574134
366.462047007
369.062914072
371.825578373
374.745558381
377.837312995
381.013210908
384.210033745
387.380900995
390.631963362
394.012778765
397.419879771
400.861687349
404.397752395
408.019878786
411.642799527
415.264185211
419.013294011
422.541071465
425.891975547
429.142993151
432.289103282
435.331324184
438.243970043
441.147486672
443.84098634
446.344411387
448.800070958
451.025882762
453.126175094
455.181423854
456.946224366
458.491032933
459.789211852
460.872313201
461.733199189
462.490646306
463.198409559
463.754227481
464.223974046
464.662513962
465.08459808
465.490244865
465.876723299
466.241841731
466.584278228
466.903323973
467.198550338
467.47002211
467.718352071
467.944455123
468.149283085
468.33360246
468.497975398
468.642978101
468.769490661
468.878909058
468.973386534
469.055107842
469.125939796
469.187685915
469.241618966
469.288757162
469.32999753
469.366161759
469.397950882
469.42586809
469.450224682
469.471220919
469.488957557
469.503479385
469.514808236
469.523017805
469.528243066
469.530755044
469.530872127
469.528906829
469.525301799
469.520207335
469.514127465
469.507783435
469.504354131
469.487098506
469.479454722
346.206377197
346.42177975
346.850625945
347.489820319
348.348593899
349.417820737
350.702655827
352.179844868
353.848593751
355.699182123
357.718286159
359.881813269
362.200810901
364.701890657
367.374367521
370.212434331
373.216424508
376.392943256
379.587658852
382.833840643
386.100506041
389.437851433
392.912663129
396.436556862
399.987335093
403.661954336
407.355562908
411.05868477
414.848462557
418.641527612
422.245543826
425.632966692
428.966532877
432.176407716
435.277243365
438.387455573
441.295186506
444.015054254
446.686122529
449.081758585
451.280031961
453.485745063
455.447798743
457.176051034
458.632087414
459.86413792
460.840398538
461.628772428
462.362185476
462.999046409
463.545455221
464.0513642
464.531865196
464.991359938
465.429025498
465.842795422
466.230921909
466.592316594
466.926495966
467.233462901
467.513709511
467.768195584
467.9981592
468.204903458
468.389504406
468.552749216
468.695343343
468.818275037
468.923109954
469.012331345
469.088362228
469.153290793
469.20918656
469.257522085
469.299438712
469.335897687
469.367721602
469.395586458
469.419989799
469.441257
469.459583773
469.475061778
469.487710898
469.497505849
469.504428559
469.508498229
469.509813879
469.508539026
469.504945798
469.499485628
469.492718625
469.4856405
469.478800214
469.479614371
469.466759966
469.455730106
343.651242929
343.879844792
344.341342457
345.015405177
345.909158682
347.019229553
348.35040491
349.880355408
351.600009267
353.507209072
355.585512006
357.811597138
360.196698674
362.768879631
365.517627272
368.434490891
371.509122318
374.74344098
378.006591719
381.280892373
384.671787677
388.14775881
391.690139681
395.301470657
399.02333392
402.782189526
406.567133882
410.452363167
414.346488164
418.177739824
421.797311253
425.300356588
428.689540637
431.97383609
435.289338648
438.417857276
441.370597487
444.290722975
446.925755779
449.265833734
451.553484512
453.67209011
455.587698288
457.225593573
458.623170799
459.748678155
460.666091553
461.410655495
462.08752625
462.728125037
463.321562175
463.87961343
464.408181488
464.908882654
465.38112454
465.823681069
466.235513967
466.61604209
466.965226872
467.283531534
467.571908678
467.831729234
468.064630335
468.272270709
468.456045428
468.616967931
468.755911476
468.874001985
468.973048291
469.055838765
469.125061616
469.183015622
469.231992011
469.273658852
469.309288553
469.339920909
469.366415241
469.389457241
469.409551681
469.427032134
469.442088494
469.454796243
469.46514237
469.473053774
469.478432611
469.481191313
469.481289442
469.478758507
469.473779309
469.466812601
469.458660748
469.450745065
469.445177932
469.433211812
469.437149349
469.42472959
340.85911649
341.108384046
341.586131884
342.313548772
343.248346605
344.40327272
345.785866571
347.379716115
349.140148168
351.107745579
353.256766277
355.553622261
358.011260983
360.661049058
363.500182429
366.485720778
369.663275176
372.926898432
376.259366368
379.596809331
383.060991906
386.660134975
390.342691406
394.107147083
397.914422553
401.766372042
405.734768155
409.717390342
413.603609457
417.50425874
421.360285831
424.883397266
428.320456978
431.822975788
435.165932744
438.355337567
441.539478969
444.462515418
447.134160668
449.484683531
451.598467812
453.676865073
455.513350852
457.106097515
458.401230399
459.462821153
460.320890419
461.063551273
461.775849754
462.460925905
463.110210442
463.723465333
464.301541607
464.844655205
465.352413583
465.824261479
466.259835812
466.659151775
467.022701653
467.351478144
467.646930569
467.910904104
468.145467819
468.35266774
468.534204893
468.691343823
468.825145276
468.936935135
469.028817331
469.103907431
469.165113722
469.214922315
469.255840791
469.289718454
469.3179567
469.341688647
469.361830724
469.379101582
469.39402471
469.406942803
469.418041823
469.427378239
469.434907055
469.44050587
469.444008642
469.445235269
469.444032807
469.440323937
469.434198879
469.426038492
469.416718115
469.407497111
469.399613589
469.389713827
469.401568814
469.386066102
337.804241034
338.070058088
338.586115036
339.356413219
340.35582223
341.56288226
342.999743973
344.670259014
346.496375452
348.512566768
350.72777525
353.104057099
355.637334344
358.364148071
361.269213745
364.34736295
367.585082252
370.924026013
374.330891662
377.780990636
381.36169874
385.031017943
388.791947781
392.701434376
396.674514243
400.698454676
404.773833833
408.764557272
412.769495348
416.733876685
420.641158345
424.381982711
427.986485927
431.509907047
434.921728611
438.360371641
441.556510155
444.520375484
447.180607224
449.563347695
451.619430866
453.448695146
455.238717201
456.754116012
457.99939488
459.006861295
459.87252022
460.684548845
461.464944854
462.213035074
462.923165595
463.59255738
464.220210261
464.805723972
465.348895813
465.849691008
466.308359974
466.72552265
467.102254686
467.440116509
467.741128078
468.00764424
468.242208065
468.447258392
468.624808894
468.776375668
468.903257553
469.007033268
469.090180175
469.156162144
469.208038439
469.248440411
469.28010499
469.305032094
469.324752708
469.340498888
469.353259173
469.363798127
469.37266638
469.38021891
469.38663762
469.39196154
469.396112073
469.398921749
469.400160941
469.399572648
469.396913608
469.392012007
469.384859754
469.375785552
469.36561848
469.355796286
469.347972471
469.343243289
469.351593535
469.337173903
334.476128771
334.7409389
335.302271861
336.12964135
337.206716825
338.495874927
339.992217924
341.730106212
343.646546371
345.732612174
348.000212633
350.463932939
353.079713636
355.896971398
358.862717627
362.018716772
365.325950817
368.70291729
372.155052406
375.750826479
379.428813365
383.256720796
387.150018954
391.156694331
395.264272997
399.490954277
403.591999751
407.709322259
411.8215763
415.904403364
419.892986536
423.757684219
427.437796215
431.036480352
434.71447522
438.179016181
441.424711621
444.37530558
447.054792888
449.387410192
451.421381693
453.141845245
454.717245184
456.219389054
457.42719267
458.456031642
459.408726475
460.312354635
461.174621631
461.994536708
462.768739056
463.494844956
464.171701563
464.798933786
465.376649074
465.905306823
466.385736322
466.819178145
467.207317981
467.552337172
467.856864531
468.12383155
468.356275805
468.557063057
468.728494588
468.872349426
468.990199213
469.083974708
469.15658286
469.211884253
469.252981972
469.282628415
469.303774922
469.318550776
469.328609002
469.335285997
469.339647652
469.342511204
469.344458343
469.345855704
469.346881518
469.347553996
469.347762405
469.34729206
469.345857125
469.343130081
469.338788996
469.332583067
469.324423056
469.314530954
469.303703895
469.293427561
469.285435372
469.281354924
469.286067421
469.276592092
330.836546895
331.119216482
331.713186306
332.61172262
333.769145938
335.173729632
336.755800547
338.564709429
340.569240428
342.756825647
345.092703722
347.624547288
350.329255092
353.213257307
356.274361127
359.502357267
362.882138271
366.349683272
369.855405309
373.556565938
377.334203586
381.292425191
385.314113957
389.434466494
393.655120866
397.992726813
402.329900077
406.520213326
410.767576208
414.961652241
419.078894092
423.018848842
426.728101899
430.556775931
434.281770653
437.819585204
441.058068926
444.03026308
446.656456674
448.96667677
450.903968342
452.548208508
454.137452878
455.55112193
456.777336364
457.906771426
458.967533451
459.970849788
460.920339328
461.815741933
462.655487118
463.438263026
464.163467015
464.831139181
465.441849022
465.996579298
466.496752695
466.944240422
467.341394378
467.691052138
467.996499651
468.261281567
468.48898688
468.682894779
468.845646988
468.979258917
469.085635751
469.167140295
469.227191252
469.270027611
469.298737175
469.316176512
469.325461234
469.328834857
469.328069663
469.324602444
469.319576965
469.313862425
469.308068661
469.302571232
469.297538007
469.292963882
469.28869939
469.28448336
469.279970602
469.274769165
469.26848527
469.26079035
469.251514327
469.240809992
469.229353981
469.218661341
469.21063119
469.207065063
469.213190632
469.205001865
326.863766523
327.182279278
327.827247752
328.792900793
330.041600073
331.565778094
333.294632643
335.195243942
337.287118934
339.571428222
342.011741848
344.615171833
347.409919655
350.350879954
353.46347213
356.741401279
360.179954623
363.749038497
367.369255008
371.124229779
375.051334081
379.101637973
383.357191404
387.544003137
391.900745229
396.430987959
400.787085981
405.167165002
409.557737162
413.911947449
418.155267293
422.258055383
426.112104774
429.768936157
433.611987774
437.19617169
440.458949321
443.378171736
446.002567878
448.245296946
450.168588874
451.81667353
453.340604363
454.800923488
456.145751106
457.39827634
458.573328872
459.678206373
460.716015817
461.687556534
462.592669344
463.431145909
464.203152645
464.909326956
465.550790127
466.129108543
466.646304804
467.104922853
467.508022354
467.859164103
468.162328651
468.421736142
468.641508644
468.825378229
468.976336771
469.096734139
469.188844369
469.255576082
469.300865731
469.329219003
469.343714019
469.34737734
469.343370448
469.334043427
469.321278835
469.306609718
469.291250927
469.276115773
469.261834772
469.248780964
469.237104305
469.226764437
469.21756809
469.209197839
469.201248535
469.19325954
469.184764709
469.175364518
469.164821395
469.153197182
469.141135575
469.130122302
469.122256459
469.120138077
469.130621433
469.120955107
322.558236801
322.913337345
323.625109088
324.683916959
326.045452857
327.685755788
329.57106689
331.612280169
333.81325669
336.193713473
338.73078815
341.419311605
344.283194798
347.340788775
350.512277053
353.836358549
357.281758676
360.884458271
364.68241828
368.50267976
372.507211846
376.675233951
381.003715817
385.4482272
389.888326835
394.505264835
399.158121003
403.643843382
408.201572243
412.683619109
417.088335173
421.307820297
425.347039432
429.104225356
432.664932996
436.346566142
439.528844599
442.424406013
445.015845845
447.273236148
449.201492299
450.916852339
452.552688894
454.115969327
455.584125625
456.958857607
458.246048341
459.450421397
460.574924969
461.621156187
462.589996762
463.482181044
464.298638579
465.040644663
465.709910011
466.308605995
466.839400844
467.305518177
467.710790712
468.059564399
468.356577129
468.606764726
468.814830191
468.984910138
469.12039436
469.224042492
469.298659703
469.347862065
469.375999723
469.387675795
469.385970467
469.374126803
469.3552989
469.331918623
469.30596954
469.2790684
469.252487963
469.227171897
469.203753925
469.182590794
469.16379611
469.147282862
469.132797733
469.119959917
469.108292013
469.097261766
469.086329047
469.075017568
469.063017741
469.050356961
469.037589881
469.026257224
469.01866252
469.01767269
469.031019995
469.020485179
317.877499539
318.279765135
319.079822806
320.26012753
321.764361079
323.555731873
325.588511669
327.781430687
330.123610885
332.622274286
335.265244619
338.054559449
340.976557224
344.067284071
347.322659434
350.70623772
354.262610757
357.863936224
361.68585643
365.73118972
369.779169485
374.070890979
378.511011139
383.021211326
387.676062529
392.446633533
397.142636645
401.897321544
406.626028046
411.253509949
415.778879884
420.116283388
424.266417044
428.179058007
431.83027946
435.290765612
438.381968576
441.104581504
443.778531706
446.099180002
448.139434106
450.032926351
451.823922373
453.519767447
455.114360452
456.607448978
458.00211012
459.30188251
460.509670769
461.627605206
462.657303748
463.600230838
464.457971636
465.232403873
465.925796834
466.540925387
467.08113397
467.550393686
467.953329917
468.295140904
468.581389729
468.81777231
469.009640511
469.161558856
469.277297275
469.360179765
469.413612799
469.442082013
469.450515529
469.443156784
469.423095024
469.393869152
469.358588765
469.319756502
469.279439946
469.239321855
469.20071237
469.164560963
469.131483294
469.101793639
469.075550503
469.052596496
469.032604272
469.0151104
468.999556777
468.985326885
468.97179856
468.958421717
468.944821029
468.930949718
468.917372669
468.905588867
468.897958223
468.89762784
468.911978084
468.900873749
312.77363351
313.239759361
314.158977082
315.500506602
317.189207408
319.173272501
321.392425875
323.755278635
326.240877399
328.871075716
331.625913846
334.509925919
337.541458608
340.676251584
343.960823119
347.342587628
350.919037339
354.648682325
358.489392133
362.563296899
366.84680454
371.299781799
375.774040446
380.424178614
385.26621573
390.092869513
394.947871521
399.923234677
404.856871355
409.529701163
414.23440331
418.551950714
422.850296022
426.764678883
430.527300074
433.918398143
437.029134806
439.835447515
442.441330031
444.905295482
447.155193255
449.241552581
451.196618474
453.032587837
454.752529654
456.359041262
457.855521396
459.245478407
460.531978387
461.717533692
462.804264834
463.794157377
464.689291284
465.492044108
466.205201617
466.832099282
467.3767804
467.844014682
468.239296032
468.568743057
468.838826776
469.056010555
469.22632451
469.354891709
469.446002919
469.503577901
469.531874046
469.536098291
469.521933101
469.492921517
469.452179212
469.403532311
469.350072827
469.294358072
469.238517841
469.184272838
469.132938082
469.085438696
469.04233693
469.003877063
468.970029824
468.940545538
468.914995911