/*--------------------------------*- C++ -*----------------------------------*\
| =========                 |                                                 |
| \\      /  F ield         | OpenFOAM: The Open Source CFD Toolbox           |
|  \\    /   O peration     | Version:  v1906                                 |
|   \\  /    A nd           | Web:      www.OpenFOAM.com                      |
|    \\/     M anipulation  |                                                 |
\*---------------------------------------------------------------------------*/
FoamFile
{
    version     2.0;
    format      ascii;
    class       volScalarField;
    location    "127";
    object      pa;
}
// * * * * * * * * * * * * * * * * * * * * * * * * * * * * * * * * * * * * * //

dimensions      [0 2 -2 0 0 0 0];


internalField   nonuniform List<scalar> 
9216
(
1034.2610138
1033.92565828
1033.18371861
1032.07791154
1030.60291687
1028.75905174
1026.5502109
1023.97858792
1021.05003502
1017.76788558
1014.13958121
1010.16948063
1005.86652009
1001.23607626
996.288532908
991.030303758
985.473189601
979.624688523
973.498010694
967.101800545
960.450677782
953.554510777
946.42935489
939.086376502
931.543085027
923.812035731
915.912212608
907.857621123
899.668704037
891.360940167
882.956180787
874.471337904
865.92954082
857.348979059
848.753829378
840.163340791
831.602361693
823.090781962
814.653607383
806.310800701
798.086854101
790.001099634
782.076713516
774.331568607
766.786623308
759.457416345
752.361814667
745.512183908
738.922493312
732.601243686
726.557922027
720.796720728
715.322372755
710.134669122
705.233694494
700.615120446
696.274873099
692.205144239
688.39850849
684.844563335
681.533507733
678.453311633
675.592784532
672.939179326
670.480779761
668.204867423
666.099870636
664.153635401
662.355211211
660.693389293
659.158155487
657.739448372
656.428353284
655.216036741
654.094734353
653.056839652
652.095716628
651.204903441
650.378815916
649.612021811
648.89972884
648.236364398
647.624063856
647.078562986
646.608571512
646.204997159
645.858617856
645.570262069
645.343064472
645.172061788
645.049567999
644.964372149
644.905977745
644.869708428
644.851122969
644.844569199
1034.5993845
1034.26347665
1033.53733374
1032.43391979
1030.95766762
1029.11126648
1026.89847199
1024.32255029
1021.38850496
1018.10073324
1014.46559522
1010.48864419
1006.17757423
1001.53909104
996.582199102
991.314757879
985.747072531
979.88818521
973.749713098
967.341922691
960.677764174
953.768783971
946.629316532
939.272256305
931.713355905
923.966923532
916.050175098
907.97888594
899.771743973
891.44600283
883.021795912
874.5178019
865.955481546
857.354799897
848.738337045
840.127087457
831.544400067
823.011885642
814.553154365
806.189852578
797.945187357
789.840114324
781.896628203
774.134149555
766.572559676
759.228828455
752.119821274
745.259197376
738.659985146
732.33180738
726.28324827
720.519429204
715.044199749
709.858081943
704.960293541
700.347047481
696.013427001
691.952012877
688.154589887
684.611038429
681.310845826
678.242203734
675.393315734
672.751627605
670.304924971
668.040671095
665.94689949
664.011628582
662.223597567
660.571761568
659.045874411
657.636036609
656.333158829
655.128560593
654.014344707
652.983049816
652.027941708
651.142701723
650.321708064
649.559817294
648.85269183
648.196866893
647.591589283
647.048292657
646.578274169
646.177344351
645.836456012
645.554300922
645.328057689
645.156677847
645.036824139
644.953677435
644.895508832
644.860980674
644.844300061
644.837378012
1035.34973833
1034.99519115
1034.26652863
1033.16012274
1031.67945144
1029.82731758
1027.60722582
1025.02286793
1022.07890417
1018.78018885
1015.13264265
1011.14232208
1006.81640842
1002.16215694
997.188001453
991.902393044
986.315007236
980.435512242
974.274851526
967.843939029
961.155019192
954.220307096
947.05340209
939.667887658
932.078776718
924.301081194
916.351285156
908.245887143
900.002866919
891.640223504
883.177425621
874.633935563
866.03061667
857.388261676
848.728930921
840.074494257
831.447885441
822.871639318
814.369055041
805.962748703
797.675715698
789.529904402
781.547179252
773.747935964
766.15196993
758.777173102
751.640319677
744.755873054
738.136716148
731.793108189
725.733380861
719.963068796
714.485631685
709.301769205
704.410159598
699.806975179
695.48664542
691.441543672
687.662749797
684.139859013
680.861691672
677.816159796
674.990891377
672.373111873
669.950152948
667.709328952
665.638333544
663.725106418
661.958151124
660.326405992
658.819475653
657.427482503
656.14125703
654.952178111
653.852308732
652.834273833
651.891315343
651.017189282
650.206268825
649.45348048
648.754451519
648.10594065
647.508559306
646.97535272
646.513838554
646.120087704
645.793563887
645.522785958
645.298193361
645.128552961
645.013487752
644.931650665
644.8762992
644.844142718
644.826741365
644.817814892
1036.47063487
1036.10979536
1035.37674942
1034.2647318
1032.77671112
1030.91537822
1028.68409684
1026.08669491
1023.12772187
1019.81220235
1016.14591806
1012.13510928
1007.78678979
1003.10840867
998.10820084
992.794814883
987.17770392
981.266731737
975.072590618
968.606390386
961.880103012
954.906141226
947.697820913
940.268926575
932.634191748
924.808845815
916.809104868
908.651711291
900.354416052
891.93550897
883.41427884
874.810541951
866.145069114
857.439089401
848.714679009
839.994244719
831.300862155
822.65771578
814.088371173
805.616199745
797.264587765
789.056321222
781.013727239
773.158065872
765.509623227
758.087119387
750.907770328
743.986741489
737.337222482
730.969957189
724.893368848
719.113201535
713.632719387
708.452514014
703.570785049
698.983300111
694.683776614
690.663969565
686.914119807
683.423127434
680.178997311
677.169003306
674.380078446
671.798939592
669.412383005
667.20735867
665.171180435
663.291553506
661.55673479
659.955539484
658.47743663
657.11251889
655.851570667
654.686000073
653.607888432
652.609918204
651.685355536
650.828004205
650.032205704
649.292757761
648.604658018
647.964810226
647.381939081
646.86692577
646.418987088
646.03986776
645.727246087
645.46541765
645.253203854
645.091641453
644.975299006
644.895832553
644.843769892
644.811981681
644.793953935
644.784917987
1037.97227349
1037.60714297
1036.86850611
1035.74874226
1034.250611
1032.37671215
1030.13032666
1027.51532014
1024.53620967
1021.19808858
1017.50670579
1013.46837567
1009.09006698
1004.37929845
999.344237245
993.993593698
988.336731622
982.383560309
976.144657713
969.631165358
962.85492358
955.828363978
948.564663082
941.077628932
933.381857865
925.492615585
917.426003765
909.198840624
900.828805287
892.334316839
883.734672009
875.049901191
866.300889683
857.50920238
848.69716368
839.887665729
831.10419646
822.370586924
813.710999702
805.149617033
796.710553133
788.417523491
780.293707529
772.361359613
764.641646677
757.15424798
749.917168478
742.946388666
736.255693387
729.856365523
723.757099833
717.96379873
712.479604906
707.304836816
702.43713914
697.871603071
693.601047018
689.616254478
685.906376751
682.459253217
679.261824019
676.300413661
673.56107155
671.029769064
668.692640465
666.536106999
664.547021443
662.712740887
661.02123836
659.461141248
658.021776535
656.693174376
655.466092957
654.331981678
653.28297263
652.311819396
651.411855835
650.57696931
649.801551092
649.080434633
648.408637976
647.78398326
647.217862478
646.721955663
646.293887792
645.934169581
645.637645033
645.390037119
645.185761969
645.030993099
644.92079649
644.844191282
644.793080342
644.761708825
644.743540952
644.734314561
1039.85840362
1039.48924318
1038.74399152
1037.61455123
1036.10366798
1034.21389508
1031.94848443
1029.31131298
1026.30690025
1022.94037437
1019.21749427
1015.14461253
1010.72869959
1005.97730155
1000.89857074
995.501225278
989.794588172
983.788552502
977.493628594
970.920913629
964.082156346
956.989734229
949.65672017
942.096861355
934.324655031
926.355324247
918.204898566
909.890194069
901.428876111
892.839428523
884.141223189
875.354469528
866.500249455
857.600460367
848.67780705
839.755707591
830.858248773
822.00999889
813.235925621
804.561175032
796.010879507
787.609895044
779.3825627
771.352369844
763.541674111
755.971360544
748.66053867
741.626219629
734.883030636
728.442931409
722.315039683
716.505444407
711.017168167
705.850142681
701.0013179
696.464863241
692.232414044
688.293431384
684.635620196
681.245382639
678.108282076
675.20938557
672.533619372
670.066004019
667.791866215
665.696963404
663.76759691
661.990692169
660.353883071
658.84556586
657.454911617
656.171887717
654.987248029
653.892497402
652.879853874
651.942179303
651.07294057
650.266160977
649.51630778
648.818225109
648.166532203
647.561324374
647.020945212
646.550864122
646.144868072
645.805393571
645.520075406
645.281306653
645.091304346
644.952268635
644.846815228
644.772086444
644.723302446
644.689519944
644.670314987
644.660420942
1042.13282856
1041.75930057
1041.00630117
1039.86529342
1038.3390477
1036.43011897
1034.14175422
1031.47784878
1028.44293868
1025.04218711
1021.28137795
1017.16690192
1012.705747
1007.90548355
1002.77426224
997.320801733
991.554388962
985.484882129
979.122720096
972.478932877
965.565166113
958.393707598
950.977514082
943.330231142
935.466239351
927.400682736
919.149510248
910.72949974
902.158298127
893.454433081
884.637352587
875.727439855
866.746018776
857.715347162
848.658586411
839.599757354
830.563664743
821.575751809
812.661995805
803.848700602
795.162284243
786.628997734
778.274636993
770.124217051
762.201637946
754.529293479
747.127716219
740.015220471
733.20754643
726.717543398
720.554905992
714.72596949
709.233634674
704.077339084
699.253172274
694.754091826
690.57021731
686.689252913
683.09704032
679.778113703
676.716236022
673.894880191
671.297624653
668.908338169
666.71142001
664.69183879
662.835253123
661.12807874
659.557580162
658.111876706
656.779978676
655.551803575
654.418124275
653.370535962
652.401397769
651.503750568
650.671265039
649.898152411
649.179036223
648.508842482
647.88234575
647.303103491
646.792600738
646.35015224
645.967904834
645.645781556
645.374816291
645.152136011
644.978667789
644.847085165
644.746199222
644.67382748
644.626806712
644.592345967
644.572437798
644.5623977
1044.79972038
1044.42123238
1043.65931034
1042.50481925
1040.96060598
1039.02923412
1036.71397135
1034.01873809
1030.94810443
1027.50727203
1023.70206955
1019.53892787
1015.0248725
1010.16749994
1004.97497429
999.456005505
993.619855393
987.476328084
981.035788357
974.309166649
967.307996872
960.044433828
952.531296377
944.782085962
936.811046737
928.633200628
920.264391785
911.721323121
903.021599431
894.183754754
885.227316256
876.172823261
867.041860941
857.857059354
848.642102194
839.421684062
830.221432163
821.067818802
811.988032333
803.009756397
794.160940509
785.469524955
776.963102731
768.668565677
760.611703276
752.816780095
745.306128533
738.09971496
731.214710241
724.665097152
718.461346033
712.610147613
707.11427364
701.972564557
697.180036525
692.72813027
688.60502494
684.796204298
681.285029171
678.053558203
675.08332545
672.355891355
669.85321585
667.557873244
665.45318707
663.523256214
661.753020552
660.128335969
658.636026436
657.263921547
656.000892113
654.836810361
653.762516528
652.769753967
651.851093491
650.999836424
650.209933592
649.475882801
648.792604671
648.155367692
647.558983409
647.012786166
646.535463776
646.11939466
645.762122438
645.459131776
645.205820642
645.000217338
644.839328999
644.712704651
644.619160617
644.54864159
644.500294564
644.46952892
644.448399718
644.438507119
1047.86381388
1047.47970775
1046.70760153
1045.53769079
1043.97287828
1042.0157581
1039.66962372
1036.93843505
1033.82680684
1030.33999622
1026.48388724
1022.26497178
1017.69032502
1012.76758717
1007.50494088
1001.91110057
995.995295111
989.767273535
983.237304987
976.41620453
969.315358666
961.946761835
954.323046954
946.457541955
938.364311899
930.058217617
921.554956579
912.871114003
904.024207838
895.032750145
885.916306547
876.695557284
867.392325257
858.029634107
848.631718611
839.223994631
829.833037729
820.486501775
811.21296132
802.041710956
793.002532954
784.125384426
775.44001754
766.975572978
758.760149112
750.820326533
743.180657719
735.863163025
728.886841579
722.267153374
716.015591371
710.139327856
704.641034331
699.5188346
694.766438889
690.373444382
686.325643563
682.605496883
679.193100427
676.067419869
673.207211574
670.591706517
668.201021805
666.016304965
664.019752402
662.194522724
660.524788404
658.995763918
657.593806579
656.306452753
655.122428651
654.031618501
653.024991934
652.094509266
651.233047268
650.434255467
649.692464903
649.002562858
648.359867981
647.75999818
647.198374883
646.689923514
646.245921319
645.860092093
645.529151778
645.246355592
645.011262066
644.821604002
644.671305555
644.554099299
644.463838445
644.396968291
644.348591839
644.320459559
644.297751402
644.288223858
1051.33047041
1050.94000953
1050.15645752
1048.96915308
1047.38108778
1045.394879
1043.0138606
1040.24203912
1037.08409085
1033.54534204
1029.63175547
1025.34990039
1020.70692822
1015.71053839
1010.36895571
1004.69090102
998.685580914
992.362673543
985.732343339
978.805257278
971.592625151
964.106231066
956.358485973
948.362489074
940.132088214
931.681929574
923.02751499
914.185252837
905.172532992
896.007778638
886.710549887
877.30161145
867.802999754
858.238104685
848.631711834
839.01002227
829.400660035
819.832579279
810.335936668
800.941905269
791.682408916
782.589771863
773.696304675
765.033861001
756.633327932
748.524073454
740.73337947
733.285844154
726.20277328
719.501534883
713.194976468
707.290956652
701.792069031
696.695603004
691.993745614
687.673893822
683.718765135
680.106905991
676.81415426
673.815409725
671.085927583
668.602219556
666.342395571
664.286147094
662.414545322
660.709844541
659.155380146
657.735661275
656.436521773
655.245202539
654.150324219
653.141835493
652.210924923
651.349889163
650.552002711
649.811371426
649.122826647
648.481767004
647.884045212
647.32551714
646.804736361
646.336371524
645.926820888
645.572542857
645.265890665
645.003902932
644.789340984
644.617490856
644.480044466
644.370742684
644.282316204
644.215884689
644.171108844
644.14282462
644.120468052
644.110572304
1055.2057089
1054.80815687
1054.01183984
1052.80514839
1051.19113965
1049.17246463
1046.75249763
1043.93530459
1040.72563542
1037.1289094
1033.15118922
1028.79915426
1024.08005628
1019.00168759
1013.5723343
1007.80074811
1001.69611145
995.268034052
988.5265475
981.482148323
974.145815315
966.529074979
958.644064491
950.503603737
942.121261556
933.511415492
924.689306248
915.671114381
906.474024565
897.116305227
887.617417491
877.998142458
868.2806573
858.488665258
848.647493837
838.78415464
828.927370832
819.107524181
809.356575002
799.707833504
790.195688066
780.855234908
771.721831053
762.830536704
754.215551869
745.909620398
737.943346783
730.344523851
723.137381642
716.341776235
709.972381451
704.037990504
698.541154198
693.478263253
688.839610829
684.610029916
680.768754767
677.289038348
674.140838363
671.293632491
668.718332753
666.388345096
664.279725844
662.370892805
660.642008789
659.074485476
657.650762605
656.354503137
655.170955838
654.087063064
653.091383773
652.174062632
651.326614279
650.541778958
649.813371452
649.136097219
648.505419853
647.91741217
647.368617722
646.855625042
646.379744956
645.952518716
645.5791918
645.25565453
644.973920488
644.737135367
644.544510813
644.387642962
644.259476429
644.156492516
644.074009384
644.00974138
643.964458443
643.9357489
643.9156262
643.904982823
1059.49622518
1059.09079033
1058.28040552
1057.05230351
1055.4096335
1053.35506806
1050.89202836
1048.02464628
1044.75776416
1041.09691432
1037.04829575
1032.61872922
1027.8156145
1022.64686934
1017.12088417
1011.24645989
1005.03277656
998.489362027
991.626104167
984.453272451
976.981575548
969.222211159
961.186978788
952.888355225
944.339567832
935.554656206
926.548547675
917.337116137
907.937255911
898.366970361
888.645541442
878.793630591
868.833447767
858.788927085
848.685872595
838.552081748
828.41741133
818.313811031
808.275212206
798.337344636
788.537447976
778.913860208
769.505480264
760.351150853
751.489030063
742.955868829
734.786294381
727.012042532
719.661066002
712.756509428
706.315505483
700.348163195
694.857011796
689.837426195
685.277048946
681.15850296
677.457447352
674.139458977
671.166046617
668.499302247
666.104771582
663.952486529
662.016770129
660.275270809
658.707728313
657.294884797
656.018203394
654.86015343
653.805267903
652.840220939
651.953670568
651.136027037
650.379315493
649.676904957
649.023298295
648.413944295
647.845095352
647.313628197
646.816953485
646.352767581
645.923376782
645.537093469
645.201979605
644.910687748
644.65771232
644.447630626
644.273178763
644.12813829
644.008763981
643.913284712
643.836414231
643.777606617
643.732355531
643.701580934
643.684831236
643.674462458
1064.20939042
1063.79528658
1062.96949453
1061.71794844
1060.0438668
1057.94994107
1055.43963463
1052.51715325
1049.1874474
1045.4561935
1041.32976152
1036.8151676
1031.92000736
1026.65238798
1021.02084734
1015.03428474
1008.70189079
1002.03311979
995.037683793
987.72557824
980.107156984
972.193227216
963.995160248
955.525011707
946.795598258
937.82056604
928.614457639
919.192760687
909.571972435
899.769728186
889.804958656
879.698064507
869.471126076
859.148158452
848.755321982
838.321117284
827.876561072
817.455225099
807.093202932
796.828963234
786.703010975
776.757413854
767.035238244
757.579781403
748.433828524
739.638881388
731.234372125
723.256865891
715.739095192
708.708574827
702.185962824
696.183066425
690.702454574
685.73799053
681.273457653
677.290785905
673.763577946
670.6450506
667.883829862
665.431813914
663.248047974
661.29933916
659.55908951
658.005376536
656.618438018
655.378765986
654.266497601
653.262117218
652.349221247
651.514439163
650.746628896
650.036677525
649.377384348
648.762928228
648.188683263
647.651024237
647.147137559
646.674840235
646.232490168
645.818674228
645.435378834
645.094895298
644.800053343
644.540393395
644.317152349
644.128901927
643.970951762
643.839708894
643.732490948
643.645286562
643.573788156
643.518495009
643.476716778
643.444434794
643.431176318
643.421015797
1069.35326417
1068.92966043
1068.08714666
1066.81011277
1065.10185115
1062.9650506
1060.40320783
1057.42060532
1054.02232057
1050.21420493
1046.00285106
1041.39552878
1036.4001089
1031.02495855
1025.27884554
1019.17081949
1012.71012873
1005.90614942
998.768388522
991.306501556
983.530394767
975.450369066
967.077274391
958.422646487
949.498821373
940.318998482
930.897273933
921.248663611
911.38917259
901.335902598
891.107253997
880.723139212
870.205295412
859.57759207
848.866339591
838.100626281
827.312534044
816.537302058
805.813381259
795.182274303
784.68819925
774.377601862
764.298386404
754.499071012
745.027863388
735.931779817
727.255886588
719.042617738
711.330763394
704.15399406
697.537937435
691.497229313
686.033120988
681.138740234
676.788967773
672.97051168
669.661806059
666.792713151
664.291050868
662.094590565
660.155003659
658.43675039
656.914380401
655.56851885
654.381736716
653.334976156
652.406221383
651.571944756
650.814578919
650.121234442
649.481283791
648.886321665
648.330284987
647.808423729
647.317194353
646.854088923
646.417382753
646.005936114
645.619081545
645.256330543
644.922329294
644.627965937
644.371385517
644.143738674
643.946717944
643.780151054
643.640153126
643.525856715
643.431917278
643.352948036
643.287882506
643.236857345
643.197082647
643.167440638
643.154955169
643.145311563
1074.93655839
1074.50262557
1073.64208808
1072.33754147
1070.59232826
1068.40910307
1065.79137649
1062.74350293
1059.2707047
1055.37904654
1051.07540213
1046.36737882
1041.26321506
1035.77165291
1029.901788
1023.66292224
1017.06440989
1010.11557625
1002.82567069
995.203926313
987.259668518
979.002541878
970.442727905
961.591143267
952.4595795
943.060744742
933.408248084
923.516585265
913.401139997
903.078297565
892.565683732
881.882455701
871.049680922
860.090766514
849.031897155
837.902478255
826.735507633
815.56789155
804.440554763
793.398350641
782.489789795
771.766359413
761.281680234
751.090377577
741.246960844
731.804739458
722.815187185
714.327552027
706.388511364
699.040228498
692.316938992
686.236347368
680.796368164
675.992989044
671.774224015
668.147902245
665.12168548
662.57160227
660.390852508
658.498383366
656.838924169
655.377366647
654.092993738
652.972980196
652.005554349
651.173318847
650.450446792
649.804027375
649.215475963
648.674157182
648.170493253
647.696711473
647.24868595
646.822988209
646.417326052
646.03056657
645.66221326
645.312396698
644.981584074
644.670438018
644.385143231
644.134850113
643.915105447
643.717795905
643.547551798
643.404829871
643.286239027
643.189950321
643.106842083
643.03520732
642.978226807
642.932900597
642.897769624
642.871385019
642.855891198
642.848467556
1080.9686561
1080.52354954
1079.64373211
1078.30970292
1076.52479379
1074.29158101
1071.61354774
1068.49510898
1064.94164547
1060.95947861
1056.55583821
1051.73876624
1046.51700516
1040.89981323
1034.89677634
1028.51757289
1021.77177389
1014.66867396
1007.21722876
999.426106526
991.303872819
982.859297108
974.101695707
965.041229057
955.689091916
946.057510581
936.159630612
926.009392767
915.621437621
905.011230315
894.195321261
883.191730797
872.020441587
860.703961781
849.267913255
837.741639765
826.158799465
814.557818777
802.982164689
791.480427967
780.105967773
768.916223202
757.971574034
747.333908095
737.064995466
727.225178297
717.872722989
709.064457168
700.856600326
693.30438484
686.456458297
680.336086553
674.929177052
670.254309657
666.165671735
662.743422983
660.10340611
657.975506987
656.196267923
654.664049044
653.320932189
652.137965867
651.105790912
650.224706972
649.494369015
648.902232325
648.415433737
647.976807865
647.569074471
647.189132002
646.82927317
646.481111668
646.144451736
645.817228435
645.498328805
645.188418421
644.888460705
644.600013377
644.324807247
644.064619209
643.828172818
643.621141512
643.432301173
643.265739979
643.124601799
643.005971768
642.911201777
642.828770488
642.754646053
642.694692738
642.648096183
642.60938037
642.579019801
642.555443074
642.538932143
642.533501433
1087.45952648
1087.00240559
1086.10217437
1084.73679131
1082.90953386
1080.62279047
1077.87996881
1074.68551284
1071.04497074
1066.9649719
1062.45318507
1057.5182202
1052.16948426
1046.4169645
1040.27094977
1033.7417106
1026.83917843
1019.57269283
1011.95085409
1003.98158605
995.672406583
987.030876495
978.065162816
968.784498302
959.199461086
949.321888343
939.16458648
928.74097522
918.064876005
907.150571043
896.01314909
884.669007022
873.136492889
861.436622613
849.593847426
837.636913706
825.599656172
813.521740661
801.449201701
789.434625604
777.536979929
765.820724814
754.354455868
743.208786104
732.454076545
722.15822115
712.385911461
703.200845725
694.670320787
686.868475222
679.874108806
673.720369814
668.349714535
663.89981444
659.884872763
656.62377181
654.580005978
653.03467662
651.759774475
650.647107235
649.651261888
648.757131942
647.979872554
647.3390327
646.857656638
646.534811511
646.328014297
646.116242622
645.895586777
645.683644666
645.475041976
645.254215565
645.030587576
644.802850653
644.570172139
644.336205693
644.103382309
643.875123286
643.654638843
643.445616772
643.255690976
643.084090386
642.927916642
642.794387752
642.682013858
642.589434502
642.514283677
642.444095245
642.385867236
642.340032008
642.302376163
642.270241511
642.24329817
642.223813812
642.208261216
642.204046217
1094.4197153
1093.94979921
1093.02815723
1091.62976719
1089.75766543
1087.41393915
1084.60180991
1081.32571596
1077.59137673
1073.40577618
1068.77712295
1063.71474622
1058.22894135
1052.33069498
1046.03131911
1039.34198485
1032.27324215
1024.83459194
1017.03423093
1008.87907459
1000.37515169
991.528297062
982.345062812
972.833521285
963.003675475
952.867250412
942.437023649
931.726090554
920.747372826
909.513676133
898.03811781
886.334842384
874.419848972
862.31187874
850.033418849
837.611785447
825.08027935
812.479305797
799.857248581
787.271007393
774.785897448
762.474889231
750.416696206
738.693007477
727.384595884
716.567521642
706.310832749
696.681202838
687.755099599
679.632689604
672.463767669
666.30932876
660.933042192
656.993558051
652.615942402
648.687912317
647.886080641
647.286145224
646.689101232
646.082663817
645.47585261
644.888298999
644.350450104
643.942328953
643.754366715
643.813912195
644.090982826
644.216357115
644.216725921
644.176870193
644.12986948
644.03172401
643.920454316
643.792938867
643.643404405
643.48289955
643.314003832
643.142956712
642.974889592
642.813481957
642.665172703
642.529357127
642.410735002
642.310116801
642.22647296
642.159255537
642.101922595
642.048343836
642.007552316
641.972582308
641.942136336
641.916532156
641.894968904
641.878896313
641.865844705
641.862769377
1101.86016766
1101.37672055
1100.43304508
1099.00032895
1097.08121485
1094.67722677
1091.79128217
1088.4277546
1084.59254051
1080.29302691
1075.53805906
1070.33786658
1064.70389872
1058.6485226
1052.1845188
1045.32444121
1038.07985898
1030.4606769
1022.47464452
1014.12730958
1005.42251739
996.363527919
986.954518559
977.202021186
967.115650462
956.707612712
945.991344247
934.980018984
923.685682278
912.119232971
900.291134558
888.212457095
875.895950954
863.357121818
850.61537916
837.695474324
824.629103914
811.456541459
798.228055803
785.004907509
771.85972581
758.875681616
746.144559756
733.762617793
721.824625018
710.416339547
699.606323125
689.453502909
680.031903168
671.462440969
664.06855535
657.931542452
651.51628473
649.77546003
646.645445666
646.499086075
646.838122979
646.780356001
646.524415988
646.15912106
645.72646507
645.264719876
644.833517292
644.530246796
644.343521538
644.217526848
643.872642859
643.042469664
642.450077566
642.544690813
642.775587431
642.823371789
642.826474715
642.804070361
642.728242958
642.637798324
642.527153453
642.409508907
642.289972403
642.173478388
642.066235423
641.969741322
641.886334321
641.816347083
641.760189548
641.716878553
641.674990757
641.63933071
641.612183684
641.588103263
641.567091853
641.549419604
641.535667851
641.522572397
641.513780288
641.510897575
1109.7920968
1109.29464521
1108.32872138
1106.86099196
1104.89319771
1102.42600254
1099.46180803
1096.0048789
1092.06130413
1087.6389153
1082.74728407
1077.39771067
1071.60312598
1065.37776083
1058.73652564
1051.69406915
1044.26365614
1036.45603265
1028.27853528
1019.73483887
1010.82553561
1001.54988625
991.9083526
981.905275793
971.55030171
960.857376123
949.841927665
938.518056483
926.896947218
914.986981513
902.794962829
890.327814223
877.593995523
864.604555391
851.374417971
837.924194898
824.28238415
810.487758504
796.591485752
782.658974638
768.770837443
755.02279424
741.523465491
728.389729668
715.737420759
703.667698683
692.240677861
681.485857904
671.425826695
662.06071269
653.673867915
648.546555423
648.297299573
648.58691599
648.154207319
647.853362863
647.831993372
647.685765977
647.433348651
647.077405515
646.631670534
646.130058376
645.620838038
645.158194228
644.746533309
644.368967134
643.9493267
643.484371986
643.146284341
642.867074743
642.27333059
641.607764139
641.672737132
641.845292329
641.829287334
641.81252416
641.750853205
641.68526588
641.60935876
641.537873822
641.469044703
641.408429196
641.356959181
641.314487304
641.282138441
641.257975114
641.232320185
641.214482001
641.20036671
641.18828027
641.178326236
641.170163441
641.163935306
641.156096344
641.151102312
641.148207093
1118.22665398
1117.71496727
1116.72755247
1115.22509317
1113.20785636
1110.67502318
1107.62829234
1104.0718196
1100.01194602
1095.4569851
1090.41724871
1084.90524519
1078.93573284
1072.52545166
1065.69233839
1058.45424675
1050.82722569
1042.8236976
1034.45081493
1025.70971073
1016.59608707
1007.10276015
997.224061724
986.960860012
976.323736579
965.330886656
954.002332982
942.354573099
930.397980777
918.137268273
905.574017342
892.709640462
879.547126604
866.091742085
852.352144625
838.34262792
824.086189685
809.617976032
794.988358348
780.265876314
765.539554006
750.919698808
736.536995051
722.538087838
709.073952235
696.280566995
684.204611257
672.808922241
661.920266106
650.587763797
649.789104836
649.564882039
649.510916878
649.66521592
649.53893568
649.330382652
649.142208935
648.910409348
648.615974204
648.232910576
647.761575043
647.229344381
646.673392374
646.131485306
645.619173434
645.116279009
644.571330683
643.977710737
643.456078732
643.021123588
642.566108391
642.184583269
641.843880452
641.190298637
640.895421056
641.005694504
640.986112604
640.982623557
640.945332285
640.911182185
640.875393115
640.848408329
640.825898179
640.807480164
640.79506461
640.787003327
640.780320659
640.779527974
640.776445032
640.776905184
640.77874469
640.779857741
640.780805639
640.780120298
640.777532986
640.775458237
1127.17441714
1126.64919571
1125.64218554
1124.10706378
1122.04102267
1119.44090866
1116.30752658
1112.64515277
1108.46057402
1103.76255817
1098.56203692
1092.872706
1086.7114684
1080.09835415
1073.05561566
1065.60596341
1057.77002183
1049.56337861
1040.99371064
1032.05891201
1022.74726436
1013.04101026
1002.923711
992.390132354
981.453556252
970.141609563
958.483781865
946.501544132
934.204183447
921.590499184
908.654151938
895.389282563
881.79249688
867.862032719
853.598075332
839.005581242
824.098812275
808.906110859
793.474200222
777.872661904
762.198004069
746.576606034
731.166080588
716.155196541
701.754065749
688.195131173
675.506930042
663.536958495
651.399871533
649.966094121
650.526078935
650.885231286
651.04901337
651.126766676
651.020490044
650.829879028
650.585753791
650.287319547
649.926795489
649.489212821
648.977321725
648.409038001
647.810376009
647.211508778
646.626793275
646.044350281
645.434442601
644.790937179
644.163659721
643.558551863
642.944800888
642.435531486
641.981446014
641.591114026
641.226171401
640.594669795
640.212378829
640.305037897
640.300559838
640.305191578
640.2938116
640.292897443
640.29748594