/*--------------------------------*- C++ -*----------------------------------*\
| =========                 |                                                 |
| \\      /  F ield         | OpenFOAM: The Open Source CFD Toolbox           |
|  \\    /   O peration     | Version:  v1906                                 |
|   \\  /    A nd           | Web:      www.OpenFOAM.com                      |
|    \\/     M anipulation  |                                                 |
\*---------------------------------------------------------------------------*/
FoamFile
{
    version     2.0;
    format      ascii;
    class       volScalarField;
    location    "759";
    object      pa;
}
// * * * * * * * * * * * * * * * * * * * * * * * * * * * * * * * * * * * * * //

dimensions      [0 2 -2 0 0 0 0];


internalField   nonuniform List<scalar> 
9216
(
914.734712744
914.429324669
913.797549043
912.833901052
911.543786995
909.933272018
908.00989707
905.782577366
903.261441111
900.457728386
897.383623309
894.052154089
890.477016442
886.672481146
882.653217864
878.434218412
874.030628593
869.457692836
864.730598764
859.864445811
854.874104369
849.774208389
844.579028779
839.302488089
833.958046451
828.558735563
823.117055028
817.645022633
812.154079051
806.6551517
801.158565894
795.674121804
790.21101111
784.777899337
779.382848547
774.033410144
768.736549967
763.498746156
758.325917578
753.22352602
748.196507154
743.249375624
738.386158109
733.610499972
728.925600023
724.334317555
719.839108504
715.442131713
711.145186195
706.949815598
702.857246354
698.868489366
694.984278852
691.205170452
687.531480706
683.963380882
680.500837112
677.143699473
673.891642974
670.744251576
667.700960308
664.761134147
661.9240117
659.188778957
656.554515026
654.020260943
651.584967994
649.247561782
647.006893636
644.861800186
642.811058318
640.853440457
638.987673397
637.212489468
635.526589498
633.928689923
632.417489998
630.99171489
629.65008714
628.391365677
627.214321455
626.117772287
625.100562494
624.161593398
623.299806749
622.514210643
621.803866348
621.167909115
620.605537399
620.116026602
619.698715925
619.353004799
619.078309048
618.873930806
618.737518086
618.679422184
915.039084175
914.731967324
914.098543461
913.130537345
911.834218402
910.21593334
908.283395326
906.045658829
903.512998131
900.696791956
897.609376147
894.263918996
890.674266762
886.85482257
882.820396334
878.586096587
874.167192637
869.579025251
864.836885541
859.955947203
854.951163621
849.837221657
844.628456173
839.338823476
833.981831115
828.570528214
823.117447969
817.634612057
812.133483492
806.624982721
801.119449229
795.626666019
790.155828517
784.71557927
779.313981101
773.958556746
768.656267692
763.413559193
758.236342575
753.130043975
748.099589456
743.149456392
738.283660676
733.505809737
728.819091207
724.226326634
719.729961029
715.332116413
711.034581701
706.83886528
702.746184766
698.757517873
694.87359164
691.094930987
687.421847114
683.854483269
680.392802154
677.036628614
673.785636051
670.639385897
667.597313189
664.658762882
661.822974875
659.089117337
656.456271573
653.923462653
651.489644549
649.153728388
646.914568292
644.770987585
642.721765719
640.765662705
638.901407434
637.127720536
635.443304294
633.846864054
632.337099826
630.912726271
629.572465991
628.315068045
627.139302839
626.043979058
625.02794001
624.090078806
623.229335955
622.444712594
621.735269085
621.100136044
620.538513722
620.049680927
619.632996364
619.287910786
619.01398778
618.810992613
618.679275223
618.621278201
915.672272843
915.360427113
914.7212417
913.744531529
912.436666436
910.804128503
908.854826918
906.598034594
904.044265665
901.205146111
898.093269932
894.722059765
891.105618021
887.258590476
883.196024515
878.933245601
874.485730614
869.869003255
865.098526825
860.189621121
855.15737576
850.016588276
844.781696671
839.466736477
834.085289848
828.650458552
823.174826639
817.670446439
812.148812239
806.620856943
801.096934848
795.586826702
790.099730364
784.644273443
779.228509463
773.859936438
768.54549817
763.291607517
758.104151502
752.988518085
747.94960416
742.991844855
738.119223605
733.335303078
728.643236577
724.045799801
719.545402885
715.144122229
710.843712533
706.64563799
702.551083735
698.560985749
694.676041209
690.896736578
687.223356451
683.656009427
680.194635211
676.839028037
673.588841948
670.443611718
667.402756412
664.465597924
661.631363068
658.899199997
656.268179167
653.737307998
651.305531138
648.97174374
646.734791438
644.593482627
642.546588523
640.592854753
638.731001794
636.959736099
635.277751108
633.683738038
632.176387553
630.754400245
629.416488955
628.161388887
626.987860487
625.894699078
624.880738136
623.944858288
623.085990806
622.303125788
621.595315729
620.961682792
620.401422567
619.913811015
619.498210105
619.154078559
618.880988072
618.678667571
618.547289067
618.484964782
916.645706424
916.328415133
915.680226572
914.689919123
913.364058209
911.709357195
909.734020304
907.447657569
904.861152246
901.986518043
898.836748596
895.425666295
891.767769036
887.878083543
883.772021902
879.465249643
874.973560198
870.312763794
865.498583946
860.546569398
855.472013244
850.289887032
845.014780459
839.660854727
834.241799404
828.770801406
823.260515543
817.723045933
812.169927476
806.612117341
801.059985428
795.523314238
790.011297264
784.532544905
779.095089021
773.706395513
768.373373403
763.102391789
757.899292782
752.76941183
747.717593505
742.748214262
737.865200234
733.072051588
728.371861571
723.767341705
719.260841367
714.854373098
710.54963204
706.348020668
702.250667445
698.258450349
694.372014176
690.591792333
686.918022341
683.350765501
679.889920307
676.535239772
673.286342659
670.142728437
667.103786426
664.168808548
661.336996639
658.607473304
655.979287774
653.451425276
651.02281187
648.692322764
646.458786575
644.320993008
642.277696927
640.327625735
638.469483555
636.701958557
635.023727444
633.43346285
631.929838206
630.511535244
629.177249217
627.925696437
626.755619752
625.665795978
624.65504148
623.722219325
622.866244791
622.086092084
621.380799636
620.749476349
620.191306794
619.7055574
619.291582548
618.948832032
618.676859948
618.475339954
618.344329146
618.281186779
917.963419308
917.63912378
916.978628809
915.969700052
914.619202424
912.934186623
910.923266941
908.596520275
905.965338998
903.042272625
899.840864628
896.375488071
892.661182546
888.7134972
884.54834085
880.181842998
875.630225384
870.909686939
866.036300553
861.025923701
855.894120283
850.656095167
845.326638047
839.920077929
834.450244569
828.930438399
823.373405382
817.791318767
812.195764407
806.597732028
801.0076092
795.435180785
789.889630856
784.379547067
778.91292906
773.497200082
768.139219271
762.845297527
757.621213551
752.472232944
747.403126999
742.418194123
737.521280555
732.715803328
728.00477216
723.390813227
718.876191518
714.462834707
710.15235527
705.946073756
701.845040007
697.850055163
693.96169137
690.180311976
686.506089231
682.939022251
679.478952404
676.125578823
672.878471373
669.737083706
666.70076391
663.768765316
660.940255114
658.214323272
655.589989545
653.066210966
650.641887738
648.315869783
646.086961999
643.953930332
641.915506816
639.970395535
638.117277767
636.354818089
634.681669823
633.096481414
631.597902248
630.184589315
628.855213361
627.608465754
626.443064844
625.357762881
624.35135241
623.422673043
622.570617704
621.794139084
621.092255573
620.464057303
619.908711756
619.425469455
619.013669419
618.672744309
618.402224348
618.201742312
618.071303743
618.008149674
919.63205983
919.29890295
918.622645132
917.589826667
916.207722602
914.483838444
912.427329698
910.04888507
907.360560866
904.375603533
901.108269071
897.573642425
893.787460668
889.765943869
885.525635906
881.083257807
876.455574508
871.659276413
866.710875422
861.626615745
856.422398109
851.113716865
845.715607926
840.242606727
834.708714008
829.127368892
823.511427424
817.873146626
812.224172702
806.575533879
800.93763681
795.320267273
789.732594457
784.183175614
778.679967245
773.230337469
767.841080258
762.51843207
757.268089648
752.095229712
747.00452937
742.000187995
737.085949459
732.26512547
727.540618911
722.914947941
718.390269737
713.968404651
709.65085965
705.438851802
701.33333071
697.33500063
693.444341237
689.661627767
685.986949579
682.420227871
678.961231683
675.609592964
672.364819903
669.226309352
666.193357621
663.2651705
660.440871863
657.719511705
655.100073051
652.58147854
650.162596186
647.842245079
645.619200541
643.492199448
641.459945249
639.521113318
637.674356177
635.918309144
634.251595966
632.672834889
631.180644756
629.773651499
628.450494641
627.209834103
626.050356961
624.970784381
623.969878431
623.046448933
622.199360097
621.427537085
620.729972273
620.105731342
619.553959003
619.073884453
618.664826325
618.32619645
618.057502476
617.858351312
617.728724873
617.665901305
921.660068755
921.315992122
920.620275277
919.557951935
918.136824741
916.364983817
914.25227449
911.810160805
909.051536425
905.99052317
902.642268237
899.022743453
895.148551107
891.036740122
886.704635285
882.169681686
877.449305611
872.560792684
867.521183158
862.347183909
857.05509583
851.66075515
846.179486615
840.626066648
835.014694444
829.358969529
823.67187445
817.965761971
812.252346208
806.542697659
800.847242019
795.175762684
789.53740703
783.940692511
778.393520379
772.903189461
767.476412285
762.119333094
756.837547301
751.636122336
746.519619512
741.492116911
736.557232945
731.718150607
726.977642073
722.33809366
717.801530794
713.369642968
709.043808348
704.825117985
700.714399295
696.712238773
692.819003624
689.034862295
685.359803657
681.793654856
678.336097647
674.986683314
671.744846041
668.609914925
665.58112456
662.657624433
659.838487126
657.122715611
654.509249644
651.996971572
649.584711573
647.271252621
645.055335189
642.93566195
640.910902468
638.979698087
637.140666972
635.392409477
633.733513744
632.162561666
630.67813509
629.278822346
627.963224963
626.729964631
625.577690241
624.505085054
623.510873833
622.59382996
621.752782401
620.986622519
620.294310608
619.674882157
619.127453715
618.651228257
618.245499962
617.909657886
617.643188152
617.445678204
617.317096177
617.254799101
924.057836036
923.700580668
922.981402417
921.88351132
920.415370048
918.585801948
916.405513091
913.886930063
911.043980739
907.891862741
904.446813053
900.72588269
896.746721469
892.527376746
888.086108899
883.441225603
878.610936057
873.613225754
868.465751493
863.185755772
857.78999883
852.294706151
846.715528734
841.067513443
835.365080839
829.622008561
823.851418782
818.065769149
812.276846903
806.495766348
800.732970441
794.998234662
789.300675689
783.648760121
778.050320056
772.512569123
767.042120598
761.645007241
756.326702443
751.092142623
745.945750539
740.891459537
735.932738414
731.072616939
726.313711698
721.65825228
717.108107454
712.664811318
708.329589064
704.103382296
699.986873558
695.980509988
692.084525794
688.298963477
684.623693557
681.058432793
677.602760712
674.256134539
671.017902407
667.887315041
664.863535872
661.945649836
659.132670887
656.423548519
653.817173373
651.312382211
648.90796237
646.602655957
644.395163864
642.284149834
640.268244636
638.346050506
636.516145882
634.777090525
633.127431015
631.565706668
630.090455816
628.700222453
627.393563178
626.169054389
625.025299651
623.960937175
622.974647326
622.065160085
621.231262383
620.471805247
619.785710656
619.171978065
618.629690463
618.158019921
617.756232488
617.423691786
617.159862062
616.964313584
616.837000529
616.775373424
926.837880746
926.464953573
925.717930442
924.577846687
923.053981049
921.156064904
918.895865364
916.286989007
913.344624235
910.085272209
906.526482668
902.686599077
898.584518491
894.239469999
889.670814465
884.897867369
879.939745852
874.815240295
869.54270999
864.140001525
858.624387672
853.012523632
847.320417064
841.563408067
835.756155753
829.912628777
824.046098319
818.169132979
812.293595861
806.43064435
800.590734325
794.783625866
789.018394155
783.303441282
777.646514298
772.054723709
766.534563953
761.091935289
755.732166903
750.46004097
745.279817631
740.195260675
735.209663924
730.325878107
725.546338174
720.873090825
716.307822143
711.851885077
707.506326626
703.271914427
699.149162572
695.138356368
691.239575856
687.452717842
683.777516316
680.213561072
676.760314505
673.417126498
670.183247457
667.057839537
664.039986201
661.128700227
658.322930401
655.621567053
653.023446698
650.527355986
648.132035197
645.836181487
643.638452079
641.537467562
639.531815455
637.620054121
635.800717135
634.07231815
632.433356267
630.882321935
629.417703324
628.037993156
626.741695905
625.527335318
624.393462158
623.338662095
622.361563641
621.460846055
620.635247106
619.883570642
619.204693828
618.597574024
618.061255165
617.594873548
617.197662985
616.868959037
616.608202144
616.414943719
616.289122279
616.228291335
930.015060898
929.623683913
928.843960149
927.6543616
926.065171053
924.087238353
921.733630216
919.019389272
915.961227522
912.577210865
908.886454095
904.908831203
900.664706441
896.174689727
891.459418739
886.539369256
881.434694633
876.165094675
870.749713243
865.207062906
859.554973624
853.810561318
847.990211256
842.109571024
836.183548322
830.22631024
824.251282258
818.27114699
812.297843658
806.342569748
800.415787388
794.527231491
788.685922088
782.900180682
777.177650873
771.525319845
765.949541475
760.456060635
755.050038345
749.736077745
744.518250733
739.400125316
734.384793513
729.474899831
724.672670095
719.979940594
715.398187272
710.928554855
706.571885582
702.32874739
698.199461179
694.184126971
690.282648608
686.494756831
682.820030449
679.257915522
675.807742379
672.468740517
669.240051328
666.120738818
663.109798386
660.206163936
657.408713463
654.716273446
652.127622252
649.641492877
647.256575237
644.971518306
642.784932288
640.695391033
638.70143485
636.801573846
634.994291856
633.278051035
631.651297106
630.112465268
628.65998671
627.292295676
626.007837008
624.805074064
623.682496932
622.638630809
621.67204447
620.781358693
619.965254553
619.222481478
618.55186498
617.952313951
617.422827444
616.962500876
616.57053157
616.24622312
615.988989478
615.798361537
615.67425791
615.614344437
933.606828461
933.193871144
932.376006825
931.12870968
929.463498117
927.392598073
924.93066431
922.094480543
918.902590992
915.374927962
911.532458271
907.396853276
902.990187461
898.334668338
893.452399308
888.36517655
883.094320727
877.660543763
872.083850159
866.383470801
860.577825566
854.684509054
848.72029247
842.701134073
836.642191558
830.55783172
824.461635687
818.366400537
812.284139911
806.226086381
800.202699342
794.223675963
788.297964496
782.433786716
776.638661499
770.919429801
765.282280893
759.732779229
754.275891871
748.916016357
743.657009149
738.502214616
733.454494639
728.516258707
723.6894945
718.975798741
714.376408229
709.892230755
705.523875728
701.271684143
697.135757643
693.115986274
689.212074673
685.423566333
681.749865746
678.190258172
674.743926994
671.409968531
668.187404427
665.07519167
662.072230462
659.177370141
656.389413479
653.707119607
651.129205958
648.654349497
646.281187595
644.008318814
641.834303878
639.757667044
637.776898056
635.8904548
634.096766772
632.394239367
630.781259022
629.256199175
627.817426969
626.463310642
625.192227487
624.002572283
622.892766063
621.861265111
620.906570048
620.027234901
619.221876004
618.489180668
617.827915458
617.236934026
616.715184384
616.261715513
615.875683316
615.55635574
615.303116739
615.115473001
614.993320697
614.934447544
937.633543975
937.195437466
936.33326756
935.019022996
933.265747514
931.087363844
928.50046798
925.523951737
922.178556094
918.486429685
914.470718518
910.155190704
905.563899587
900.720886387
895.649922635
890.374292856
884.916618227
879.298721959
873.541536302
867.665049294
861.688286742
855.629321977
849.505303404
843.332488904
837.126277188
830.901229698
824.671081324
818.448742698
812.246299207
806.075012151
799.945326883
793.866887023
787.848548785
781.898411459
776.023844429
770.231516505
764.527425628
758.916928605
753.404770744
747.995115679
742.6915755
737.497241468
732.414715269
727.446140922
722.593237147
717.85733019
713.239386827
708.740047406
704.359658577
700.098305444
695.955842668
691.931924222
688.026031291
684.237498036
680.565534836
677.009248839
673.567661603
670.239723875
667.024327457
663.920314407
660.926483712
658.0415958
655.264375179
652.593511641
650.027660354
647.565441323
645.205438512
642.946199049
640.786232757
638.724012313
636.757974198
634.886520608
633.108022384
631.420823016
629.823243703
628.313589413
626.890155871
625.551237355
624.295135201
623.120166846
622.024675296
621.007038848
620.065680931
619.19907992
618.405778783
617.684394436
617.033626695
616.452266709
615.939204784
615.493437546
615.114074388
614.800342698
614.551592735
614.367304517
614.247347288
614.189640376
942.118867034
941.651492895
940.737948472
939.346186383
937.491145347
935.188849955
932.458275127
929.320865925
925.799992639
921.920426644
917.707865727
913.188509822
908.388687297
903.33452976
898.051693573
892.565127564
886.898888049
881.07600305
875.118387026
869.046805086
862.880881702
856.63914407
850.339085891
843.997235044
837.62921012
831.249756275
824.872759139
818.511243007
812.17736334
805.882403406
799.636781487
793.450066968
787.330999653
781.287528944
775.326845837
769.455417514
763.679021079
758.002776115
752.431176481
746.968121795
741.616949197
736.38046561
731.260980759
726.260340846
721.379962942
716.620869851
711.983725404
707.468869829
703.076355001
698.805979067
694.657320085
690.629768088
686.722555135
682.934782823
679.265446922
675.713458777
672.27766337
668.956853918
665.74978316
662.655171446
659.671711975
656.798073511
654.032901035
651.374814774
648.822408121
646.374244883
644.028856367
641.784738651
639.640350462
637.594111895
635.644404244
633.789571052
632.027920499
630.357729111
628.777246791
627.284703065
625.878314445
624.556292779
623.316854407
622.158229988
621.078674792
620.076479314
619.149979998
618.297569946
617.517709418
616.808936015
616.169874378
615.599245332
615.095874354
614.658699252
614.286777091
613.97929025
613.735551011
613.555008429
613.437502423
613.381093349
947.090243752
946.588789058
945.615664749
944.134165647
942.161605328
939.716629927
936.821141545
933.49968182
929.778764437
925.68625442
921.250823362
916.501475514
911.467138695
906.1763128
900.6567707
894.935310009
889.037557793
882.987832641
876.809068441
870.522801203
864.149214182
857.70722864
851.214619525
844.688130661
838.143565389
831.595837824
825.058984398
818.546148841
812.069559149
805.640516041
799.269393899
792.965661107
786.737911925
780.593912156
774.540640273
768.584328401
762.73050031
756.984006645
751.349058309
745.829259233
740.427639352
735.146688365
729.988390382
724.954259539
720.045376415
715.262425219
710.605731506
706.075300288
701.670854096
697.391870637
693.237619371
689.207196466
685.299557388
681.513546621
677.847923914
674.301386784
670.872588969
667.56015486
664.362689939
661.278787544
658.307032253
655.446000424
652.694258352
650.050358696
647.512835692
645.080199801
642.75093229
640.523480267
638.396252566
636.367616848
634.435898125
632.599378902
630.856300969
629.204868875
627.643254986
626.169606037
624.782051012
623.478710177
622.257705089
621.117169349
620.055259921
619.070168781
618.16013472
617.323455078
616.558497265
615.863709869
615.237633247
614.678909445
614.186291357
613.758651084
613.394987423
613.094431996
612.856254813
612.679871212
612.565087113
612.510113067
952.579520881
952.038284095
950.995931145
949.410398061
947.302009473
944.692709924
941.608022431
938.076251039
934.127662656
929.793757634
925.106654125
920.098569609
914.801382894
909.246261007
903.463340929
897.48146349
891.327963794
885.028527369
878.607122271
872.086013569
865.48585756
858.825859838
852.123967033
845.397051919
838.66105199
831.931036582
825.221204486
818.544838546
811.914252011
805.340759483
798.83467154
792.40532255
786.061121602
779.809609205
773.657510912
767.610785957
761.674669562
755.853709918
750.15180218
744.572221574
739.117657165
733.790246814
728.59161353
723.522903005
718.584822264
713.77767924
709.101423253
704.555686099
700.13982349
695.852956209
691.694010342
687.661755681
683.754841525
679.971829019
676.311219468
672.771478068
669.351052886
666.04838895
662.861937667
659.790161843
656.831536807
653.984548189
651.247687078
648.619443189
646.098296861
643.682710502
641.371120225
639.161928187
637.05349619
635.044140878
633.132130834
631.315685705
629.592977437
627.962133545
626.421242332
624.968359887
623.601518651
622.318737346
621.118032008
619.997427907
618.954972069
617.988746195
617.096879699
616.277562689
615.529058621
614.849716522
614.237982546
613.692410798
613.211673284
612.794568887
612.440031395
612.147136534
611.915107169
611.743320159
611.631544988
611.578150912
958.623727823
958.035854456
956.912765284
955.20625481
952.940520092
950.141699966
946.83982388
943.067775173
938.860292438
934.253125667
929.282358958
923.983862683
918.392841011
912.54344663
906.468445868
900.198930713
893.764086492
887.191032851
880.504758851
873.728168602
866.882240561
859.986282155
853.058235617
846.114969924
839.172489928
832.246017853
825.349953476
818.497766571
811.701886619
804.973642017
798.323253416
791.759874778
785.291676109
778.925919858
772.669030483
766.52665206
760.503693961
754.604367672
748.832219257
743.190161478
737.680507585
732.305007399
727.064885352
721.960880163
716.993285757
712.161993442
707.466535267
702.906128549
698.479721148
694.186036909
690.023620282
685.990879082
682.086124188
678.307605229
674.653541334
671.122146445
667.711648788
664.420304561
661.246405951
658.188283998
655.244306826
652.41287407
649.692408242
647.081344008
644.578116185
642.181147399
639.888836134
637.699545934
635.611596294
633.623255716
631.732737196
629.938196305
628.237731875
626.629389193
625.111165539
623.681017812
622.33687203
621.076634362
619.89820346
618.799483761
617.778399489
616.832909047
615.961019557
615.160801233
614.430401421
613.768058023
613.172112206
612.641020189
612.17336404
611.76786143
611.423374289
611.138915899
610.913657128
610.746933323
610.638472507
610.586810706
965.266087148
964.623199767
963.405433686
961.557583699
959.108914045
956.090962724
952.539403922
948.492699237
943.990893428
939.074665741
933.784618623
928.16073243
922.241925093
916.065670718
909.667651563
903.081439998
896.33822695
889.466628507
882.492609469
875.439558681
868.328532559
861.178649158
854.007569542
846.831959724
839.667810115
832.530525746
825.43480209
818.394396106
811.421915021
804.528706436
797.724857286
791.019271461
784.41980506
777.933374033
771.566044439
765.323099096
759.209083993
753.227840734
747.382533873
741.675679832
736.109180141
730.684358652
725.402001725
720.262400225
715.265392894
710.410411074
705.696525157
701.122492827
696.686808886
692.387755824
688.223453969
684.191909634
680.291059804
676.518811917
672.873077716
669.351800369
665.952974569
662.674659529
659.514985256
656.472152593
653.544427897
650.730133213
648.027633052
645.435318816
642.951592009
640.574847248
638.303456089
636.135752456
634.070020435
632.10448485
630.237305025
628.466571777
626.790307657
625.206470231
623.712958151
622.3076197
620.988263462
619.752670785
618.598609672
617.523849783
616.526178177
615.603415486
614.753432174
613.974164592
613.263630547
612.619944166
612.041329831
611.526135082
611.072842347
610.680079401
610.346628602
610.071434945
609.85361185
609.692447927
609.587627132
609.537859493
972.557342367
971.849010972
970.519379101
968.505337135
965.842917451
962.570703958
958.731484282
954.370507545
949.534068896
944.268497148
938.61946902
932.631524266
926.347681768
919.809086659
913.054652736
906.120698656
899.040607205
891.844561148
884.559423566
877.20882977
869.81353493
862.392010007
854.961199449
847.53726521
840.136091422
832.773369667
825.464295569
818.223107626
811.062701756
803.99444792
797.028217444
790.172555121
783.434894323
776.821715255
770.338658573
763.990598338
757.781683075
751.715355937
745.794370508
740.020813756
734.396138527
728.92120287
723.596313214
718.421269308
713.395409944
708.517660096
703.786580313
699.200419031
694.757167657
690.454617535
686.290417008
682.26212652
678.367269575
674.603377753
670.968028321
667.458873608
664.073661667
660.810248368
657.666601287
654.640796235
651.731007374
648.935492182
646.252572493
643.680613042
641.217998785
638.863112359
636.614312787
634.469916514
632.428181534
630.487295236
628.645366258
626.900420463
625.250400881
623.693171336
622.226523376
620.848186044
619.5558381
618.34712222
617.219660828
616.171073106
615.198992842
614.301086676
613.475072415
612.718737007
612.029953908
611.406699533
610.847068618
610.349288297
609.911730812
609.532924832
609.211565345
608.946521721
608.736844551
608.581772381
608.480939698
608.433237229
980.557538463
979.770502402
978.307380183
976.096279331
973.182495189
969.613942095
965.442412066
960.721373758
955.504391551
949.844150103
943.791905174
937.397155412
930.707382865
923.767763693
916.620802745
909.305895977
901.858869187
894.311578675
886.691686233
879.022729666
871.324587473
863.614364388
855.907591961
848.219459885
840.565656612
832.962420825
825.425862815
817.971062955
810.611386311
803.358203056
796.221014128
789.20781921
782.325469137
775.579894005
768.976234554
762.518912759
756.211656416
750.057492146
744.058739075
738.217022708
732.53330861
727.007946348
721.640717803
716.430885821
711.377242024
706.478155509
701.731624747
697.135334022
692.686714783
688.38301058
684.221343143
680.198776452
676.312375834
672.559259553
668.936641142
665.44186137
662.072409499
658.825933966
655.700243207
652.693297602
649.803193922
647.028143724
644.366447382
641.816465347
639.376588367
637.045208154
634.820690029
632.701348687
630.685428139
628.771086447
626.956385626
625.239286686
623.617649581
622.089237553
620.651725334
619.3027106
618.03972813
616.860266193
615.761784664
614.741734486
613.79757797
612.926809535
612.126976388
611.395698771
610.730689354
610.129771527
609.590896295
609.112157671
608.691806444
608.328262245
608.020124002
607.766178954
607.5654089
607.416996696
607.320524581
607.275069765
989.338463237
988.45546226
986.831009732
984.383741667
981.172004425
977.256250206
972.699677888
967.565598416
961.915848337
955.810055928
949.305417554
942.45667452
935.316075317
927.93319568
920.354562034
912.623093061
904.777434706
896.851317601
888.873112808
880.865793221
872.847501088
864.832836747
856.834775944
848.866772787
840.944260124
833.08460965
825.30565924
817.623978472
810.053668615
802.606002412
795.289798968
788.11218402
781.079196466
774.196078927
767.467398104
760.897095855
754.488480209
748.244163691
742.166016852
736.255171813
730.512064277
724.936488014
719.527652027
714.284234258
709.204430035
704.286000449
699.526325387
694.922463942
690.471223149
686.169233366
682.013026249
677.999110765
674.12404283
670.384485307
666.77725608
663.299363085
659.948025941
656.720684641
653.614996229
650.628820929
647.76019936
645.00732283
642.368498622
639.84211241
637.426589737
635.120358544
632.921814457
630.829290371
628.841031497
626.955176684
625.169746317
623.482636711
621.891620499
620.394352251
618.988378533
617.671151572
616.440045882
615.292377252
614.225423652
613.236447535
612.322719098
611.481539906
610.710266407
610.006332767
609.367272649
608.790739518
608.274525289
607.816577083
607.415012069
607.068130395
606.774426241
606.532596698
606.341548993
606.200406787
606.108694379
606.065680669
998.987077011
997.985063411
996.162478304
993.428337652
989.860036748
985.535090893
980.53105009
974.922745988
968.78108457
962.172925971
955.161481487
947.806807947
940.166119742
932.293772601
924.240862113
916.054470466
907.776670617
899.443468902
891.083943729
882.719915269
874.366526709
866.0340551
857.730983017
849.467703535
841.259418116
833.125895104
825.088267631
817.165726559
809.373480939
801.722386844
794.219935069
786.871808457
779.682924092
772.657697693
765.800066212
759.113497032
752.60092809
746.264597242
740.105924398
734.125510982
728.323210905
722.698206433
717.249080476
711.973876776
706.870145106
701.934984932
697.165097003
692.556846809
688.106342445
683.809524026
679.662258069
675.660429567
671.800025532
668.077205574
664.488356986
661.030133127
657.699475097
654.493617447
651.410079383
648.446643327
645.601323094
642.872324002
640.257997469
637.756792498
635.367206585
633.087738295
630.916843762
628.852898869
626.894168663
625.038784888
623.284732014
621.629841428
620.071792969
618.608122644
617.236235302
615.95342121
614.756875693
613.64372126
612.611031727
611.655857919
610.775254354
609.966306348
609.226156799
608.552032112
607.941266643
607.391325346
606.899824257
606.464548757
606.083469503
605.754756043
605.476788305
605.248166261
605.067716311
604.934497118
604.84797223
604.807606508
1009.61044617
1008.45783023
1006.38697828
1003.29842014
999.298613781
994.488447941
988.963122544
982.810374388
976.110416484
968.937040454
961.359050782
953.441554641
945.246774684
936.8342527
928.260391526
919.577398392
910.831777051
902.062599464
893.299901887
884.563708447
875.864358067
867.204876911
858.585858516
850.012156099
841.498956073
833.071129999
824.756107627
816.577647226
808.552472033
800.690175751
792.995593276
785.471978996
778.12278283
770.951523527
763.961501047
757.155771598
750.537046753
744.107294356
737.867491026
731.817648595
725.956966794
720.283946163
714.796483838
709.491941943
704.367179091
699.418580614
694.642104186
690.033344424
685.587622358
681.300095017
677.165872996
673.180134748
669.33822833
665.635755296
662.068633947
658.633141241
655.32593373
652.144048947
649.084889216
646.146190535
643.325979264
640.622519689
638.034255354
635.559747271
633.197611848
630.946461462
628.804850256
626.771227535
624.843900578
623.021008078
621.300504561
619.680155185
618.157539529
616.730062559
615.394970995
614.149373601
612.990264481
611.914548791
610.919070614