/*--------------------------------*- C++ -*----------------------------------*\
| =========                 |                                                 |
| \\      /  F ield         | OpenFOAM: The Open Source CFD Toolbox           |
|  \\    /   O peration     | Version:  v1906                                 |
|   \\  /    A nd           | Web:      www.OpenFOAM.com                      |
|    \\/     M anipulation  |                                                 |
\*---------------------------------------------------------------------------*/
FoamFile
{
    version     2.0;
    format      ascii;
    class       surfaceScalarField;
    location    "453";
    object      phi;
}
// * * * * * * * * * * * * * * * * * * * * * * * * * * * * * * * * * * * * * //

dimensions      [0 3 -1 0 0 0 0];
oriented        oriented;


internalField   nonuniform List<scalar> 
18240
(
-0.00019891402521
0.000198911604538
-0.000407245311009
0.000208326045748
-0.000614175435539
0.000206928696037
-0.000818080101837
0.000203898652393
-0.0010178942489
0.000199813703156
-0.00121269656614
0.000194795574153
-0.0014016490365
0.000188952905176
-0.00158404181359
0.000182385377383
-0.00175924008337
0.000175199552583
-0.0019267430085
0.000167494945765
-0.00208611628624
0.00015937539786
-0.00223705662466
0.000150931836954
-0.00237930988264
0.000142256167603
-0.00251274184774
0.00013342297967
-0.00263724464229
0.000124506456148
-0.00275281544193
0.000115561348849
-0.00285945366605
0.000106642570103
-0.00295724886194
9.77852808586e-05
-0.00304627050533
8.90266307651e-05
-0.00312666563886
8.03847364681e-05
-0.00319854221347
7.18821360584e-05
-0.0032620765661
6.35234393829e-05
-0.00331739065391
5.53201913946e-05
-0.00336466921193
4.72670782522e-05
-0.00340403073427
3.93681144845e-05
-0.00343565414404
3.16113024018e-05
-0.00345964324541
2.39961724018e-05
-0.00347616289174
1.65068427479e-05
-0.00348529648027
9.14110755012e-06
-0.00348719187527
1.88182990929e-06
-0.00348191132631
-5.27256066287e-06
-0.00346958721205
-1.2338494281e-05
-0.00345026470811
-1.93140463213e-05
-0.00342406804209
-2.62118852351e-05
-0.00339103471954
-3.30243356538e-05
-0.00335129235047
-3.97584110726e-05
-0.0033048843189
-4.63984783641e-05
-0.00325195701887
-5.29440830386e-05
-0.00319257653843
-5.93702599021e-05
-0.00312692554382
-6.56683575434e-05
-0.00305511062977
-7.18039532536e-05
-0.00297736756073
-7.77607403868e-05
-0.00289385967309
-8.34960481411e-05
-0.00280488985677
-8.89873987662e-05
-0.00271069148582
-9.41855424945e-05
-0.00261164555006
-9.9062890505e-05
-0.00250806738381
-0.000103564183131
-0.00240042730839
-0.000107655763706
-0.00228913743913
-0.000111274636098
-0.00217477311492
-0.000114378104768
-0.00205786320777
-0.000116893386187
-0.00193910644164
-0.000118768188184
-0.00181916467617
-0.00011992414497
-0.00169886441282
-0.00012030924498
-0.00157898893055
-0.000119857090485
-0.00146045626472
-0.000118539566677
-0.00134410806752
-0.000116329492134
-0.00123086436777
-0.000113249335164
-0.00112151226998
-0.000109333595332
-0.00101684570464
-0.000104671896564
-0.000917460985615
-9.93668076077e-05
-0.000823900222333
-9.35662664014e-05
-0.000736474191633
-8.74085677366e-05
-0.000655431416914
-8.10479978475e-05
-0.000580810988489
-7.46029092008e-05
-0.000512621677169
-6.81933901113e-05
-0.000450702606503
-6.19010707395e-05
-0.000394892101785
-5.58129522487e-05
-0.000344890568898
-4.99830928277e-05
-0.000300417071902
-4.44743969924e-05
-0.000261078173606
-3.93204139133e-05
-0.000226514400411
-3.45634088369e-05
-0.00019628047052
-3.02157786666e-05
-0.000169985331781
-2.62937095809e-05
-0.000147185459756
-2.27821928724e-05
-0.000127512908099
-1.96701078864e-05
-0.000110573168028
-1.69226292857e-05
-9.60544106291e-05
-1.45153901594e-05
-8.36292932904e-05
-1.24086856737e-05
-7.30494743337e-05
-1.05757743945e-05
-6.40570376228e-05
-8.97686237494e-06
-5.64729762903e-05
-7.57954609893e-06
-5.01353179124e-05
-6.32303202416e-06
-4.5060552228e-05
-5.07021352248e-06
-4.09396257956e-05
-4.10740400817e-06
-3.71605999268e-05
-3.77327374943e-06
-3.37494302237e-05
-3.39751759058e-06
-3.08289519185e-05
-2.91241080589e-06
-2.79464999014e-05
-2.86713010673e-06
-2.4812432353e-05
-3.12227074562e-06
-2.15914513618e-05
-3.20214451497e-06
-1.82818644379e-05
-3.29243667076e-06
-1.45076881849e-05
-3.75331051139e-06
-1.00005635565e-05
-4.48143596164e-06
-4.8268746481e-06
-5.14002384633e-06
-4.81025788439e-06
-0.000210454602548
0.000409363056832
-0.000433442101391
0.000431309133711
-0.000654206659182
0.000427690246373
-0.000871498002312
0.000421185707745
-0.00108430630377
0.000412619250083
-0.00129168355743
0.000402168472842
-0.00149275651536
0.000390023372769
-0.00168676382779
0.000376388267258
-0.00187304360181
0.000361477141292
-0.00205105657572
0.000345503468536
-0.00222035971854
0.00032867667271
-0.00238062577507
0.000311193438011
-0.00253160790446
0.000293236746379
-0.00267315882084
0.000274969442754
-0.00280518966179
0.000256536037617
-0.00292769118189
0.000238058407405
-0.00304068935465
0.000219639747375
-0.0031442703223
0.000201361755694
-0.00323853433642
0.000183289866736
-0.00332362532598
0.000165471166124
-0.0033996839205
0.00014794012936
-0.00346688185325
0.000130716700564
-0.00352537419921
0.00011381205714
-0.00357533847056
9.72265134003e-05
-0.00361692586538
8.09551073624e-05
-0.0036503048263
6.49852067142e-05
-0.00367561098889
4.9301957505e-05
-0.00369299504721
3.38855676717e-05
-0.00370257109725
1.87167729251e-05
-0.00370446872016
3.77379470626e-06
-0.0036987798356
-1.09618711479e-05
-0.00368561547722
-2.55088689724e-05
-0.00366505013642
-3.98798529253e-05
-0.00363718308638
-5.4085316097e-05
-0.00360208100145
-6.81269148921e-05
-0.00355984400876
-8.20021211648e-05
-0.00351054585383
-9.56970945471e-05
-0.00345430438941
-0.000109192522584
-0.00339121883192
-0.000122456158605
-0.00332144400081
-0.00013545028274
-0.0032451240176
-0.000148124003441
-0.00316246927086
-0.000160422477457
-0.00307368614942
-0.000172278755628
-0.00297905575564
-0.000183624358656
-0.002878860114
-0.000194379991806
-0.00277346229929
-0.000204466417759
-0.0026632310167
-0.000213793141186
-0.00254862262038
-0.000222268517518
-0.00243010698336
-0.000229786435605
-0.00230825152144
-0.000236236092461
-0.00218364999386
-0.000241489298438
-0.00205700527096
-0.000245413325485
-0.00192905775919
-0.000247864240486
-0.00180065804746
-0.000248707313031
-0.0016726866814
-0.00024781952956
-0.00154610716194
-0.000245115806908
-0.00142187274997
-0.000240554039648
-0.00130096087436
-0.000234157050175
-0.00118427141047
-0.000226013056816
-0.00107264912595
-0.000216290104801
-0.000966780228867
-0.000205226193821
-0.000867221301641
-0.000193121573939
-0.00077432650152
-0.000180294188366
-0.000688316655132
-0.000167054130536
-0.000609242384318
-0.000153667636071
-0.000537067718291
-0.000140363382823
-0.000471633080109
-0.000127325209419
-0.000412727721582
-0.000114712299257
-0.000360047693665
-0.000102651689335
-0.000313260071219
-9.12549441788e-05
-0.000271960709763
-8.06078434343e-05
-0.000235733680454
-7.07827728966e-05
-0.000204114978222
-6.18224334233e-05
-0.000176654824724
-5.37457426039e-05
-0.000152890864421
-4.65340489607e-05
-0.000132405415336
-4.01470237796e-05
-0.000114793960998
-3.45219605252e-05
-9.97069299337e-05
-2.95935535101e-05
-8.68131014643e-05
-2.52904913972e-05
-7.58321933873e-05
-2.15476344623e-05
-6.64984701139e-05
-1.82988291159e-05
-5.85840456593e-05
-1.54848264172e-05
-5.18506825924e-05
-1.30451340036e-05
-4.59913033156e-05
-1.09207598792e-05
-4.08793644688e-05
-9.20898096325e-06
-3.64488535814e-05
-8.19460235055e-06
-3.28633317619e-05
-6.97184120945e-06
-2.99045565005e-05
-5.86055416547e-06
-2.71905624554e-05
-5.56841188526e-06
-2.44352025618e-05
-5.86354609121e-06
-2.13649734389e-05
-6.25564583165e-06
-1.80653176943e-05
-6.57449862815e-06
-1.449218163e-05
-7.30496681582e-06
-1.02619367316e-05
-8.68625410846e-06
-5.02972556029e-06
-1.0342742008e-05
-9.82439699254e-06
-0.000213318577645
0.000622678215673
-0.00043859641302
0.000656583365515
-0.000661834331941
0.000650924488769
-0.000881520090834
0.00064086769108
-0.001096567221
0.000627662917656
-0.00130598764358
0.000611585135653
-0.00150889186403
0.000592924297345
-0.00170450474053
0.000571997458881
-0.00189216621173
0.000549135496343
-0.00207133698999
0.000524670677823
-0.00224158898947
0.000498925759249
-0.00240260435601
0.000472205368964
-0.00255415946722
0.000444789145773
-0.00269612086521
0.000416927537119
-0.00282842628235
0.000388838934512
-0.00295108040679
0.000360709341789
-0.00306413549664
0.00033269247597
-0.00316768890161
0.000304912053988
-0.00326186475303
0.000277463482846
-0.00334681413944
0.000250417486955
-0.00342269840758
0.000223822235408
-0.0034896921486
0.000197707367386
-0.00354796806175
0.000172085834146
-0.00359770251917
0.000146957830709
-0.00363906166037
0.000122312075212
-0.00367220921413
9.81294958111e-05
-0.00369729348309
7.43839662113e-05
-0.00371445718796
5.10458247403e-05
-0.00372382508819
2.8082267668e-05
-0.00372551580493
5.46083181067e-06
-0.0037196299678
-1.68502900945e-05
-0.00370626407349
-3.88787090047e-05
-0.00368549921248
-6.06474987181e-05
-0.00365741714047
-8.21716070329e-05
-0.0036220895177
-0.000103457507762
-0.0035795962469
-0.000124499860056
-0.0035300150459
-0.00014528141331
-0.00347344178804
-0.000165770425384
-0.00340997986921
-0.000185921239563
-0.00333976183669
-0.000205673008427
-0.0032629376303
-0.000224951265039
-0.0031796964437
-0.000243668189734
-0.00309025291688
-0.000261724971778
-0.00299486831659
-0.000279012999007
-0.00289383445476
-0.000295415828929
-0.00278749433432
-0.000310809655546
-0.00267622526196
-0.000325063007575
-0.00256046079026
-0.000338034669733
-0.00244067611602
-0.000349570241488
-0.00231741377212
-0.00035949819007
-0.00219127344549
-0.00036762671982
-0.00206294016994
-0.00037374416726
-0.001933174053
-0.000377625349657
-0.00180283091633
-0.000379045913546
-0.00167283876958
-0.000377804830146
-0.00154419722704
-0.000373751132514
-0.00141793327492
-0.000366809917075
-0.00129508293989
-0.000357000405881
-0.00117663324189
-0.000344454489384
-0.00106349049376
-0.00032942612085
-0.000956407778958
-0.000312301286188
-0.000855953703166
-0.000293569487617
-0.000762482650607
-0.000273757970123
-0.000676170155568
-0.000253360492701
-0.000597036461665
-0.00023279355962
-0.000524997200816
-0.000212395507656
-0.000459871690529
-0.000192441772339
-0.000401412572357
-0.000173162956778
-0.000349302833133
-0.000154751389555
-0.000303179363674
-0.000137369156376
-0.000262626293554
-0.000121150461891
-0.00022719443347
-0.000106205116881
-0.000196398744038
-9.26076082218e-05
-0.000169749880206
-8.03848978331e-05
-0.000146766219567
-6.95070312366e-05
-0.000127004641069
-5.98986566179e-05
-0.000110058900826
-5.14568967875e-05
-9.55702414263e-05
-4.40720466842e-05
-8.32146977706e-05
-3.76351373663e-05
-7.2708432024e-05
-3.20436334028e-05
-6.37941629504e-05
-2.7202236631e-05
-5.6241991261e-05
-2.30267911744e-05
-4.98306529773e-05
-1.94457982498e-05
-4.43232095112e-05
-1.64185716027e-05
-3.96109859919e-05
-1.39111392903e-05
-3.5539766955e-05
-1.22556070354e-05
-3.17438360038e-05
-1.07563956627e-05
-2.81935895755e-05
-9.39930060107e-06
-2.53449978624e-05
-8.40419833637e-06
-2.3044471808e-05
-8.14939262191e-06
-2.00470983977e-05
-9.235851006e-06
-1.64157811067e-05
-1.01875973903e-05
-1.26198997328e-05
-1.10814722149e-05
-8.43203301718e-06
-1.28505605056e-05
-4.28988068034e-06
-1.44584066345e-05
-1.41012094291e-05
-0.000216750999019
0.000839425702689
-0.000445396104393
0.000885224226113
-0.000671924631709
0.000877449289556
-0.00089472527918
0.000863664444752
-0.00111264698101
0.000845580948499
-0.00132465549997
0.000823589910091
-0.00152983362977
0.000798098863564
-0.00172739102717
0.000769551244158
-0.00191666698181
0.000738408048048
-0.00209713008715
0.000705130331275
-0.00226837129665
0.000670163752311
-0.00243009587391
0.000633926669576
-0.00258211056371
0.000596800813562
-0.00272431195127
0.000559125820078
-0.00285667167761
0.000521195817282
-0.00297922461042
0.000483259321972
-0.00309205489012
0.000445520065569
-0.0031952859626
0.00040814029278
-0.00328906885553
0.000371243795657
-0.0033735748549
0.00033492072612
-0.00344898633648
0.000299231199394
-0.00351549203627
0.000264210325988
-0.00357328015091
0.000229871431168
-0.00362253577484
0.000196210669978
-0.00366343578788
0.000163209510012
-0.00369614799564
0.000130838809887
-0.00372082737331
9.90606353118e-05
-0.0037376165898
6.78319732392e-05
-0.00374664336918
3.71061509386e-05
-0.00374802231147
6.83647509853e-06
-0.00374185331433
-2.3022424231e-05
-0.00372822478876
-5.25108056924e-05
-0.00370721333203
-8.16623579567e-05
-0.00367888856035
-0.000110500238155
-0.00364331412556
-0.000139035616324
-0.00360055428562
-0.000167263832478
-0.00355067621884
-0.000195163383942
-0.00349375810967
-0.000222692878296
-0.00342989221019
-0.000249791187628
-0.00335919362745
-0.000276376020896
-0.00328180299232
-0.000302345920823
-0.00319789458764
-0.000327580887598
-0.00310767716379
-0.000351946112849
-0.00301140008577
-0.00037529388708
-0.00290935150803
-0.000397467401651
-0.00280186261188
-0.000418301388775
-0.00268930459956
-0.000437622752434
-0.00257209394315
-0.000455246605113
-0.00245069273397
-0.000470971328837
-0.00232562017466
-0.000484569946879
-0.00219746093638
-0.000495783574997
-0.00206688438647
-0.000504317578402
-0.00193465650544
-0.000509848510521
-0.00180165376343
-0.000512043224231
-0.00166885755823
-0.000510594241357
-0.00153733912755
-0.000505262245467
-0.00140822266756
-0.000495918225003
-0.00128265230018
-0.000482562611297
-0.00116173934928
-0.000465359129781
-0.00104651291555
-0.000444644990742
-0.000937826061309
-0.000420980531159
-0.000836281169294
-0.000395107561019
-0.000742205891075
-0.000367826058623
-0.000655703418869
-0.000339856151187
-0.000576722178595
-0.000311767146146
-0.000505113759822
-0.00028399597225
-0.000440653332272
-0.000256893162827
-0.000383052722765
-0.000230754139784
-0.000331965329162
-0.00020582863607
-0.000286997564626
-0.000182326883382
-0.000247708870257
-0.000160428871394
-0.000213613049019
-0.000140291021124
-0.000184180444018
-0.000122030070099
-0.000158866442224
-0.000105688825404
-0.000137146671777
-9.12164369193e-05
-0.000118549018374
-7.84860842994e-05
-0.000102659817982
-6.7335567975e-05
-8.91191859643e-05
-5.76022165047e-05
-7.76101486926e-05
-4.91334591388e-05
-6.78552171342e-05
-4.17879321027e-05
-5.9609221302e-05
-3.54375323257e-05
-5.26548964676e-05
-2.99705268535e-05
-4.67931406473e-05
-2.52971530802e-05
-4.17772077782e-05
-2.1424396081e-05
-3.7468231642e-05
-1.82100947697e-05
-3.35179157452e-05
-1.61948819893e-05
-2.98196026666e-05
-1.44428037656e-05
-2.65627414898e-05
-1.2643650704e-05
-2.33076162321e-05
-1.16457521256e-05
-1.99759654568e-05
-1.1466097355e-05
-1.7492888635e-05
-1.17029103389e-05
-1.40776262425e-05
-1.35849887961e-05
-1.00536379075e-05
-1.50856613009e-05
-6.63016680501e-06
-1.62543196337e-05
-3.4259495366e-06
-1.76403895924e-05
-1.75144596042e-05
-0.000221333265983
0.00106075518053
-0.000454664740997
0.00111855197458
-0.000685704543963
0.00110848494398
-0.000912745819812
0.00109070180518
-0.00113456308873
0.00106739428793
-0.00135006463252
0.00103908761187
-0.00155829620894
0.00100632667165
-0.00175844923786
0.000969700574203
-0.00194986283699
0.000929818054421
-0.00213202004088
0.000887284021229
-0.00230453892997
0.00084267924864
-0.00246716033783
0.00079654476627
-0.00261973306488
0.000749370351732
-0.00276219820624
0.000701587849165
-0.00289457322239
0.000653567837318
-0.00301693688712
0.000605620052168
-0.0031294152967
0.000557995641215
-0.00323216956667
0.000510891769588
-0.00332538504743
0.000464456564017
-0.00340926231275
0.000418795290461
-0.00348400957437
0.00037397581311
-0.00354983658044
0.000330034662414
-0.00360694962279
0.000286981827201
-0.00365554764164
0.000244805981046
-0.00369581910889
0.000203478257554
-0.00372793969252
0.000162956572393
-0.00375207046923
0.000123188545989
-0.00376835674278
8.4115237464e-05
-0.00377692731413
4.56736349624e-05
-0.00377789435043
7.80024588081e-06
-0.00377135373289
-2.9566407881e-05
-0.00375738616786
-6.64819439691e-05
-0.0037360588975
-0.000102993317489
-0.00370742838427
-0.000139134661596
-0.00367154372356
-0.000174924300628
-0.00362845119054
-0.000210360609581
-0.00357819945658
-0.000245419454415
-0.0035208458735
-0.000280050987831
-0.00345646299138
-0.000314178631466
-0.00338514565042
-0.000347698043682
-0.00330701737423
-0.00038047880854
-0.0032222364121
-0.000412366444719
-0.00313099985118
-0.000443187018306
-0.00303354645443
-0.000472751394924
-0.00293015683251
-0.000500860620376
-0.00282115256485
-0.000527308714162
-0.00270689383622
-0.000551883685794
-0.00258777880601
-0.000574362959493
-0.00246424559024
-0.000594504729316
-0.00233678109073
-0.000612033500692
-0.00220593719625
-0.000626625247226
-0.00207235572501
-0.000637895617237
-0.00193679675038
-0.000645402741395
-0.0018001627568
-0.000648671387195
-0.00166350400988
-0.000647245824593
-0.00152799806328
-0.000640760272696
-0.00139490085179
-0.000629006701973
-0.00126551618351
-0.000611938518414
-0.00114113326285
-0.000589733593709
-0.00102298924126
-0.000562780774213
-0.000912105920372
-0.000531856609983
-0.000809139495565
-0.000498066359484
-0.000714348595126
-0.000462609925232
-0.000627700003553
-0.000426497532661
-0.000549017827119
-0.000390441745094
-0.000478065714596
-0.000354939557652
-0.000414561102473
-0.000320388574951
-0.000358167804474
-0.000287137162679
-0.000308499625824
-0.000255486393267
-0.000265130360235
-0.000225685677422
-0.000227592690447
-0.000197956272286
-0.000195358573113
-0.000172515153223
-0.000167828530132
-0.000149550085015
-0.000144370014731
-0.000129137137026
-0.000124386412462
-0.000111189728468
-0.000107368312623
-9.5493852262e-05
-9.28981427623e-05
-8.17953075067e-05
-8.06241639799e-05
-6.9865490446e-05
-7.02410400211e-05
-5.9505759081e-05
-6.14845085262e-05
-5.05335801926e-05
-5.41271197907e-05
-4.278406415e-05
-4.79782042561e-05
-3.61088004054e-05
-4.28933822091e-05
-3.03713604481e-05
-3.88169807147e-05
-2.54906069284e-05
-3.50528795238e-05
-2.19635456226e-05
-3.14996112163e-05
-1.9736539256e-05
-2.80160673809e-05
-1.79138238532e-05
-2.40768283441e-05
-1.65695896957e-05
-2.0435622194e-05
-1.52728794345e-05
-1.70623563536e-05
-1.48242051831e-05
-1.42904161936e-05
-1.44587735562e-05
-1.18503817187e-05
-1.60082028211e-05
-8.41194306212e-06
-1.8507379533e-05
-5.19822791466e-06
-1.94491075759e-05
-2.62611445523e-06
-2.01918404573e-05
-2.01307743258e-05
-0.000227208669959
0.00128795997266
-0.000466612462799
0.00135795105874
-0.000703474524885
0.00134534287883
-0.000935966375872
0.00132318939643
-0.00116276734848
0.00129419118535
-0.00138271426936
0.00125903047483
-0.00159480708401
0.00121841553786
-0.00179821704907
0.00117310665931
-0.00199228654958
0.00112388379441
-0.00217652184495
0.00107151564428
-0.00235058003049
0.00101673389413
-0.00251425224245
0.000960213530947
-0.00266744462276
0.000902559421283
-0.00281015877468
0.000844298775743
-0.00294247269404
0.000785878660882
-0.00306452324454
0.000727667577342
-0.00317649048164
0.00066995996788
-0.00327858426923
0.000612982693753
-0.003371033
0.00055690252209
-0.00345407447575
0.000501834011382
-0.00352794853528
0.0004478471784
-0.00359289132563
0.000394974740002
-0.00364913078705
0.000343218598477
-0.00369688323205
0.000292555677426
-0.00373635068063
0.000242942939206
-0.00376771887364
0.000194321895852
-0.00379115575693
0.000146622497051
-0.00380681042176
9.97668252313e-05
-0.00381481243384
5.36724663323e-05
-0.00381527159933
8.25604645978e-06
-0.00380827822573
-3.65632859683e-05
-0.00379390402042
-8.08598675042e-05
-0.00377220372904
-0.000124697491574
-0.00374321768805
-0.000168124818437
-0.00370697545229
-0.000211170829022
-0.00366350055538
-0.000253840031599
-0.00361281648794
-0.000296108210288
-0.00355495374389
-0.000337918623068
-0.00348995774925
-0.000379179628904
-0.00341789718937
-0.000419763727923
-0.00333887214177
-0.000459508974921
-0.00325302117905
-0.000498222492184
-0.00316052653128
-0.000535686538114
-0.00306161649313
-0.000571666014326
-0.00295656446113
-0.000605916705879
-0.00284568481266
-0.000638191766515
-0.00272932657121
-0.000668244421755
-0.00260786750068
-0.000695823552963
-0.00248171218472
-0.000720660361579
-0.0023512995489
-0.000742445317378
-0.0022171240305
-0.000760798594232
-0.00207977370867
-0.000775242568023
-0.00193998045822
-0.000785191305275
-0.00179866893582
-0.000789976691957
-0.00165697879933
-0.00078892878883
-0.00151623645625
-0.000781494010457
-0.00137786647426
-0.000767367814182
-0.00124338921043
-0.000746406810143
-0.00111432692688
-0.000718786854872
-0.000992270644901
-0.000684829685652
-0.000878540513532
-0.000645578593169
-0.000773878996025
-0.000602720759279
-0.000678378596028
-0.000558102652442
-0.000591741872095
-0.000513127452895
-0.000513588648693
-0.000468586948295
-0.000443576022825
-0.000424943910635
-0.000381363543199
-0.000382590934717
-0.000326565090451
-0.000341925228467
-0.000278744283057
-0.000303296084149
-0.000237444370839
-0.000266974992846
-0.000202185243867
-0.00023320510671
-0.000172403635721
-0.000202286921489
-0.0001473963779
-0.000174547345813
-0.000126382095753
-0.000150141121795
-0.000108643872412
-0.000128917394231
-9.36273372304e-05
-0.000110500138976
-8.09309306944e-05
-9.44810086436e-05
-7.02303180659e-05
-8.05551934884e-05
-6.12380112123e-05
-6.84868456498e-05
-5.37069605887e-05
-5.80533969901e-05
-4.74254703172e-05
-4.90544700019e-05
-4.22129541236e-05
-4.13104482403e-05
-3.79199343542e-05
-3.465368591e-05
-3.44184206283e-05
-2.89816363409e-05
-3.09326121029e-05
-2.54384132717e-05
-2.75706871435e-05
-2.30867524463e-05
-2.45468925622e-05
-2.09248471424e-05
-2.1753139353e-05
-1.93495686968e-05
-1.8452715812e-05
-1.85580308972e-05
-1.50031138928e-05
-1.82580385273e-05
-1.14303062507e-05
-1.80168312244e-05
-9.05535242076e-06
-1.83678359717e-05
-7.01410776085e-06
-2.05312300803e-05
-4.32881823138e-06
-2.21182747542e-05
-2.16158819606e-06
-2.23422076667e-05
-2.22824093664e-05
-0.00023452390188
0.00152247958844
-0.000481499320658
0.00160492234507
-0.000725604870176
0.00158944375112
-0.000964850632994
0.00156243078881
-0.00119779493284
0.00152713107558
-0.00142318555098
0.00148441681773
-0.00163996831156
0.00143519408919
-0.00184729410772
0.00138042836331
-0.00204451564911
0.00132110134461
-0.00223117505024
0.00125817118613
-0.00240698496092
0.0011925400596
-0.00257180549864
0.00112503046411
-0.00272561953729
0.00105636996826
-0.00286850801488
0.000987183900657
-0.00300062696585
0.0009179943612
-0.00312218689206
0.000849224379585
-0.00323343526774
0.000781205301299
-0.00333464192669
0.000714186415865
-0.00342608754453
0.0006483452572
-0.00350805449788
0.000583798156763
-0.00358082010619
0.000520609996827
-0.00364465140868
0.000458803289129
-0.00369980151985
0.000398365932491
-0.00374650676557
0.00033925813703
-0.00378498477652
0.00028141809233
-0.00381543284946
0.000224767052939
-0.00383802690232
0.000169213513275
-0.00385292044894
0.000114657226763
-0.00386024406442
6.09927669856e-05
-0.00386010488523
8.11339782873e-06
-0.00385258675008
-4.40851020135e-05
-0.00383775068045
-9.56998122691e-05
-0.00381563634835
-0.000146815944759
-0.00378626432447
-0.000197501185154
-0.00374963984211
-0.000247799918055
-0.00370575775461
-0.000297726955639
-0.00365460934468
-0.000347261711854
-0.00359619042868
-0.000396342831246
-0.00353051106523
-0.000444864481992
-0.00345760583499
-0.000492674558899
-0.00337754439836
-0.000539576075519
-0.00329044066517
-0.000585331815905
-0.00319645967048
-0.000629672941148
-0.00309582018518
-0.000672310529295
-0.00298879229349
-0.00071294907086
-0.00287568905705
-0.000751298701226
-0.00275685358456
-0.000787082690635
-0.00263264415982
-0.00082003468385
-0.00250342367975
-0.000849881466903
-0.00236956125641
-0.000876307108107
-0.00223145700039
-0.000898901073311
-0.00208959735758
-0.000917099139696
-0.00194464133298
-0.000930142614376
-0.00179751830589
-0.0009370940475
-0.00164948363125
-0.000936955687707
-0.00150208487338
-0.000928884548514
-0.00135693586573
-0.00091250772128
-0.00121584278735
-0.00088749047374
-0.00108056594787
-0.000854055972976
-0.000953327859413
-0.000812059393831
-0.000836024329343
-0.000762875454105
-0.000729536569063
-0.000709200009593
-0.000633570798869
-0.00065406133043
-0.000547295407789
-0.000599395291376
-0.000470013697133
-0.000545861327136
-0.000401286829367
-0.000493661269279
-0.000340757346337
-0.000443110682022
-0.000287989518926
-0.000394681231998
-0.000242478224189
-0.000348796087267
-0.000203737871429
-0.000305704459416
-0.000171324881082
-0.000265607781935
-0.000144683525743
-0.000228918340277
-0.000122956010329
-0.000196264864891
-0.000105088355517
-0.000167997787985
-9.01535762909e-05
-0.000143841696675
-7.7551854363e-05
-0.000123091072341
-6.69600503143e-05
-0.000105062129647
-5.81204653586e-05
-8.93830773693e-05
-5.07671595622e-05
-7.58283983057e-05
-4.46740876793e-05
-6.41346243488e-05
-3.96495388342e-05
-5.406754265e-05
-3.55238277991e-05
-4.54250647238e-05
-3.21487378341e-05
-3.80179213468e-05
-2.9382535444e-05
-3.17370103223e-05
-2.64862666833e-05
-2.83234202608e-05
-2.38637754069e-05
-2.56970068856e-05
-2.10198451498e-05
-2.37556918827e-05
-1.82300268307e-05
-2.21251170489e-05
-1.530007274e-05
-2.14729059997e-05
-1.26922778492e-05
-2.08504977584e-05
-9.71481600817e-06
-2.09785701261e-05
-6.90870531871e-06
-2.11591972695e-05
-5.4831387131e-06
-2.19435100608e-05
-3.5527740778e-06
-2.40325877002e-05
-1.76908163252e-06
-2.41091111453e-05
-2.40438109848e-05
-0.000243452842728
0.00176592800584
-0.000499664600832
0.00186112869526
-0.000752580130737
0.00184235457692
-0.00100000341741
0.00180984921052
-0.00124033890578
0.00176746191944
-0.00147222594252
0.00171629924034
-0.00169454824426
0.00165751190777
-0.00190643943091
0.00159231516108
-0.00210727436754
0.00152193203387
-0.00229664954295
0.00144754223375
-0.00247435567773
0.00137024222346
-0.00264034634295
0.00129101728469
-0.002794705429
0.0012107253712
-0.0029376161447
0.00113009105319
-0.00306933294358
0.00104970775103
-0.00319015760189
0.000970045732503
-0.00330041947891
0.000891464009319
-0.00340046013547
0.000814223981218
-0.0034906215595
0.000738503697958
-0.00357123773022
0.000664411387498
-0.0036426285495
0.000591997946203
-0.00370509585782
0.000521267727564
-0.00375892066088
0.000452187888587
-0.00380436144828
0.000384696027388
-0.00384165292429
0.000318706640811
-0.00387100520891
0.000254116304709
-0.00389260301515
0.000190808198614
-0.00390660501156
0.000128655941016
-0.0039131430536
6.75273816099e-05
-0.00391232163545
7.28833716113e-06
-0.00390421742407
-5.21931537699e-05
-0.00388887942674
-0.000111041911732
-0.00386632974509
-0.000169369970856
-0.00383656559143
-0.0002272699802
-0.00379956268849
-0.000284807732942
-0.00375528061097
-0.000342014252828
-0.00370367016591
-0.00039887764198
-0.00364468308259
-0.000455335675121
-0.00357828372234
-0.000511269805384
-0.00350446241475
-0.000566501997951
-0.00342324929443
-0.000620795370957
-0.00333472719397
-0.000673860040603
-0.00323904136835
-0.000725364641671
-0.00313640373439
-0.000774953620359
-0.00302708905956
-0.000822268550858
-0.00291142162551
-0.000866970182456
-0.00278975217503
-0.000908755211569
-0.00266242883549
-0.000947360165809
-0.00252976895026
-0.000982542348614
-0.00239204625001
-0.00101402986063
-0.00224951094721
-0.00104143512702
-0.00210246575137
-0.00106414171699
-0.00195140898939
-0.00108119564767
-0.00179722550954
-0.00109127142198
-0.00164133185077
-0.00109284277329
-0.0014856509581
-0.00108455666991
-0.0013319440306
-0.00106620586816
-0.00118242172418
-0.00103700456141
-0.00103882465362
-0.000997644457711
-0.000904626104427
-0.000946251934681
-0.000782895572343
-0.000884597974344
-0.000674790201264
-0.000817297644107
-0.000579070748198
-0.000749772361139
-0.000493811796457
-0.000684647272868
-0.000417855806358
-0.000621808342773
-0.000350799968126
-0.000560708033426
-0.000292393240267
-0.000501505490918
-0.000242157558605
-0.000444904474592
-0.000199446732096
-0.000391494611413
-0.000163736709651
-0.00034140250982
-0.000134744915249
-0.000294588818012
-0.000112072796207
-0.000251580245682
-9.46252998584e-05
-0.000213701249754
-8.08043198328e-05
-0.000181807939762
-6.92849444201e-05
-0.000155349241721
-5.9454574707e-05
-0.000132911285613
-5.12347357178e-05
-0.000113270119548
-4.45175137749e-05
-9.60881807342e-05
-3.90299950918e-05
-8.13030538391e-05
-3.45683868967e-05
-6.85838204046e-05
-3.09706892589e-05
-5.76531587642e-05
-2.80774900567e-05
-4.83068921132e-05
-2.57384753424e-05
-4.03456857893e-05
-2.36168097335e-05
-3.38474996072e-05
-2.15737621634e-05
-3.03545800283e-05
-1.96577100882e-05
-2.7600344707e-05
-1.75590845632e-05
-2.58406623405e-05
-1.50303171358e-05
-2.46393550319e-05
-1.25905504852e-05
-2.38974865328e-05
-9.95825103776e-06
-2.3467504933e-05
-8.03070296415e-06
-2.28916457062e-05
-5.84453421015e-06
-2.33311410131e-05
-4.13389419747e-06
-2.36390863638e-05
-2.95588291504e-06
-2.51973570783e-05
-1.43540440443e-06
-2.56158988897e-05
-2.5470884727e-05
-0.000254216989451
0.00202013997856
-0.000521544683995
0.00212845159911
-0.000785026620497
0.00210583106408
-0.00104220250314
0.00206702001299
-0.00129128539089
0.00201653968171
-0.00153078382817
0.00195579271919
-0.00175951357595
0.00188623678118
-0.00197659885083
0.00180939570978
-0.00218145578621
0.00172678436975
-0.00237376185686
0.00163984387144
-0.00255341677512
0.00154989285129
-0.00272049950893
0.0014580959064
-0.00287522578215
0.00136544767466
-0.00301790881834
0.00127277029726
-0.00314892549635
0.00118072076726
-0.00326868846574
0.00108980520484
-0.00337762459551
0.00100039674969
-0.00347615888598
0.00091275502257
-0.0035647033668
0.000827045004713
-0.00364364962736
0.000743354578355
-0.00371336441662
0.000661709697998
-0.00377418705635
0.00058208738765
-0.00382642836971
0.000504426202782
-0.00387037015312
0.000428634813677
-0.00390626519215
0.00035459860368
-0.00393433709824
0.000282185074684
-0.00395478018949
0.000211248011294
-0.00396775887952