/*--------------------------------*- C++ -*----------------------------------*\
| =========                 |                                                 |
| \\      /  F ield         | OpenFOAM: The Open Source CFD Toolbox           |
|  \\    /   O peration     | Version:  v1906                                 |
|   \\  /    A nd           | Web:      www.OpenFOAM.com                      |
|    \\/     M anipulation  |                                                 |
\*---------------------------------------------------------------------------*/
FoamFile
{
    version     2.0;
    format      ascii;
    class       volVectorField;
    location    "86";
    object      Ua;
}
// * * * * * * * * * * * * * * * * * * * * * * * * * * * * * * * * * * * * * //

dimensions      [0 1 -1 0 0 0 0];


internalField   nonuniform List<vector> 
9216
(
(-0.00826198641335 0.00829344744721 0)
(-0.00873094710573 0.0268088077662 4.04308094747e-27)
(-0.00875939957098 0.0456694882129 -5.66823971208e-31)
(-0.00872114291175 0.0646168610959 0)
(-0.0086650534306 0.0833627074651 0)
(-0.00858731652928 0.101861112605 0)
(-0.00849892679615 0.120059314822 0)
(-0.0083936078238 0.13791128905 0)
(-0.00828128983454 0.155371779685 0)
(-0.0081529065463 0.172404274682 0)
(-0.00802073723369 0.188972602901 0)
(-0.00787257770815 0.205048764112 0)
(-0.00772131930367 0.220603682572 0)
(-0.00755314393589 0.235610374356 0)
(-0.00738791135119 0.250052377165 0)
(-0.007209739001 0.2639174587 0)
(-0.00703478720448 0.277191751571 0)
(-0.00684259073617 0.289865610888 0)
(-0.00665311067982 0.301925721508 0)
(-0.00644766944721 0.313367554258 0)
(-0.00624802063416 0.3241834991 0)
(-0.00603213456171 0.33437362389 0)
(-0.00582482305977 0.343934472242 0)
(-0.00559981392832 0.352868998418 0)
(-0.00538329595193 0.361175895262 0)
(-0.00514936024971 0.368853781944 0)
(-0.00492262875218 0.375918011435 0)
(-0.00467773924354 0.382355907804 0)
(-0.00444726748484 0.388182991759 0)
(-0.00420214162118 0.393411467113 0)
(-0.00397611850738 0.398043031685 0)
(-0.00372890298793 0.402130890906 0)
(-0.00348474475468 0.405624910196 0)
(-0.00323532274018 0.408551775396 0)
(-0.00300926801429 0.410962449783 0)
(-0.00277653783415 0.412867859205 0)
(-0.00255889914435 0.414290802009 0)
(-0.00233644624202 0.415260629867 0)
(-0.00212883353919 0.415798634702 0)
(-0.0019230152191 0.415934548677 0)
(-0.00173664417595 0.415700370692 0)
(-0.00155089346317 0.415137746866 0)
(-0.00137278510579 0.414250526474 0)
(-0.00119965491565 0.413072086179 0)
(-0.00103049247589 0.411625200608 0)
(-0.000866278517529 0.40991708651 0)
(-0.0006991706848 0.407966197918 0)
(-0.000529481802211 0.405761719679 0)
(-0.000347391152307 0.403304997308 0)
(-0.000160629359204 0.400571535516 0)
(4.91547930336e-05 0.397545600514 0)
(0.000263189500782 0.394189701962 0)
(0.000505114813224 0.390481961237 0)
(0.000751456362157 0.386377747502 0)
(0.00102786058194 0.381849984222 0)
(0.00130359958783 0.376856994362 0)
(0.00161029498429 0.371379463356 0)
(0.00190719670909 0.36537052951 0)
(0.0022241063683 0.358841207899 0)
(0.0025211421068 0.35176914311 0)
(0.00283957421752 0.344160469208 0)
(0.00312902101656 0.336014517326 0)
(0.00343096516561 0.327352805078 0)
(0.00369162490113 0.318193499645 0)
(0.00396588187032 0.308572699788 0)
(0.00419611834362 0.298526796137 0)
(0.00442358690561 0.288091238207 0)
(0.00459491367212 0.277325132886 0)
(0.00476237182768 0.266304746572 0)
(0.00487568269828 0.255073332065 0)
(0.00499139659168 0.243689706992 0)
(0.00505170951102 0.232204396052 0)
(0.00510891527385 0.220675247034 0)
(0.00511497945206 0.209157513357 0)
(0.00512402276019 0.197694807267 0)
(0.00508282767935 0.186336596191 0)
(0.00504280547508 0.17512524415 0)
(0.00495712779116 0.164110733425 0)
(0.00487516718099 0.153324175473 0)
(0.00475833841445 0.142803633418 0)
(0.00464457882854 0.132565620767 0)
(0.00449902225968 0.122646835064 0)
(0.00435808588738 0.113060656292 0)
(0.0041823601699 0.103844087834 0)
(0.00400010829567 0.0950242567232 0)
(0.00377136320016 0.0866809322403 0)
(0.00347759116606 0.0788636039814 0)
(0.00298792339711 0.0717736615106 0)
(0.00232361012687 0.0647026644974 0)
(0.00229239855246 0.0592168565672 0)
(0.00302774873204 0.055082703815 0)
(0.00360357375894 0.0488371185157 0)
(0.00429018890542 0.0413954732648 0)
(0.00547955210735 0.0328969843303 0)
(0.00657208867701 0.0208459641428 0)
(0.00701620493537 0.00697012615782 0)
(-0.0267532061931 0.00880464904146 0)
(-0.0296373227055 0.0298975853776 0)
(-0.029670587056 0.0509953248787 -4.24437229303e-27)
(-0.0294163954987 0.0722120069633 0)
(-0.0290574091123 0.0931750817026 0)
(-0.028603290898 0.113852677526 0)
(-0.0280741995647 0.134191200173 0)
(-0.0274648455537 0.154137817608 0)
(-0.0267960772939 0.173642651134 0)
(-0.0260598624792 0.192664703536 0)
(-0.025280371948 0.21116360397 0)
(-0.0244454022958 0.229107107359 0)
(-0.0235792898139 0.246466677483 0)
(-0.0226687463513 0.263215477751 0)
(-0.0217442757846 0.279348154594 0)
(-0.0207838744514 0.294819354433 0)
(-0.0198189616437 0.309633424835 0)
(-0.0188262650393 0.323757025532 0)
(-0.0178415255999 0.337213920295 0)
(-0.016832852537 0.349978821601 0)
(-0.0158367837356 0.362053051239 0)
(-0.0148208359253 0.373431670765 0)
(-0.0138238308895 0.384106371277 0)
(-0.0128110626656 0.394074386535 0)
(-0.0118242739754 0.403341363651 0)
(-0.0108250937369 0.411907490612 0)
(-0.00985621539547 0.41977404195 0)
(-0.00888146627853 0.426971683656 0)
(-0.00794348010968 0.433479400608 0)
(-0.00700682780858 0.439313550524 0)
(-0.00611971978458 0.444494646596 0)
(-0.00522434263169 0.449000495765 0)
(-0.00436174362683 0.452897036844 0)
(-0.00351602825616 0.45616783641 0)
(-0.00273939864736 0.458847091003 0)
(-0.00198794910741 0.460950736091 0)
(-0.00129198817905 0.462511555861 0)
(-0.000625147286103 0.463557633259 0)
(-1.98952021027e-05 0.464124133387 0)
(0.000548319216092 0.464255387619 0)
(0.00105745828193 0.463972990495 0)
(0.00153446049849 0.463297292206 0)
(0.00196695031548 0.46227714888 0)
(0.00236447335853 0.460938137021 0)
(0.00273164826555 0.459304002427 0)
(0.00308013435547 0.457412119369 0)
(0.00343453127755 0.455232472955 0)
(0.00379184737086 0.452782449354 0)
(0.00417078252951 0.450054689283 0)
(0.00457634176951 0.447028912494 0)
(0.00504244630009 0.443679495151 0)
(0.00553891754523 0.43996870078 0)
(0.00610846740287 0.435863772185 0)
(0.00672110097696 0.431318904451 0)
(0.00741006444524 0.426295658312 0)
(0.00812889301134 0.42075391665 0)
(0.00891959112386 0.414661880738 0)
(0.00971750237588 0.407990767231 0)
(0.0105653856674 0.400730247127 0)
(0.0113945502476 0.392832066475 0)
(0.0122537322856 0.384321339898 0)
(0.013063633847 0.37519964733 0)
(0.0138793490628 0.365487112402 0)
(0.0146186327853 0.355214142664 0)
(0.0153412175504 0.344371537199 0)
(0.0159631807822 0.333109735426 0)
(0.0165431876822 0.321397651895 0)
(0.0169961773265 0.309330933675 0)
(0.0174002073165 0.296969302383 0)
(0.0176730766166 0.284353979104 0)
(0.0179076636669 0.271583373647 0)
(0.0180193528841 0.258701711805 0)
(0.018074745763 0.245774371456 0)
(0.0180200111944 0.232862415786 0)
(0.017934713999 0.220019027739 0)
(0.0177318518335 0.207293922024 0)
(0.017492748395 0.194738552921 0)
(0.0171559843167 0.182413370548 0)
(0.0167856581526 0.170329881015 0)
(0.0163508546694 0.158569818137 0)
(0.0159115979539 0.147138613016 0)
(0.0153927334187 0.136017785103 0)
(0.0148624109711 0.125308359565 0)
(0.0142510947044 0.114973799484 0)
(0.0136000064676 0.105092362415 0)
(0.0128517210803 0.0956763523938 0)
(0.0119353233689 0.0867536627418 0)
(0.0106542032525 0.0784115425635 0)
(0.00898040720225 0.0700265303769 0)
(0.00836227700508 0.0613375595751 0)
(0.00962627656842 0.0555493827387 0)
(0.0111395175504 0.0491390907803 0)
(0.0131921002614 0.0412101671751 0)
(0.0170927500453 0.0327449161553 0)
(0.0221637026116 0.0220408204169 0)
(0.0210940383201 0.00660113656211 0)
(-0.0457710456806 0.00889406594869 0)
(-0.0507853392963 0.0302944292137 0)
(-0.0507853509442 0.0515898378831 -4.24687507914e-27)
(-0.0503467127134 0.0730493691367 0)
(-0.0497438486922 0.0942498053352 0)
(-0.0489964755371 0.115156613509 0)
(-0.0481198362005 0.135712002549 0)
(-0.0471205610629 0.155866684789 0)
(-0.0460139780005 0.175567797097 0)
(-0.044807204192 0.194774175344 0)
(-0.0435181320656 0.213449322687 0)
(-0.0421492839527 0.231553918852 0)
(-0.0407196280119 0.249062699515 0)
(-0.039232935598 0.265950902619 0)
(-0.0377045625148 0.282198319349 0)
(-0.036131682375 0.297795279815 0)
(-0.0345318493033 0.312718344898 0)
(-0.0329066020928 0.32696910933 0)
(-0.0312714758131 0.340520555375 0)
(-0.0296155144088 0.353373683765 0)
(-0.0279563971695 0.365522407418 0)
(-0.0262816048988 0.376963502596 0)
(-0.0246101448671 0.387696280776 0)
(-0.0229342611532 0.397720268666 0)
(-0.0212738474715 0.4070393894 0)
(-0.0196204573533 0.415650760526 0)
(-0.0179905970969 0.423585813614 0)
(-0.0163660838113 0.430819465309 0)
(-0.0147668426273 0.437351717785 0)
(-0.0131858622363 0.443217314637 0)
(-0.0116440323099 0.448387087462 0)
(-0.0101291862588 0.452910494612 0)
(-0.00865515159504 0.45678279465 0)
(-0.00722399174905 0.460032313251 0)
(-0.00586164268073 0.462701591717 0)
(-0.0045556747203 0.464768602665 0)
(-0.00332185218431 0.466285240561 0)
(-0.00216131002421 0.467277536142 0)
(-0.00109024792039 0.467783122499 0)
(-9.28980831787e-05 0.467838164703 0)
(0.000827329499211 0.467480240259 0)
(0.00167967394592 0.466743096607 0)
(0.00245539415538 0.46566616652 0)
(0.00315523188552 0.464276525671 0)
(0.00381539691808 0.462630205647 0)
(0.0044481455119 0.460697427137 0)
(0.00507816201506 0.45851174473 0)
(0.00571895788695 0.456101504324 0)
(0.00640163698857 0.453427162274 0)
(0.00713588335185 0.450442364945 0)
(0.00795478607362 0.4471667012 0)
(0.00885734436246 0.443545132916 0)
(0.00987258283806 0.439492676804 0)
(0.0109745125545 0.434997481057 0)
(0.0121776030667 0.430009730285 0)
(0.0134584672062 0.424493597515 0)
(0.0148305367363 0.418409452264 0)
(0.0162482951734 0.411721575065 0)
(0.0177233071351 0.404408993938 0)
(0.019201832863 0.396460501625 0)
(0.0206882738123 0.387875642757 0)
(0.0221269835815 0.378661275815 0)
(0.0235310818745 0.368838614155 0)
(0.0248461717645 0.358433380159 0)
(0.0260754119093 0.347491542013 0)
(0.0271664557261 0.336079118444 0)
(0.0281441196816 0.324230863671 0)
(0.0289611206696 0.312002827361 0)
(0.0296502408359 0.299465096731 0)
(0.0301708826271 0.286683373065 0)
(0.0305522715986 0.27366431512 0)
(0.0307654733427 0.260578250336 0)
(0.0308513270162 0.247450010466 0)
(0.0307736650326 0.234277374987 0)
(0.0305833438877 0.221248997266 0)
(0.0302510615499 0.208356916273 0)
(0.0298183359648 0.195647551594 0)
(0.0292689838346 0.183168214861 0)
(0.028640803566 0.170973165571 0)
(0.0278931093955 0.158970008489 0)
(0.027106079269 0.147418535718 0)
(0.0262289036238 0.136181103121 0)
(0.0253099603008 0.125361326757 0)
(0.0243051192763 0.114937385392 0)
(0.0232364894029 0.104922454221 0)
(0.0220534565251 0.0952883458384 0)
(0.0206672473161 0.0861219854915 0)
(0.0190157193101 0.0773903536311 0)
(0.0170198450588 0.0687062175494 0)
(0.0153424214765 0.0585495212577 0)
(0.0166745099855 0.0532833992331 0)
(0.0199018745802 0.0472669250142 0)
(0.0226529550238 0.0370698119389 0)
(0.0271338162521 0.027091747449 0)
(0.0324527587473 0.0170863483684 0)
(0.0324618269636 0.00549673191044 0)
(-0.0651516968938 0.00895202670748 0)
(-0.0723511797373 0.0306059838329 0)
(-0.0723450089715 0.0520718744408 4.24494760887e-27)
(-0.0717099613266 0.0737204596083 0)
(-0.0708387425674 0.0951034186769 0)
(-0.0697639088043 0.116182083609 0)
(-0.0685030924569 0.13689980166 0)
(-0.067068010818 0.157197907717 0)
(-0.0654798437236 0.17703354327 0)
(-0.0637512211089 0.196357587388 0)
(-0.0619009979756 0.215133842942 0)
(-0.0599430195496 0.233328904693 0)
(-0.0578969476927 0.25091538298 0)
(-0.055776580858 0.267874311796 0)
(-0.0535945906846 0.284185603538 0)
(-0.0513550690317 0.299824929804 0)
(-0.0490748121923 0.314786244267 0)
(-0.0467603356675 0.329058100611 0)
(-0.0444228195791 0.342632411075 0)
(-0.0420647676385 0.35550318609 0)
(-0.0396967083317 0.367666907345 0)
(-0.0373192909681 0.379118388184 0)
(-0.0349381853965 0.389868452296 0)
(-0.0325594804545 0.3998929399 0)
(-0.0301983803338 0.409222479316 0)
(-0.0278554787287 0.417844948473 0)
(-0.0255275271464 0.425756698981 0)
(-0.0232104971678 0.432968861405 0)
(-0.0209249154862 0.439477054606 0)
(-0.0186713573694 0.445294232953 0)
(-0.0164614038431 0.450447865975 0)
(-0.0142977769967 0.45491280583 0)
(-0.0121902579391 0.458730576007 0)
(-0.0101581159888 0.46191553743 0)
(-0.00820893005774 0.46448972602 0)
(-0.0063424773961 0.466479516493 0)
(-0.00457913916097 0.467907907411 0)
(-0.0029208788105 0.468832171402 0)
(-0.00138283330071 0.469242766406 0)
(3.88352671213e-05 0.469204059173 0)
(0.00133857437927 0.468760425545 0)
(0.00251883108886 0.467938055208 0)
(0.00359771852015 0.466846111374 0)
(0.0045797405111 0.465427736863 0)
(0.00550040655773 0.463717608049 0)
(0.00638025026465 0.461801755157 0)
(0.00724859417666 0.459613751365 0)
(0.008128202631 0.457199285579 0)
(0.0090681348652 0.454544059253 0)
(0.0100896389576 0.45163055353 0)
(0.0112236424891 0.44842215284 0)
(0.0124972536381 0.444879365203 0)
(0.013926871542 0.440945841469 0)
(0.0155064048307 0.436607822824 0)
(0.0172264866467 0.431731498716 0)
(0.0190648622927 0.426316840416 0)
(0.0210283876298 0.420314868387 0)
(0.023077403516 0.413684665071 0)
(0.025190955562 0.406401466203 0)
(0.0273215129208 0.398455030607 0)
(0.02945163127 0.3898424098 0)
(0.0315277517691 0.38057213381 0)
(0.0335373474064 0.370665952118 0)
(0.0354309444424 0.360146489464 0)
(0.0371664328648 0.349061925372 0)
(0.0387165029325 0.337519379649 0)
(0.0400976238103 0.325527932007 0)
(0.0412827161608 0.313136001875 0)
(0.0422601487381 0.300425709104 0)
(0.0430288372125 0.287458347072 0)
(0.0435859538593 0.274290641387 0)
(0.0439004448294 0.261004550944 0)
(0.0439970985336 0.247641644927 0)
(0.0438829011851 0.234357555024 0)
(0.0435752569452 0.22115456732 0)
(0.0430893941682 0.20809495737 0)
(0.0424453896349 0.195238891983 0)
(0.0416488272543 0.182641254106 0)
(0.0407417279104 0.170345587186 0)
(0.0397008651701 0.158380388184 0)
(0.0385557129732 0.146764703355 0)
(0.0373412166226 0.135513459238 0)
(0.0360293580718 0.124564214186 0)
(0.0346448119222 0.114075222787 0)
(0.0331408943712 0.103832109939 0)
(0.0315653393279 0.0940870300416 0)
(0.0298410103164 0.0847585791193 0)
(0.0278100022075 0.0754861490345 0)
(0.0256775084647 0.0665483105486 0)
(0.0232091295042 0.0562750807078 0)
(0.0240993709844 0.049012734924 0)
(0.0281690071133 0.0414823481371 0)
(0.0334785341482 0.0333512303051 0)
(0.0367234670799 0.0223638876904 0)
(0.0414695807741 0.0135436103289 0)
(0.042170775497 0.00458380967213 0)
(-0.0847364760624 0.0090230718997 0)
(-0.0941127809041 0.0310045428023 0)
(-0.0940979758922 0.0527069736874 0)
(-0.0932599287406 0.0746070836214 0)
(-0.0921106745767 0.0962292068997 0)
(-0.0906952145992 0.117532863746 0)
(-0.089034077192 0.138455777202 0)
(-0.0871507209043 0.15894739374 0)
(-0.0850627954504 0.178949198795 0)
(-0.0827952463624 0.198423149036 0)
(-0.0803707664273 0.217330193718 0)
(-0.0778106609343 0.23563739577 0)
(-0.0751394058021 0.253323346963 0)
(-0.0723732436818 0.270365339049 0)
(-0.0695222310519 0.286736458246 0)
(-0.0666039607672 0.302429454326 0)
(-0.0636344142936 0.317432546129 0)
(-0.0606240404117 0.331736435729 0)
(-0.057584754942 0.345336747166 0)
(-0.054523692173 0.358226140285 0)
(-0.0514477198348 0.370412614965 0)
(-0.0483603659816 0.381872924884 0)
(-0.0452670789214 0.392612697979 0)
(-0.0421852862001 0.402646669312 0)
(-0.0391256275478 0.411965740812 0)
(-0.0360761580748 0.420585717709 0)
(-0.033039641373 0.428464338452 0)
(-0.0300277141184 0.435657626794 0)
(-0.0270472098338 0.442127487173 0)
(-0.0241133714074 0.447900749945 0)
(-0.0212289945894 0.45298024589 0)
(-0.0184096079044 0.45738478461 0)
(-0.0156710983913 0.461127307578 0)
(-0.0130218193778 0.464252211711 0)
(-0.0104729475949 0.466729728641 0)
(-0.00803852800373 0.468610898254 0)
(-0.00574372133674 0.469922955122 0)
(-0.00358796834418 0.470693702325 0)
(-0.00158956481295 0.471005933496 0)
(0.000242408657223 0.470829799756 0)
(0.00191555176228 0.470320897301 0)
(0.00342311301241 0.469370116786 0)
(0.0047982525512 0.468145411689 0)
(0.00606357333283 0.46659821252 0)
(0.00722120507145 0.464817352771 0)
(0.00831063896693 0.4628269418 0)
(0.00938570720541 0.460639566554 0)
(0.0104809067687 0.458306908973 0)
(0.0116563097414 0.455731958777 0)
(0.0129397259095 0.452936995332 0)
(0.0143740376244 0.449871671203 0)
(0.0159971164913 0.446491437893 0)
(0.0178238971125 0.442736961076 0)
(0.0198716937767 0.438531837354 0)
(0.0221241652095 0.433863667163 0)
(0.0245452567193 0.428590402994 0)
(0.0271303311007 0.422712183009 0)
(0.0298411387689 0.416168539 0)
(0.0326274866049 0.408934082334 0)
(0.0354393364546 0.400996676809 0)
(0.0382509107541 0.39235521319 0)
(0.0409933926829 0.38301615947 0)
(0.0436496350754 0.373007614536 0)
(0.0461178174901 0.362351768465 0)
(0.0483317225639 0.351161723184 0)
(0.0503584813399 0.339542261287 0)
(0.0521987715196 0.327358736757 0)
(0.0537804037581 0.31475836933 0)
(0.0550626649274 0.301800337191 0)
(0.0560811350986 0.288552511299 0)
(0.056817968251 0.275096211254 0)
(0.057222168029 0.261515331127 0)
(0.0573198814443 0.247912693576 0)
(0.0571562091859 0.2343545728 0)
(0.0567476173887 0.220895636055 0)
(0.0560855661243 0.207563215184 0)
(0.0551985793435 0.194478742506 0)
(0.0541275558656 0.181687978829 0)
(0.0529031929226 0.169215024993 0)
(0.0515196811627 0.157092079378 0)
(0.050012830531 0.145330538124 0)
(0.0484147170292 0.133932087108 0)
(0.0467465846836 0.122997666222 0)
(0.0449943791544 0.112432552208 0)
(0.0431633233066 0.102244111335 0)
(0.0412276803223 0.0923889924459 0)
(0.0392307924411 0.0828931273126 0)
(0.0369857371547 0.0736308073276 0)
(0.034534115537 0.0639559104409 0)
(0.0328649822633 0.054852292367 0)
(0.0325710720686 0.0442408415169 0)
(0.0361857424951 0.0357739425058 0)
(0.0411957743611 0.0278618375094 0)
(0.0464446063314 0.0196699551631 0)
(0.0480197093831 0.0108786023302 0)
(0.0493076542671 0.00374655869497 0)
(-0.104597790614 0.00910922490149 0)
(-0.116171062398 0.0315101451044 0)
(-0.116141491625 0.0535199097315 0)
(-0.115088193533 0.075742573502 0)
(-0.113645121015 0.0976701641399 0)
(-0.111870056911 0.119259219604 0)
(-0.109791563349 0.140448074595 0)
(-0.107431581683 0.161172647359 0)
(-0.104824503876 0.181389569008 0)
(-0.101995780153 0.201049972309 0)
(-0.098975596538 0.220119089276 0)
(-0.0957944997436 0.23856492948 0)
(-0.0924808249421 0.256374786015 0)
(-0.0890451013497 0.273507132701 0)
(-0.0855129892565 0.289958611061 0)
(-0.0819040375901 0.305715748147 0)
(-0.0782346831097 0.320769666902 0)
(-0.0745203247816 0.335112789522 0)
(-0.0707740499854 0.348751737631 0)
(-0.0669996712608 0.361662771408 0)
(-0.0632055999196 0.373853585271 0)
(-0.0593986691729 0.385320872388 0)
(-0.0555949969819 0.396058059496 0)
(-0.0518093255707 0.406100470546 0)
(-0.0480384791644 0.415418756112 0)
(-0.0442718648381 0.423993912987 0)
(-0.0405243837067 0.431870506429 0)
(-0.0368030421898 0.439007232307 0)
(-0.0331208224297 0.445434265979 0)
(-0.029492332815 0.451153630325 0)
(-0.025931613198 0.456168147741 0)
(-0.0224527768682 0.460518225197 0)
(-0.0190651284694 0.464169273462 0)
(-0.0157833972253 0.467165205732 0)
(-0.0126213731254 0.469522836802 0)
(-0.0096088203579 0.471263456029 0)
(-0.00677033501279 0.47245311083 0)
(-0.00412004546544 0.473058426043 0)
(-0.00166654557116 0.473235871711 0)
(0.00058238781696 0.472880041591 0)
(0.00263500510151 0.472163959798 0)
(0.00449128259773 0.471041800943 0)
(0.00615275139752 0.469624700433 0)
(0.0076472629996 0.467945411121 0)
(0.00900497289406 0.466108785373 0)
(0.0102737895278 0.464062179674 0)
(0.0114992613814 0.461878241589 0)
(0.0127508110522 0.459560792615 0)
(0.0141079173532 0.457094632963 0)
(0.0156176300334 0.454500349177 0)
(0.0173373016241 0.451631802367 0)
(0.0192974148635 0.448480622517 0)
(0.0215237399144 0.444966924832 0)
(0.0240386788328 0.440999926193 0)
(0.0268306496076 0.436561857288 0)
(0.0298681541363 0.431484935806 0)
(0.0331062488875 0.42577489098 0)
(0.0365058583282 0.419347296311 0)
(0.0400108463064 0.412236530958 0)
(0.0435425914246 0.404320821704 0)
(0.0471072716401 0.395713728517 0)
(0.0505266738241 0.386329482189 0)
(0.0537366491969 0.37618741031 0)
(0.0568079714085 0.365739036753 0)
(0.0596029836202 0.354456497844 0)
(0.0621931191584 0.342587629518 0)
(0.0645315826449 0.330088113037 0)
(0.0665336615513 0.31724882206 0)
(0.068157260368 0.30396926422 0)
(0.0694504213781 0.290378402488 0)
(0.070385882403 0.276600391725 0)
(0.0709045863387 0.262717584758 0)
(0.0710110512377 0.248697589917 0)
(0.0707517603952 0.234698532396 0)
(0.0702230759482 0.220920121556 0)
(0.0694060523929 0.207311017583 0)
(0.0682741691802 0.19391705933 0)
(0.0668533604144 0.180754498723 0)
(0.06527748918 0.168020990717 0)
(0.063541915431 0.155699677994 0)
(0.0616298199165 0.143712273759 0)
(0.0596495390709 0.132218057052 0)
(0.0575669462833 0.121110969734 0)
(0.0553995723246 0.11036573038 0)
(0.0531965601661 0.100033213255 0)
(0.0509782567914 0.0900854702261 0)
(0.0486524520248 0.0803588428072 0)
(0.0461891847504 0.0709730289825 0)
(0.0435909028722 0.0610960516357 0)
(0.0430544400098 0.0523547203113 0)
(0.0435345207927 0.0422441650683 0)
(0.0445853962077 0.0317472566369 0)
(0.0481816602114 0.0236259821633 0)
(0.0541095344643 0.0173332548433 0)
(0.0549244040933 0.00966576588419 0)
(0.0554401705835 0.00312580203101 0)
(-0.124806429896 0.0092150249038 0)
(-0.138604684366 0.0321333196542 0)
(-0.138550814833 0.0545232558164 4.26199484086e-27)
(-0.137265908511 0.0771445324655 0)
(-0.135508534525 0.0994477575115 0)
(-0.133350961959 0.121388634757 0)
(-0.130823087668 0.142895956471 0)
(-0.127961424612 0.163909584738 0)
(-0.124805780146 0.184383155209 0)
(-0.121386779741 0.204267395393 0)
(-0.117745299475 0.223528391238 0)
(-0.113921832155 0.242148327374 0)
(-0.109932639529 0.260084169019 0)
(-0.105809654154 0.277329788227 0)
(-0.101579835961 0.293872708606 0)
(-0.0972638437423 0.309703104105 0)
(-0.0928831540876 0.324813524582 0)
(-0.0884564671672 0.339210313479 0)
(-0.0839864750642 0.352871842405 0)
(-0.0794870277411 0.365806309559 0)
(-0.0749692397607 0.37801185627 0)
(-0.0704410727644 0.389483490994 0)
(-0.0659304079934 0.400235757168 0)
(-0.0614333234137 0.410283258266 0)
(-0.0569281930734 0.419581873411 0)
(-0.0524361417616 0.428138174085 0)
(-0.0479654412194 0.435966134197 0)
(-0.0435253972779 0.443062317616 0)
(-0.0391376584915 0.449439022732 0)
(-0.0348142269724 0.455093232422 0)
(-0.0305661494533 0.460057094874 0)
(-0.0264003621358 0.464290672581 0)
(-0.0223375929929 0.467833561341 0)
(-0.0184094992386 0.470702165048 0)
(-0.0146334892026 0.472911694684 0)
(-0.0110372534945 0.474513534052 0)
(-0.00764399692791 0.475514176877 0)
(-0.00448097589857 0.475952035543 0)
(-0.00154541190752 0.475880468777 0)
(0.00115160078832 0.475299392432 0)
(0.00358061434902 0.474312566757 0)
(0.00574694785748 0.47296554382 0)
(0.00766548637755 0.471380016885 0)
(0.00936056826864 0.469525908121 0)
(0.0108682735843 0.467521982096 0)
(0.0122492391648 0.465400550616 0)
(0.0135784079069 0.463254822018 0)
(0.0149362227331 0.461000470096 0)
(0.0164099779247 0.458677709806 0)
(0.0180852398753 0.456247753532 0)
(0.020037012778 0.453637825721 0)
(0.0223108226896 0.450834958284 0)
(0.0249399965495 0.447637956738 0)
(0.0279298109262 0.443994346427 0)
(0.0312865990341 0.439861762101 0)
(0.0349619214325 0.435045765287 0)
(0.0388992090985 0.429607814026 0)
(0.0430494641263 0.423330470568 0)
(0.0473387271891 0.416320549338 0)
(0.0516071304776 0.408472323903 0)
(0.0557807611278 0.399785256882 0)
(0.0599127694349 0.390862252802 0)
(0.063830077207 0.380801340092 0)
(0.0675947457471 0.37009630276 0)
(0.0711264711991 0.358550093893 0)
(0.0742962861221 0.346225976509 0)
(0.077173352357 0.333492979843 0)
(0.0796433820338 0.320277704882 0)
(0.0816209273827 0.306515613425 0)
(0.0831904470433 0.292490761602 0)
(0.0842950919238 0.278273704615 0)
(0.0849179754302 0.263965816065 0)
(0.0850904654839 0.249572768246 0)
(0.0848109940546 0.23526955879 0)
(0.0840606143105 0.220931935753 0)
(0.0830128788549 0.206959413953 0)
(0.0816283608384 0.19324658599 0)
(0.0799490636997 0.179894307783 0)
(0.0779692307611 0.16680631116 0)
(0.0758201162519 0.154237500138 0)
(0.0734881970361 0.14203760978 0)
(0.0710610635214 0.130318941824 0)
(0.0686026193809 0.119083780219 0)
(0.0660476539441 0.108194481348 0)
(0.0634639206543 0.0977079256622 0)
(0.0608669370765 0.0875198894955 0)
(0.0583027290406 0.0776599310127 0)
(0.0556842508648 0.067922090806 0)
(0.053101329852 0.0579439584515 0)
(0.0518932387913 0.0481224380329 0)
(0.0533302865828 0.0394446807062 0)
(0.0545869002649 0.030098873957 0)
(0.0549147325059 0.0207092858443 0)
(0.0596307843986 0.0148482089086 0)
(0.0614776878371 0.00880951596887 0)
(0.0611436494276 0.00272148815026 0)
(-0.145435211363 0.0093413851992 0)
(-0.161496243768 0.0328846339327 0)
(-0.16140607212 0.05573358612 -4.25969660232e-27)
(-0.15986803776 0.078833710764 0)
(-0.157769411645 0.101587968345 0)
(-0.15519612242 0.123946251246 0)
(-0.152186280732 0.145833188843 0)
(-0.148786588659 0.167187604668 0)
(-0.145046191754 0.187961665718 0)
(-0.141002864272 0.208105127194 0)
(-0.13670997778 0.227593605113 0)
(-0.1322019274 0.246393135462 0)
(-0.127512240311 0.264482155055 0)
(-0.122678541598 0.281853779295 0)
(-0.117730392025 0.298498347726 0)
(-0.112691279516 0.314407655306 0)
(-0.107586579667 0.329588502809 0)
(-0.102424732996 0.344021540788 0)
(-0.0972219108812 0.357717153793 0)
(-0.0919910440901 0.370675082153 0)
(-0.0867409682511 0.382895075926 0)
(-0.0814952538587 0.394368267611 0)
(-0.0762724449565 0.405164497911 0)
(-0.0710328280463 0.415162358545 0)
(-0.0657926175449 0.424452015298 0)
(-0.0605631852136 0.432983825309 0)
(-0.05536208915 0.440780431035 0)
(-0.0502031784278 0.447834415616 0)
(-0.0451012260959 0.454177665076 0)
(-0.0400614577307 0.459762561093 0)
(-0.0350985136563 0.46461884533 0)
(-0.0302289920256 0.468749048658 0)
(-0.025487192366 0.472164645432 0)
(-0.0208963343029 0.474911199685 0)
(-0.016482161033 0.47694588715 0)
(-0.0122800822599 0.478351661927 0)
(-0.00831092831079 0.479125826109 0)
(-0.00459894032777 0.479321587797 0)
(-0.00115314491263 0.478944950806 0)
(0.00198214123175 0.478079819221 0)
(0.00478005535083 0.476834743468 0)
(0.00724415980386 0.475201045214 0)
(0.00939420135781 0.473309817033 0)
(0.011249124629 0.471223589508 0)
(0.0128491057006 0.46907965515 0)
(0.0142719822418 0.466852816173 0)
(0.015622203562 0.464645031135 0)
(0.0169996088353 0.462473649672 0)
(0.0185053187054 0.460324325458 0)
(0.0202780164911 0.458214586048 0)
(0.0223945073977 0.455948774357 0)
(0.0249468689173 0.453550309582 0)
(0.0279715319296 0.450766649043 0)
(0.0314656557928 0.447600214586 0)
(0.0354177034058 0.443789114342 0)
(0.0397809837149 0.439375585372 0)
(0.0444823802234 0.434147701986 0)
(0.0494574235108 0.428076456508 0)
(0.0544459145795 0.421197825872 0)
(0.0593957179224 0.413704973922 0)
(0.0643478858798 0.405463011157 0)
(0.0692577331592 0.396137995901 0)
(0.0740590086525 0.385882236492 0)
(0.0786365349283 0.374796526621 0)
(0.0829102123389 0.36295481204 0)
(0.0867951618682 0.350483441367 0)
(0.0901963286087 0.337122099113 0)
(0.0931548069746 0.323488877639 0)
(0.0955222103817 0.309219412605 0)
(0.0973501161934 0.294649942869 0)
(0.0986831040128 0.280057414115 0)
(0.0993594549335 0.26510045411 0)
(0.0995296836617 0.250221034077 0)
(0.0991855809801 0.235428783503 0)
(0.0983272368357 0.220786203939 0)
(0.097015378077 0.206370351894 0)
(0.0953270547463 0.192290955365 0)
(0.0932142593192 0.178440208462 0)
(0.0908682238496 0.16515644838 0)
(0.0883057620122 0.15232719536 0)
(0.0854971792662 0.139876187123 0)
(0.0826348300649 0.12800151363 0)
(0.0796887013339 0.116563952539 0)
(0.0767536743193 0.105629830647 0)
(0.0738346311438 0.0951295277161 0)
(0.0709717009139 0.0849450937124 0)
(0.0682923415223 0.0751128724427 0)
(0.0655446166956 0.0651941255597 0)
(0.0630289024475 0.0552355639236 0)
(0.0613890409125 0.0452648797359 0)
(0.061672251325 0.0363046329135 0)
(0.0636906585629 0.0285507663546 0)
(0.0643265289989 0.0200735393373 0)
(0.0645370579568 0.0129104873958 0)
(0.0679029250071 0.00776300667839 0)
(0.0660402518517 0.00234496425098 0)
(-0.16656709222 0.00949170246674 0)
(-0.184936124588 0.0337775022361 0)
(-0.184793928184 0.0571708176437 0)
(-0.182975684866 0.0808381653861 0)
(-0.180503716383 0.104124676316 0)
(-0.177472283845 0.126970154641 0)
(-0.173937456645 0.149299302554 0)
(-0.169955061534 0.171046523676 0)
(-0.165585137466 0.192163548635 0)
(-0.160875291698 0.212601396578 0)
(-0.155885502386 0.232338046958 0)
(-0.150658428569 0.251342781007 0)
(-0.145237723096 0.269600641016 0)
(-0.13966864712 0.287115476839 0)
(-0.133974899915 0.303865215576 0)
(-0.128190205012 0.319857190247 0)
(-0.122335470737 0.335090563601 0)
(-0.11642797415 0.349568986206 0)
(-0.11048332808 0.363297937651 0)
(-0.104511736144 0.37628028665 0)
(-0.0985291615496 0.388507733349 0)
(-0.0925666078784 0.400033137338 0)
(-0.0865944269741 0.410782519119 0)
(-0.0806125871381 0.420799385481 0)
(-0.0746292349707 0.430054683226 0)
(-0.068658914487 0.438565008858 0)
(-0.0627239716501 0.446324478822 0)
(-0.0568373686314 0.453357365877 0)
(-0.0509940282738 0.459616969518 0)
(-0.0452140325773 0.465128568981 0)
(-0.0395209975893 0.469890569183 0)
(-0.0339401846423 0.473903899137 0)
(-0.0284992706126 0.477208914276 0)
(-0.0232159714773 0.47975783581 0)
(-0.0181365306995 0.481625461334 0)
(-0.0132943554392 0.482799432786 0)
(-0.00870597552801 0.483316770285 0)
(-0.00441174477254 0.483183502336 0)
(-0.000456498699306 0.482477906953 0)
(0.00312237410155 0.481303237605 0)
(0.00630642315029 0.479645945065 0)
(0.00906833847315 0.4776519862 0)
(0.0114054315546 0.475403396006 0)
(0.0133595483285 0.473058087902 0)
(0.0149935277677 0.470622788003 0)
(0.0163784025631 0.468253130374 0)
(0.0176283479516 0.466002508364 0)