/*--------------------------------*- C++ -*----------------------------------*\
| =========                 |                                                 |
| \\      /  F ield         | OpenFOAM: The Open Source CFD Toolbox           |
|  \\    /   O peration     | Version:  v1906                                 |
|   \\  /    A nd           | Web:      www.OpenFOAM.com                      |
|    \\/     M anipulation  |                                                 |
\*---------------------------------------------------------------------------*/
FoamFile
{
    version     2.0;
    format      ascii;
    class       surfaceScalarField;
    location    "695";
    object      phia;
}
// * * * * * * * * * * * * * * * * * * * * * * * * * * * * * * * * * * * * * //

dimensions      [0 3 -1 0 0 0 0];
oriented        oriented;


internalField   nonuniform List<scalar> 
18240
(
0.000849377443895
-0.000849240112168
0.00174084139115
-0.000891308772292
0.00263022345484
-0.000889242737218
0.00351242112709
-0.000882039643534
0.0043845472851
-0.000871991573032
0.00524409182591
-0.000859385217681
0.00608864195038
-0.000844420583173
0.00691603694844
-0.00082723537595
0.00772415530053
-0.000807994048134
0.00851114673561
-0.00078683246691
0.00927519097382
-0.000763925272324
0.0100147607912
-0.000739412329687
0.0107283459035
-0.000713471297161
0.0114147368305
-0.000686235585429
0.0120727190228
-0.000657873188386
0.0127013713209
-0.000628499556676
0.0132997375176
-0.000598261369113
0.0138671342972
-0.00056724684127
0.0144028084249
-0.00053557269709
0.0149062499355
-0.000503294267284
0.01537684301
-0.000470493988297
0.0158141811877
-0.000437193163611
0.0162177194222
-0.00040344033999
0.0165870891527
-0.000369226085353
0.0169217571721
-0.000334569982182
0.0172213396778
-0.000299438960383
0.0174852713383
-0.000263832191895
0.0177131192386
-0.000227702807464
0.0179042625031
-0.0001910410982
0.018058209797
-0.000153798676105
0.0181742864335
-0.000115970809014
0.0182519597165
-7.75189368035e-05
0.018290528604
-3.84587159601e-05
0.0182894709631
1.22005243491e-06
0.0182481229456
4.14626387663e-05
0.018166057578
8.22381664893e-05
0.0180427403503
0.000123435935279
0.0178779549619
0.00016497070915
0.0176714151306
0.000206661438351
0.017423253421
0.000248361183946
0.0171335651228
0.000289810977206
0.0168029758184
0.000330803505294
0.0164320920183
0.000371004509222
0.0160221611279
0.000410158429401
0.0155744060445
0.000447869571017
0.0150907866761
0.000483855703023
0.014573205932
0.000517683083291
0.0140243737698
0.000549069078929
0.0134468885962
0.000577568907445
0.0128441923293
0.000602922178367
0.0122195543658
0.00062469674581
0.0115770891347
0.000642667265675
0.0109206875059
0.000656431445739
0.0102550491045
0.000665806494053
0.00958460571776
0.000670443850997
0.00891450351208
0.000670232791655
0.00824953907293
0.000664939457709
0.00759503338241
0.000654602561287
0.00695579432266
0.000639195563343
0.00633687736051
0.00061898861065
0.0057425904315
0.000594232703667
0.00517716037192
0.00056548335359
0.00464381232737
0.000533287656781
0.00414543898066
0.000498408700339
0.00368385252917
0.000461520087859
0.00326034408821
0.000423522944794
0.00287498028714
0.000385291509895
0.00252718486566
0.000347790669847
0.00221536503787
0.000311745710223
0.00193758085901
0.000277766492237
0.0016913450562
0.000246164907243
0.00147417802257
0.000217143741882
0.00128341035718
0.000190703440597
0.00111656709041
0.000166819723224
0.000971140511146
0.000145369782577
0.000844857058997
0.000126261542501
0.000735467500961
0.000109338568423
0.000640986452926
9.44599481899e-05
0.000559521161859
8.14177933689e-05
0.000489467705792
7.00319029351e-05
0.000429337775358
6.00844095181e-05
0.000377932701472
5.13822263443e-05
0.000334231251399
4.36573402097e-05
0.000297710419725
3.64970898381e-05
0.000268984665858
2.86829005139e-05
0.000244148616029
2.48075553752e-05
0.000220783045366
2.33190031959e-05
0.000200325163949
2.04191635457e-05
0.000180276009117
1.99920537642e-05
0.000158908060628
2.13129044612e-05
0.000137302798837
2.15302177941e-05
0.00011549294835
2.17324269287e-05
9.12318986685e-05
2.41704624063e-05
6.27944365786e-05
2.83294738528e-05
3.03992799403e-05
3.225873507e-05
3.03306222458e-05
0.000896796249252
-0.00174588960193
0.00184904812504
-0.00184340346337
0.00279606883019
-0.00183611102451
0.00373452233642
-0.00182033612547
0.00466190190664
-0.00179922090983
0.00557570481243
-0.0017730323435
0.00647345443548
-0.00174202288882
0.00735283299072
-0.00170646009115
0.00821162789114
-0.00166664513599
0.00904783164106
-0.00162288499309
0.00985955718121
-0.00157551090209
0.010645139134
-0.00152484619595
0.0114030300482
-0.00147122642014
0.0121319037634
-0.00141496467898
0.0128305361536
-0.00135637387966
0.0134979092078
-0.00129573155165
0.0141330799313
-0.00123330424232
0.0147352842585
-0.00116931351508
0.0153037984372
-0.00110396235452
0.015838042631
-0.00103740376538
0.0163374394412
-0.000969768840194
0.0168015177106
-0.000901138936537
0.0172297726434
-0.000831574825709
0.0176217706717
-0.000761092739872
0.0179770147225
-0.000689693835414
0.018295051193
-0.00061734381016
0.0185753425613
-0.000544002147151
0.0188173778101
-0.000469604585875
0.019020553059
-0.000394092209249
0.019184287189
-0.000317395736944
0.0193079111155
-0.000239466354146
0.0193907936352
-0.000160259008224
0.0194322340999
-7.97652485488e-05
0.0194316006791
2.0030010692e-06
0.0193882264925
8.49774095953e-05
0.0193015673596
0.00016905540984
0.0191710931235
0.000254058044013
0.0189964694147
0.00033976225138
0.0187774352441
0.00042585094584
0.0185140131059
0.000511961415267
0.0182063607085
0.000597625444164
0.0178550122287
0.000682339828596
0.017460690243
0.000765493382463
0.0170245793587
0.000846464540905
0.0165480855255
0.000924531061495
0.0160331418527
0.000998996823245
0.0154819075704
0.00106907934992
0.0148971045178
0.00113406362803
0.01428165746
0.00119316360783
0.0136390582465
0.00124569626453
0.0129729615762
0.00129091700697
0.0122875703119
0.00132820573938
0.0115872092719
0.00135688399762
0.0108767159058
0.00137641159015
0.0101610073832
0.00138620876811
0.00944543836013
0.0013858764098
0.00873534778565
0.0013750546685
0.0080363330615
0.00135366009634
0.00735377165705
0.00132175823463
0.00669302374868
0.00127975762872
0.00605894264226
0.00122830052238
0.00545601195132
0.001168421269
0.00488785586791
0.00110141968022
0.00435748069006
0.00102877780945
0.00386701198316
0.000951952784159
0.00341779132403
0.000872720910595
0.0030099614391
0.000793073216981
0.00264269142798
0.000715024086609
0.00231417164479
0.000640210305049
0.00202206394837
0.00056983055963
0.00176361193572
0.000504561224233
0.00153599329506
0.000444718260076
0.00133634072132
0.0003903043081
0.00116193667526
0.000341183374775
0.00101014048102
0.000297119874348
0.000878483163279
0.000257882601023
0.000764589175427
0.000223190754834
0.000666295122617
0.000192720244364
0.000581613300811
0.000166060247332
0.000508808210719
0.000142803965574
0.000446312192977
0.000122542010113
0.000392760591444
0.000104900583436
0.000346870534326
8.95095544292e-05
0.000307289317065
7.60450205259e-05
0.000271534775071
6.44001682903e-05
0.00024040736512
5.58993040888e-05
0.000215238837965
4.84453894358e-05
0.000194224028569
4.13900621668e-05
0.000175012904102
3.91517584367e-05
0.000155796222354
4.04700907868e-05
0.000134990425388
4.2265318341e-05
0.000113212762561
4.34334131764e-05
9.01531957847e-05
4.71394625151e-05
6.34875603412e-05
5.4888327382e-05
3.10992121103e-05
6.4526154422e-05
6.13684290545e-05
0.000905020905577
-0.00265076138611
0.00186294527258
-0.00280117147952
0.00281668945444
-0.00278969903296
0.00376192985287
-0.00276542005637
0.0046959311932
-0.00273306791116
0.00561609379822
-0.00269304023908
0.00651991384172
-0.00264569112692
0.00740503118885
-0.0025914252648
0.00826922742877
-0.00253069270097
0.0091104631829
-0.00246397174771
0.00992686076389
-0.00239176344831
0.0107167346026
-0.00231457466437
0.0114785624063
-0.00223291312103
0.0122110098468
-0.00214727063059
0.0129128921712
-0.00205811913126
0.0135831935726
-0.00196589535667
0.014221021282
-0.00187099873213
0.014825620577
-0.00177377886144
0.0153963240966
-0.00167453608827
0.0159325641731
-0.00157351300293
0.0164338206109
-0.00147089818836
0.0168996325725
-0.00136682233096
0.0173295481618
-0.00126136502058
0.0177231381033
-0.00115455524636
0.018079949802
-0.00104638053728
0.0183995246386
-0.000936790940912
0.0186813582104
-0.000825709639692
0.0189249226485
-0.000713039449391
0.0191296338409
-0.000598674605689
0.0192948803313
-0.000482509082006
0.0194199979411
-0.00036445083354
0.0195043068973
-0.000244429559695
0.0195470940457
-0.000122413374266
0.0195476613235
1.58096855538e-06
0.0195053146069
0.000127470367122
0.019419425614
0.000255097849486
0.0192894254079
0.000384212778847
0.0191148809405
0.000514469367852
0.0188954886534
0.000645406573373
0.0186311649547
0.000776457336236
0.0183220326955
0.000906929671374
0.0179685224754
0.00103603112968
0.017571343002
0.0011628517862
0.0171315883069
0.00128640656005
0.0166506827584
0.00140561853464
0.016130489217
0.00151937852829
0.0155732222631
0.00162652422452
0.0149815547093
0.00172591183496
0.014358498427
0.00181638407214
0.0137075112383
0.0018968454494
0.0130323544874
0.00196621288797
0.0123372056265
0.00202348617789
0.0116265110124
0.00206768313349
0.0109051063286
0.00209790942995
0.0101780744783
0.0021133059843
0.00945084645653
0.00211315904032
0.00872901925124
0.00209691109123
0.00801837128611
0.00206433212173
0.00732460857609
0.00201552436137
0.00665335127535
0.0019510194695
0.00600982512966
0.00187181613621
0.00539877559302
0.00177946289904
0.00482401363572
0.00167616133337
0.0042885891462
0.00156418139742
0.00379490974018
0.00144559837949
0.00334450238777
0.00132309128953
0.00293750970403
0.00120001783111
0.00257275959193
0.00107972556069
0.00224801259267
0.000964901896945
0.00196043570411
0.000857354760386
0.00170690192963
0.000758039452882
0.00148428338885
0.000667286054918
0.0012895548466
0.000584982097082
0.00111989657408
0.000510796042094
0.000972648820358
0.000444322958834
0.000845293411727
0.000385197208556
0.000735405749535
0.000333037971394
0.000640746580687
0.000287341748068
0.000559318548807
0.000247450036011
0.00048938360754
0.00021270266166
0.000429400736994
0.000182487467806
0.000378018515228
0.000156246924408
0.000334016196025
0.000133474971
0.000296248926229
0.000113776888135
0.00026333353472
9.72785339731e-05
0.000234384273678
8.48098716854e-05
0.000207591465686
7.51946466279e-05
0.000182729636759
6.62058973914e-05
0.000162480872793
5.93483795599e-05
0.000145866552743
5.7023465193e-05
0.00012548254413
6.25782339502e-05
0.000101697595408
6.71404614006e-05
7.73674109951e-05
7.13851138756e-05
5.1233353506e-05
8.09268940463e-05
2.59966807401e-05
8.96584448534e-05
8.73124231737e-05
0.000913458711759
-0.00356406932142
0.00187938283122
-0.00376693676691
0.00284121820636
-0.00375137644437
0.00379441572173
-0.00371845969959
0.00473611711974
-0.00367461287855
0.00566363412972
-0.00362040150855
0.00657440731878
-0.00355631034118
0.00746602887431
-0.0034828938608
0.00833625351874
-0.00340076654301
0.00918301706368
-0.00331058573728
0.0100044378927
-0.00321303718937
0.0107988271061
-0.00310881818551
0.0115646804986
-0.00299862349246
0.0123006806972
-0.00288312924802
0.0130056806117
-0.00276298020017
0.0136786983805
-0.00263877565799
0.0143188938168
-0.00251105936243
0.0149255576784
-0.00238030910344
0.0154980834545
-0.00224693066672
0.016035953355
-0.0021112525669
0.0165387085565
-0.0019735250787
0.0170059349259
-0.00183392077568
0.0174372350382
-0.00169253866902
0.0178322165023
-0.00154941002559
0.0181904684117
-0.00140450652641
0.0185115543014
-0.0012577499566
0.0187949945413
-0.00110902296199
0.0190402650546
-0.000958181284977
0.0192467863969
-0.000805066375682
0.0194139292302
-0.00064951972428
0.0195410108387
-0.000491398498105
0.0196273085404
-0.000330589860533
0.0196720649066
-0.000167029797354
0.0196745117576
-7.21665419987e-07
0.0196338847103
0.000168244878577
0.0195494590815
0.000339675944788
0.01942057375
0.000513254337782
0.019246679107
0.000688525812926
0.019027367565
0.00086488392466
0.0187624310294
0.00104156549964
0.018451892421
0.001217643618
0.0180960671823
0.00139203720066
0.0176955873418
0.00156351494873
0.0172514592763
0.00173072196229
0.0167650708801
0.00189219407225
0.0162382377121
0.00204639995323
0.0156731856006
0.00219176002708
0.0150725810608
0.0023266965266
0.0144394877531
0.00244964690671
0.013777384564
0.00255910846352
0.0130901047815
0.00265363510087
0.0123818556519
0.00273186206238
0.0116571634437
0.002792479401
0.0109209165858
0.00283424064134
0.0101783390712
0.00285594524624
0.00943503328387
0.00285650543247
0.00869690909111
0.00283506053134
0.00797008066943
0.00279116682359
0.0072606836268
0.00272492230434
0.00657480142562
0.00263689089348
0.00591820728524
0.00252839745268
0.00529619830146
0.00240145317424
0.00471270326051
0.00225963190993
0.00417072364632
0.00210613074229
0.00367319886531
0.00194308323548
0.00322220647696
0.00177403647741
0.00281786974485
0.00160430046158
0.00245841675969
0.00143912077904
0.00214077661124
0.00128248260455
0.00186129791585
0.00113677370977
0.0016162300152
0.00100304963602
0.00140200574727
0.00088145483434
0.00121536919993
0.000771566388815
0.00105341591467
0.000672700969112
0.000913499689536
0.000584193121092
0.000793080412268
0.000505573416509
0.000689625991501
0.000436450722083
0.000600765053448
0.000376163120262
0.000524485183708
0.000323691181721
0.000459088680141
0.000278060839019
0.000403089139287
0.000238449303132
0.000355193858123
0.000204104879125
0.000314298578752
0.000174333327934
0.000279436147756
0.000148602513754
0.000249882800327
0.000126794522413
0.000220857838799
0.000113793348811
0.000194289341426
0.000101717555929
0.000170925347804
8.95204279348e-05
0.000148022934206
8.21966540079e-05
0.000125053076538
7.99327517812e-05
0.000107783581252
7.97806504799e-05
8.54082764317e-05
8.94401414716e-05
6.01509720511e-05
9.65617922832e-05
3.9173124141e-05
0.00010182347799
2.01185762476e-05
0.000108624393317
0.000107383569262
0.000924370804376
-0.00448828715747
0.00190143902692
-0.00474384539089
0.0028742675837
-0.00472404443284
0.00383818275693
-0.00468221527961
0.00479022195638
-0.00462649338237
0.00572760183908
-0.00455762390606
0.00664768773547
-0.00447624017598
0.00754801102604
-0.00438306261222
0.00842628409202
-0.00427888685726
0.00928041354888
-0.00416456427456
0.0101085068664
-0.00404098164263
0.0109088766363
-0.00390904114054
0.0116800379198
-0.00376964016862
0.0124207034464
-0.00362365232484
0.0131297722061
-0.00347190875051
0.0138063163577
-0.00331518173009
0.0144495623247
-0.00315416938065
0.0150588710979
-0.00298948389009
0.015633714169
-0.00282164162605
0.0161736500765
-0.00265105799617
0.016678298595
-0.00247804457376
0.0171473172207
-0.00230281152957
0.0175803774088
-0.00212547187121
0.017977144469
-0.0019460506175
0.0183372587522
-0.00176449451673
0.0186603210831
-0.00158068576171
0.0189458802086
-0.00139445493344
0.0191934244766
-0.00120559732724
0.0194023758482
-0.00101388802451
0.0195720882798
-0.000819100485402
0.0197018490798
-0.000621025264336
0.0197908851717
-0.000419489087445
0.0198383735665
-0.000214378118659
0.0198434584714
-5.66280147915e-06
0.0198052727275
0.000206578377907
0.0197229676802
0.000422133260189
0.0195957466946
0.000640632213643
0.0194229081472
0.000861526421014
0.0192038892333
0.00108406985486
0.0189383192116
0.00130730801406
0.0186260680485
0.00153007212003
0.018267302835
0.00175098472487
0.0178625323876
0.00196847152859
0.0174126560821
0.00218078751384
0.0169189935457
0.00238604733125
0.0163833141967
0.00258226954422
0.015807842473
0.00276741916241
0.0151952615779
0.00293945928908
0.0145486896814
0.00309639101052
0.013871663267
0.00323629537061
0.0131680912323
0.00335734999413
0.0124422392238
0.00345783846457
0.0116986971928
0.00353612197852
0.0109424137024
0.00359060278952
0.0101787358853
0.00361967427292
0.00941350580373
0.00362176966824
0.00865303566149
0.00359553806358
0.0079039617156
0.00354024373553
0.00717292496757
0.00345594168269
0.00646673584444
0.0033430653655
0.0057919364253
0.00320317229129
0.00515501431822
0.00303835122249
0.00455968458294
0.00285492942986
0.00400832436331
0.00265745165845
0.00350507340885
0.00244628425998
0.00305340932886
0.00222564293691
0.00265343280327
0.00200421255442
0.00230224727088
0.00179024057151
0.00199529141024
0.00158937072778
0.00172762233357
0.00140437798124
0.0014945738974
0.00123603452443
0.00129200625285
0.00108396313068
0.00111639303167
0.0009471241849
0.000964822775342
0.000824219036407
0.000834796211418
0.000714171430896
0.000723823726327
0.000616499156734
0.000629152488557
0.000531078355561
0.00054811254894
0.000457161344014
0.000478697849035
0.000393065257753
0.000419334115263
0.000337385231792
0.000368615958567
0.000289128096765
0.000325319009728
0.000247363909368
0.000288467381389
0.000211146799823
0.000257135327789
0.000179897311994
0.000230995601186
0.000152894984532
0.000205689821
0.000139055109852
0.000180575226408
0.000126783794784
0.00015296100174
0.000117082838022
0.000127588304329
0.000107513452311
0.000104265392284
0.000103194522218
8.53722386253e-05
9.86086100442e-05
6.92750368144e-05
0.000105467252406
4.81160347908e-05
0.000117649061849
2.92521837082e-05
0.000120613841285
1.46699285542e-05
0.000123129202789
0.000122015267017
0.000938065717793
-0.00542619772268
0.00192940332466
-0.00573501952002
0.00291624964078
-0.00571072808434
0.00389379045112
-0.00565959380893
0.00485894327569
-0.00559148520462
0.00580881492965
-0.00550733570749
0.00674067697232
-0.00540794392521
0.007651985418
-0.00529421434576
0.00854039716292
-0.005167143818
0.00940378309633
-0.00502779732591
0.0102402353764
-0.00487728326942
0.0110480708464
-0.00471672807465
0.0118258283392
-0.00454725154554
0.0125722623082
-0.00436994238806
0.0132863304474
-0.00418583545932
0.0139671781387
-0.00399589016101
0.0146141174637
-0.00380097183137
0.0152266041089
-0.0036018356398
0.0158042102069
-0.003399114962
0.016346596943
-0.0031933136004
0.0168534852736
-0.0029848034902
0.0173246287704
-0.00277382673255
0.0177597868917
-0.00256050283853
0.0181587023243
-0.00234483936329
0.0185210802267
-0.00212674615984
0.018846572273
-0.0019060512439
0.0191347628375
-0.00168251854041
0.019385159705
-0.00145586608689
0.0195971867214
-0.00122578565492
0.0197701808418
-0.000991963178346
0.019903391785
-0.000754102580347
0.0199959865683
-0.000511947313836
0.0200470586333
-0.00026531049056
0.0200556437013
-1.41043389037e-05
0.0200207415562
0.000241628130125
0.0199413462183
0.000501680893292
0.0198164829452
0.000765652697186
0.0196452538088
0.00103291810731
0.0194268890949
0.00130260261114
0.0191608054244
0.00157356533983
0.0188466659353
0.00184439073112
0.0184844429434
0.0021133918944
0.0180744761219
0.00237862690539
0.0176175264045
0.00263792890984
0.0171148177418
0.00288894933219
0.0165680668833
0.00312921346952
0.0159794945898
0.00335618144385
0.0153518210968
0.00356731719828
0.0146882399398
0.00376014656685
0.0139923809554
0.00393231620354
0.0132682528047
0.00408162157594
0.0125201969915
0.00420601745434
0.0117528469506
0.00430357092864
0.0109711606652
0.0043723587586
0.0101805545015
0.00441032884427
0.00938711093223
0.00441522875876
0.00859772821025
0.00438492780466
0.00781975045005
0.0043181985806
0.00706035426892
0.00421531971652
0.00632733529277
0.00407605360001
0.00562823065473
0.00390224982968
0.00497248477722
0.00369406514802
0.00436249981984
0.00346487505706
0.00379787851092
0.00322202038349
0.00328586691401
0.00295823240931
0.00283343614886
0.00267799868175
0.00244051989522
0.00239705033074
0.00210194296543
0.00212873608103
0.00181048590598
0.00188074920507
0.00155923270953
0.00165555399291
0.00134232569819
0.00145286919929
0.00115494600511
0.00127127499583
0.000993308474589
0.00110869786161
0.000854687294062
0.000962781643854
0.000737069310905
0.000831733320106
0.000638234483529
0.000715282050282
0.000554939550864
0.000614324902955
0.000483757847196
0.00052829828675
0.000422822293305
0.000453958885443
0.000370895255574
0.000389270117793
0.000326677521619
0.000333305788011
0.000288959048749
0.000285043130362
0.000256916608026
0.00024315057174
0.000229809066853
0.000206966166691
0.00020386070945
0.000178802470469
0.000178857153167
0.000164013383723
0.000156050320504
0.000149540960003
0.000134992793764
0.000138085949854
0.000111251794124
0.000131194236673
8.78429551051e-05
0.000126540793429
6.46383906335e-05
0.000121752429072
4.95692874248e-05
0.000120473412805
3.74687808514e-05
0.000129682201446
2.25313967272e-05
0.000135487203973
1.11369369572e-05
0.000134458616482
0.000133116995805
0.000954754545513
-0.00638079408859
0.00196356229827
-0.00674366234903
0.00296756225429
-0.00671456198272
0.00396175323285
-0.00665361991808
0.00494290543201
-0.00657247346245
0.00590799183597
-0.00647225962794
0.00685416991038
-0.00635396102433
0.00777880337962
-0.00621868866934
0.00867948114591
-0.00606766434603
0.00955403052963
-0.00590219166597
0.0104005255389
-0.00572362543433
0.0112172892448
-0.00553334139481
0.012002891272
-0.00533270555639
0.0127561393219
-0.00512304501483
0.0134760660461
-0.00490561916695
0.014161910055
-0.00468159373068
0.0148130928884
-0.00445201651855
0.0154291909763
-0.00421779798219
0.0160099051849
-0.00397969544464
0.0165550274582
-0.00373830420069
0.0170644078372
-0.00349405377511
0.0175379215665
-0.00324721190888
0.0179754396235
-0.00299789332615
0.0183768018158
-0.00274607486643
0.0187417950308
-0.0024916129383
0.0190701346698
-0.00223426455069
0.019361450979
-0.00197370794313
0.0196152775927
-0.00170956503869
0.0198310440153
-0.00144142293995
0.0200080696948
-0.00116885805191
0.0201455625828
-0.000891462246903
0.0202426199492
-0.000608868829844
0.0202982363169
-0.000320787589594
0.0203113163737
-2.70414768381e-05
0.0202806971809
0.000272394692232
0.020205177958
0.000577352172054
0.0200835607989
0.000887427245881
0.0199147000208
0.00120194187353
0.0196975614089
0.00151991007913
0.0194312890885
0.00184001261414
0.0191152773943
0.00216058310529
0.0187492462988
0.00247960926821
0.0183333130993
0.00279475082456
0.0178680593395
0.00310337669557
0.017354584285
0.00340262063546
0.0167945401889
0.00368945240443
0.0161901506167
0.00396076481404
0.0155441951962
0.00421345799391
0.0148599834317
0.00444453717038
0.0141412864711
0.00465117607095
0.0133922623858
0.00483079282917
0.0126173544414
0.00498104986106
0.0118212042588
0.00509981718487
0.0110086659641
0.00518496706662
0.0101850226036
0.00523400610211
0.00935654842406
0.00524371607506
0.00853098118667
0.00521047525769
0.00771686187681
0.0051322986609
0.00692140649158
0.0050107374811
0.00615387830777
0.00484354861001
0.00542222856251
0.00463386727148
0.00474469483177
0.00437155993564
0.00411899537295
0.00409052247434
0.00353471030568
0.00380623690252
0.00300810477126
0.00348474960395
0.00255485289731
0.00313115468827
0.00217369259202
0.00277810745544
0.00185453225209
0.00244779652814
0.00158531265479
0.00214987042355
0.0013563066113
0.00188446736255
0.00116035610706
0.00164873198041
0.000991960899409
0.0014395888542
0.000847105034479
0.00125347807204
0.000723598351976
0.00108621855617
0.000620705744261
0.000934560819132
0.000537091069032
0.000798838497206
0.000468381415161
0.00068298138387
0.000409049562972
0.000587584036791
0.000357932324036
0.000505031696832
0.000314720964073
0.00043243950383
0.000278180318389
0.000369805228165
0.000246882219391
0.000316301487103
0.000220266120178
0.000269727349869
0.000197802145236
0.000229390179539
0.000174249838921
0.000202312219209
0.00015274209953
0.000185473449474
0.000130214360756
0.00017201680926
0.000108651437937
0.000159592163739
8.7272843266e-05
0.00015251291427
6.92254519683e-05
0.00014452744471
5.01821018861e-05
0.00014073440406
3.3498838088e-05
0.000137097958406
2.59188784217e-05
0.00013720648657
1.61920347393e-05
0.000145154597877
7.93299051938e-06
0.000142657495029
0.000141020472905
0.00097462925789
-0.00735526234466
0.00200426572454
-0.00777312902344
0.00302870675338
-0.00773883417784
0.00404271863421
-0.0076674634239
0.0050428879636
-0.00757247584951
0.00602602583245
-0.00745523188861
0.00698915147121
-0.00731692281236
0.00792951794155
-0.00715889311905
0.00884463239788
-0.00698261895935
0.00973227082456
-0.00678967245166
0.0105904860533
-0.00658168554532
0.0114176104933
-0.00636031316972
0.0122122522418
-0.00612719738231
0.0129732860901
-0.00588393150662
0.0136998376886
-0.00563202622103
0.0143912626521
-0.00537287667845
0.0150471188883
-0.00510773345823
0.0156671347469
-0.00483767687119
0.0162511719045
-0.00456359808577
0.0167991867725
-0.00428618650796
0.0173111900568
-0.00400592651483
0.0177872090073
-0.00372310173533
0.018227251829
-0.00343780844439
0.018631278279
-0.003149974356
0.0189991744847
-0.00285938287833
0.0193307344691
-0.00256569822581
0.0196256447409
-0.00226849177336
0.0198834734737
-0.0019672664208
0.0201036604974
-0.00166148157257
0.0202855103989
-0.00135057772195
0.0204281867536
-0.00103400633672
0.0205307103636
-0.000711257331143
0.0205919624021
-0.000381901372896
0.0206106953462
-4.56321923657e-05
0.0205855524052
0.000297684222763
0.0205150983275
0.00064795792924
0.0203978619385
0.00100482083636
0.0202323912672
0.00136757577593
0.0200173210734
0.0017351498543
0.0197514512001
0.00210605858599
0.0194338333969
0.00247838333316
0.0190638632447
0.00284976759199
0.0186413709318
0.00321743607673
0.0181667061295
0.00357823826723
0.017640806564
0.0039287177535
0.0170652490951
0.00426520985421
0.0164422634217
0.00458394290085
0.0157747325004
0.00488118329369
0.0150661270874
0.00515331881745
0.0143204532876
0.00539702442131
0.0135420942961
0.00560929943555
0.0127356754521
0.00578760084819
0.0119058180448
0.00592977447341
0.0110570356946
0.00603381129941
0.0101940300345
0.00609704296502
0.00932290021721
0.00611484296944
0.00845290986507
0.00608045108021
0.00759499996389
0.00599016727645
0.00675456774527
0.00585112987468
0.00594342144209
0.00565465749285
0.00516503494141
0.00541220743253
0.0044663432787
0.005070198538
0.00383051976744
0.00472629163208
0.00321327113292
0.00442339200846
0.00265945266298
0.00403844528236
0.00220588350889
0.0035846040829
0.00184543649463
0.00313842568236
0.00155696637364
0.00273615184326
0.00131954927575
0.00238717110498
0.00112002670464
0.00208388597249
0.000950552220375
0.00181810510156
0.000805138664761
0.00158491227109
0.000679379193511
0.00137915172422
0.000572088849784
0.00119343160004
0.000485560539989
0.00102101805165
0.000421135651576
0.000863201309428
0.000371850682698
0.000732214002339
0.000325978920518
0.000633410024422
0.000285256555674
0.000545712688904
0.000251878109954
0.000465774979984
0.000224323989357
0.000397318024967
0.00020007069342
0.000340515349479
0.000179219007074
0.000290538934127
0.000160937262653
0.00024763141191
0.000141000314372
0.000222204307824
0.000122455722418
0.000203968549876
0.000103592547613
0.000190825688059
8.32171321658e-05
0.00017990919435
6.51655900217e-05
0.00017050446479
4.73137997914e-05
0.000162319282917
3.52736434538e-05
0.000152717081888
2.31374838001e-05
0.000149178101776
1.48922523484e-05
0.000145396208656
1.05044435858e-05
0.000149490496469
4.90559206133e-06
0.000148204215014
0.000145897676731
0.000997906260643
-0.00835300379818
0.0020519346262
-0.00882698557754
0.00310030103242
-0.0087870275809
0.00413748456911
-0.00870447530934
0.00515985016877
-0.00859467087119
0.00616401330469
-0.00845922612167
0.00714682851215
-0.00829957085136
0.00810541724985
-0.00811731680081
0.00903719069749
-0.00791422954449
0.00993986479236
-0.00769218621952
0.0108114690438
-0.0074531319985
0.0116503482831
-0.00719903745306
0.012455158823
-0.00693185569305
0.0132248574517
-0.00665348090488
0.0139586845542
-0.00636570686681
0.014656139296
-0.00607018795075
0.0153169486126
-0.00576840196126
0.0159410285095
-0.00546161875344
0.0165284408104
-0.00515087473872
0.0170793452886
-0.00483695777088
0.0175939518898
-0.00452040180892
0.0180724739741
-0.00420149441461
0.0185150874974
-0.00388029386054
0.0189218961129
-0.0035566560971
0.0192929051114
-0.00323026556757
0.0196280014634
-0.00290066872691
0.0199269402485
-0.00256730444801
0.0201893329624
-0.00222953262433
0.0204146378583
-0.00188665878116
0.0206021491637
-0.00153795998945
0.0207509882601
-0.00118271418975
0.0208600951781
-0.00082023057447
0.020928227394
-0.000449896471809
0.0209539645009
-7.12285035066e-05
0.0209357255919
0.000316068747681
0.0208717976968
0.00071203646485
0.0207603816524
0.00111639363226
0.0205996516841
0.0015284688255
0.0203878336504
0.00194713798786
0.0201232968158
0.00237077265485
0.019804659371
0.00279720474251
0.0194309029157
0.00322371439388
0.0190014876147
0.00364704727402
0.018516461855
0.00406346207728
0.0179765594744
0.00446882493648
0.0173832521493
0.00485871180296
0.0167388089198
0.0052285949836
0.0160462308543
0.00557394354995
0.0153092714432
0.00589047874366
0.0145322480761
0.0061742146271
0.0137199748898
0.00642174128036
0.0128774100611
0.00663030200895
0.0120092377172
0.00679804986134
0.0111192891838
0.0069238266451
0.0102105878058
0.00700577284989
0.00928784930514
0.00703757648511
0.00836339266233
0.00700487334135
0.00745482777194
0.00689868701721
0.00655889234071
0.00674701361426
0.00569474007096
0.0065187430004
0.00483707041114
0.00626977840434
0.00412969620963
0.00577755133287
0.00351292887115
0.00534296713675
0.00282826925391
0.00510791503834
0.00221769381916
0.00464893319411
0.00176735962093
0.00403477234697
0.00144614893231
0.00345955140092
0.00120790972113
0.00297424436652
0.00101565057719
0.00257934969747
0.000853951918607
0.00224545954662
0.000717003373312
0.00195497949671
0.000598697655158
0.00170311204588
0.000493191176457
0.00148459279828
0.000400459632708
0.00128607128338
0.000329665499144
0.00109175681745
0.000290300033327
0.00090249800426
0.00027001807024
0.000752450858697
0.000237630013297
0.00066575028727
0.000205792158256
0.000577505802633
0.00018332189433
0.000488201979525
0.000166870415471
0.000413728012715
0.000149924638637
0.000357421734155
0.000135355323357
0.000305069518459
0.000120439792938
0.000262505645425