/*--------------------------------*- C++ -*----------------------------------*\
| =========                 |                                                 |
| \\      /  F ield         | OpenFOAM: The Open Source CFD Toolbox           |
|  \\    /   O peration     | Version:  v1906                                 |
|   \\  /    A nd           | Web:      www.OpenFOAM.com                      |
|    \\/     M anipulation  |                                                 |
\*---------------------------------------------------------------------------*/
FoamFile
{
    version     2.0;
    format      ascii;
    class       volScalarField;
    location    "176";
    object      alpha;
}
// * * * * * * * * * * * * * * * * * * * * * * * * * * * * * * * * * * * * * //

dimensions      [0 0 -1 0 0 0 0];


internalField   nonuniform List<scalar> 
9216
(
156.861002933
199.99999474
199.999995144
199.999995144
199.999995144
199.999995477
199.999995477
199.999995477
199.999995477
199.999995477
199.999995149
199.999994481
199.999994568
199.999993785
199.999993785
199.999993785
199.999994481
199.999995044
199.999995044
199.999995044
199.999995044
199.9999938
199.999993526
199.999993526
199.999993526
199.999993526
199.999992566
199.999992131
199.999991764
199.99999105
199.999990853
199.999988727
199.999989393
199.99999151
199.999991704
199.999992818
199.999992882
199.999992882
199.999992882
199.999992882
199.999992882
199.999992225
199.999991075
199.999990968
199.999991821
199.999991821
199.999991821
199.999991821
199.999991821
199.999991768
199.999992031
199.999992309
199.999992616
199.999992882
199.999992882
199.999992703
199.999992099
199.999991322
199.999990047
199.999988181
199.999986547
199.999985078
199.999983949
199.999982572
199.999979997
199.999976213
199.999972716
199.999971547
199.999967564
199.999962543
199.999957926
199.999952328
199.999947428
199.999942675
199.999934097
199.999919336
199.999902658
199.999884597
199.999855294
199.999801191
199.999656872
199.998205622
199.913477995
186.368159283
168.639049863
154.68708645
140.055524492
119.387951577
94.94669108
74.201201364
55.6983410753
41.3468801344
30.0226885915
19.6418007584
11.7407892112
1.33054137716
199.999994409
199.999995442
199.999995477
199.999995477
199.999995477
199.999995477
199.999995477
199.999995144
199.999995144
199.999995144
199.999995144
199.999995144
199.999994517
199.999993822
199.999993822
199.999993822
199.999994076
199.999994107
199.999994107
199.999993802
199.999994774
199.999994363
199.999993737
199.999993055
199.999992782
199.999992782
199.999992782
199.999992782
199.99999277
199.999991721
199.999990862
199.999990862
199.999990862
199.999990862
199.999990862
199.999990862
199.999990862
199.999990089
199.999990089
199.999989393
199.999989393
199.999989393
199.999989393
199.999988215
199.999988215
199.999988215
199.999988215
199.999988215
199.999988215
199.999988215
199.999988215
199.999988215
199.999988215
199.999987209
199.999986418
199.999986308
199.999985513
199.999984171
199.999980036
199.999976379
199.99997343
199.999970986
199.999968695
199.999967607
199.99996482
199.999959098
199.999952869
199.999950733
199.99995117
199.999952738
199.999950679
199.999943801
199.999935658
199.999926761
199.999915691
199.999899778
199.999885021
199.999883754
199.999888254
199.999857647
199.999800689
199.999537908
199.997409156
199.416361048
184.071852593
168.167113823
154.035426681
132.169459324
111.748062934
87.0968792092
65.8183168205
52.6937183941
42.1438278983
27.0536912605
17.8853037929
14.202456472
199.999995144
199.999995519
199.999995378
199.9999956
199.999995144
199.999995144
199.999995144
199.999995144
199.999995144
199.999995144
199.999994774
199.999994774
199.999994774
199.999994774
199.999993041
199.999993737
199.999993737
199.999993737
199.999993737
199.999993737
199.999993737
199.999993737
199.999993737
199.999992782
199.999992782
199.999991864
199.999991025
199.999990166
199.999990166
199.999990166
199.999989393
199.999989393
199.999988215
199.999988215
199.999988215
199.999988215
199.999988215
199.999988215
199.999988215
199.999988215
199.999988215
199.999988215
199.999986905
199.999986905
199.999985109
199.999985109
199.999983492
199.999983492
199.999982037
199.999980041
199.999980041
199.999980041
199.999980041
199.999980041
199.999980041
199.999980041
199.999980041
199.999979235
199.99997704
199.999972896
199.99996911
199.999966086
199.999963278
199.999959855
199.999954379
199.999946635
199.999938294
199.999931397
199.999923666
199.999912775
199.999900981
199.999898846
199.999883311
199.999889254
199.999871263
199.999845207
199.99982524
199.999805248
199.999775544
199.999749441
199.999702719
199.999176187
199.992726192
196.979443531
181.895731063
165.213626624
144.097203405
133.215223968
118.30066472
90.0050576991
63.0215195123
57.0861195444
41.3172305189
31.7189341241
27.9813223742
18.7324968979
199.999995477
199.9999956
199.9999956
199.9999956
199.999995144
199.999995144
199.999995144
199.999995144
199.999994774
199.999994774
199.999994774
199.999994774
199.999994774
199.999993737
199.999993737
199.999993737
199.999993737
199.999993737
199.999993737
199.999993737
199.999993737
199.999993041
199.999993041
199.999992086
199.999991025
199.999990166
199.999989393
199.999989393
199.999988215
199.999988215
199.999988215
199.999988215
199.999988215
199.999988215
199.999988215
199.999988215
199.999986905
199.999986905
199.999986905
199.999986905
199.999983654
199.999982037
199.999980041
199.999980041
199.999980041
199.999980041
199.999980041
199.999980041
199.999980041
199.999980041
199.999977824
199.999977824
199.999977824
199.999977824
199.999977824
199.999977824
199.999977824
199.999977824
199.999977622
199.999974541
199.99997042
199.999966657
199.999962595
199.999958899
199.999953572
199.999945803
199.999936734
199.99992884
199.999921432
199.999911187
199.999899997
199.999885958
199.999869348
199.999864493
199.99983832
199.999811284
199.999788887
199.999766454
199.999736823
199.999684102
199.999210624
199.991429705
199.597034606
189.162559452
176.269359935
158.401116019
142.560454829
132.152050139
110.943771934
95.8057945054
77.4462981051
54.204696632
49.9713073702
41.1727443064
34.8614765691
23.0428615055
199.999995477
199.9999956
199.9999956
199.99999537
199.999995144
199.999995144
199.999995144
199.999994774
199.999994774
199.999994774
199.999994774
199.999994774
199.999993737
199.999993737
199.999993737
199.999993737
199.999993737
199.999993737
199.999993737
199.999993041
199.999993041
199.999993041
199.999992086
199.999991025
199.999989393
199.999989393
199.999988215
199.999988215
199.999988215
199.999988215
199.999988215
199.999988215
199.999986905
199.999986905
199.999986905
199.999986905
199.999986905
199.99998545
199.999982037
199.999980041
199.999980041
199.999980041
199.999980041
199.999980041
199.999977824
199.999977824
199.999977824
199.999977824
199.999977824
199.999977824
199.999977824
199.999977824
199.99997536
199.99997536
199.99997536
199.99997536
199.99997536
199.99997536
199.99997536
199.999971171
199.999967292
199.999961644
199.999955459
199.999950806
199.99994532
199.999935898
199.999929326
199.999924593
199.999915507
199.999904548
199.999894415
199.999886941
199.999870224
199.999848015
199.999816807
199.99979107
199.999786991
199.999766719
199.999737502
199.999683748
199.999164103
199.991066933
199.419260297
184.365842579
167.708658197
149.43726423
133.763026635
124.915239734
119.546455681
98.0449293178
84.9086132951
64.2867901692
49.9537252024
49.586438737
45.7945559554
33.7848037367
199.999995477
199.9999956
199.9999956
199.999995144
199.999995144
199.999995144
199.999994774
199.999994774
199.999994774
199.999994774
199.999994774
199.999994363
199.999993737
199.999993737
199.999993737
199.999993737
199.999993737
199.999993041
199.999993041
199.999993041
199.999993041
199.999992086
199.999991025
199.999989393
199.999988215
199.999988215
199.999988215
199.999988215
199.999988215
199.999988215
199.999986905
199.999986905
199.999986905
199.999986905
199.999986905
199.99998545
199.999982037
199.999982037
199.999980041
199.999980041
199.999980041
199.999980041
199.999977824
199.999977824
199.999977824
199.999977824
199.999977824
199.99997536
199.99997536
199.99997536
199.99997536
199.99997536
199.999972622
199.999972622
199.999972622
199.99996958
199.99996958
199.9999662
199.9999662
199.999962221
199.999946827
199.999935441
199.999927171
199.999921565
199.999917392
199.999913627
199.999903061
199.999901527
199.999895335
199.99988643
199.999876782
199.999861556
199.999841681
199.999813878
199.999793033
199.999790652
199.999771942
199.999733421
199.999709903
199.999679225
199.999189527
199.981105435
193.513183471
181.613396503
165.724169462
148.812450043
140.80722799
125.173732514
107.812118413
91.056448093
91.1814038127
79.2913003731
59.9007001152
56.5142120714
55.7857284245
43.1872437413
199.999995477
199.9999956
199.9999956
199.999995144
199.999995144
199.999994774
199.999994774
199.999994774
199.999994774
199.999994774
199.999994774
199.999993737
199.999993737
199.999993737
199.999993041
199.999993041
199.999993041
199.999993041
199.999993041
199.999993041
199.999993041
199.999991025
199.999989393
199.999988215
199.999988215
199.999988215
199.999988215
199.999988215
199.999986905
199.999986905
199.999986905
199.999986905
199.999986905
199.99998545
199.99998545
199.999982037
199.999980041
199.999980041
199.999980041
199.999980041
199.999977824
199.999977824
199.999977824
199.999977824
199.99997536
199.99997536
199.99997536
199.99997536
199.99997536
199.999972622
199.999972622
199.999972622
199.99996958
199.99996958
199.9999662
199.9999662
199.999962444
199.999962444
199.999947802
199.999922544
199.999917392
199.999903061
199.999903061
199.999903061
199.999892291
199.999892291
199.999892291
199.999892291
199.999880323
199.999880291
199.999875214
199.999860558
199.999841736
199.999818793
199.999794775
199.999789424
199.999757908
199.999726601
199.999713564
199.999608329
199.997560151
199.947716516
188.606947655
175.315025869
162.229025457
148.097027713
136.409532501
125.260512087
107.474418944
100.636085288
87.3633968988
87.5078810946
77.6038461974
65.4501900913
65.4056428962
52.2766616804
199.999995477
199.9999956
199.9999956
199.999995144
199.999995144
199.999995231
199.999995231
199.999994774
199.999994774
199.999994774
199.999994148
199.999993737
199.999993737
199.999993041
199.999993041
199.999993041
199.999993041
199.999993041
199.999993041
199.999993041
199.999992086
199.999990166
199.999988215
199.999988215
199.999988215
199.999988215
199.999988215
199.999986905
199.999986905
199.999986905
199.999986905
199.999986905
199.99998545
199.99998545
199.999982037
199.999980041
199.999980041
199.999980041
199.999977824
199.999977824
199.999977824
199.999977824
199.999977824
199.99997536
199.99997536
199.99997536
199.99997536
199.999972622
199.999972622
199.999972622
199.99996958
199.99996958
199.9999662
199.9999662
199.999962444
199.999962444
199.999958271
199.999924387
199.999912755
199.999903061
199.999903061
199.999892291
199.999892291
199.999880323
199.999880323
199.999867025
199.999867025
199.99985225
199.99985225
199.99985225
199.999835834
199.999835615
199.99982307
199.999803245
199.999779473
199.99975851
199.999742862
199.999716952
199.999706904
199.999542691
199.997796251
199.771326375
187.60595557
175.43995018
159.615809462
147.894210271
132.023644526
120.32583944
110.263963783
105.406680788
97.4886492453
87.7775852879
88.8242024112
73.7179851419
74.5530882346
61.5079932897
199.999995671
199.9999956
199.9999956
199.9999956
199.999995231
199.999995231
199.999995231
199.999994774
199.999994774
199.999994774
199.999994148
199.999993737
199.999993041
199.999993041
199.999993041
199.999993041
199.999993041
199.999993041
199.999993041
199.999993041
199.999991025
199.999989393
199.999988215
199.999988215
199.999988215
199.999988215
199.999986905
199.999986905
199.999986905
199.999986905
199.999986905
199.99998545
199.99998545
199.999982037
199.999980041
199.999980041
199.999980041
199.999977824
199.999977824
199.999977824
199.999977824
199.99997536
199.99997536
199.99997536
199.99997536
199.999972622
199.999972622
199.999972622
199.99996958
199.99996958
199.9999662
199.9999662
199.999962444
199.999962444
199.999958271
199.999944844
199.999912755
199.999903061
199.999903061
199.999892291
199.999892291
199.999880323
199.999880323
199.999867025
199.99985225
199.99985225
199.999835834
199.999835834
199.999817593
199.999817593
199.999817593
199.999797326
199.999797326
199.999787308
199.999765417
199.999744214
199.999717568
199.999718362
199.999683897
199.99934235
199.996082127
197.985090643
185.462235486
172.621853449
160.956522381
149.533208238
136.477746293
121.637013884
111.695188544
99.8787546963
103.745285828
98.0022681771
91.4104977055
86.3016539216
81.9859354926
69.7313480654
199.999995933
199.9999956
199.9999956
199.9999956
199.999995231
199.999995231
199.999995231
199.999994774
199.999994774
199.999994774
199.999994148
199.999993737
199.999993041
199.999993041
199.999993041
199.999993041
199.999993041
199.999993041
199.999993041
199.999992086
199.999989393
199.999988215
199.999988215
199.999988215
199.999988215
199.999986905
199.999986905
199.999986905
199.999986905
199.999986905
199.99998545
199.999983833
199.999982037
199.999980041
199.999980041
199.999980041
199.999977824
199.999977824
199.999977824
199.999977824
199.99997536
199.99997536
199.99997536
199.99997536
199.999972622
199.999972622
199.99996958
199.99996958
199.9999662
199.9999662
199.9999662
199.999962444
199.999962444
199.999958271
199.999932356
199.999912755
199.999903061
199.999892291
199.999892291
199.999880323
199.999880323
199.999867025
199.99985225
199.999835834
199.999835834
199.999817593
199.999817593
199.999797326
199.999797326
199.999774806
199.999774806
199.999774806
199.999774806
199.999749785
199.999741205
199.999729592
199.999713952
199.999714132
199.999669009
199.999106444
199.986621186
196.585654926
182.700042741
170.672697638
161.014181223
149.606352178
135.958997764
124.345179291
114.929906687
107.984045778
101.765002564
103.918357131
99.2242997786
96.8921979944
89.237541708
78.7843946494
199.999995933
199.9999956
199.9999956
199.9999956
199.999995231
199.999995231
199.999995231
199.999994774
199.999994774
199.999994148
199.999993737
199.999993041
199.999993041
199.999993041
199.999993041
199.999993041
199.999993041
199.999993041
199.999993041
199.999990252
199.999989393
199.999988215
199.999988215
199.999988215
199.999986905
199.999986905
199.999986905
199.999986905
199.99998545
199.99998545
199.99998545
199.999982037
199.999982037
199.999980041
199.999980041
199.999977824
199.999977824
199.999977824
199.99997536
199.99997536
199.99997536
199.99997536
199.999972622
199.999972622
199.999972622
199.99996958
199.99996958
199.9999662
199.9999662
199.999962444
199.999962444
199.999958271
199.999958271
199.999932356
199.999903061
199.999903061
199.999892291
199.999892291
199.999880323
199.999867025
199.99985225
199.999835834
199.999835834
199.999817593
199.999797326
199.999797326
199.999774806
199.999774806
199.999749785
199.999749785
199.999749785
199.999721983
199.999721983
199.999721983
199.999721983
199.999721983
199.999716624
199.999690278
199.999624496
199.998607536
199.977790547
195.851339722
182.478018975
171.662427706
161.032150827
146.270849345
135.069772348
126.539817992
121.956647462
115.463991538
110.583115141
103.063459113
105.765711854
108.693244928
96.9782379619
85.6952816234
199.999995933
199.9999956
199.9999956
199.9999956
199.999995231
199.999995231
199.999995231
199.999994774
199.999994774
199.999994148
199.999993737
199.999993041
199.999993041
199.999993041
199.999993041
199.999993041
199.999993041
199.999993041
199.999992268
199.999989393
199.999988215
199.999988215
199.999988215
199.999986905
199.999986905
199.999986905
199.999986905
199.99998545
199.99998545
199.99998545
199.999982037
199.999982037
199.999980041
199.999980041
199.999977824
199.999977824
199.999977824
199.99997536
199.99997536
199.99997536
199.99997536
199.999972622
199.999972622
199.999972622
199.99996958
199.99996958
199.9999662
199.9999662
199.999962444
199.999962444
199.999958271
199.999958271
199.999932356
199.999903061
199.999892291
199.999892291
199.999880323
199.999880323
199.999867025
199.99985225
199.999835834
199.999817593
199.999797326
199.999797326
199.999774806
199.999774806
199.999749785
199.999721983
199.999721983
199.999721983
199.999691092
199.999691092
199.999691092
199.999656769
199.999656769
199.999656769
199.999656769
199.999654636
199.999535855
199.998076174
199.976010687
195.963992155
182.250643519
172.39460019
160.208012125
147.482616168
138.919544369
131.736859759
124.597716416
120.076526478
115.542371862
112.108583849
107.085724084
113.676239336
104.228017317
91.1156647912
199.999996497
199.999996164
199.9999956
199.9999956
199.999995231
199.999995231
199.999995231
199.999994774
199.999994774
199.999994148
199.999993737
199.999993041
199.999993041
199.999993041
199.999993041
199.999993041
199.999993041
199.999992268
199.999990252
199.999989393
199.999988215
199.999988215
199.999988215
199.999986905
199.999986905
199.999986905
199.99998545
199.99998545
199.99998545
199.999983833
199.999982037
199.999980041
199.999980041
199.999977824
199.999977824
199.999977824
199.99997536
199.99997536
199.99997536
199.999972622
199.999972622
199.999972622
199.99996958
199.99996958
199.99996958
199.9999662
199.9999662
199.999962444
199.999962444
199.999958271
199.999958271
199.999946568
199.999903061
199.999892291
199.999892291
199.999880323
199.999867025
199.99985225
199.99985225
199.999832876
199.999817593
199.999797326
199.999774806
199.999749785
199.999749785
199.999721983
199.999721983
199.999691092
199.999691092
199.999656769
199.999656769
199.999618633
199.999618633
199.999618633
199.999618633
199.999618633
199.999618633
199.99955476
199.999439481
199.998737515
199.983571888
192.607999967
181.474733663
173.527094409
160.695266399
152.161543752
143.70727413
135.548434059
128.337141155
123.751647888
119.062904212
115.624300736
113.642529209
116.738307481
110.489089909
96.1587692919
199.999996497
199.999996164
199.999996164
199.9999956
199.999995231
199.999995231
199.999995231
199.999994774
199.999994774
199.999994148
199.999993737
199.999993041
199.999993041
199.999993041
199.999993041
199.999993041
199.999992268
199.999992268
199.999989393
199.999989393
199.999988215
199.999988215
199.999986905
199.999986905
199.999986905
199.99998545
199.99998545
199.99998545
199.999983833
199.999982037
199.999980041
199.999980041
199.999977824
199.999977824
199.999977824
199.99997536
199.99997536
199.99997536
199.999972622
199.999972622
199.999972622
199.99996958
199.99996958
199.9999662
199.9999662
199.9999662
199.999962444
199.999962444
199.999958271
199.999958271
199.999953635
199.999903061
199.999892291
199.999892291
199.999880323
199.999867025
199.99985225
199.999835834
199.999817593
199.999797326
199.999774806
199.999774806
199.999749785
199.999721983
199.999721983
199.999691092
199.999656769
199.999656769
199.999618633
199.999618633
199.999618633
199.999576258
199.999576258
199.999576258
199.999576258
199.999529176
199.99951375
199.999434609
199.999095988
199.99723288
199.94587812
194.526854166
184.367707171
174.937735305
166.527103936
154.669481927
147.130888678
138.547040864
131.867425105
129.311285906
123.263591581
120.269730232
117.502288997
115.640928717
118.645027614
100.611359439
199.999996497
199.999996164
199.999996164
199.999996164
199.999995231
199.999995231
199.999995231
199.999994774
199.999994774
199.999993737
199.999993737
199.999993041
199.999993041
199.999993041
199.999993041
199.999992268
199.999992268
199.999991313
199.999989393
199.999988215
199.999988215
199.999988215
199.999986905
199.999986905
199.99998545
199.99998545
199.99998545
199.999983833
199.999982037
199.999982037
199.999980041
199.999980041
199.999977824
199.999977824
199.99997536
199.99997536
199.99997536
199.999972622
199.999972622
199.999972622
199.99996958
199.99996958
199.9999662
199.9999662
199.999962444
199.999962444
199.999962444
199.999958271
199.999958271
199.999953635
199.999903061
199.999892291
199.999892291
199.999880323
199.999867025
199.99985225
199.999835834
199.999817593
199.999797326
199.999774806
199.999749785
199.999721983
199.999691092
199.999691092
199.999656769
199.999618633
199.999618633
199.999576258
199.999576258
199.999576258
199.999529176
199.999529176
199.999529176
199.999529176
199.999529176
199.999458731
199.999402179
199.999175313
199.998456635
199.995596139
199.917388451
192.449209187
187.997874945
179.621904519
167.663167137
159.328017934
147.421932563
141.506496942
137.761241715
133.986687263
127.838693466
124.307542651
120.696665584
118.834815574
124.031810554
104.590278656
199.999996497
199.999996671
199.999996164
199.999996164
199.999995794
199.999995231
199.999995231
199.999995231
199.999994148
199.999993737
199.999993737
199.999993041
199.999993041
199.999993041
199.999993041
199.999992268
199.999992268
199.999990454
199.999989393
199.999988215
199.999988215
199.999986905
199.999986905
199.999986905
199.99998545
199.99998545
199.999983833
199.999982037
199.999982037
199.999980041
199.999980041
199.999977824
199.999977824
199.99997536
199.99997536
199.99997536
199.999972622
199.999972622
199.999972622
199.99996958
199.99996958
199.9999662
199.9999662
199.999962444
199.999962444
199.999962444
199.999958271
199.999958271
199.999953635
199.999912755
199.999892291
199.999892291
199.999880323
199.999867025
199.99985225
199.999817593
199.999797326
199.999774806
199.999749785
199.999721983
199.999691092
199.999691092
199.999656769
199.999618633
199.999576258
199.999576258
199.999529176
199.999529176
199.999529176
199.999476862
199.999476862
199.999476862
199.999476862
199.999475909
199.999468262
199.999448609
199.999143125
199.998646814
199.997193301
199.99155642
199.683505798
192.459804462
190.098115804
181.209833184
170.46431064
160.022925226
151.093410355
148.758660399
143.763153316
136.578262949
130.515459876
127.283129536
124.833267242
121.471983226
124.969248375
107.725116042
199.999996497
199.999996671
199.999996671
199.999996164
199.999995794
199.999995231
199.999995231
199.999995231
199.999994148
199.999993737
199.999993041
199.999993041
199.999993041
199.999993041
199.999992268
199.999992268
199.999991408
199.999989393
199.999989393
199.999988215
199.999988215
199.999986905
199.999986905
199.99998545
199.99998545
199.999983833
199.999983833
199.999982037
199.999980041
199.999980041
199.999977824
199.999977824
199.99997536
199.99997536
199.99997536
199.999972622
199.999972622
199.99996958
199.99996958
199.99996958
199.9999662
199.9999662
199.999962444
199.999962444
199.999958271
199.999958271
199.999958271
199.999953635
199.999948483
199.999892291
199.999892291
199.999880323
199.999867025
199.999835834
199.999817593
199.999797326
199.999774806
199.999721983
199.999691092
199.999656769
199.999618633
199.999576258
199.999529176
199.999529176
199.999439069
199.999445985
199.999476862
199.999465622
199.99937137
199.999390819
199.999395074
199.999395411
199.999389365
199.999376576
199.9993493
199.999264511
199.998833065
199.997616825
199.995030908
199.978688533
198.627881089
196.240729319
189.300446313
180.566390609
170.506236457
159.566556545
155.191729486
152.139506575
141.247542501
136.272657421
133.613013686
129.3121855
127.299929447
123.909388187
125.369700117
109.855682976
199.999997004
199.999996671
199.999996671
199.999996671
199.999996302
199.999995794
199.999995231
199.999995231
199.999994148
199.999993737
199.999993041
199.999993041
199.999993041
199.999993041
199.999992268
199.999992268
199.999990454
199.999989393
199.999988215
199.999988215
199.999986905
199.999986905
199.99998545
199.99998545
199.999983833
199.999983833
199.999982037
199.999980041
199.999980041
199.999977824
199.999977824
199.99997536
199.99997536
199.99997536
199.999972622
199.999972622
199.99996958
199.99996958
199.9999662
199.9999662
199.9999662
199.999962444
199.999962444
199.999958271
199.999958271
199.999953635
199.999953635
199.999948483
199.999903061
199.999892291
199.999880323
199.999867025
199.999835834
199.999817593
199.999774806
199.999749785
91.7231880581
26.6498332424
10.2269567767
4.77476687292
2.91266931838
2.39574456647
2.6789880023
3.81603963728
6.84918662668
13.2703037942
28.5183097822
66.8872917942
164.321119748
199.707309886
199.99921437
199.999232417
199.999208738
199.999152772
199.999055565
199.998892983
199.99853977
199.997588451
199.995304392
199.986890357
199.669845318
193.473865637
186.484990305
178.977192627
169.463671702
159.819853741
157.946334352
150.161191418
143.683781198
139.830836778
136.323781294
133.181322361
127.837843482
126.399261811
124.600445144
111.49978288
199.999997004
199.999996671
199.999996671
199.999996671
199.999996302
199.999996302
199.999995231
199.999994774
199.999993737
199.999993737
199.999993041
199.999993041
199.999993041
199.999992268
199.999992268
199.999991408
199.999990454
199.999989393
199.999988215
199.999988215
199.999986905
199.999986905
199.99998545
199.999983833
199.999983833
199.999982037
199.999982037
199.999980041
199.999977824
199.999977824
199.99997536
199.99997536
199.99997536
199.999972622
199.999972622
199.99996958
199.99996958
199.9999662
199.9999662
199.999962444
199.999962444
199.999962444
199.999958271
199.999958271
199.999953635
199.999953635
199.999948483
199.999912755
199.999892291
199.999880323
199.99985225
199.999835834
199.999797326
19.1742327815
0.456827014818
0
0
0
0
0
0
0
0
0
0.00973298019044
0.0320325154853
0.162436010066
0.484295981559
1.64008577956
5.55089880495
19.4512645621
70.888234388
186.675502128
199.998439941
199.998557956
199.998245914
199.997469382
199.992719517
199.991130317
199.943047434
196.203609978
189.703704065
183.610831242
177.173225143
168.813006046
161.547196546
162.029313535
153.476051488
148.297650108
143.977122286
139.696526093
134.914134882
130.256600131
127.939871073
124.354791288
113.296662705
199.999997004
199.999996671
199.999996671
199.999996671
199.999996302
199.999996302
199.999995794
199.999994774
199.999993737
199.999993737
199.999993041
199.999993041
199.999993041
199.999992268
199.999991408
199.999990454
199.999989393
199.999989393
199.999988215
199.999986905
199.999986905
199.99998545
199.99998545
199.999983833
199.999982037
199.999982037
199.999980041
199.999977824
199.999977824
199.99997536
199.99997536
199.99997536
199.999972622
199.999972622
199.99996958
199.99996958
199.9999662
199.9999662
199.999962444
199.999962444
199.999958271
199.999958271
199.999958271
199.999953635
199.999953635
199.999948483
199.999942759
199.999892291
199.999880323
199.99985225
199.999835834
9.63447113128
0
0
0
0
0
0
0
0
0
0
0
0
0
0
0
0.00735174436669
0.0201968900412
0.0897156324376
0.378096711181
1.53766327239
6.3465239393
26.322329772
111.908940114
197.272021843
199.99203951
199.978613131
199.970355114
198.185378014
192.141544222
186.144183014
180.705083855
175.167914489
168.974599823
167.944569028
163.317634815
154.789350355
151.644582389
147.279812832
142.462184208
137.936618379
134.287021115
128.883852639
126.3090628
115.011839609
199.999997004
199.999996671
199.999996671
199.999996671
199.999996302
199.999996302
199.999995794
199.999994774
199.999993737
199.999993737
199.999993041
199.999993041
199.999992268
199.999992268
199.999991408
199.999990454
199.999989393
199.999988215
199.999988215
199.999986905
199.99998545
199.99998545
199.999983833
199.999982037
199.999982037
199.999980041
199.999977824
199.999977824
199.99997536
199.99997536
199.999972622
199.999972622
199.99996958
199.99996958
199.9999662
199.9999662
199.9999662
199.999962444
199.999962444
199.999958271
199.999958271
199.999953635
199.999953635
199.999948483
199.999948483
199.999942759
199.999892291
199.999880323
199.99985225
199.999817593
0.000103350591479
0
0
0
0
0
0
0
0
0
0
0
0
0
0
0
0
0
0
0.000708572098727
0.0114246024252
0.0323424953975
0.144827486933
0.797747913477
3.19114498489
16.2119994189
73.5996538162
191.05616788
195.280163588
193.242735283
187.431525818
181.920113622
177.419293609
172.571336605
167.777807441
167.842736783
162.60061978
156.684981899
153.621790136
149.021568306
144.421158176
139.676307682
137.184815266
130.834299137
128.177544895
116.138740506
199.999997004
199.999996671
199.999996671
199.999996671
199.999996302
199.999996302
199.999995794
199.999994363
199.999993737
199.999993737
199.999993041
199.999993041
199.999992268
199.999991408
199.999990454
199.999989393
199.999989393
199.999988215
199.999986905
199.999986905
199.99998545
199.999983833
199.999983833
199.999982037
199.999980041
199.999977824
199.999977824
199.99997536
199.99997536
199.999972622
199.999972622
199.99996958
199.99996958
199.9999662
199.9999662
199.999962444
199.999962444
199.999958271
199.999958271
199.999958271
199.999953635
199.999953635
199.999948483
199.999948483
199.999942759
199.999903061
199.999880323
199.99985225
199.999797326
0
0
0
0
0
0
0
0
0
0
0
0
0
0
0
0
0
0
0
0
0
0
0
0.00710009726659
0.0209023530328
0.111876119018
0.557330661611
2.30383339831
12.2928679053
58.8044123157
172.771024624
177.589640322
177.853633362
173.886969144
169.087019657
164.931085083
166.073633067
160.936954976
159.865013736
150.931832223
147.614334572
144.791586074
140.060203421
137.606434786
132.799167559
128.292992024
115.783061567
199.999997004
199.999996671
199.999996671
199.999996671
199.999996302
199.999996302
199.999995794
199.999994363
199.999993737
199.999993737
199.999993041
199.999993041
199.999992268
199.999991408
199.999990454
199.999989393
199.999988215
199.999986905
199.999986905
199.99998545
199.999983833
199.999983833
199.999982037
199.999980041
199.999977824
199.999977824
199.99997536
199.99997536
199.999972622
199.999972622
199.99996958
199.9999662
199.9999662
199.9999662
199.999962444
199.999962444
199.999958271
199.999958271
199.999953635
199.999953635
199.999948483
199.999948483
199.999942759
199.999936399
199.99992148
199.999880323
199.99985225
199.999774806