/*--------------------------------*- C++ -*----------------------------------*\
| =========                 |                                                 |
| \\      /  F ield         | OpenFOAM: The Open Source CFD Toolbox           |
|  \\    /   O peration     | Version:  v1906                                 |
|   \\  /    A nd           | Web:      www.OpenFOAM.com                      |
|    \\/     M anipulation  |                                                 |
\*---------------------------------------------------------------------------*/
FoamFile
{
    version     2.0;
    format      ascii;
    class       volScalarField;
    location    "383";
    object      p;
}
// * * * * * * * * * * * * * * * * * * * * * * * * * * * * * * * * * * * * * //

dimensions      [0 2 -2 0 0 0 0];


internalField   nonuniform List<scalar> 
9216
(
268.544721982
268.629895419
268.802770274
269.063701367
269.41125628
269.843704949
270.358905384
270.95438066
271.627329212
272.374705616
273.19322371
274.079443881
275.029764734
276.040513124
277.107920929
278.228215458
279.397579727
280.612242701
281.868423147
283.162420373
284.490542729
285.849200176
287.234819048
288.643937837
290.073109887
291.519003662
292.978295061
294.447773078
295.92422329
297.404539654
298.88560069
300.364387853
301.8378564
303.303060545
304.757020588
306.196855227
307.619646998
309.022581624
310.402813718
311.757612622
313.084230065
314.380051378
315.642466603
316.869025173
318.057311871
319.205102755
320.310247916
321.3708266
322.38503963
323.351362375
324.268450119
325.135287028
325.951105159
326.715523955
327.428476552
328.090327806
328.701793517
329.264022819
329.778497227
330.247073175
330.671861544
331.055242417
331.399739858
331.708027925
331.98281385
332.226846086
332.442811492
332.633350813
332.80097392
332.948085244
333.076917945
333.189567001
333.287939278
333.373790914
333.448691022
333.514062258
333.571156208
333.621094798
333.664853313
333.70329976
333.737182362
333.767166925
333.793830028
333.817757596
333.83897189
333.8570306
333.871957898
333.883989131
333.893257837
333.900117477
333.904969792
333.908297196
333.910528919
333.911887859
333.912574576
333.91281612
268.459615413
268.545215165
268.718726138
268.980874106
269.330083801
269.76456551
270.28213742
270.880275434
271.556141684
272.306642619
273.128458475
274.018103531
274.971949102
275.986281072
277.057312664
278.181236774
279.35422705
280.572484543
281.832227317
283.129732239
284.461314359
285.823365284
287.212323945
288.62471313
290.057103262
291.506148499
292.968545003
294.441067748
295.920524609
297.40379481
298.887780161
300.369445979
301.845770525
303.313789301
304.770544297
306.213132249
307.638655003
309.044272443
310.427155269
311.784542856
313.113699397
314.4119764
315.676772683
316.905600574
318.096049942
319.24585691
320.352872414
321.41513272
322.430834055
323.398405334
324.316491301
325.184027865
326.000234239
326.764687199
327.477315315
328.138459594
328.748853261
329.309651106
329.822379454
330.288927446
330.711468824
331.092428364
331.434395206
331.740086415
332.012267282
332.25372103
332.467180694
332.655309556
332.820649186
332.965613912
333.092455705
333.20326981
333.299972065
333.384311446
333.457857707
333.522020526
333.578046372
333.627041516
333.669973581
333.70769428
333.7409419
333.770360842
333.796499994
333.819824011
333.840659221
333.858566906
333.873215713
333.884909508
333.894028763
333.900810975
333.905518755
333.908737481
333.91092973
333.912213283
333.912829308
333.913080784
268.285955359
268.372649746
268.547912785
268.8126669
269.165294138
269.60394315
270.126359531
270.729935581
271.411750924
272.168624027
272.997154903
273.893775931
274.854789237
275.876411701
276.954803208
278.086103426
279.266449681
280.492005285
281.758967608
283.063589094
284.402177022
285.771108929
287.166825857
288.585843907
290.024742631
291.480174229
292.948848511
294.427540941
295.913075352
297.402331866
298.892228455
300.379729676
301.861828117
303.335554951
304.797962511
306.246137645
307.677186622
309.088252315
310.476502539
311.839151725
313.173453371
314.476726287
315.746351188
316.979800823
318.174640145
319.328559308
320.439377028
321.505076112
322.523811069
323.493947779
324.414078471
325.283068397
326.100080505
326.864627851
327.576601566
328.236314867
328.844512884
329.402383331
329.911525984
330.373918921
330.791849561
331.167853622
331.504638134
331.805024437
332.071881618
332.308078814
332.51642927
332.699655408
332.860349784
333.000958088
333.123758137
333.230855954
333.324175017
333.405458973
333.47626927
333.537996833
333.591869171
333.63896756
333.680237299
333.716504631
333.748486052
333.776801948
333.801980797
333.82446587
333.844642008
333.861915722
333.875717689
333.886750253
333.895583975
333.902123167
333.906551058
333.909643825
333.911685395
333.912859167
333.913482946
333.913795929
268.021590399
268.109693014
268.287664339
268.556446866
268.91434618
269.359413868
269.889281116
270.501213301
271.192158931
271.958803168
272.79761818
273.704913808
274.676881592
275.709637271
276.799254685
277.941797905
279.133344175
280.370005958
281.647944013
282.963381002
284.312606684
285.691985169
287.097954278
288.527028403
289.975793805
291.440908644
292.919095612
294.407140342
295.901882464
297.400213382
298.899066687
300.395416245
301.886267009
303.368654395
304.83963662
306.296296576
307.735736983
309.155085969
310.551496225
311.922155241
313.264289172
314.575177958
315.852163693
317.092669818
318.294212851
319.454424158
320.571063818
321.642044324
322.665447402
323.639552217
324.562859992
325.434133045
326.252433695
327.017177268
327.728181209
328.385715852
328.990534136
329.543881209
330.047469221
330.50342721
330.914221116
331.282568804
331.611356743
331.90357274
332.162241879
332.390370543
332.590891426
332.766620865
332.920223773
333.054194737
333.170845128
333.272299128
333.360488163
333.437149792
333.503828686
333.561887486
333.612520436
333.656771317
333.69554858
333.729641685
333.759733999
333.786416073
333.810194814
333.831524701
333.850645712
333.866706411
333.879475838
333.889788488
333.897892635
333.903929948
333.908200758
333.911092387
333.912957257
333.914078095
333.914708715
333.915021699
267.665202897
267.755174383
267.936854554
268.211157765
268.576276407
269.030123293
269.570168059
270.193499277
270.896881929
271.676817137
272.52959952
273.45137172
274.438173132
275.48598356
276.590759624
277.748465758
278.955098107
280.206703938
281.499394926
282.829357383
284.192857551
285.586245254
287.005953657
288.448498526
289.910474368
291.388550936
292.879467105
294.380025762
295.887086402
297.397559269
298.908397483
300.416591288
301.919160683
303.413150743
304.895625866
306.363667512
307.814371529
309.244849768
310.65223193
312.033672312
313.386357085
314.707516552
315.994437549
317.244480083
318.455092978
319.62383246
320.748378588
321.826554078
322.856341725
323.835906701
324.763622279
325.638106975
326.458272285
327.223386231
327.933145305
328.587747564
329.187946113
329.735067535
330.230986841
330.678060178
331.079015705
331.436834001
331.754649967
332.035681328
332.283166245
332.500301862
332.690183682
332.855755789
332.999775972
333.124800062
333.233178458
333.327057926
333.408379191
333.478871732
333.540053818
333.593246081
333.639592749
333.680084374
333.715576977
333.746809761
333.774420296
333.798959043
333.820902382
333.840723956
333.858321052
333.872816489
333.884365691
333.893703171
333.901153651
333.906672906
333.910525619
333.913165212
333.914917059
333.915983952
333.916601346
333.916911512
267.214848586
267.307213864
267.493676427
267.775100491
268.149523293
268.614670224
269.167794579
269.80575025
270.525059648
271.321982653
272.192582252
273.132785092
274.138435054
275.205339362
276.3293066
277.506177307
278.731847284
280.00228489
281.313542688
282.661764888
284.043190827
285.454155831
286.891089448
288.350512235
289.829030793
291.323332134
292.830176817
294.346391908
295.868863037
297.394526646
298.920361568
300.443381282
301.960625923
303.469155413
304.966043012
306.448370856
307.913226744
309.357703868
310.778902675
312.173936505
313.539939861
314.874080596
316.173574295
317.435701494
318.657825363
319.837410028
320.972037081
322.059421153
323.097423733
324.084069117
325.017565418
325.896339019
326.719088311
327.484863601
328.193170993
328.844085116
329.438342629
329.977376017
330.463290373
330.898773196
331.286928997
331.631097723
331.934736097
332.201355909
332.434470219
332.637526252
332.813831512
332.966492155
333.098375584
333.212103591
333.310064711
333.39443019
333.467153864
333.529956031
333.584316392
333.631493373
333.67255925
333.708431976
333.73989753
333.767629308
333.792204456
333.814117855
333.833794619
333.85165718
333.867316936
333.880072956
333.890448148
333.898878369
333.905436582
333.910140006
333.913621282
333.916030939
333.917610605
333.918701171
333.919326214
333.919645077
266.668036998
266.763381819
266.955804452
267.246097824
267.632095635
268.111277889
268.680616714
269.33666314
270.075628758
270.893466918
271.785948707
272.748731317
273.777417065
274.867602486
276.014917454
277.215055115
278.463793509
279.757010224
281.090691169
282.460934788
283.863952587
285.296067014
286.753707206
288.233403345
289.731779801
291.245547581
292.771496039
294.306484229
295.847431761
297.391309483
298.935129825
300.47593731
302.010799136
303.536796274
305.05101539
306.55054225
308.032456976
309.493831979
310.931732996
312.343223951
313.725375785
315.075279451
316.390062482
317.666908276
318.903076451
320.095922377
321.242913685
322.341642315
323.389831953
324.385343373
325.326184166
326.210533778
327.036798059
327.803709233
328.510474245
329.156958293
329.743847335
330.272704247
330.745955789
331.166776273
331.538816992
331.865893604
332.151853305
332.400560153
332.615869136
332.80154857
332.961178182
333.098062023
333.215186625
333.315229387
333.40060377
333.473504572
333.535910524
333.58953815
333.635811511
333.675894815
333.710757415
333.741221327
333.767983106
333.791633855
333.812676347
333.831537894
333.848593714
333.864126264
333.87759263
333.888594315
333.897636495
333.904886993
333.910427058
333.914550656
333.917663782
333.919855478
333.921268447
333.922317459
333.922931181
333.923239625
266.021666866
266.120649098
266.320345197
266.621451378
267.021538203
267.517769744
268.106758305
268.784670409
269.547326409
270.390297583
271.308995047
272.298747608
273.354866921
274.472699554
275.647666568
276.875291842
278.151220795
279.471231229
280.831238019
282.22729313
283.655582259
285.112419099
286.594237988
288.097585502
289.619111336
291.155558723
292.703754474
294.260598738
295.823054421
297.38813635
298.952900052
300.514430482
302.069830688
303.616210678
305.150677006
306.670323708
308.172225163
309.653431898
311.110970001
312.541845187
313.9430519
315.31158788
316.644473567
317.938775321
319.191630005
320.40026802
321.562030839
322.674379846
323.734894017
324.741259147
325.691254526
326.582755479
327.413775917
328.182583221
328.887913641
329.529271086
330.107233084
330.623508523
331.080969303
331.48353104
331.835671535
332.141817493
332.406239987
332.633190948
332.826942143
332.991679936
333.131337074
333.249457479
333.349140232
333.433080191
333.503675821
333.56314111
333.613515634
333.656536827
333.693547024
333.725558779
333.753391384
333.777745922
333.799209417
333.818273497
333.835352734
333.850792007
333.864893537
333.877813337
333.888896089
333.898073337
333.905635024
333.911693404
333.91635849
333.919986808
333.922625102
333.924607581
333.925957743
333.926830634
333.927436684
333.927722627
265.271952969
265.375320756
265.583779773
265.897894198
266.31489711
266.831548275
267.44400312
268.147944204
268.938704499
269.811384835
270.760958772
271.782361643
272.870562234
274.020617347
275.227710575
276.487177502
277.794519739
279.145410357
280.535692922
281.961376111
283.418625395
284.903752975
286.413206724
287.943558704
289.491493491
291.053796498
292.627342244
294.20908254
295.796034446
297.385267898
298.973892827
300.559045929
302.137877119
303.707535717
305.265157139
306.807850618
308.3326889
309.836700989
311.316869236
312.770131947
314.193392681
315.583536738
316.937454787
318.252072077
319.524380449
320.751468263
321.930542444
323.058935131
324.134090715
325.153528941
326.114794673
327.015410875
327.852879455
328.624794315
329.329134712
329.964774082
330.532100721
331.032945093
331.470780678
331.850707112
332.178556727
332.459488411
332.698114109
332.899050245
333.067083205
333.206968275
333.323119519
333.419371019
333.498901696
333.564327546
333.617935012
333.661946882
333.698562069
333.729619431
333.756330434
333.779438878
333.799538224
333.81719259
333.832862801
333.846923731
333.859692124
333.871418435
333.882324076
333.892398916
333.901035513
333.908353854
333.914419813
333.919314769
333.923186967
333.926215811
333.928533978
333.930236591
333.931486609
333.932216596
333.932820859
333.933078448
264.414332723
264.52295067
264.741888141
265.0715302
265.508676349
266.049569824
266.689787196
267.424404287
268.248150391
269.155551608
270.141055175
271.199131192
272.324350776
273.51144175
274.755324603
276.051132087
277.394216181
278.780145805
280.204698336
281.663847251
283.153747734
284.670721439
286.21124123
287.771916286
289.349477769
290.940765003
292.542712063
294.152334487
295.766715889
297.38299414
298.998346824
300.609975969
302.215091965
303.810896668
305.394566444
306.963235852
308.513982989
310.043818079
311.549676883
313.028420977
314.476846536
315.891703189
317.269723126
318.60765948
319.902330093
321.15066071
322.349717281
323.496717048
324.589002898
325.623977387
326.598987672
327.511192898
328.357459921
329.134410394
329.838789436
330.468317015
331.023162132
331.505109008
331.918365123
332.270043642
332.568470542
332.81950293
333.027677794
333.197834888
333.335439757
333.446099323
333.534923019
333.606111383
333.66283611
333.707426449
333.741831704
333.768246379
333.789293328
333.807140561
333.82275711
333.836351383
333.848162051
333.858652025
333.868150034
333.876891155
333.885094997
333.892903766
333.90043842
333.907563414
333.913858257
333.919348145
333.923924078
333.927653499
333.930696199
333.933166888
333.935222719
333.93677476
333.937822822
333.938492622
333.939047865
333.939297972
263.443346501
263.558228979
263.789653012
264.137758219
264.598785724
265.168316867
265.841194179
266.611733334
267.473918014
268.421575933
269.448526423
270.548696002
271.716201885
272.945406348
274.23094646
275.567744566
276.951004703
278.376199713
279.839052784
281.335516379
282.861750469
284.414101366
285.989081777
287.583352359
289.19370469
290.817045493
292.450381715
294.090806088
295.73548264
297.381631684
299.026513794
300.667412452
302.301615233
303.926393331
305.538980218
307.136550114
308.716197621
310.274920362
311.809606985
313.317033242
314.793869146
316.236699731
317.642061182
319.006491778
320.326594248
321.599100901
322.820929055
323.989205396
325.101241286
326.154426734
327.146038104
328.072949386
328.93131656
329.716398902
330.422880431
331.046199373
331.586712244
332.045476253
332.427314058
332.742951052
333.006029553
333.22236852
333.395162118
333.529127676
333.630805688
333.707208859
333.764535122
333.807456135
333.838966276
333.860685123
333.873702003
333.880046267
333.883440958
333.887021482
333.891213379
333.895033675
333.898141217
333.901131453
333.904212665
333.90742154
333.910913495
333.914702434
333.918797229
333.923002549
333.927026084
333.930677498
333.933837442
333.936573588
333.938945391
333.940952185
333.942643361
333.944021106
333.945010089
333.945637719
333.94610124
333.946356032
262.352482828
262.474839857
262.721137219
263.091178096
263.580478966
264.18376896
264.894956448
265.70740347
266.614173745
267.608249675
268.682707127
269.830844958
271.046271293
272.322952101
273.655229602
275.037818401
276.465786809
277.934529471
279.439736123
280.977359723
282.543586098
284.134806104
285.747590778
287.3786693
289.024909539
290.683300599
292.35093686
294.025002811
295.702758003
297.381521245
299.05865351
300.731538648
302.397561672
304.05408434
305.698418499
307.327798066
308.939351051
310.530074004
312.096811806
313.636246844
315.14490189
316.619161482
318.055315485
319.449626758
320.798419879
322.098182727
323.345661603
324.537925585
325.672356619
326.746530102
327.757919683
328.703399599
329.578525786
330.376781877
331.08937328
331.706560336
332.231376913
332.66172559
333.001932262
333.26943626
333.49102175
333.668852127
333.801391831
333.892759481
333.95167744
333.987729135
334.008889073
334.02044879
334.024935863
334.022459944
334.012053269
333.995009568
333.977862573
333.966502677
333.959943695
333.954317156
333.94830624
333.943554626
333.940149583
333.937702143
333.936453629
333.936231971
333.93694832
333.938347159
333.940171848
333.942103255
333.944073178
333.946001205
333.947813228
333.949405418
333.950803247
333.951943396
333.95288195
333.953536966
333.953893752
333.954132258
261.13397748
261.265274965
261.529328142
261.925474156
262.448281739
263.091374705
263.847466674
264.708719983
265.66706336
266.714459698
267.84311148
269.045602607
270.31498212
271.64479982
273.029105525
274.462423659
275.939713256
277.456321418
279.007935877
280.590540278
282.200374036
283.833897468
285.487761997
287.158784929
288.843927963
290.540278694
292.245034223
293.955486019
295.669005027
297.383025864
299.095029227
300.802521107
302.503008281
304.193969539
305.872822882
307.536889429
309.183355631
310.809236388
312.4113429
313.986260416
315.530342493
317.039729264
318.510397379
319.938246984
321.319226948
322.649489452
323.925555184
325.144448968
326.303759319
327.401539571
328.435960939
329.404566918
330.302948014
331.122744735
331.84943105
332.45949422
332.969911595
333.366284313
333.648100586
333.84494062
334.020568916
334.159070998
334.246751864
334.287294846
334.294489356
334.282750905
334.26273599
334.240541604
334.217747362
334.19168782
334.156440753
334.110428235
334.067482975
334.041446235
334.027250563
334.013591286
333.99745706
333.984704014
333.975070896
333.966850578
333.960973805
333.956855619
333.954342619
333.953162643
333.953003369
333.953554958
333.954547723
333.955768719
333.957050699
333.958301022
333.959489192
333.96050646
333.961340719
333.962031849
333.962302301
333.962536223
259.778549891
259.92059393
260.205938619
260.633271974
261.19590932
261.886029012
262.694806923
263.612890841
264.630808945
265.739299442
266.929548607
268.193339794
269.523125173
270.912036921
272.353856005
273.842955134
275.374229564
276.943025598
278.545073352
280.176427152
281.83341494
283.51259636
285.210728646
286.924738841
288.651701172
290.388818272
292.133405312
293.882875832
295.634728133
297.386530539
299.135904353
300.880502315
302.617981685
304.345970951
306.062030048
307.763604599
309.447975637
311.112207626
312.753099081
314.367142488
315.950502493
317.499024029
319.008283325
320.473694609
321.890679752
323.254898618
324.562518066
325.810478205
326.996686341
328.120052805
329.180214037
330.176705932
331.107017282
331.96254394
332.720999007
333.314380537
333.820464
334.178035842
334.372967256
334.457091307
334.623315404
334.746399161
334.788197378
334.760090834
334.693429333
334.614928282
334.540779786
334.478433889
334.427887791
334.380346244
334.316332728
334.225406619
334.143424673
334.105470144
334.092907574
334.074318438
334.044058154
334.022794237
334.008250482
333.993866388
333.983703107
333.975918124
333.970448453
333.967038051
333.96530027
333.964755467
333.965001094
333.965633654
333.966511853
333.967538568
333.968584747
333.96953238
333.970353741
333.971013884
333.971292595
333.971526671
258.275054642
258.430107165
258.741151938
259.20596185
259.816175655
260.562062824
261.43280635
262.417134702
263.503848156
264.682221788
265.942274474
267.274914213
268.671981727
270.126219713
271.631194747
273.181195204
274.771122792
276.396389642
278.052827575
279.736612285
281.444202294
283.17229101
284.917769457
286.677697336
288.449280342
290.229852287
292.016860783
293.807855378
295.600476648
297.392444173
299.18154153
300.965595321
302.742446586
304.509913201
306.265742516
308.00755438
309.732775589
311.438568246
313.121756568
314.778759856
316.40554335
317.997603362
319.550007958
321.057516261
322.514797658
323.916758086
325.258959559
326.538079561
327.752343693
328.901841718
329.988605875
331.016219406
331.988023832
332.902644005
333.740724814
334.281576638
334.899251508
335.256504328
335.293264632
334.958265303
334.720847291
334.706281669
334.735936027
334.737513708
334.708809488
334.665849833
334.625027111
334.594355683
334.570077857
334.535688944
334.461224203
334.318398158
334.169351023
334.139340294
334.161814465
334.144173873
334.08526005
334.054807918
334.040141637
334.017377677
334.003799884
333.992737216
333.984648448
333.979544374
333.976660895
333.975381085
333.975126766
333.975389739
333.976096853
333.97706876
333.978052991
333.978982041
333.979790252
333.980448278
333.980858359
333.981064067
256.610013993
256.780958855
257.123292083
257.633483204
258.300897495
259.113257522
260.057144447
261.118845906
262.28503321
263.543247471
264.882190835
266.291847265
267.763471792
269.28949134
270.863356903
272.47937871
274.132566607
275.818488739
277.533154499
279.272922291
281.03442965
282.814541445
284.610311869
286.41895623
288.237829855
290.064412259
291.896295677
293.731176939
295.566851255
297.401205106
299.232205617
301.057882061
302.876297021
304.685505089
306.483497803
308.268134305
310.037057896
311.787599992
313.516675241
315.220675768
316.895378168
318.535885326
320.13663395
321.691508179
323.194101372
324.638156803
326.018185245
327.330190779
328.572431332
329.746175361
330.856495572
331.913365889
332.93453201
333.96404751
335.140036348
335.266378357
335.051246282
335.101921448
335.148334634
335.039090259
334.894423814
334.815710249
334.779600125
334.743119594
334.695285387
334.64332003
334.595184851
334.551429501
334.50780324
334.456880353
334.395076658
334.3345757
334.305395259
334.322059338
334.340627237
334.272962352
334.100288728
334.063155079
334.073090215
334.034571612
334.020566806
334.006780178
333.995958812
333.990167769
333.986600429
333.985154531
333.984791902
333.98498782
333.985775443
333.986782597
333.987790175
333.988776257
333.989637975
333.990353271
333.990874704
333.991073325
254.766983144
254.957564516
255.338395702
255.904062261
256.640802889
257.532904174
258.563526008
259.715843515
260.973913628
262.323247901
263.751103793
265.246544038
266.800329733
268.404713954
270.053192744
271.740255351
273.461159914
275.211747561
276.988297923
278.787422841
280.605991448
282.441078885
284.289931221
286.149940882
288.018628835
289.893632019
291.772695686
293.653670708
295.534514459
297.413291905
299.288172625
301.157417779
303.019353039
304.872324904
306.714638396
308.54447506
310.359789956
312.158187063
313.936774489
315.692005794
317.419521262
319.114015188
320.76917203
322.37773382
323.931778902
325.423282131
326.844991848
328.191482824
329.460275704
330.652932333
331.775911785
332.841980316
333.876838511
334.972139789
335.13305492
335.232772132
335.188057998
335.135931062
335.102501617
335.005308978
334.887840423
334.80488312
334.751386493
334.703442285
334.651896311
334.601012784
334.554546861
334.510428392
334.466182013
334.4188818
334.368681253
334.323160034
334.29465858
334.284885462
334.273786207
334.245708251
334.235320056
334.251177502
334.192718844
334.030271575
334.026975013
334.017439373
334.002512562
333.998612124
333.994594678
333.993857204
333.994013652
333.994305634
333.995282693
333.996486195
333.997691682
333.998831371
333.999849237
334.000639283
334.001253638
334.001478266
252.725673048
252.940850345
253.369651859
254.003898605
254.825461733
255.813941131
256.947967913
258.206743649
259.571135937
261.024326483
262.55205665
264.142562469
265.786306918
267.475610367
269.204258735
270.96714211
272.759952255
274.578948331
276.420787828
278.282412372
280.160975428
282.053798559
283.958345056
285.872202569
287.793070434
289.718750684
291.647144611
293.576256834
295.504206571
297.429241476
299.349747342
301.264244691
303.17136642
305.069813458
306.958286546
308.835392666
310.699522857
312.548697025
314.380372501
316.191217763
317.976861127
319.731640524
321.448406129
323.118467622
324.731824204
326.277829808
327.746436029
329.12968614
330.423270672
331.627837087
332.750334502
333.810112384
334.868113041
335.035299887
335.142891737
335.182088337
335.149369336
335.092987629
335.030756469
334.936228363
334.831254313
334.745724232
334.680797138
334.625121903
334.572732427
334.525155665
334.482712951
334.442802663
334.404037191
334.365335661
334.327470092
334.294498121
334.271822271
334.258800456
334.245352601
334.224862813
334.209290244
334.200304875
334.184485455
334.187095867
334.1690544
334.041172883
333.992014896
334.004891481
333.999370277
334.001583651
334.002986324
334.003020523
334.004466036
334.006202948
334.007789397
334.009169463
334.0103545
334.011281552
334.01198112
334.012247686
250.460717354
250.70720148
251.196666444
251.916799663
252.843273185
253.949224854
255.207259204
256.591512014
258.079005339
259.650328744
261.289752612
262.984935327
264.726396436
266.506905539
268.320894367
270.163954534
272.032446209
273.923217633
275.833420764
277.76040188
279.701644621
281.654744997
283.617401692
285.587410561
287.562657977
289.541114284
291.520832822
293.499961566
295.476768864
297.449677185
299.417292975
301.378418996
303.332040136
305.277280344
307.213330224
309.139345122
311.05430764
312.956844472
314.844986184
316.715861984
318.565328059
320.387545594
322.174558437
323.915987141
325.599071517
327.209350475
328.732527358
330.1565999
331.473881687
332.683546311
333.799679717
334.882670439
335.009057386
335.072742893
335.119778386
335.121877868
335.073219204
335.001066025
334.917601209
334.818956495
334.717576475
334.629708818
334.558675576
334.499724005
334.450112258
334.408490009
334.372088759
334.339401504
334.309584529
334.282123474
334.257648034
334.238156183
334.225494191
334.218149389
334.210571603
334.19880088
334.186688242
334.176568706
334.163028764
334.153122027
334.1400467
334.140977432
334.128772069
334.038103831
333.993037316
334.008830095
334.012599079
334.010759486
334.013477069
334.016190078
334.018220464
334.019841491
334.021172489
334.022292113
334.023061007
334.023409975
247.939901052
248.226993983
248.794493354
249.623777649
250.681573728
251.932023879
253.339688096
254.872278029
256.50226966
258.20751742
259.971081809
261.780542643
263.627067084
265.504449995
267.408266272
269.335200271
271.282563808
273.247982523
275.229216538
277.224077632
279.23040784
281.246089391
283.269062981
285.297339088
287.328996835
289.362174666
291.39506617
293.425938038
295.453176053
297.475350239
299.491277065
301.500056032
303.501067365
305.493930609
307.478429293
309.454406301
311.421620893
313.379547904
315.327096153
317.262223095
319.181424138
321.079082603
322.946699093
324.772111166
326.539047724
328.22750419
329.816859908
331.288720706
332.630281342
333.845312778
334.992532396
335.077817618
335.079934135
335.079688419
335.066840788
335.022332694
334.945072288
334.85046978
334.748938798
334.64377727
334.542823841
334.455149986
334.383897635
334.327341869
334.283782097
334.250093504
334.222515341
334.200032677
334.181967138
334.167760414
334.157478201
334.151712687
334.150615128
334.152596265
334.154490438
334.15412701
334.152533557
334.150080489
334.143568924
334.135203291
334.125556417
334.118755011
334.109973766
334.116172393
334.104667001
334.032184166
334.024512997
334.015500398
334.022324442
334.02682769
334.029172372
334.030911724
334.032415344
334.033712844
334.03459765
334.03505509
245.121556292
245.462504772
246.132365207
247.102653256
248.326983092
249.756881895
251.346177456
253.054525895
254.849203895
256.705452989
258.605760886
260.538520571
262.496480221
264.47529511
266.47235139
268.485911829
270.514559858
272.556885068
274.611345284
276.676244986
278.749779029
280.830100555
282.91538194
285.003848782
287.093779843
289.183483127
291.271273516
293.355492077
295.434580602
297.507198694
299.572338727
301.629399206
303.678196412
305.718920366
307.752053687
309.778273225
311.798319766
313.812801966
315.821895672
317.82489867
319.819589678
321.801319727
323.761762662
325.687311739
327.557574138
329.3442705
331.017227955
332.54888256
333.926855952
335.20525348
335.250940716
335.173878838
335.103321085
335.038010995
334.961315093
334.866596187
334.756152971
334.638993476
334.522940674
334.412436336
334.312541581
334.22825787
334.161679224
334.11223232
334.077779229
334.054092119
334.037639795
334.027563821
334.023113005
334.0234823
334.028170537
334.036873676
334.04895725
334.062937381
334.076732409
334.08884222
334.099118611
334.107235711
334.111818266
334.113541266
334.112327318
334.108670764
334.103788946
334.102765358
334.099976552
334.111428101
334.087167152
334.006211679
334.030398799
334.038961237
334.040842885
334.042390796
334.044106165
334.045610146
334.046699777
334.047264629
241.950624074
242.36489837
243.172056034
244.327780894
245.766197881
247.421084945
249.232040042
251.148822461
253.133093552
255.158118969
257.207078488
259.270670929
261.344641543
263.42767211
265.519818194
267.621487358
269.732861459
271.853643523
273.983020527
276.119753855
278.262329262
280.409113576
282.558478229
284.708861969
286.858762633
289.006673516
291.151009058
293.290112706
295.422372563
297.546429944
299.661383703
301.766918372
303.863327512
305.951449762
308.032567658
310.108328223
312.180656942
314.251604463
316.323068551
318.396340726
320.471402154
322.54581385
324.612936654
326.659081902
328.659970723
330.573799331
332.356735833
333.978986816
335.490526412
335.523280273
335.357938128
335.204210993
335.067619579
334.931752744
334.792593767
334.650496838
334.508489496
334.372028273
334.24607519
334.133784722
334.037843782
333.960496516
333.902605612
333.863839298
333.84086485
333.82871387
333.824823567
333.828389521
333.838440685
333.853902295
333.873858872
333.897482184
333.923763339
333.951305839
333.978495163
334.004038612
334.027286999
334.047673308
334.064445213
334.077685542
334.087287224