/*--------------------------------*- C++ -*----------------------------------*\
| =========                 |                                                 |
| \\      /  F ield         | OpenFOAM: The Open Source CFD Toolbox           |
|  \\    /   O peration     | Version:  v1906                                 |
|   \\  /    A nd           | Web:      www.OpenFOAM.com                      |
|    \\/     M anipulation  |                                                 |
\*---------------------------------------------------------------------------*/
FoamFile
{
    version     2.0;
    format      ascii;
    class       volScalarField;
    location    "294";
    object      pa;
}
// * * * * * * * * * * * * * * * * * * * * * * * * * * * * * * * * * * * * * //

dimensions      [0 2 -2 0 0 0 0];


internalField   nonuniform List<scalar> 
9216
(
923.202611852
922.896097324
922.261951821
921.294635227
919.999474756
918.382475498
916.451051902
914.214032707
911.681383768
908.864241224
905.774600957
902.425380211
898.830071162
895.002837069
890.958138921
886.710874162
882.275983652
877.668638769
872.903833185
867.996621089
862.961695231
857.813676701
852.566678672
847.234646167
841.830903396
836.368541222
830.859945852
825.317231202
819.751746727
814.174552216
808.595903243
803.025766754
797.473284479
791.947322981
786.455912922
781.00683738
775.607048276
770.263284504
764.981467204
759.767345742
754.625873069
749.561875693
744.579411646
739.682459826
734.874263373
730.158033734
725.536283147
721.011537962
716.585664098
712.260584225
708.037600833
703.91811121
699.902932834
695.993010343
692.188748601
688.490705471
684.898937828
681.413674476
678.034680821
674.761906177
671.594872511
668.533291198
665.576481306
662.723951071
659.974850554
657.328514141
654.783951964
652.340350239
649.996604836
647.751777414
645.604673662
643.554253928
641.599257367
639.738566929
637.970879598
636.295026369
634.709687523
633.213669214
631.805661813
630.484475281
629.248837741
628.097592407
627.029533016
626.043565202
625.138575
624.313557392
623.567513542
622.899547852
622.308786882
621.794439798
621.355716932
620.991813108
620.701678278
620.48242698
620.339649095
620.28724462
923.50804221
923.199814228
922.56406393
921.592440902
920.291148823
918.666459697
916.725974314
914.478640573
911.934588154
909.105067245
906.002247238
902.63915667
899.029464386
895.18743327
891.127695194
886.865227745
882.415130607
877.792631145
873.012866564
868.090921101
863.041615353
857.879575196
852.619027382
847.273898476
841.85761453
836.383227453
830.863216169
825.30963776
819.733927818
814.147074042
808.559414213
802.980829565
797.420538274
791.887309328
786.389251426
780.934041133
775.528707011
770.179873318
764.893538252
759.675330204
754.530280426
749.463089782
744.477896201
739.57854969
734.768375199
730.050453581
725.427380755
720.901552117
716.474919102
712.149274526
707.92600786
703.80638887
699.791323105
695.881631291
692.077806758
688.380288054
684.789220203
681.304718251
677.926634429
674.654810496
671.488852947
668.428372382
665.472768944
662.621457165
659.873663722
657.228636594
654.685457044
652.243232199
649.900922807
647.65751874
645.51188369
643.462913352
641.50939771
639.650162015
637.883946818
636.209532095
634.625634648
633.13101602
631.724396455
630.404547401
629.170220834
628.020227293
626.953379137
625.968555054
625.064655619
624.240655158
623.495567826
622.828487455
622.238562331
621.725024599
621.287176879
620.924430677
620.636371524
620.422906218
620.287106275
620.23478236
924.1434118
923.830484697
923.189052902
922.20884349
920.896162864
919.25740904
917.300381664
915.034235025
912.469342368
909.617186794
906.49020103
903.101651887
899.465471493
895.596147994
891.508560201
887.217884212
882.739439299
878.088616426
873.280739658
868.331019105
863.25442891
858.065684389
852.779135345
847.408765206
841.968097001
836.470211604
830.927663512
825.35251531
819.756260765
814.149873276
808.543734476
802.947694645
797.37100525
791.822390427
786.309982149
780.841400335
775.423690205
770.063410097
764.766569804
759.538724576
754.384913781
749.309759824
744.317406694
739.411622453
734.595737264
729.872748241
725.245256785
720.715574415
716.285659238
711.957221571
707.731659543
703.610163181
699.593649212
695.682862521
691.878310419
688.180360378
684.589174148
681.104800976
677.7271122
674.455889252
671.290759427
668.231278328
665.276867711
662.426892069
659.680599465
657.037192255
654.495771835
652.05540353
649.715066019
647.473710608
645.330215977
643.28344201
641.332190238
639.475252498
637.711377247
636.039313245
634.457781637
632.965514903
631.561234413
630.243684812
629.011616559
627.863815926
626.799091938
625.816302101
624.914343118
624.092172544
623.348802813
622.68331941
622.094878971
621.582727449
621.146210402
620.784812683
620.498232802
620.286534678
620.151080438
620.092155337
925.120136755
924.801819066
924.151507315
923.157885322
921.827452363
920.166830404
918.184110202
915.888773519
913.291558154
910.404323878
907.239898694
903.811937547
900.134764677
896.223237678
892.092598223
887.758351518
883.236133413
878.541611199
873.690371153
868.697842898
863.579208001
858.349347032
853.022767216
847.613569351
842.135391196
836.601390716
831.024201803
825.415930752
819.788121683
814.151763968
808.517265474
802.894469452
797.292634321
791.720458013
786.186062712
780.697026508
775.260372297
769.882604458
764.569700789
759.327153382
754.159962658
749.072681387
744.069410048
739.153843025
734.329264649
729.598596643
724.964394243
720.428893985
715.99400937
711.661378119
707.432356897
703.308067203
699.289388767
695.377003363
691.571386625
687.87284918
684.281526826
680.797418609
677.420375468
674.150135083
670.986309308
667.928415824
664.975864857
662.127987816
659.384023903
656.743146072
654.204448166
651.766968568
649.429678478
647.191503649
645.051314307
643.007945299
641.06018803
639.206809268
637.446545304
635.778119566
634.200239009
632.711610617
631.310939877
629.996946148
628.768362952
627.623952134
626.562505629
625.582858328
624.683891001
623.864541916
623.123810869
622.460770137
621.874570656
621.364455005
620.929770782
620.569993691
620.284761051
620.073906867
619.937782588
619.873691641
926.442182674
926.116938646
925.45449033
924.442502159
923.087767641
921.397237895
919.379405815
917.044209361
914.402885959
911.467819258
908.25237734
904.770753823
901.03780569
897.0689018
892.879773157
888.486379223
883.904778717
879.151019619
874.241034245
869.190554657
864.015031911
858.729575165
853.348892127
847.887247962
842.35842259
836.775685008
831.151763389
825.498831295
819.828487746
814.151753106
808.4790574
802.820244755
797.184568952
791.58070371
786.016744032
780.500223606
775.03812064
769.636879379
764.302419557
759.040161347
753.855037402
748.7515203
743.733636372
738.804994767
733.96880232
729.22789346
724.584745421
720.041508195
715.600019392
711.261833485
707.028235692
702.900269774
698.878750356
694.964288684
691.157302958
687.458041574
683.866591209
680.382897313
677.00676994
673.737901447
670.575870258
667.520155999
664.570141592
661.7251262
658.984326164
656.346886278
653.811880168
651.378320418
649.045158957
646.811296554
644.675583706
642.636829911
640.693805391
638.845250463
637.089878274
635.426384431
633.853450767
632.369755253
630.973976698
629.664804826
628.440945711
627.301131832
626.244127993
625.268741149
624.37382661
623.558297555
622.821131548
622.161379994
621.578175651
621.070742917
620.638407628
620.280609085
619.996907388
619.786978672
619.650857155
619.58550165
928.116107447
927.782104414
927.104113491
926.068566865
924.682660266
922.953789681
920.890977886
918.504761514
915.807028488
912.810844867
909.530277402
905.980217269
902.17620605
898.134270602
893.870766036
889.402232523
884.745263467
879.916389925
874.931977282
869.80813835
864.560657514
859.204929618
853.755907225
848.228059944
842.635339046
836.991151617
831.308337541
825.599154485
819.87526428
814.147726665
808.426993641
802.72291137
797.044721901
791.40106976
785.800009993
780.249022234
774.755022716
769.324382244
763.962941766
758.676033542
753.468499259
748.344713492
743.308603554
738.363674476
733.513029862
728.759397638
724.105151183
719.5523351
715.102685895
710.757657004
706.518438304
702.38597966
698.361008623
694.444051862
690.635450522
686.93537908
683.343858053
679.860770048
676.485869751
673.218797198
670.059085257
667.006170387
664.059398033
661.218031355
658.481255129
655.84818302
653.317860655
650.889272061
648.561342549
646.332944876
644.202902493
642.16999587
640.232966511
638.390523724
636.641349638
634.984106541
633.417442933
631.940001427
630.550425715
629.247368888
628.029501093
626.895518042
625.844149072
624.874165614
623.984389387
623.173700689
622.441046576
621.785448983
621.206012852
620.701933987
620.272506513
619.917127185
619.635296027
619.426606092
619.290998873
619.225498144
930.150234006
929.805440031
929.108266273
928.043629554
926.619243253
924.843075273
922.724823558
920.27578358
917.508663286
914.437386079
911.07689215
907.442942029
903.551926097
899.420684507
895.066339363
890.506142166
885.757336822
880.837040022
875.762137837
870.549199253
865.214404125
859.773485455
854.241682509
848.633704466
842.963700958
837.24523978
831.491288689
825.714202555
819.925713411
814.136925388
808.358312194
802.599719922
796.870371989
791.17887543
785.533232957
779.940857213
774.408585839
768.942699602
763.54894093
758.232534898
752.998210248
747.850222413
742.792376264
737.828050462
732.960221241
728.191487378
723.524094309
718.959958967
714.500693449
710.147628959
705.901838243
701.764157842
697.735208561
693.815415353
690.005025216
686.304124198
682.712652346
679.230417611
675.857107752
672.592301205
669.435476163
666.386018762
663.443229819
660.606330914
657.874469447
655.246723326
652.722105082
650.299565903
647.977999506
645.756246186
643.633097024
641.607298491
639.677557367
637.842546267
636.10090947
634.45126951
632.892233922
631.422402869
630.040376654
628.744764193
627.534191036
626.407308379
625.362801302
624.399397975
623.515877821
622.711080612
621.983914326
621.333363808
620.758498034
620.258477425
619.832559141
619.480100801
619.200558091
618.993480071
618.858786521
618.793632082
932.554804459
932.196990788
931.476693931
930.376997597
928.906262113
927.073172818
924.888269825
922.363790631
919.513455726
916.352242137
912.896157892
909.16202143
905.167250618
900.929665425
896.467306761
891.798273717
886.940580189
881.912031669
876.730121769
871.411947803
865.974143585
860.432827423
854.803562535
849.101327329
843.340492921
837.53480604
831.697375872
825.840664315
819.976479346
814.115971808
808.269635591
802.447312087
796.658197912
790.910851874
785.213210846
779.572605236
773.995776513
768.488896767
763.057589329
757.706951006
752.441574876
747.265574458
742.182608034
737.195904131
732.308286747
727.522201491
722.839741009
718.262671041
713.792455256
709.430280383
705.177079613
701.033555934
697.000203274
693.077327258
689.265063393
685.563394667
681.972166352
678.491100173
675.119805634
671.857790839
668.704470618
665.659174409
662.721151782
659.889578056
657.163558012
654.542130079
652.024269109
649.608889968
647.294850223
645.080953857
642.965954571
640.948560169
639.027436953
637.201215115
635.468494474
633.827850973
632.277843776
630.817022784
629.443936899
628.157142335
626.955211702
625.836742773
624.800367988
623.844763306
622.968657692
622.170841709
621.450176571
620.805602064
620.236144515
619.740923229
619.319156178
618.970162141
618.693362188
618.488279745
618.354825016
618.29028578
935.342156711
934.968864443
934.22113192
933.079856626
931.554198925
929.653732283
927.390034801
924.776498582
921.828078002
918.561026582
914.992638504
911.140999101
907.024749545
902.662869554
898.074480783
893.278672736
888.294352295
883.140117279
877.834153559
872.394154539
866.837260618
861.180015809
855.438337658
849.627497027
843.762104037
837.85609801
831.922739486
825.974604352
820.023579849
814.08086365
808.156966286
802.261717769
796.404277257
790.593142574
784.836169253
779.140588112
773.513025187
767.959523323
762.485564866
757.096095472
751.795548784
746.587871876
741.47655142
736.464640267
731.55478457
726.749250908
722.049953698
717.458482111
712.976126934
708.603906392
704.342591512
700.192729884
696.154668567
692.228574882
688.414456043
684.712176318
681.121472851
677.641968886
674.273185682
671.014551908
667.865411969
664.8250321
661.892605797
659.067257439
656.348045766
653.733966023
651.223952511
648.816880255
646.511567578
644.306778177
642.201224461
640.193570713
638.28243765
636.466407103
634.744027988
633.113822647
631.574294163
630.123934275
628.761231765
627.484681643
626.292794224
625.184105117
624.157184554
623.21064766
622.343163595
621.553465582
620.840359425
620.202732692
619.639562098
619.149920799
618.732983589
618.388031554
618.114453157
617.911748722
617.779818878
617.716080882
938.526929646
938.135420943
937.355477993
936.165422747
934.575399096
932.596074329
930.240297515
927.522865627
924.46022412
921.070158553
917.371496243
913.383822703
909.127218107
904.62201737
899.888596148
894.947184355
889.817708168
884.519660763
879.072001339
873.493080584
867.800589899
862.011529961
856.142193958
850.208159903
844.224287751
838.204717568
832.162867549
826.111431454
820.062377056
814.026946533
808.015661923
802.038332129
796.104065712
790.221284473
784.397744677
778.640557757
772.95621301
767.350601509
761.82904093
756.396301309
751.056631408
745.813785972
740.671053351
735.631283955
730.696918723
725.87001824
721.152291422
716.545124529
712.049609195
707.666570362
703.396592592
699.240045809
695.197108775
691.26779156
687.451955216
683.749330149
680.159531384
676.682072462
673.31637617
670.061784106
666.917563287
663.882912001
660.956963149
658.13878739
655.427394362
652.821734295
650.32069835
647.923119869
645.627774979
643.43338445
641.338615485
639.342084858
637.442362491
635.637976252
633.927417575
632.309147977
630.781606666
629.343218594
627.992403725
626.727586246
625.547204976
624.449723238
623.433639798
622.497498852
621.639900883
620.859512238
620.15507531
619.525417169
618.969458349
618.486219875
618.074829996
617.734528103
617.464669718
617.264732004
617.13459767
617.071814943
942.12631275
941.713503848
940.896005198
939.649126606
937.984222228
935.913304565
933.450775368
930.613134429
927.418619919
923.886844461
920.038449403
915.894781867
911.477599405
906.808804978
901.91021396
896.803354263
891.509300517
886.048542621
880.440888223
874.70539724
868.860344637
862.92320606
856.910659108
850.838593038
844.722119905
838.575583035
832.412560646
826.24586614
820.087547094
813.9488864
807.840409201
801.771891704
795.752376155
789.790189698
783.892968535
778.067682346
772.32065998
766.657616049
761.083678032
755.603413969
750.22086078
744.93955311
739.762552933
734.692479473
729.731539827
724.881559517
720.144013514
715.520056657
711.010554141
706.616110733
702.337099509
698.17368857
694.125866689
690.19346623
686.376184515
682.673601962
679.085198401
675.610365986
672.248420308
668.998608267
665.860114474
662.832064868
659.913529449
657.103522864
654.40100486
651.804879269
649.313993662
646.927138131
644.643045471
642.460390944
640.377793958
638.393819675
636.506982745
634.715751252
633.018552655
631.413780211
629.899800908
628.474964176
627.137611371
625.886086276
624.718745541
623.633970294
622.630176895
621.705828901
620.859447535
620.089623274
619.395025494
618.774412987
618.226642299
617.750676321
617.34559076
617.010580759
616.744964703
616.548191728
616.420121909
616.358439478
946.1603533
945.722731454
944.861622975
943.548837007
941.79722072
939.62044492
937.034808718
934.0588731
930.713025093
927.019046509
922.999712892
918.678426313
914.078885233
909.224792629
904.139602729
898.846306899
893.367259657
887.724045555
881.937387179
876.027092205
870.012035429
863.910167945
857.738543992
851.51335401
845.249954641
838.962888709
832.665894224
826.371904595
820.093046041
813.840636799
807.625194865
801.456449056
795.3433558
789.294125314
783.316249625
777.416531119
771.601111887
765.875503102
760.244614449
754.712783846
749.283807474
743.960970577
738.747078648
733.644489516
728.655145574
723.780606774
719.022083306
714.380468708
709.856372007
705.450149748
701.161936197
696.991672734
692.939134516
689.003955621
685.185650707
681.483634672
677.89723837
674.425722227
671.068285835
667.824075745
664.692189567
661.671678907
658.761549253
655.960759563
653.26821964
650.682788101
648.203269026
645.828409986
643.556899568
641.387366757
639.318380558
637.348451593
635.47603453
633.699532298
632.017301583
630.427659631
628.928892624
627.519264726
626.197028804
624.96043711
623.807753555
622.737265285
621.747295624
620.836215772
620.002457583
619.244524701
618.561004436
617.950577765
617.412029621
616.944257253
616.546278542
616.217237772
615.956412487
615.763220069
615.637490727
615.577052627
950.652338252
950.185852078
949.274197187
947.885129003
946.033348988
943.734581314
941.007449518
937.873010247
934.354221788
930.475432362
926.26191628
921.739458866
916.933990162
911.871265521
906.57659146
901.074596413
895.389047809
889.542717477
883.557296935
877.453361669
871.250379407
864.96675279
858.619881857
852.226230269
845.801379703
839.360063601
832.916178444
826.482779748
820.072072163
813.695404018
807.363273492
801.085343575
794.870460639
788.726691372
782.661355157
776.681058132
770.791726381
764.99863832
759.306456274
753.719257955
748.240568284
742.873391748
737.620245669
732.483193961
727.463881827
722.563570561
717.78317308
713.123288969
708.584239788
704.166103035
699.868745588
695.691854731
691.634967713
687.697497853
683.87875836
680.177981966
676.594337831
673.12694401
669.774877207
666.537178387
663.412856137
660.400886628
657.500212188
654.709737459
652.028325279
649.454791147
646.987898594
644.626353955
642.368803117
640.213828174
638.159946846
636.205612084
634.349214804
632.589087005
630.923507856
629.35071043
627.868890701
626.476217551
625.170843935
623.950919399
622.814602503
621.76007482
620.785553715
619.889306721
619.069663905
618.325031656
617.653903998
617.054875023
616.526648697
616.068049203
615.67802888
615.35567644
615.10022242
614.911047219
614.787946578
614.728900955
955.629269868
955.129188499
954.158940758
952.681604922
950.714204987
948.275025334
945.385548601
942.069857132
938.353982296
934.265298801
929.831992592
925.082597294
920.04559312
914.749061325
909.220389271
903.486024861
897.571282826
891.500207406
885.295496278
878.978486865
872.569200857
866.0864337
859.547868943
852.970191219
846.369174569
839.759730516
833.155916679
826.570918459
820.017023732
813.505606552
807.047131023
800.651169276
794.326427965
788.080797392
781.92139089
775.854585234
769.886058364
764.020824347
758.263266691
752.617171204
747.085759104
741.671721156
736.377252542
731.204089003
726.153543403
721.226543416
716.423669175
711.745191703
707.19111057
702.761191591
698.455002582
694.271948029
690.211300431
686.27222939
682.453826196
678.755125358
675.175120948
671.712779692
668.367048819
665.136861076
662.021135047
659.018773613
656.128658703
653.349645534
650.680554343
648.120163031
645.667198527
643.320330244
641.078163342
638.939234775
636.902010027
634.964882782
633.126175976
631.384145455
629.736985541
628.182836478
626.719794138
625.345920658
624.059257403
622.857837876
621.739702717
620.702913764
619.745569817
618.865820758
618.06188295
617.332052546
616.67471964
616.088380131
615.571647952
615.123265035
614.74211129
614.427212053
614.177745924
613.993051123
613.872883674
613.815385458
961.122465833
960.583188447
959.544892902
957.965275932
955.864304997
953.263484559
950.187832623
946.665106508
942.725005601
938.398460107
933.717030016
928.712398085
923.415940226
917.858358199
912.069365051
906.077420981
899.909524558
893.591068763
887.145772476
880.595694085
873.961324495
867.261743939
860.514811763
853.737349313
846.945275106
840.153668364
833.376762177
826.627894389
819.91945033
813.262830017
806.668444016
800.14573976
793.703246862
787.34863814
781.088780788
774.929784861
768.877045086
762.935277798
757.108554827
751.400336847
745.813507487
740.350408731
735.012877909
729.802285693
724.719575469
719.76530319
714.939678453
710.242605528
705.67372511
701.232454963
696.918030082
692.729540096
688.665964612
684.726204093
680.90910733
677.213493282
673.638168781
670.181940273
666.843621407
663.622035185
660.516012641
657.524387298
654.645987422
651.879625655
649.224088045
646.678122059
644.240425697
641.909636738
639.684324681
637.562983312
635.544027154
633.625788618
631.806519618
630.084393875
628.457513517
626.92391655
625.481587633
624.128470167
622.862480052
621.681521225
620.583501014
619.566347531
618.628025336
617.766553113
616.980018621
616.266595382
615.624556216
615.052288056
614.548303616
614.111253701
613.739936726
613.433308261
613.190487933
613.010767332
612.893857078
612.83806883
967.168321816
966.583119983
965.465507998
963.767013901
961.511388966
958.724230857
955.434955952
951.675792609
947.480808787
942.885089778
937.924077525
932.63303508
927.046602486
921.198416749
915.120779726
908.844370988
902.398015172
895.80852169
889.10061846
882.296995839
875.418464661
868.484209117
861.512090961
854.518938441
847.520751822
840.532779514
833.569472919
826.644373212
819.769996819
812.957772406
806.218030883
799.560049093
792.992127664
786.521669262
780.155247354
773.898663214
767.756991335
761.734616014
755.835263902
750.062036455
744.417444229
738.903443772
733.521476358
728.272508685
723.157074413
718.1753173
713.327034885
708.611723697
704.028624378
699.576767378
695.255016852
691.062113205
686.996711527
683.05741664
679.242812118
675.551484566
671.982040879
668.533120402
665.203400076
661.991595109
658.89645354
655.916747848
653.051261984
650.298777571
647.658057353
645.127830025
642.706774073
640.393504838
638.18656196
636.084401049
634.085386748
632.187790108
630.389788149
628.689467119
627.084828572
625.573798058
624.154237038
622.823956079
621.580731237
620.422320333
619.346481924
618.350992939
617.433668339
616.592378591
615.825068496
615.129773371
614.504636045
613.947921052
613.458029144
613.033509083
612.67306935
612.375587338
612.140117852
611.965898896
611.852592176
611.79868747
973.80929817
973.169954021
971.959383771
970.122081511
967.686747548
964.684247083
961.14950362
957.120189629
952.635554605
947.73550179
942.459895111
936.848026415
930.938182885
924.767269596
918.370462773
911.780890865
905.029360991
898.144162818
891.150989458
884.073010589
876.931114185
869.744299436
862.530156297
855.305324966
848.085810336
840.887065736
833.723860507
826.610044111
819.558328405
812.580176214
805.685797797
798.88423085
792.183471624
785.590585044
779.111793866
772.752544982
766.517555187
760.41084357
754.435758833
748.595008779
742.890694329
737.324347744
731.896974037
726.609094045
721.460789098
716.451746582
711.581307468
706.848514912
702.252164704
697.790855549
693.463039254
689.267067906
685.201238087
681.263829129
677.453136116
673.767495049
670.20530166
666.765021925
663.445196255
660.244436261
657.161416221
654.194859157
651.343519438
648.606162709
645.981544637
643.468389653
641.065370947
638.771092219
636.584072953
634.502735843
632.525399494
630.650272735
628.875455245
627.198939147
625.618616868
624.132289986
622.737682956
621.432458476
620.214235235
619.080607988
618.029167176
617.057521201
616.163316045
615.344257397
614.598129018
613.922813073
613.316306482
612.776738535
612.302384795
611.891681544
611.543237075
611.255842399
611.028479792
610.860330302
610.750998851
610.699160583
981.095214038
980.391503369
979.071166059
977.070745192
974.425549728
971.173316897
967.355907734
963.017615682
958.203790789
952.959855978
947.330640311
941.359905875
935.089969887
928.561353711
921.812424145
914.879026323
907.794138668
900.587603854
893.286005089
885.912754682
878.488440261
871.031419833
863.55857935
856.08607431
848.629829365
841.205613769
833.828726762
826.513525777
819.273031161
812.118744664
805.060677415
798.107515958
791.266844307
784.545300774
777.948691134
771.48206068
765.14973475
758.955338455
752.901812638
746.99143755
741.225866431
735.606166374
730.132862934
724.805986857
719.625121125
714.589449739
709.697808013
704.948736079
700.340534174
695.871320108
691.539085678
687.341751551
683.277216863
679.343403521
675.538292061
671.859950005
668.30655042
664.876382447
661.567852231
658.379476765
655.309869631
652.357722004
649.521778012
646.800808679
644.193583109
641.698841806
639.315269801
637.041474832
634.875967058
632.817145194
630.863285167
629.012535062
627.262913272
625.612311832
624.058503724
622.599153769
621.231834119
619.954041483
618.763218766
617.656776434
616.632117259
615.686659114
614.817859922
614.023239651
613.300403503
612.647061757
612.061050136
611.540346823
611.083089527
610.68758932
610.352344149
610.076049942
609.857609552
609.696137835
609.591181304
609.541607309
989.084984554
988.303917685
986.852679942
984.658965589
981.76712594
978.223997055
974.080217927
969.388095534
964.20007038
958.56777179
952.541486623
946.169840206
939.499539851
932.575084057
925.438392724
918.128362882
910.68039993
903.126010597
895.492571559
887.803395765
880.078195632
872.333970043
864.58620679
856.850114422
849.141456718
841.47659076
833.871769765
826.342226327
818.901474072
811.56103307
804.330556236
797.218193808
790.230957429
783.374945148
776.655471752
770.077138393
763.643855872
757.358837183
751.224591085
745.242937127
739.41504091
733.741459999
728.222194411
722.856737285
717.644124846
712.582986775
707.671599871
702.907945506
698.289771964
693.814659412
689.480085997
685.283490867
681.222332581
677.294139003
673.49654878
669.827341438
666.284457703
662.866007869
659.570270652
656.395681498
653.340812908
650.404347549
647.58504604
644.881712156
642.293156011
639.818159323
637.455442124
635.203634452
633.061252614
631.026680524
629.098158065
627.273772548
625.551458879
623.929000783
622.404041115
620.974092981
619.63655821
618.388747831
617.227905981
616.151236897
615.155930767
614.239192974
613.398269104
612.630472913
611.933209043
611.303997739
610.740494651
610.240511543
609.802032831
609.423232219
609.102485972
608.838384602
608.629743273
608.475608643
608.375458051
608.32835678
997.848999079
996.973680792
995.364352221
992.939133679
989.755118468
985.871367385
981.349635022
976.251817251
970.638416787
964.567838249
958.096178001
951.277204949
944.162320779
936.800373869
929.237274011
921.515422882
913.673037389
905.743495211
897.754881309
889.729943103
881.686657733
873.639524924
865.601492522
857.586064569
849.608797604
841.687238898
833.839423892
826.082115705
818.429594869
810.893296453
803.482198507
796.203586807
789.063670378
782.067870153
775.220937115
768.527001069
761.989560017
755.61141702
749.39463372
743.340535436
737.449755532
731.722292721
726.157570883
720.754495696
715.511505455
710.426622045
705.497505777
700.721517717
696.095789177
691.617297845
687.282945083
683.089631404
679.034324353
675.114117424
671.326276345
667.668273337
664.13780731
660.732811564
657.451448076
654.292090612
651.253296842
648.333772759
645.532330122
642.847841419
640.279192613
637.825239255
635.484764339
633.256444248
631.138818539
629.13026964
627.229006891
625.433059547
623.740274177
622.14831883
620.65469263
619.256740116
617.95167232
616.73659031
615.608514978
614.564416291
613.601246491
612.715970334
611.905597045
611.167208313
610.497986712
609.895240051
609.356425519
608.879169959
608.461289638
608.100806314
607.795962503
607.545234636
607.347342106
607.20125149
607.106371594
607.061970663
1007.47246372
1006.48035438
1004.67700938
1001.97076762
998.437326308
994.152383577
989.191670648
983.628297501
977.531595664
970.967018375
963.996540924
956.679150086
949.071147008
941.226118947
933.194523771
925.02292017
916.75295455
908.420286197
900.053711865
891.674826605
883.298605102
874.935222914
866.593146269
858.282855492
850.019743699
841.823840104
833.716553353
825.717322925
817.84156168
810.100299523
802.501184255
795.050061622
787.752028327
780.611690996
773.63318297
766.8201703
760.17578887
753.702471377
747.401828747
741.274652428
735.320989004
729.540219701
723.931136436
718.492005364
713.220615405
708.114324761
703.170115309
698.384658099
693.754392799
689.275617561
684.944583122
680.757583314
676.711037018
672.801556392
669.026000945
665.38151446
661.865547041
658.475859711
655.210514966
652.067851755
649.046448655
646.145076538
643.362643397
640.698136595
638.150562208
635.718890239
633.402001889
631.198647968
629.107413357
627.12669224
625.254672393
623.489324916
621.828405358
620.269455011
618.809815217
617.446641594
616.176929831
614.997544166
613.905250972
612.896756681
611.968742823
611.117905285
610.3409864
609.634810289
608.996310871
608.422561496
607.910798781
607.458446484
607.063135024
606.722720199
606.435298548
606.199219705
606.013098706
605.875821764
605.786715095
605.745253998
1018.06020177
1016.92044305
1014.8741663
1011.82095407
1007.86491719
1003.10454235
997.632735689
991.535151426
984.890164259
977.769970163
970.242005206
962.370217483
954.215861535
945.837683589
937.291443671
928.628836117
919.895957221
911.131551475
902.365386086
893.617259939
884.897330749
876.208505465
867.551358816
858.930870387
850.362519144
841.871570682
833.485847142
825.229420838
817.119247751
809.16508863
801.371907957
793.743119154
786.282364637
778.993371458
771.879651798
764.944473839
758.190757665
751.620670301
745.235377125
739.035073237
733.019142308
727.18627431
721.534565872
716.06159311
710.764446813
705.639766503
700.683789368
695.892417943
691.261311354
686.785996065
682.461982367
678.284876998
674.250481553
670.354873948
666.594469414
662.966062381
659.466848151
656.094425754
652.84678198
649.722257831
646.719499591
643.837397021
641.075012797
638.431507396
635.906063436
633.497815568
631.205786227
629.028834932
626.965616055
625.014552548
623.173817037
621.441325334
619.814734855
618.291450477
616.868637188
615.54323872
614.312006943
613.171535307
612.118301861
611.148711331
610.259140966