/*--------------------------------*- C++ -*----------------------------------*\
| =========                 |                                                 |
| \\      /  F ield         | OpenFOAM: The Open Source CFD Toolbox           |
|  \\    /   O peration     | Version:  v1906                                 |
|   \\  /    A nd           | Web:      www.OpenFOAM.com                      |
|    \\/     M anipulation  |                                                 |
\*---------------------------------------------------------------------------*/
FoamFile
{
    version     2.0;
    format      ascii;
    class       volScalarField;
    location    "768";
    object      p;
}
// * * * * * * * * * * * * * * * * * * * * * * * * * * * * * * * * * * * * * //

dimensions      [0 2 -2 0 0 0 0];


internalField   nonuniform List<scalar> 
9216
(
268.374327808
268.459997722
268.633883261
268.896350464
269.245973713
269.681025144
270.199375284
270.798551037
271.475767702
272.227985214
273.051938532
273.944194688
274.901177561
275.919221657
276.99458809
278.123512456
279.302210705
280.526920255
281.793896076
283.099445442
284.439915552
285.811722985
287.211334621
288.635293019
290.080192447
291.542701293
293.019534912
294.507475962
296.003345622
297.504022612
299.00641424
300.507474709
302.004177739
303.49353495
304.972571372
306.438344642
307.887925312
309.318417561
310.726945681
312.110676779
313.466814311
314.792622675
316.085427646
317.342642004
318.561771598
319.740440641
320.876401542
321.967559033
323.011982789
324.007931545
324.953869993
325.848496471
326.690767564
327.479932078
328.215563305
328.897593564
329.526343192
330.102538791
330.627322587
331.102243781
331.529246456
331.910638157
332.249059466
332.547423956
332.80885808
333.036597166
333.233889221
333.403885566
333.549586557
333.673797728
333.779137225
333.868022025
333.942687522
334.00517376
334.057344354
334.100862072
334.13719709
334.167601918
334.193138999
334.21468396
334.232972582
334.248607403
334.262096391
334.273853395
334.284273149
334.293319217
334.300818763
334.306828235
334.311460596
334.314898323
334.317342673
334.319026304
334.320156556
334.320843539
334.321189284
334.321309699
268.288736271
268.374831449
268.549349622
268.813029706
269.164301178
269.601379029
270.122090997
270.723920248
271.404041964
272.159372275
272.986607838
273.882274842
274.842764236
275.864375805
276.943345403
278.075881509
279.258183091
280.486468045
281.756981997
283.066019337
284.409924268
285.785105778
287.188032603
288.615243624
290.063338397
291.528984309
293.008904166
294.499881216
295.998745098
297.502375689
299.007688662
300.511639131
302.011207937
303.503406003
304.985262955
306.453833249
307.906188382
309.339425907
310.750666553
312.137066902
313.495822167
314.824182647
316.119461937
317.379056291
318.600456875
319.781270334
320.919233071
322.012231541
323.058317538
324.055728862
325.0029076
325.898525224
326.741508759
327.531074836
328.266765387
328.948486045
329.576538767
330.151643977
330.674948092
331.148016941
331.572818254
331.951697108
332.287342358
332.582736507
332.841092462
333.065746161
333.260033397
333.42717003
333.57018484
333.691895012
333.7949165
333.881666581
333.954375292
334.015085047
334.065661169
334.107777957
334.142906846
334.172295668
334.196984031
334.217825071
334.235527801
334.250677466
334.263759721
334.27516746
334.28522696
334.294058316
334.301438732
334.307276918
334.311827216
334.315223288
334.317599528
334.319234105
334.320347335
334.321000062
334.321312821
334.321439017
268.114094268
268.201281507
268.377545612
268.643823083
268.998499837
269.439730364
269.965268594
270.572515571
271.25856243
272.020239178
272.854160362
273.756772534
274.724395207
275.753261858
276.839552391
277.979425224
279.169040032
280.404580656
281.682268715
282.998378423
284.349242583
285.731260988
287.140900571
288.57469908
290.029261047
291.501258195
292.987422616
294.484545097
295.989466684
297.499075921
299.010299861
300.520101232
302.025469979
303.523421415
305.010989618
306.485227787
307.94320488
309.382009518
310.798751199
312.190568827
313.554637353
314.888181253
316.188486401
317.452917555
318.678933818
319.864107882
321.006142406
322.10288857
323.152361617
324.152758728
325.10247603
326.000131126
326.84458937
327.634999797
328.370836927
329.05194809
329.678596031
330.251487513
330.771779012
331.241070162
331.661375972
332.035113746
332.365068153
332.654357566
332.906382779
333.124698491
333.312838538
333.474149905
333.611713926
333.728356448
333.826686369
333.909114332
333.977861572
334.03496829
334.082309347
334.12158476
334.154280161
334.181629446
334.204625171
334.224063641
334.240602347
334.254789845
334.26707874
334.277836436
334.287374735
334.295786485
334.302689632
334.308171473
334.312561052
334.315834746
334.318081458
334.319660313
334.320707255
334.321312831
334.321634053
334.3217932
267.848242772
267.936833929
268.115797322
268.386089632
268.746020172
269.193646746
269.726608572
270.342180297
271.037321541
271.808729672
272.652890907
273.566130076
274.544655544
275.584600635
276.682058586
277.833113411
279.033864053
280.280444949
281.569040465
282.895896799
284.257328659
285.649724556
287.069547772
288.513336955
289.977703129
291.459327122
292.954953976
294.461388382
295.975487547
297.49415559
299.014335782
300.533004851
302.047165657
303.553842476
305.050075328
306.532917586
307.99943352
309.446699801
310.871807824
312.271870551
313.644030747
314.985473798
316.293441813
317.565251417
318.798311699
319.990143938
321.138399565
322.240877769
323.295540136
324.300524824
325.254160043
326.154981911
327.001759175
327.793531286
328.529659887
329.209892916
329.834426514
330.40394663
330.919627788
331.383125914
331.796521896
332.162337233
332.483487531
332.76328819
333.005452088
333.213919509
333.392575858
333.544976143
333.674251785
333.783207943
333.874427638
333.950305711
334.013045646
334.064673997
334.107083669
334.14203397
334.171056518
334.195362823
334.215857794
334.23322911
334.24805106
334.260820518
334.271944902
334.281754927
334.290548861
334.29826858
334.304543341
334.309613384
334.3136323
334.316665695
334.3188468
334.320341738
334.32131732
334.321910729
334.322246116
334.322411045
267.489870062
267.580324181
267.762984269
268.038778954
268.405904301
268.862279541
269.405382327
270.032310739
270.739840867
271.524486332
272.382555813
273.310207299
274.303497039
275.358422877
276.470960909
277.637096101
278.852846469
280.114282036
281.417538414
282.758826497
284.134438048
285.540748699
286.974217979
288.431387791
289.908878757
291.403385757
292.911671914
294.430562295
295.956936463
297.487721159
299.019882183
300.550416888
302.076346367
303.594708788
305.102553072
306.596934517
308.07491174
309.533546483
310.969905758
312.38106776
313.764130875
315.116226836
316.434536884
317.716311224
318.958889914
320.159724544
321.316398254
322.426643102
323.488352947
324.499592517
325.458603875
326.363815815
327.213862613
328.007622699
328.744283802
329.423435202
330.045167711
330.610144064
331.119566953
331.575192102
331.979165183
332.334146979
332.643181757
332.909809422
333.138220405
333.333001829
333.498642395
333.638989777
333.757154416
333.855831773
333.937543614
334.004664781
334.059366037
334.103628018
334.139363346
334.168469939
334.192603571
334.212945908
334.230235151
334.244958849
334.257567629
334.268509571
334.278135465
334.286726484
334.294556316
334.301372235
334.306892109
334.311423114
334.315107745
334.31790389
334.319913437
334.321321646
334.32226864
334.322858199
334.323205295
334.323377869
267.037038032
267.129878375
267.317305633
267.60019806
267.976596717
268.444233515
269.00036988
269.64186938
270.365265664
271.166831335
272.042643589
272.988644701
274.000695605
275.074621924
276.206252002
277.391447401
278.626126218
279.906280256
281.227986666
282.587415222
283.980831755
285.40459879
286.855173674
288.329105039
289.823027641
291.333656259
292.857778497
294.392247069
295.933971322
297.479908523
299.027054627
300.572435229
302.113096426
303.646096338
305.168497215
306.677359105
308.169735208
309.642669976
311.0932002
312.51836015
313.915190851
315.280754218
316.612151473
317.906545673
319.161186585
320.373436304
321.54079263
322.660907472
323.731597741
324.750847124
325.716801192
326.627760634
327.482185824
328.278729166
329.016315971
329.69428302
330.312554978
330.871784357
331.373215412
331.818808541
332.210715556
332.551812982
332.845170298
333.094474389
333.30462729
333.481323656
333.630131979
333.755274717
333.859589365
333.945452425
334.015283701
334.071471316
334.116138188
334.15112306
334.178326222
334.199964022
334.218018797
334.233624474
334.247186926
334.258806876
334.26876623
334.277526584
334.285368857
334.292506984
334.299126995
334.304870689
334.309679372
334.31372473
334.316993609
334.319444942
334.321324669
334.322680282
334.32359499
334.32422993
334.324604905
334.324794243
266.487264068
266.583074869
266.77644369
267.068177489
267.456113835
267.93773942
268.510034634
269.169560373
269.912539651
270.734938754
271.632543207
272.601026088
273.636007052
274.733101369
275.887959056
277.096294755
278.353909353
279.656704573
281.000691729
282.381995846
283.796856135
285.241623729
286.712757328
288.206817323
289.720458747
291.250423359
292.793531014
294.346670455
295.906789573
297.470885237
299.035992683
300.599174758
302.157511069
303.708087377
305.247985567
306.774274869
308.284004935
309.774201622
311.241866361
312.683980069
314.097512417
315.479437088
316.826753125
318.136511839
319.405847656
320.632010321
321.812394272
322.94456085
324.02624741
325.055361028
326.029954564
326.948193659
327.808328674
328.608704656
329.347849571
330.024687517
330.638859731
331.191089468
331.682631674
332.115981469
332.49300618
332.817116113
333.091014817
333.318151353
333.504503046
333.657730611
333.785524531
333.892493521
333.980483667
334.051106059
334.106695959
334.149826358
334.1825719
334.206368919
334.22291919
334.235187056
334.246003933
334.256393302
334.266054386
334.274292569
334.281187274
334.287473968
334.293315219
334.298811243
334.304067629
334.308722233
334.31278746
334.316271448
334.319121078
334.321384057
334.323174915
334.324503854
334.325414681
334.326083723
334.326485449
334.326686149
265.837456421
265.936893851
266.137514448
266.440028156
266.842009634
267.340629771
267.932509328
268.613824904
269.38040849
270.22784455
271.151558882
272.146896467
273.209186594
274.33379493
275.516163077
276.751836913
278.036485286
279.365910872
280.736054826
282.142996795
283.5829515
285.052262949
286.547396991
288.064932792
289.601553526
291.15403657
292.719243206
294.294107949
295.875627379
297.460848529
299.046856654
300.630762693
302.209690285
303.780762739
305.341090209
306.887757893
308.417815911
309.928272008
311.41608816
312.878182582
314.311438286
315.71271952
317.078896528
318.40687852
319.693653202
320.936329293
322.13217701
323.278657938
324.373437128
325.414366455
326.399437084
327.326700891
328.194182304
328.999822948
329.741547532
330.417565222
331.026977958
331.570881675
332.050266163
332.469254047
332.828230389
333.132510318
333.383184888
333.582281489
333.737465608
333.85999933
333.962271654
334.048887693
334.118738146
334.171800911
334.210652962
334.238634606
334.257867896
334.268693601
334.271879543
334.272161812
334.274637494
334.279944357
334.286225541
334.291034531
334.294286616
334.297880513
334.301608027
334.305293182
334.30910687
334.312675482
334.316007325
334.318994161
334.321563287
334.323738031
334.325457821
334.326806167
334.327780204
334.328436545
334.328877206
334.329087264
265.083841041
265.18765167
265.39701006
265.712494085
266.131341025
266.650317688
267.265588171
267.972845349
268.767434094
269.644468677
270.598937626
271.625792726
272.720020724
273.876697864
275.091028703
276.358371304
277.67425132
279.034367423
280.434590384
281.87095768
283.339665206
284.837057179
286.35961508
287.90394609
289.466771356
291.044914127
292.635287835
294.234883908
295.840759269
297.450023242
299.059823718
300.667332636
302.269730682
303.864191333
305.4478647
307.017861831
308.57124043
310.104993207
311.616040497
313.101228974
314.557338519
315.98109919
317.369219797
318.718428651
320.025525063
321.287438128
322.501284836
323.664417543
324.774445056
325.829211968
326.826721302
327.764991513
328.641860045
329.454782866
330.200768767
330.876733057
331.480526101
332.014772924
332.478679009
332.881883909
333.218543911
333.501616574
333.726245242
333.889851842
334.003037373
334.083531246
334.1555734
334.221702593
334.272965593
334.306116493
334.325297034
334.336181719
334.341339051
334.338167064
334.323836719
334.307577413
334.300790426
334.302520447
334.307456135
334.309071536
334.307313506
334.308169306
334.309904904
334.311580917
334.314006544
334.316499817
334.319212189
334.321832989
334.324281001
334.326420279
334.328196357
334.329588844
334.330635036
334.331304177
334.331796746
334.332015285
264.221868257
264.330914896
264.550723264
264.881691772
265.320624434
265.863771735
266.506719194
267.244553234
268.072015334
268.983645333
269.973905712
271.037283333
272.168367562
273.361906018
274.612840532
275.916326815
277.267741449
278.662679687
280.096946994
281.566546781
283.06766604
284.596660189
286.15003783
287.724445912
289.316655379
290.923547349
292.542099571
294.169372972
295.802497906
297.438659803
299.075083739
300.709017988
302.337716123
303.958417819
305.568328628
307.164599516
308.74430708
310.304436056
311.841866011
313.353364878
314.835592145
316.285115033
317.698440493
319.072065064
320.402542606
321.686566094
322.921055179
324.103234315
325.230679295
326.301306226
327.313268848
328.264738395
329.153538849
329.976657181
330.729784096
331.407407744
332.003870336
332.527703871
332.969611707
333.358961088
333.664005668
333.928831153
334.126840945
334.24498617
334.299761008
334.320571627
334.367194276
334.424164262
334.460949094
334.469024667
334.46029204
334.44904918
334.440081935
334.421650751
334.378873234
334.335457124
334.319345278
334.322144499
334.33119112
334.329788942
334.318634629
334.317470569
334.318046443
334.317203145
334.318541652
334.319921735
334.32223844
334.324640441
334.327141451
334.329428357
334.331381081
334.332910793
334.33400387
334.334734663
334.335257883
334.335494991
263.24609308
263.361388426
263.593651213
263.943034369
264.405783732
264.977488214
265.65299961
266.426644529
267.292419173
268.244165304
269.275717806
270.381020228
271.554208335
272.789664483
274.082047439
275.426302907
276.81766006
278.251618709
279.723930985
281.230580332
282.767759884
284.331851394
285.919405432
287.527123041
289.151838864
290.790505443
292.440178398
294.098001949
295.761194328
297.427032434
299.092835126
300.755944889
302.413707347
304.063448394
305.702449324
307.327920463
308.936974458
310.526600841
312.093644377
313.634790413
315.146561382
316.625329312
318.067349482
319.468819808
320.825968458
322.135167818
323.393066299
324.596718286
325.743684802
326.832058442
327.860369181
328.827295808
329.731102593
330.568669981
331.334093571
332.017412125
332.601659776
333.118008342
333.519480409
333.911322808
334.161824228
334.462615071
334.65793985
334.71382945
334.665853148
334.511145139
334.396946937
334.398596215
334.438688233
334.470758907
334.489974583
334.50529869
334.51682033
334.504545491
334.432106516
334.333893248
334.313410513
334.333202768
334.363606961
334.357916508
334.323504842
334.324767873
334.326877214
334.321174001
334.322546856
334.322412792
334.324858702
334.327232328
334.330160393
334.332856699
334.335070081
334.336766689
334.337971034
334.338765366
334.339286942
334.339542791
262.150020548
262.272772673
262.519873013
262.891137714
263.382088403
263.987462126
264.70117693
265.516606192
266.426826527
267.424834734
268.503722524
269.656806059
270.877712241
272.160427374
273.499315627
274.889115306
276.324920262
277.802152681
279.316531951
280.864042977
282.440905959
284.043548771
285.668582281
287.312778583
288.973051759
290.646440727
292.330093522
294.021252394
295.717238881
297.415438088
299.113281118
300.808225261
302.497730938
304.179235038
305.850120705
307.507684045
309.149098672
310.771379975
312.371351753
313.945619378
315.490554748
317.002300257
318.47679974
319.909865404
321.297287494
322.634990114
323.919225156
325.146786358
326.315201116
327.42284946
328.468937009
329.453232097
330.375392401
331.233464413
332.020784715
332.720667327
333.275060366
333.806898002
334.119473523
334.648860878
334.653810771
334.519673281
334.571122696
334.632045455
334.618741655
334.560498213
334.501464465
334.475126697
334.475559354
334.480251498
334.481578447
334.479644505
334.471191145
334.44976975
334.416491001
334.392656799
334.397598877
334.429354861
334.463589973
334.424774719
334.29416483
334.323634606
334.339461292
334.320564199
334.326651118
334.322975176
334.327038836
334.329354844
334.333353124
334.336799198
334.33940376
334.341248085
334.342540743
334.343388547
334.343867269
334.34411746
260.925904798
261.057577746
261.322394095
261.719703942
262.244081546
262.889159144
263.647660528
264.511759859
265.473399213
266.524556245
267.657449591
268.864680675
270.139317504
271.474930347
272.865591148
274.305848219
275.790686435
277.315480835
278.875949392
280.468108462
282.08823289
283.732821348
285.398566865
287.082331898
288.781127272
290.4920941
292.212487925
293.939664081
295.671063339
297.404196586
299.136627257
300.865950582
302.589768428
304.305658745
306.011139655
307.703628096
309.380393895
311.038510819
312.674807565
314.285823161
315.867773581
317.416538944
318.92768367
320.396524027
321.818258622
323.188172427
324.501915978
325.755838682
326.947331989
328.075106909
329.139344823
330.141649444
331.084655847
331.970575327
332.79770081
333.551188235
334.023155498
334.74996098
334.563749687
334.566493465
334.644685635
334.625870123
334.613719018
334.621713197
334.598491329
334.55343295
334.510147687
334.485599636
334.47716475
334.473778849
334.470291404
334.464059779
334.452979502
334.435778761
334.415521666
334.402037038
334.401982573
334.412252896
334.417741541
334.401929296
334.402492256
334.431554575
334.397514407
334.296757656
334.332163694
334.318341003
334.329422501
334.330297905
334.336827179
334.341527394
334.344565225
334.346490194
334.347737293
334.348565334
334.348951078
334.349176204
259.564485704
259.706883374
259.992947311
260.421378214
260.985497609
261.677492871
262.488550703
263.409331332
264.430376803
265.542440509
266.736725156
268.005031809
269.339831677
270.734277448
272.18217221
273.677912621
275.216419875
276.793068454
278.403619073
280.04415935
281.711053425
283.400900392
285.110500483
286.83682778
288.577008063
290.328300723
292.088083607
293.853839754
295.623144692
297.393652811
299.1630809
300.929187554
302.689746549
304.442512827
306.185180632
307.915333375
309.630385416
311.327517066
313.003605164
314.655154024
316.278234123
317.868440561
319.420887929
320.930264576
322.39097326
323.797385477
325.14422489
326.427068373
327.642905724
328.790648871
329.87155288
330.889626235
331.852318596
332.772620903
333.684847174
334.704315921
334.621961031
334.637658747
334.689179272
334.645483994
334.649075002
334.630018834
334.611484395
334.599085076
334.571960599
334.533560624
334.497418294
334.473230947
334.459870973
334.452911991
334.447982347
334.441179317
334.431550846
334.419304427
334.40686888
334.39934242
334.39931707
334.403644584
334.405186302
334.398801222
334.397960026
334.402409349
334.398411103
334.413113718
334.404438479
334.293780569
334.333600084
334.327281948
334.341192186
334.347808232
334.350923938
334.352584376
334.353611544
334.354243416
334.354508345
334.354673925
258.05464037
258.210022497
258.521737923
258.987572346
259.599171435
260.346814548
261.219696346
262.206558511
263.296215829
264.477959015
265.741823662
267.078735566
268.480554461
269.940043404
271.450790938
273.007109205
274.603925771
276.236680931
277.901237261
279.593804029
281.310876466
283.049188117
284.805674012
286.577442198
288.361751752
290.155995687
291.9576877
293.764451506
295.57401138
297.384181843
299.192854096
300.997977006
302.797530318
304.589487856
306.371770102
308.142184839
309.898355512
311.637637395
313.357023112
315.053041185
316.721655017
318.358175458
319.957208146
321.512668067
323.017905716
324.465998262
325.850252906
327.16493178
328.40612022
329.572496089
330.665902153
331.691678384
332.659564295
333.589417955
334.562739016
334.680414073
334.728609316
334.690729149
334.68595102
334.652818718
334.633228504
334.606889236
334.580965965
334.556555949
334.526009088
334.491120861
334.459123678
334.435176615
334.420687142
334.41337329
334.408335468
334.403027928
334.396893195
334.390362388
334.385073923
334.383452076
334.386160943
334.390918722
334.394013734
334.393038114
334.392627955
334.394300976
334.392805396
334.394934427
334.387149765
334.39797343
334.395725684
334.308335588
334.348194655
334.357287555
334.358970754
334.359578829
334.360071486
334.360355886
334.360477964
334.360525136
256.382916014
256.554163794
256.897114081
257.408249183
258.076942444
258.890927424
259.83679809
260.900856294
262.069788636
263.331152402
264.673666686
266.087333255
267.563425921
269.094391638
270.67370293
272.295693401
273.955398384
275.648413955
277.370780115
279.118888876
280.889414613
282.679262656
284.485531645
286.30548593
288.136535171
289.976219544
291.82219951
293.67224934
295.52425277
297.376198406
299.226171361
301.072338082
302.912921082
304.746160747
306.570263174
308.383332134
310.183283604
311.96774156
313.733914339
315.478453089
317.19729745
318.885520437
320.53719596
322.145329913
323.701921655
325.198250286
326.625497276
327.975779196
329.243523655
330.42657401
331.52671328
332.550048821
333.511868325
334.464698825
334.608875149
334.692339052
334.707561549
334.683040605
334.658425326
334.623173045
334.589720999
334.55399663
334.51901343
334.485908926
334.452296203
334.419263293
334.390503575
334.368817234
334.356077704
334.350427569
334.347641988
334.346065195
334.345230666
334.345333773
334.347199417
334.351762998
334.358866461
334.366915775
334.373844655
334.37856036
334.382768066
334.386934165
334.388324991
334.389102118
334.387234716
334.39094816
334.388821849
334.392227294
334.38598461
334.375566398
334.368998651
334.367084566
334.366934573
334.36677896
334.366667276
334.366575521
254.532895333
254.723750093
255.105138867
255.671660481
256.409563115
257.303145936
258.335583158
259.490065429
260.75066597
262.102913085
263.534081394
265.033251252
266.591202102
268.2002064
269.853781013
271.546437828
273.273459843
275.030715559
276.814514837
278.621502815
280.448585307
282.29287776
284.151670614
286.022405225
287.902656891
289.790123343
291.682618638
293.578072366
295.474532993
297.370172043
299.26328444
301.152280078
303.035662542
304.911991276
306.77982634
308.637653132
310.483784464
312.316236244
314.132572963
315.929720254
317.703744311
319.449604853
321.16090004
322.829648082
324.446191592
325.999379027
327.477253656
328.868509463
330.164852192
331.362554327
332.463545435
333.481175195
334.469976032
334.586551337
334.638551077
334.674538135
334.672341987
334.642773852
334.603088252
334.556322989
334.509478337
334.463589439
334.42056555
334.381558087
334.346127113
334.314949752
334.289760945
334.272579396
334.264228825
334.262181133
334.263756934
334.267804044
334.273768831
334.281500191
334.291168717
334.302890445
334.316159531
334.329785294
334.342465511
334.353523006
334.363424961
334.372132395
334.378592949
334.383585898
334.38642921
334.388961066
334.390575481
334.395103567
334.409801434
334.405467237
334.375716395
334.372820251
334.373755174
334.373258788
334.372848999
334.372627675
252.484319883
252.699737482
253.129030391
253.764033489
254.586629547
255.57643319
256.712091935
257.972824629
259.339516387
260.795366358
262.326133155
263.920070051
265.567657573
267.261234467
268.994606342
270.762684852
272.561185612
274.386394352
276.234998087
278.103971215
279.990503358
281.891955885
283.805835763
285.729778713
287.661537221
289.598972778
291.540054053
293.482863273
295.42561025
297.366649965
299.304496388
301.237824994
303.165458273
305.086330515
306.999431489
308.903726832
310.798051143
312.680967189
314.550582951
316.404317437
318.238606568
320.048542335
321.827448663
323.566421931
325.253925592
326.875647943
328.41504594
329.855263229
331.183519002
332.394009199
333.495450974
334.5447807
334.635300982
334.644129285
334.649501558
334.644699408
334.614928425
334.565732444
334.50796595
334.447046922
334.388047687
334.333225649
334.284175201
334.241864833
334.206438463
334.178269657
334.158056738
334.147091275
334.144727808
334.148116072
334.155876566
334.167125734
334.181164841
334.197531738
334.215932969
334.236010141
334.25707758
334.278138314
334.298204878
334.316661066
334.333422108
334.348285401
334.360802039
334.371209611
334.379283845
334.385726189
334.390582404
334.394522781
334.4018372
334.403173166
334.39348332
334.375095979
334.38123617
334.379787747
334.378815156
334.378490407
250.211857373
250.458544563
250.948426436
251.669205669
252.596568833
253.703671597
254.963137763
256.349122699
257.838667577
259.412380147
261.05454801
262.752846033
264.497810082
266.28222657
268.10054531
269.948377913
271.822107057
273.718606392
275.635056509
277.568835679
279.517463011
281.478573454
283.449908255
285.42930964
287.414714834
289.404150558
291.395733903
293.387686432
295.378363064
297.36628965
299.350197894
301.329044181
303.302005047
305.26844642
307.227868184
309.179824303
311.12381347
313.059129921
314.98466072
316.898613376
318.7981527
320.678920534
322.53440609
324.355147137
326.127789814
327.834203703
329.451224937
330.952380895
332.318103835
333.547098279
334.697432269
334.759616842
334.713935217
334.670604061
334.631320998
334.582404275
334.519049903
334.445728575
334.369406896
334.2948625
334.225842597
334.164468034
334.111977575
334.069020487
334.035739808
334.012247092
333.998718749
333.995067021
333.999475594
334.009812017
334.025220126
334.044882868
334.067979222
334.093816004
334.121787785
334.151246644
334.181387113
334.211277833
334.240037249
334.267014625
334.291850132
334.31422082
334.333795137
334.350559287
334.364422037
334.375654508
334.384193199
334.390006479
334.394271767
334.394771714
334.390005898
334.386982892
334.396594496
334.386936332
334.384231392
334.383996773
247.683331304
247.970584634
248.538416179
249.368221757
250.426747055
251.678156547
253.087033464
254.621112165
256.25288974
257.960239646
259.726239275
261.538483683
263.3881544
265.269060858
267.176793715
269.108055237
271.060177926
273.03081143
275.017743393
277.018816763
279.031908236
281.054938061
283.085888017
285.122812702
287.163838575
289.207155649
291.251015083
293.293750043
295.33382486
297.369903968
299.40091919
301.426112927
303.445046327
305.457572496
307.463782229
309.463929072
311.458327554
313.447209099
315.43051627
317.407612744
319.37687795
321.335134105
323.27682473
325.192822103
327.068717658
328.882514905
330.60168197
332.182363483
333.603431032
334.921828949
334.964898116
334.853682941
334.75026006
334.660368025
334.570702866
334.477216016
334.380154119
334.282808104
334.189506384
334.103632128
334.027624036
333.962844654
333.909923321
333.869033947
333.840056923
333.822864603
333.817147055
333.821426715
333.833210545
333.851394152
333.875296168
333.904043414
333.936719145
333.972472836
334.010496938
334.04996229
334.089972845
334.129595156
334.167956202
334.20433915
334.238214097
334.269142005
334.296755932
334.32087448
334.341353442
334.358215381
334.371395311
334.380831472
334.386858103
334.388924427
334.387185171
334.383895989
334.378977263
334.387301265
334.387049716
334.38893734
244.857117724
245.198177002
245.868271474
246.838937753
248.06381504
249.494458998
251.084726171
252.79429953
254.590479398
256.448527152
258.350946674
260.286144111
262.246879101
264.228818187
266.229360118
268.246782733
270.279687912
272.326687537
274.386265815
276.456757593
278.536391815
280.623358848
282.715870804
284.812194744
286.910652369
289.009596518
291.107390771
293.202432251
295.293229414
297.378522162
299.457401176
301.52938666
303.594450062
305.652984935
307.705749028
309.75379999
311.798415881
313.840975515
315.882773029
317.92474376
319.967069392
322.008596194
324.045935955
326.072006041
328.073544473
330.026602439
331.887585408
333.588162742
335.17455582
335.23093589
335.055537672
334.888227087
334.741081646
334.598670162
334.459420177
334.325361793
334.198230335
334.080278891
333.97389468
333.88078778
333.801910287
333.737523369
333.687442431
333.651267524
333.628567001
333.619127007
333.621550571
333.633371637
333.652744054
333.679079162
333.711646073
333.749502924
333.791680264
333.837238229
333.885252953
333.934789079
333.98488559
334.034579646
334.082964076
334.12924345
334.172757351
334.212949929
334.249364477
334.281681931
334.309662265
334.333180267
334.352141936
334.366505966
334.376436558
334.381846512
334.382982104
334.379884148
334.370238673
334.367199761
334.386785809
334.395118659
241.678208818
242.0925348
242.899810517
244.055746377
245.494501664
247.149891921
248.961551508
250.879272054
252.86474162
254.891246476
256.941981118
259.007654277
261.084018224
263.169761306
265.264947279
267.369995151
269.485102419
271.609992518
273.743877667
275.88554917
278.03352675
280.186214389
282.342022444
284.499428828
286.656969237
288.813173208
290.966491768
293.115310744
295.258069645
297.393471881
299.520691098
301.639502479
303.750313276
305.854111947
307.952388792
310.047089366
312.140579594
314.235575743
316.335004412
318.441780711
320.558496802
322.686969957
324.827528674
326.977760892
329.129932438
331.266425535
333.353023439
335.346805668
335.486034805
335.277906006
335.06375658
334.866527144
334.670051034
334.477133767
334.29481247
334.127362939
333.976989217
333.844918174
333.731660643
333.637031381
333.560328895
333.500542937
333.456580297
333.427448701
333.412445523
333.411352283
333.421557944
333.440164694
333.466763349
333.500829033
333.541474722
333.587728866
333.638622565
333.693192487
333.750472377
333.809482228
333.869225683
333.928708601
333.986976478
334.043152849
334.096462423