/*--------------------------------*- C++ -*----------------------------------*\
| =========                 |                                                 |
| \\      /  F ield         | OpenFOAM: The Open Source CFD Toolbox           |
|  \\    /   O peration     | Version:  v1906                                 |
|   \\  /    A nd           | Web:      www.OpenFOAM.com                      |
|    \\/     M anipulation  |                                                 |
\*---------------------------------------------------------------------------*/
FoamFile
{
    version     2.0;
    format      ascii;
    class       volScalarField;
    location    "656";
    object      p;
}
// * * * * * * * * * * * * * * * * * * * * * * * * * * * * * * * * * * * * * //

dimensions      [0 2 -2 0 0 0 0];


internalField   nonuniform List<scalar> 
9216
(
268.159905232
268.245176575
268.418244965
268.679472112
269.027423639
269.460372236
269.976174617
270.572357607
271.246118283
271.994415989
272.813963249
273.701326279
274.652902604
275.665026076
276.733927994
277.85584401
279.026957425
280.243507144
281.501713562
282.797887868
284.128341986
285.489500157
286.877794994
288.289782262
289.722025235
291.171213398
292.634037404
294.107311977
295.587843714
297.072558209
298.558363032
300.042278665
301.521299478
302.992527833
304.453035613
305.900000667
307.330572061
308.742007455
310.131545075
311.496539965
312.834345316
314.142444727
315.418344897
316.659700096
317.864217354
319.029769105
320.154311496
321.235982126
322.273032476
323.263910491
324.207209808
325.101740906
325.946501607
326.740743136
327.483964677
328.175977093
328.816914761
329.407288311
329.947993173
330.440333209
330.886002699
331.287066607
331.645905757
331.96516111
332.247652547
332.496298216
332.7140318
332.903740508
333.06822233
333.210158568
333.332095832
333.436429858
333.525395004
333.601052711
333.665283041
333.719773969
333.766016602
333.805308022
333.838764031
333.867338698
333.891844169
333.912970781
333.931304045
333.947343053
333.961576284
333.973861222
333.983962309
333.992029435
333.998212535
334.0027749
334.005998795
334.008206878
334.009682185
334.010576377
334.011025988
334.011182939
268.074698914
268.160396255
268.334101616
268.596545039
268.946151014
269.38113142
269.899304558
270.498148522
271.174825791
271.926245679
272.749089104
273.639873964
274.594972743
275.610675845
276.683198372
277.808738854
278.983473844
280.203611444
281.465374061
282.765047431
284.098952921
285.463493345
286.855116604
288.270359693
289.70580551
291.158126262
292.624035153
294.100330108
295.583841931
297.071479016
298.560173598
300.04692799
301.52876034
303.002752868
304.465999134
305.915654468
307.348886376
308.762927338
310.155029985
311.522521813
312.862766247
314.173218053
315.451390594
316.694909771
317.90148684
319.068968132
320.195312366
321.278633897
322.317184251
323.309389003
324.25383581
325.149308984
325.99478966
326.789495237
327.532897237
328.224769173
328.86521789
329.454729068
329.994190704
330.48491265
330.928617384
331.327413602
331.683741947
332.00031457
332.280030496
332.52588188
332.740862175
332.927899745
333.089819626
333.229322469
333.348969386
333.451168168
333.538162683
333.612023777
333.674639654
333.727703034
333.772701879
333.810921772
333.843461084
333.871254649
333.895096294
333.915658494
333.933507916
333.949116995
333.962889534
333.974898417
333.984842636
333.992672792
333.998736527
334.003232312
334.006356253
334.008491116
334.009938019
334.01078357
334.011188491
334.011351988
267.900840643
267.987631214
268.16308801
268.4281364
268.781158608
269.220304341
269.743319864
270.347598995
271.030222383
271.788010527
272.617564898
273.515320516
274.477581525
275.500568206
276.580443226
277.713350643
278.895431613
280.122855142
281.391823864
282.698597638
284.039490935
285.410890965
286.809248527
288.23109233
289.673015046
291.131685281
292.603830328
294.086246942
295.575782053
297.069343308
298.563878947
300.056388952
301.543905247
303.023504334
304.492289191
305.947404238
307.386020233
308.80535238
310.202649369
311.575214977
312.920401835
314.23563606
315.518415371
316.766335121
317.9770892
319.148494869
320.278494196
321.365175122
322.406771977
323.40168244
324.348468998
325.245876404
326.092841434
326.888520942
327.632320171
328.323938948
328.963418271
329.551192443
330.08812738
330.575545519
331.015225652
331.409369793
331.760540657
332.071602099
332.345622813
332.585755268
332.795116919
332.976716098
333.133427345
333.267986635
333.382983079
333.48084736
333.563841988
333.634056659
333.693399108
333.74357468
333.786066064
333.822133126
333.852835215
333.879065899
333.901581855
333.921022448
333.937925504
333.952739007
333.965856478
333.977321389
333.98662525
333.993963596
333.999791947
334.004099503
334.007029767
334.009074804
334.010422197
334.011197815
334.011608383
334.011811787
267.636174416
267.724372447
267.902536495
268.171611628
268.529903775
268.975465364
269.50592843
270.118559593
270.810308586
271.577862251
272.417694413
273.326117114
274.299324099
275.333433976
276.424523523
277.568660573
278.761926313
280.00043817
281.280362216
282.597927691
283.949431509
285.331246498
286.739820077
288.171678162
289.623419816
291.091718374
292.573313492
294.065010693
295.563671943
297.066214587
298.569601444
300.070840061
301.566973383
303.055080306
304.53226813
305.995675554
307.44246823
308.869845375
310.275039604
311.655327977
313.008036714
314.3305566
315.620352003
316.874979089
318.092096966
319.269485581
320.405055549
321.496862
322.543110058
323.542163003
324.492544373
325.392945361
326.242233325
327.039473358
327.783961192
328.475275646
329.113342809
329.698507465
330.231590643
330.713928779
331.14738927
331.534325573
331.877487758
332.179985746
332.445175361
332.676480736
332.877216216
333.050498404
333.199260947
333.326283758
333.434195923
333.525460018
333.602363579
333.667024398
333.721387825
333.767189126
333.805906088
333.838752333
333.866716485
333.890622193
333.911168778
333.92894638
333.944451736
333.958100872
333.970278906
333.980830135
333.989285168
333.996047417
334.001343522
334.005292808
334.008097383
334.01000406
334.011238097
334.011982872
334.012402412
334.012608882
267.27938398
267.369450101
267.551321553
267.825915194
268.191423776
268.645760875
269.186397003
269.810421854
270.51460164
271.295438979
272.149230117
273.072119632
274.060149037
275.109300654
276.215533881
277.374816463
278.583148246
279.836580895
281.131231056
282.463290926
283.829033434
285.224816278
286.647081594
288.092355652
289.557244934
291.038433128
292.532675004
294.036791841
295.547664102
297.062226187
298.577458736
300.09038358
301.598056658
303.097564152
304.586017221
306.060550659
307.518320928
308.956508857
310.372322454
311.763004916
313.125843129
314.458181297
315.757434623
317.02110694
318.246806866
319.43226542
320.575349725
321.674074922
322.726610018
323.731279921
324.686562406
325.591084642
326.443623325
327.243117596
327.988702962
328.679773627
329.316073156
329.897799523
330.425692561
330.901091327
331.325994043
331.702981937
332.035046328
332.325657144
332.578624107
332.797807653
332.986801656
333.148829193
333.286861237
333.403719987
333.502086352
333.584463201
333.653160883
333.710330402
333.757987016
333.797935954
333.83165726
333.860283604
333.884679205
333.905557534
333.923541794
333.939157305
333.952846726
333.964988241
333.975929128
333.985265701
333.992692502
333.998694132
334.003489668
334.007065259
334.009587615
334.011332313
334.012498536
334.013217274
334.01363751
334.013846981
266.828525847
266.920984841
267.107636924
267.389348727
267.764157876
268.229790477
268.783500692
269.42214345
270.142242338
270.940058591
271.811656696
272.752965015
273.759829336
274.828059076
275.953465288
277.131891383
278.35923644
279.631472649
280.944656988
282.294938834
283.678563494
285.091873272
286.531305774
287.99339094
289.474746188
290.972071072
292.482140584
294.001798457
295.527949464
297.05755208
298.587610414
300.115166975
301.637295134
303.151092924
304.653677256
306.142180296
307.613747178
309.06553688
310.494725395
311.898512968
313.274134233
314.618872648
315.930077406
317.20518351
318.441732237
319.637391747
320.789974286
321.897448882
322.957946298
323.969755445
324.931310724
325.841173885
326.698016361
327.500617014
328.247888229
328.938952795
329.573270157
330.150806715
330.672162032
331.138636547
331.552427616
331.916470712
332.233991938
332.508955459
332.745894883
332.949388146
333.12340465
333.271188101
333.395662381
333.499678489
333.585997589
333.657173283
333.715515326
333.763194195
333.80235594
333.834973116
333.862550804
333.886073296
333.90617703
333.923404832
333.938298858
333.951306708
333.962802108
333.973122552
333.982475311
333.99036347
333.996803315
334.002083106
334.006241299
334.009274868
334.011553422
334.013162435
334.014238439
334.014986341
334.015424208
334.015646196
266.281110493
266.376547994
266.569158025
266.859735949
267.246115835
267.725778396
268.295696594
268.95242244
269.692168619
270.5108897
271.404358106
272.368232511
273.398116867
274.489609547
275.638342503
276.840011265
278.090396618
279.385379348
280.720949086
282.093208637
283.498374597
284.932775373
286.392847051
287.875127913
289.376251746
290.892940493
292.421996174
293.960292505
295.504766026
297.05240713
298.600250782
300.145367484
301.684854328
303.21582673
304.735411054
306.24073886
307.728943181
309.197157705
310.642519348
312.062175071
313.453293134
314.813079268
316.138797076
317.427792332
318.67751898
319.885565317
321.049676484
322.16777054
323.237943508
324.258460042
325.227728466
326.144259378
327.00662032
327.813398652
328.563209692
329.254778465
329.887124625
330.459853725
330.97334431
331.428724975
331.828533801
332.176349959
332.475388475
332.730259647
332.946700337
333.130572648
333.286313783
333.416883581
333.524941186
333.613366194
333.685087345
333.742737657
333.788546381
333.824620949
333.853358528
333.877140593
333.897557956
333.915299174
333.930554675
333.943602196
333.954955691
333.96497783
333.973952115
333.982180307
333.989719465
333.996129424
334.001501296
334.005915791
334.009381944
334.01203839
334.014097007
334.015593471
334.016599929
334.017350896
334.017801351
334.018027685
265.63403778
265.733111462
265.932992532
266.234379567
266.634843548
267.131549237
267.721109766
268.399692588
269.163119067
270.006961566
270.926632353
271.91746146
272.974761862
274.093881577
275.270243278
276.499372687
277.776917342
279.098657535
280.460511061
281.858533339
283.288914143
284.747971983
286.232146864
287.737992026
289.262164966
290.801418038
292.352588687
293.912589436
295.478397571
297.047044596
298.615605383
300.181187307
301.740919361
303.291941623
304.831395538
306.356415671
307.864123634
309.35162515
310.816011174
312.254364103
313.663769774
315.041335892
316.384216613
317.689642751
318.954955491
320.177641186
321.355362662
322.485982391
323.567570848
324.59839372
325.57687087
326.501506817
327.370793181
328.183116898
328.936706974
329.629712146
330.260449799
330.827975429
331.332384885
331.774197516
332.156644269
332.484782803
332.760754636
332.989962073
333.180276418
333.340140358
333.474474917
333.585063897
333.673832986
333.743786749
333.798292038
333.840146662
333.871274256
333.893421248
333.90946414
333.922823126
333.935318388
333.946996546
333.957109242
333.965515943
333.972958133
333.979699353
333.985875272
333.99178894
333.997361415
334.00227635
334.006531212
334.010118549
334.013019668
334.015381581
334.017192528
334.01860927
334.01962676
334.020316163
334.020792153
334.021020318
264.883523765
264.986981636
265.195622813
265.510013898
265.927388385
266.444506773
267.057525312
267.762127467
268.553647147
269.427186137
270.377718951
271.400181877
272.489544671
273.640865149
274.849328002
276.110270042
277.419194312
278.771775574
280.163859423
281.591456986
283.050736688
284.53801428
286.04974189
287.582496646
289.132969141
290.697951892
292.27432779
293.859058474
295.44917252
297.041753329
298.633926569
300.222847314
301.805686891
303.379619626
304.941810166
306.489401967
308.019507993
309.529204687
311.015530735
312.475491854
313.906073145
315.304259816
316.667066819
317.991576774
319.274984196
320.514643104
321.708111917
322.853190316
323.947936935
324.99065834
325.979856568
326.914117647
327.791948001
328.61156717
329.370739001
330.066772315
330.696808768
331.259062391
331.753572512
332.178737752
332.539411788
332.844861179
333.092410178
333.288425728
333.444775727
333.57584669
333.686547581
333.775012754
333.841537665
333.889765065
333.924270453
333.948263615
333.962805609
333.968317505
333.968551057
333.969659047
333.974011687
333.980158183
333.985247896
333.988459749
333.991682989
333.994970548
333.998100691
334.001566927
334.00513129
334.008590022
334.011791986
334.014643986
334.0170921
334.019150826
334.020842094
334.022177469
334.023211433
334.02387823
334.024399288
334.024632122
264.025007351
264.133713785
264.352830275
264.682744249
265.12025573
265.661608729
266.302380689
267.037648338
267.862141859
268.770388187
269.756835313
270.815954011
271.942315982
273.130649593
274.375875856
275.673128089
277.017758931
278.405338127
279.831644112
281.292651719
282.784517864
284.303566388
285.846272873
287.409249844
288.989232536
290.583065198
292.187687807
293.800122959
295.41746265
297.036854693
298.655488433
300.270579788
301.879355508
303.479036741
305.066822635
306.639874663
308.195302848
309.730155406
311.241413648
312.725994188
314.180760555
315.602546017
316.988188845
318.334579769
319.63872044
320.897788355
322.109203407
323.270685728
324.380295245
325.436435023
326.437795153
327.383209003
328.271383808
329.100524468
329.867900646
330.569629319
331.200703345
331.757935021
332.243052112
332.647089482
332.979123266
333.261803636
333.474829452
333.626340179
333.735756243
333.833036298
333.920274016
333.985786061
334.02673368
334.049159771
334.060721115
334.065666575
334.062846907
334.048330732
334.027387794
334.013773003
334.011031092
334.013981021
334.014879773
334.011652696
334.010394523
334.010317156
334.01007027
334.011090236
334.012706355
334.014860374
334.017140243
334.019373653
334.021432108
334.023285086
334.024947837
334.026317483
334.027344752
334.028067808
334.028623899
334.02888269
263.053030567
263.167999769
263.399599215
263.747971012
264.209356872
264.77933904
265.452761005
266.223939399
267.086858779
268.035347599
269.063225757
270.164420141
271.333048154
272.563472092
273.85032893
275.188540845
276.57331171
278.00011425
279.464671666
280.962936613
282.491069495
284.045417358
285.622494004
287.218961605
288.831613753
290.457359768
292.093209881
293.736260906
295.383681907
297.032699359
298.680581301
300.32462024
301.962114614
303.590348651
305.206571458
306.807975995
308.39167937
309.954706268
311.493978064
313.006310306
314.488421969
315.936959237
317.348536397
318.719795071
320.047479653
321.328527689
322.560163455
323.739992743
324.866076348
325.936973023
326.951711406
327.909631881
328.810011397
329.651422201
330.430823835
331.142791212
331.777942178
332.330033817
332.811115063
333.1854633
333.473556819
333.742992869
333.914805134
334.003990972
334.044476448
334.11642989
334.196087616
334.243078771
334.250920776
334.236255822
334.21705895
334.201048945
334.1803535
334.136742524
334.081132034
334.048476516
334.042850137
334.049088639
334.047625822
334.033787425
334.027946376
334.025469562
334.021011521
334.019838715
334.01960087
334.020708125
334.022297901
334.02417733
334.026032179
334.027817039
334.029477362
334.030930253
334.03207681
334.032902142
334.033488464
334.033790816
261.961083857
262.083525537
262.32999426
262.700295694
263.189947125
263.793678755
264.505400092
265.318474249
266.225965865
267.220858024
268.296226981
269.445371663
270.661899948
271.939777271
273.273345076
274.657317018
276.086760341
277.55706858
279.06393037
280.603297638
282.171355284
283.76449339
285.379282388
287.012451077
288.66086719
290.321520001
291.99150442
293.668005915
295.348285539
297.029664299
298.709506091
300.385198627
302.05413195
303.713674159
305.361145065
306.993788485
308.608744663
310.203025177
311.773493291
313.316853812
314.829656886
316.308320388
317.749176306
319.148541064
320.502815742
321.808602382
323.062843342
324.262955237
325.406966872
326.493628984
327.522475954
328.493737634
329.407894975
330.264724124
331.061641004
331.791912518
332.43640756
332.97755769
333.476970903
333.80448476
334.025490193
334.373762034
334.498926687
334.476707934
334.314366308
334.174862278
334.174457381
334.219743969
334.252573635
334.26736473
334.276605372
334.284592385
334.276706984
334.219149524
334.10942145
334.051093483
334.060141927
334.090837789
334.089853962
334.051534982
334.042510017
334.04140424
334.029519785
334.027280377
334.025230136
334.02583502
334.027104695
334.0290039
334.030801924
334.032636898
334.034428797
334.036017847
334.037351493
334.038352812
334.038979411
334.039323855
260.741405147
260.872784943
261.137004757
261.533404452
262.056553791
262.700077967
263.456692003
264.318559531
265.277610319
266.325807937
267.455355106
268.658835489
269.929297422
271.260289561
272.645860218
274.080532004
275.55926193
277.077394922
278.630616454
280.214907867
281.826506257
283.461869612
285.117647031
286.790653487
288.477848347
290.176316885
291.883253906
293.595948649
295.311769932
297.028150429
298.742569089
300.452530439
302.15554019
303.849076512
305.530557355
307.197304499
308.846505863
310.47517877
312.080137701
313.657972101
315.205039595
316.717484199
318.191282315
319.622330975
321.006565607
322.340126114
323.619531181
324.841885165
326.005074935
327.108002326
328.150819698
329.135120323
330.063574261
330.938758116
331.760690914
332.525343961
333.194004753
333.704706729
334.387193128
334.584919408
334.286706073
334.308738863
334.40689993
334.412596727
334.355593491
334.288884415
334.257219023
334.256960844
334.260026454
334.257354838
334.251102883
334.23982102
334.217645262
334.181984528
334.148951196
334.142299221
334.167835177
334.205742093
334.18177408
334.043237165
334.042466163
334.061606494
334.031725738
334.033309228
334.028829345
334.030032579
334.031411489
334.033869683
334.035584731
334.037604322
334.039706976
334.041598129
334.043157746
334.044381835
334.045074093
334.045478536
259.384716409
259.526839933
259.812345787
260.239924826
260.802893857
261.493433027
262.302720047
263.22140435
264.240015384
265.349292104
266.540420901
267.805184584
269.136034116
270.526099868
271.96916048
273.459585925
274.992268392
276.562550896
278.166160084
279.799146684
281.457834902
283.138780511
284.838736683
286.554626186
288.283518702
290.02261203
291.769216182
293.520739222
295.274673635
297.028581597
298.780077926
300.526808504
302.266423315
303.996543144
305.714719743
307.41839
309.104825589
310.771080683
312.413942351
314.029889131
315.615068482
317.16529931
318.676121022
320.142882775
321.56090598
322.92567853
324.23311097
325.479783122
326.663227684
327.782267241
328.837552333
329.832433687
330.773038939
331.666979573
332.521895778
333.360071199
334.140516917
334.328032727
334.371463578
334.463297267
334.436099281
334.386653822
334.402381282
334.387889688
334.342963695
334.294855197
334.266231871
334.256088826
334.249848624
334.242236358
334.232500494
334.218367916
334.198398082
334.174032098
334.153842923
334.146827496
334.152970105
334.159405858
334.143754978
334.138082612
334.170717072
334.14861441
334.006848732
334.03584089
334.028491585
334.033101241
334.03501461
334.039102876
334.040216877
334.042603724
334.045281648
334.04765129
334.049563604
334.050990265
334.051819828
334.052293627
257.879875156
258.03500384
258.346203155
258.811249295
259.421783006
260.168076222
261.03931439
262.024228166
263.111619473
264.290764294
265.551681551
266.885278367
268.283393715
269.738767726
271.244963747
272.796266376
274.387573147
276.014291709
277.672249179
279.357616341
281.066846592
282.796627942
284.543845671
286.305553289
288.078949773
289.861361603
291.650228383
293.443090939
295.237580351
297.031405869
298.822339866
300.608196697
302.386803974
304.155964824
305.913410321
307.65674233
309.383367583
311.090425866
312.77471568
314.432627119
316.060088317
317.652549805
319.205010309
320.712127764
322.168395031
323.568421449
324.907241289
326.18064369
327.38544644
328.519871373
329.584321612
330.583914016
331.52953667
332.435934597
333.328626235
334.330918226
334.335081513
334.36831124
334.406139491
334.436049456
334.421131553
334.389572331
334.379853875
334.35691761
334.317922152
334.277950604
334.25006747
334.233761609
334.223000769
334.214143174
334.203999829
334.191177465
334.175666097
334.159210167
334.146525555
334.141721301
334.143080144
334.143784566
334.136175839
334.131868664
334.136123322
334.125823929
334.134405181
334.131018873
334.022893632
334.031737235
334.037121961
334.045991482
334.044158013
334.047433683
334.051214713
334.05429503
334.056605196
334.058253822
334.059299462
334.059812985
256.213407239
256.384424073
256.726903805
257.23731965
257.905039775
258.717790107
259.662155191
260.724425637
261.891274973
263.150245514
264.490039413
265.900639418
267.373298164
268.900439145
270.475509071
272.092813239
273.747356089
275.434700037
277.150848496
278.892153674
280.655246628
282.436985392
284.234416808
286.044748179
287.865326008
289.693620046
291.527211722
293.363785945
295.201124807
297.037100378
298.869663958
300.69682733
302.516633656
304.327115906
306.126241504
307.911842542
309.681532173
311.432607744
313.161946095
314.865895585
316.540183816
318.179851857
319.779260584
321.332179109
322.832019718
324.272188083
325.646540813
326.949769398
328.177578188
329.32667995
330.395008081
331.388002677
332.322466108
333.218841981
334.128030046
334.301126117
334.395311111
334.391183584
334.403039246
334.409263041
334.388720786
334.359202556
334.335139794
334.305304928
334.268562814
334.23286413
334.205307959
334.186250008
334.173994195
334.165575181
334.15715467
334.14789782
334.13816788
334.129361114
334.123934525
334.12338016
334.12600986
334.128016289
334.125844655
334.122917627
334.122648993
334.117121118
334.115898174
334.10706682
334.116547734
334.115850766
334.041148174
334.058294956
334.044677958
334.051556201
334.057714011
334.061759663
334.064457358
334.066294127
334.067499646
334.068044448
254.368872193
254.55952034
254.940487838
255.506364824
256.243394
257.135866669
258.166947403
259.319815439
260.578530768
261.928606582
263.357300372
264.853673246
266.40848314
268.013978639
269.663650263
271.351980979
273.074222165
274.826207871
276.604210467
278.404834336
280.224940894
282.061597129
283.912040315
285.773653197
287.643945947
289.520543406
291.401177298
293.283683455
295.166002624
297.046181427
298.92236921
300.792804648
302.655788286
304.50963846
306.35262851
308.18290439
309.998381098
311.796618016
313.574673228
315.328945981
317.055015848
318.747513125
320.400050232
322.005289517
323.555199799
325.041564609
326.45668444
327.79398036
329.047963364
330.213127345
331.27967429
332.250548405
333.164544175
334.078905722
334.215489823
334.302721983
334.361070722
334.368487635
334.367550653
334.356182622
334.327876509
334.292551697
334.258337107
334.222970651
334.186672487
334.153630373
334.127561209
334.109632987
334.09927104
334.093250194
334.088678149
334.084931091
334.082208327
334.081270646
334.083168203
334.088151796
334.094845323
334.10100695
334.104915716
334.107711184
334.11053935
334.109856677
334.108176463
334.104971773
334.107288966
334.10449313
334.119172327
334.110768434
334.028463263
334.053865935
334.065693657
334.070590398
334.073326372
334.075124314
334.076398798
334.076972314
252.3259865
252.541223744
252.970148546
253.60458745
254.426417377
255.415244786
256.549707342
257.809012338
259.174031606
260.627949139
262.156506378
263.747937226
265.392700503
267.083110768
268.812946877
270.57709105
272.371226724
274.191604549
276.034873442
277.897966408
279.778028089
281.672370802
283.578447826
285.493835688
287.416221134
289.343391899
291.27323311
293.203731318
295.132985733
297.059221956
298.980801442
300.896217611
302.804072951
304.703034103
306.59176307
308.468822996
310.332555637
312.180925581
314.011329176
315.820368402
317.603602108
319.355299252
321.068252574
322.733742946
324.34180412
325.881931803
327.344342842
328.721257145
330.007127108
331.196100983
332.257781969
333.18194284
334.096064057
334.204495584
334.259077837
334.304844886
334.328027008
334.320659621
334.299346325
334.268482867
334.228500726
334.185109414
334.143531232
334.104478335
334.068779183
334.038687558
334.016053289
334.002373692
333.99658089
333.995072302
333.996282482
333.999684085
334.005136816
334.012794728
334.022857205
334.0350045
334.048100611
334.060672804
334.071673994
334.081282482
334.089638275
334.095360151
334.099383981
334.10164353
334.103267478
334.103640496
334.108806985
334.1079083
334.099173019
334.068595393
334.079535327
334.081891573
334.083290712
334.08466275
334.085959394
334.08657672
250.05939081
250.305925976
250.795496999
251.515798559
252.442510809
253.548780877
254.807222459
256.191979307
257.680079359
259.252115345
260.8923578
262.588462267
264.330942821
266.11256149
267.927741006
269.772063147
271.641877952
273.534023564
275.445642077
277.374070084
279.31678156
281.271362477
283.235500656
285.206979698
287.183671856
289.163531123
291.144592097
293.124981702
295.102945029
297.076879054
299.045362206
301.00716605
302.961240357
304.90666927
306.842598114
308.768130766
310.682191547
312.583341535
314.469538226
316.337831098
318.183992075
320.002100187
321.784135203
323.519709839
325.196201972
326.799646033
328.317043522
329.739421811
331.064861986
332.304634002
333.386296277
334.22115016
334.270239711
334.275489136
334.280760718
334.28203013
334.266255596
334.231821541
334.187525484
334.13819946
334.086223089
334.035354186
333.989023604
333.948586954
333.914934451
333.889282879
333.872523082
333.865220846
333.86554355
333.870566319
333.879329875
333.891287839
333.906004244
333.923184296
333.942515883
333.963386537
333.9847852
334.005580374
334.024915951
334.042508484
334.058144661
334.07120995
334.082002838
334.090434152
334.096884982
334.100981569
334.103350969
334.103034292
334.099379802
334.107666082
334.102450666
334.095277812
334.09363987
334.094468771
334.096076654
334.096877546
247.536879392
247.82401126
248.391593712
249.221014613
250.279012466
251.529742616
252.937777919
254.47084113
256.101416366
257.807362411
259.571739937
261.382124899
263.229677109
265.108181498
267.013201383
268.941408839
270.890103371
272.856898786
274.839544034
276.83584037
278.843619653
280.860753768
282.885172193
284.914872525
286.94791858
288.982430547
291.016580671
293.048611514
295.076882423
297.099934817
299.11655403
301.125805005
303.127028919
305.119800747
307.10385293
309.078969919
311.044844303
313.000875143
314.945885593
316.877737329
318.792819853
320.685403202
322.546875508
324.364987949
326.12349299
327.802784608
329.383829046
330.853990789
332.220264537
333.589771003
334.419339583
334.436264258
334.368265189
334.313390457
334.267222072
334.218124906
334.161162892
334.096899486
334.030164495
333.964576196
333.90244071
333.846191459
333.797915954
333.758673877
333.729055674
333.709620661
333.700651697
333.701343633
333.709054352
333.722052876
333.739651438
333.761180277
333.785974247
333.813435235
333.842940343
333.873706182
333.904764655
333.93511896
333.963948846
333.990738313
334.015088193
334.036550834
334.055091693
334.070616456
334.083257982
334.0927374
334.09920171
334.102650545
334.103064329
334.106862245
334.111566732
334.106525575
334.101982774
334.103495486
334.106788571
334.108041129
244.716796681
245.057767693
245.727679811
246.698061554
247.922543594
249.352671631
250.942291481
252.651074709
254.446309197
256.303242358
258.204362004
260.13805567
262.097061478
264.077021425
266.075306662
268.090164489
270.120163407
272.163879179
274.219757225
276.28609092
278.361064957
280.442822492
282.529525125
284.619385653
286.710666856
288.801656731
290.89064594
292.975947961
295.055974867
297.129354927
299.195047061
301.252412865
303.3012267
305.341630201
307.374050008
309.399098471
311.417442318
313.429605084
315.435664911
317.434807158
319.424680099
321.400480047
323.353686601
325.270425895
327.1298741
328.902962998
330.557737107
332.06274977
333.395694758
334.584290403
334.644461827
334.526137285
334.406916204
334.301734022
334.201209932
334.103259554
334.007861693
333.915963144
333.829991194
333.751980585
333.683246648
333.624919139
333.577878813
333.54253628
333.519055667
333.507626064
333.507576556
333.51671432
333.532575788
333.55439166
333.581493599
333.613059472
333.648266577
333.686328537
333.726440229
333.767716117
333.809190981
333.849907186
333.889024791
333.925887187
333.959958984
333.990768891
334.018073347
334.041680921
334.061537628
334.077504758
334.089701585
334.09823868
334.103191053
334.106586579
334.108455444
334.105604687
334.10345277
334.110520677
334.118948249
334.120572247
241.544100492
241.95837449
242.765540659
243.921300289
245.359802059
247.014850168
248.826067885
250.743235889
252.728030848
254.75372629
256.803501768
258.868048177
260.943096642
263.027310923
265.12072686
267.22373243
269.336491284
271.458690403
273.589503157
275.727679668
277.871696225
280.019911047
282.170686363
284.322449353
286.473681997
288.622855945
290.768357868
292.90849904
295.041634138
297.166370897
299.281773573
301.387488954
303.483767224
305.57139599
307.651597874
309.725950537
311.796299454
313.864602664
315.932650373
318.001608536
320.071310453
322.139136968
324.198214584
326.234504025
328.223088378
330.120899291
331.880817383
333.466699483
334.913267943
334.88553881
334.727666789
334.556875225
334.390975051
334.229368386
334.076196902
333.935133094
333.807520576
333.693794497
333.594447555
333.509660823
333.439250679
333.382954943
333.340507782
333.311598213
333.296013818
333.293791907
333.302729418
333.319805986
333.344016546
333.374804306
333.411338201
333.45269648
333.497981047
333.546313614
333.596802115
333.64851281
333.700475966
333.75173518
333.801410358
333.848739584
333.893068128
333.933835045
333.970634382