/*--------------------------------*- C++ -*----------------------------------*\
| =========                 |                                                 |
| \\      /  F ield         | OpenFOAM: The Open Source CFD Toolbox           |
|  \\    /   O peration     | Version:  v1906                                 |
|   \\  /    A nd           | Web:      www.OpenFOAM.com                      |
|    \\/     M anipulation  |                                                 |
\*---------------------------------------------------------------------------*/
FoamFile
{
    version     2.0;
    format      ascii;
    class       volVectorField;
    location    "656";
    object      Ua;
}
// * * * * * * * * * * * * * * * * * * * * * * * * * * * * * * * * * * * * * //

dimensions      [0 1 -1 0 0 0 0];


internalField   nonuniform List<vector> 
9216
(
(-0.00663441750313 0.00663708001142 0)
(-0.00682017521357 0.0206982307967 2.3816954666e-27)
(-0.00680578002589 0.0348383636843 -4.59169768242e-31)
(-0.00675735705642 0.048968833868 0)
(-0.00668957654987 0.0629530243621 0)
(-0.00660409619219 0.0767555113442 0)
(-0.00650219192753 0.0903368575941 0)
(-0.00638505353228 0.10366036584 0)
(-0.006253423541 0.116691830728 0)
(-0.00610847678906 0.129399342673 0)
(-0.00595094841975 0.141753602176 0)
(-0.00578208819345 0.153727730483 0)
(-0.00560260358084 0.165297520474 0)
(-0.00541375411721 0.176441169913 0)
(-0.00521614557623 0.187139422391 0)
(-0.00501096713912 0.197375217515 0)
(-0.00479865010792 0.207133730346 0)
(-0.00458024366306 0.216401960109 0)
(-0.00435595158361 0.225168688825 0)
(-0.00412663798729 0.233424039912 0)
(-0.00389225448111 0.241159388624 0)
(-0.0036534655628 0.248366932602 0)
(-0.0034099810114 0.255039585375 0)
(-0.00316228452078 0.26117059957 0)
(-0.00290988628965 0.266753473761 0)
(-0.00265313514135 0.27178166801 0)
(-0.00239141154697 0.276248540076 0)
(-0.0021249963738 0.280147183764 0)
(-0.00185323009135 0.283470404899 0)
(-0.00157640850125 0.286210701748 0)
(-0.00129393397031 0.288360321697 0)
(-0.00100618263032 0.289911336999 0)
(-0.000712732752465 0.290855716635 0)
(-0.000414165047296 0.291185710003 0)
(-0.00011035296898 0.290893871384 0)
(0.000197861817919 0.289973622395 0)
(0.000510212136965 0.288419262864 0)
(0.000825543200067 0.286226721333 0)
(0.00114312530132 0.283393486697 0)
(0.00146148728297 0.279919509482 0)
(0.00177941920304 0.27580700117 0)
(0.0020951805589 0.271061426154 0)
(0.00240711239639 0.265691137796 0)
(0.0027132821358 0.259708403248 0)
(0.00301163160181 0.253128900731 0)
(0.00330009056821 0.24597274836 0)
(0.00357621411902 0.238263967774 0)
(0.00383776424631 0.230031549778 0)
(0.00408183004196 0.221309045798 0)
(0.00430586674744 0.212135731276 0)
(0.00450635647492 0.202556448706 0)
(0.0046803098425 0.192622833832 0)
(0.00482360111339 0.182393301039 0)
(0.00493297031304 0.171933978361 0)
(0.00500420785749 0.161318322433 0)
(0.00503464752915 0.150626992471 0)
(0.00502129092014 0.1399463139 0)
(0.00496356889036 0.12936635638 0)
(0.00486129251726 0.11897790938 0)
(0.00471728772114 0.108868976385 0)
(0.00453498516707 0.099121034323 0)
(0.00432053875101 0.0898054476657 0)
(0.00408009106025 0.0809808354269 0)
(0.00382160351373 0.0726909170255 0)
(0.00355155855825 0.0649643301892 0)
(0.00327632273329 0.0578161778583 0)
(0.00299992466269 0.0512511830367 0)
(0.00272666319523 0.0452656353715 0)
(0.00245977457397 0.039848567485 0)
(0.00220326943693 0.0349814593057 0)
(0.00195999936545 0.0306389401042 0)
(0.00173300188658 0.0267893660652 0)
(0.00152388114895 0.0233964928889 0)
(0.00133407943441 0.0204207645777 0)
(0.00116355825913 0.0178214250184 0)
(0.00101201614581 0.0155580191782 0)
(0.000878042964188 0.0135922090091 0)
(0.000760365613071 0.011888414486 0)
(0.000657184057184 0.0104145139978 0)
(0.000567048773575 0.00914165557235 0)
(0.000488161523305 0.00804451224913 0)
(0.000418909893951 0.00710112558421 0)
(0.000356997175674 0.00629322240202 0)
(0.000297569938143 0.00561488225778 0)
(0.000230732648549 0.00497147469103 0)
(0.000207843904826 0.00459978403005 0)
(0.000200060248878 0.00415860354109 0)
(0.000176099576591 0.0037808109638 0)
(0.000176714660567 0.00345648985875 0)
(0.000189505875767 0.00308743090938 0)
(0.000189046206023 0.00271821065798 0)
(0.000190923085406 0.00232745346461 0)
(0.00021470945506 0.00190633745386 0)
(0.000242530834221 0.00144831472233 0)
(0.000273828851855 0.000896440044494 0)
(0.000294670010589 0.000287992167227 0)
(-0.020730073146 0.00685985067189 0)
(-0.0218853143366 0.0219853764733 0)
(-0.0218111319275 0.0370231599459 -2.44814246978e-27)
(-0.0216247084585 0.052063485026 0)
(-0.021370860044 0.0669362268807 0)
(-0.0210549329229 0.0816117311202 0)
(-0.0206803250005 0.0960496848738 0)
(-0.0202508208097 0.110211621218 0)
(-0.0197697929669 0.124061253692 0)
(-0.0192413998978 0.137564731983 0)
(-0.0186692584644 0.150690900216 0)
(-0.0180577753745 0.163411290171 0)
(-0.0174105602906 0.175700238632 0)
(-0.0167319628515 0.187534759587 0)
(-0.016025276257 0.198894541512 0)
(-0.0152944889577 0.209761716985 0)
(-0.0145423038921 0.220120757068 0)
(-0.0137721029399 0.229958161625 0)
(-0.0129858050705 0.239262277654 0)
(-0.0121860348759 0.24802294477 0)
(-0.011373840563 0.256231274049 0)
(-0.0105510519492 0.263879290848 0)
(-0.00971787874669 0.270959713674 0)
(-0.00887543263244 0.277465637246 0)
(-0.00802322481901 0.283390347003 0)
(-0.00716181860857 0.28872707891 0)
(-0.00629025087638 0.293468893794 0)
(-0.00540877233031 0.297608540474 0)
(-0.00451622675982 0.301138403287 0)
(-0.00361283104848 0.304050490865 0)
(-0.00269756107598 0.306336439512 0)
(-0.00177088204084 0.307987709737 0)
(-0.000832229902557 0.308995650993 0)
(0.000117340674499 0.30935176751 0)
(0.00107757749541 0.309047918126 0)
(0.00204658286787 0.308076744092 0)
(0.00302300522093 0.306431902717 0)
(0.00400391740981 0.304108624231 0)
(0.00498669316518 0.301103946343 0)
(0.00596733761229 0.297417347273 0)
(0.00694193731097 0.293050921792 0)
(0.00790555452932 0.288010026115 0)
(0.00885312706737 0.282303344358 0)
(0.00977899847095 0.275943491744 0)
(0.0106771404929 0.268946966535 0)
(0.011541336625 0.261334709441 0)
(0.0123646250217 0.253132018844 0)
(0.013140110526 0.244369144031 0)
(0.0138595976585 0.235081325041 0)
(0.0145150242443 0.225309552104 0)
(0.0150964022134 0.215100878168 0)
(0.0155939742863 0.204509387381 0)
(0.0159958013659 0.19359669814 0)
(0.0162908843403 0.182432807223 0)
(0.0164668813623 0.171096189347 0)
(0.0165143182273 0.159673609483 0)
(0.0164246049784 0.14825876865 0)
(0.0161948157989 0.136950089774 0)
(0.015825405672 0.125847372808 0)
(0.0153244237668 0.115047699205 0)
(0.0147041376226 0.104640922196 0)
(0.0139834307474 0.0947055269602 0)
(0.0131833369587 0.0853055273356 0)
(0.0123289592611 0.0764875904806 0)
(0.011442437424 0.0682803544865 0)
(0.0105429420218 0.0606972030695 0)
(0.00964336673319 0.0537409319526 0)
(0.00875575788663 0.0474067571367 0)
(0.0078908437123 0.0416827605928 0)
(0.00706059737637 0.0365489303572 0)
(0.00627480638079 0.0319773724744 0)
(0.00554247212671 0.0279332397889 0)
(0.00486925067814 0.0243764301794 0)
(0.00425909217717 0.0212632687483 0)
(0.00371219829577 0.018548702158 0)
(0.00322681960919 0.0161883884993 0)
(0.00279852211259 0.014140659465 0)
(0.00242256554712 0.0123673851081 0)
(0.00209338734714 0.0108343323165 0)
(0.00180600574988 0.00951091874264 0)
(0.00155506257134 0.0083701243002 0)
(0.00133570124741 0.00738806145529 0)
(0.00114242207349 0.00654309270096 0)
(0.000968756559004 0.00581731001603 0)
(0.000801120884575 0.00514710839157 0)
(0.000691599349534 0.00453119268912 0)
(0.000610740542801 0.00407607110855 0)
(0.000534420051163 0.00370185245383 0)
(0.000522842570341 0.00332357822751 0)
(0.000552710466386 0.00301628506371 0)
(0.000566453142407 0.00269401968721 0)
(0.00059159137356 0.00228519448668 0)
(0.000643852130497 0.00185409905446 0)
(0.000786424070974 0.00146410432198 0)
(0.000957071234046 0.000934507886593 0)
(0.000866502403701 0.000256525038066 0)
(-0.035031938756 0.00691519604882 0)
(-0.0370056385467 0.0221681587906 0)
(-0.0368538747312 0.0372981937357 -2.45149808327e-27)
(-0.0365330560358 0.0524480790897 0)
(-0.0361051481587 0.0674282718978 0)
(-0.0355753749189 0.0822077535908 0)
(-0.0349483839433 0.0967452072836 0)
(-0.0342296942401 0.111001663252 0)
(-0.033425140702 0.124940420599 0)
(-0.0325411988082 0.138527348401 0)
(-0.0315843352345 0.151731079776 0)
(-0.030561425407 0.164523077507 0)
(-0.0294790129622 0.176877688616 0)
(-0.0283438144061 0.188772077077 0)
(-0.0271619055732 0.200186152725 0)
(-0.0259393254398 0.211102390079 0)
(-0.0246812103918 0.221505651709 0)
(-0.0233925078127 0.231382917951 0)
(-0.0220770778444 0.240723033604 0)
(-0.0207385231105 0.249516384091 0)
(-0.0193792734776 0.257754606266 0)
(-0.0180015301059 0.265430256007 0)
(-0.016606341309 0.27253652726 0)
(-0.015194647349 0.279066955705 0)
(-0.0137663479381 0.285015186546 0)
(-0.01232142496 0.290374750546 0)
(-0.0108590011378 0.295138907004 0)
(-0.00937851404774 0.299300515107 0)
(-0.00787877170194 0.302851968614 0)
(-0.00635915089827 0.305785174042 0)
(-0.00481868114423 0.308091600213 0)
(-0.00325721411656 0.309762368046 0)
(-0.00167453927134 0.310788390359 0)
(-7.15418148541e-05 0.31116062222 0)
(0.0015506486561 0.310870311239 0)
(0.00318960495346 0.309909366131 0)
(0.00484238871463 0.308270701256 0)
(0.00650466831494 0.305948710845 0)
(0.0081714254894 0.302939657829 0)
(0.00983631505744 0.299242194235 0)
(0.0114922582231 0.294857723602 0)
(0.0131310876508 0.289790891342 0)
(0.0147439608939 0.284049848022 0)
(0.0163212832597 0.277646645555 0)
(0.0178528368889 0.270597371622 0)
(0.0193279135756 0.262922447203 0)
(0.0207350378199 0.254646700407 0)
(0.0220622193464 0.245799673416 0)
(0.0232962000313 0.236415824197 0)
(0.0244228145315 0.226535057279 0)
(0.02542588341 0.216203292494 0)
(0.0262879228108 0.205473404822 0)
(0.0269891737846 0.194406184602 0)
(0.0275092735056 0.183071455657 0)
(0.0278271894431 0.171548763143 0)
(0.0279244099676 0.159927537561 0)
(0.0277859934513 0.148306036058 0)
(0.0274046182312 0.136789000329 0)
(0.0267813491825 0.125483874762 0)
(0.0259286149058 0.114495988127 0)
(0.0248691467858 0.10392275515 0)
(0.0236349929164 0.0938487769148 0)
(0.0222645769797 0.0843425578498 0)
(0.0208029251095 0.075451646634 0)
(0.0192914459998 0.0672005039261 0)
(0.0177618538903 0.059595885664 0)
(0.0162345882007 0.0526356432941 0)
(0.0147271020723 0.0463136514125 0)
(0.0132582295856 0.040618182226 0)
(0.0118483326855 0.0355286269232 0)
(0.0105155231596 0.0310150627786 0)
(0.00927487331268 0.0270397412545 0)
(0.00813690427076 0.0235590984372 0)
(0.0071079354957 0.0205256476565 0)
(0.00618868467646 0.0178903789891 0)
(0.00537496424205 0.0156056726377 0)
(0.00465874440731 0.0136278075173 0)
(0.0040308773347 0.0119178632013 0)
(0.00348199679196 0.0104414817436 0)
(0.00300334310606 0.00916822647997 0)
(0.00258628280658 0.00807132204865 0)
(0.0022230326259 0.00712729565655 0)
(0.00190655692103 0.00631509354898 0)
(0.0016313275685 0.00561925641234 0)
(0.00139851039378 0.00497511425609 0)
(0.00121767720323 0.00440251595591 0)
(0.0010815225222 0.0040353560773 0)
(0.000936512719185 0.00352296961902 0)
(0.000847020558814 0.00308362503331 0)
(0.000866713737715 0.00280804588645 0)
(0.000971799620729 0.00258044203752 0)
(0.000985162808688 0.00205449162837 0)
(0.0011070145593 0.00168345579068 0)
(0.00127876085932 0.00122094099511 0)
(0.00142963654292 0.000730915386812 0)
(0.00138962159885 0.000225557089735 0)
(-0.0495311262825 0.00697268920192 0)
(-0.0523452632488 0.0223720812795 0)
(-0.0521282143291 0.0376261352706 2.45117345692e-27)
(-0.0516701948842 0.0529052684719 0)
(-0.0510600562441 0.0680110555636 0)
(-0.0503055163886 0.0829112768828 0)
(-0.0494132304702 0.0975634387842 0)
(-0.0483909142494 0.111927764202 0)
(-0.0472470390275 0.125966944316 0)
(-0.0459907576105 0.139646436835 0)
(-0.0446315279142 0.152934629718 0)
(-0.0431790769214 0.165802926245 0)
(-0.0416430027778 0.17822577493 0)
(-0.0400327756277 0.190180615339 0)
(-0.0383573318702 0.201647775598 0)
(-0.036625128347 0.212610294623 0)
(-0.0348437502165 0.223053705853 0)
(-0.0330200384139 0.232965760286 0)
(-0.0311597334503 0.242336127659 0)
(-0.0292676926833 0.251156059009 0)
(-0.0273475860305 0.259418050085 0)
(-0.0254022092438 0.267115493099 0)
(-0.0234332343741 0.274242353812 0)
(-0.0214416085216 0.280792862976 0)
(-0.0194273472818 0.286761252023 0)
(-0.0173899965209 0.292141521788 0)
(-0.0153284520131 0.296927264871 0)
(-0.013241460485 0.301111532016 0)
(-0.0111274558282 0.304686755053 0)
(-0.00898508394547 0.307644713727 0)
(-0.00681307074972 0.309976594017 0)
(-0.0046107260495 0.31167305202 0)
(-0.00237784207277 0.312724369576 0)
(-0.000115220105062 0.313120698552 0)
(0.00217545004709 0.312852342132 0)
(0.0044911175556 0.311910119691 0)
(0.00682750533032 0.310285773561 0)
(0.00917875108289 0.307972445515 0)
(0.0115375905677 0.304965155052 0)
(0.0138951677423 0.301261318704 0)
(0.0162412767872 0.29686121319 0)
(0.0185643585833 0.291768440186 0)
(0.0208517607093 0.285990272036 0)
(0.0230898646689 0.279537970508 0)
(0.0252642491908 0.272426949757 0)
(0.0273598088977 0.264676929805 0)
(0.0293606482415 0.256311972187 0)
(0.0312500180992 0.24736059748 0)
(0.0330097917223 0.237855933767 0)
(0.0346201589711 0.227836123208 0)
(0.0360587678225 0.21734498404 0)
(0.0373005179597 0.206433116756 0)
(0.0383170573995 0.195159368996 0)
(0.039077703068 0.183592586152 0)
(0.0395506558267 0.17181322985 0)
(0.0397062122791 0.159914305646 0)
(0.0395203399553 0.148000865438 0)
(0.0389793662379 0.136187508067 0)
(0.0380834263322 0.1245939554 0)
(0.0368493342323 0.113339123481 0)
(0.0353120819471 0.102532641586 0)
(0.0335187999809 0.0922688244613 0)
(0.0315274625764 0.0826247764285 0)
(0.0294109632924 0.073650236129 0)
(0.0272362249312 0.0653605867255 0)
(0.0250480156612 0.057748271214 0)
(0.0228682528195 0.0508018289593 0)
(0.020715504437 0.0445148587474 0)
(0.018617002885 0.038878327503 0)
(0.0166039631673 0.0338714654868 0)
(0.0147043089879 0.02946104175 0)
(0.0129400980265 0.0256045597773 0)
(0.0113270360429 0.0222530970086 0)
(0.00987447971647 0.0193531013524 0)
(0.00858341443197 0.0168489359939 0)
(0.00744584096293 0.0146874352222 0)
(0.00644802720816 0.0128218976486 0)
(0.00557509941656 0.0112127894776 0)
(0.00481330149366 0.0098262052262 0)
(0.00415007903498 0.00863224135095 0)
(0.00357312651436 0.00760480679018 0)
(0.00307144740737 0.00672156922042 0)
(0.00263560985269 0.00596306861896 0)
(0.00225885896768 0.00531818138046 0)
(0.00194001915661 0.0046933421668 0)
(0.00171952124108 0.00423285175126 0)
(0.00152855253759 0.00379175429994 0)
(0.00135188897138 0.00328808805116 0)
(0.00126995958742 0.00293913781012 0)
(0.00120895625684 0.00249717185439 0)
(0.00126833237361 0.00212704882143 0)
(0.00146071294867 0.0018647335316 0)
(0.0015121685652 0.00134565519567 0)
(0.00168549516051 0.000931506201647 0)
(0.00186240742307 0.000562069605561 0)
(0.00184834054769 0.000183743998556 0)
(-0.0641773305189 0.00704694255365 0)
(-0.067828273114 0.0226415579571 0)
(-0.0675444907624 0.0380676974396 0)
(-0.0669460098678 0.0535213362413 0)
(-0.0661488048537 0.0687959871517 0)
(-0.0651633555466 0.0838582109712 0)
(-0.0639985905247 0.0986641238233 0)
(-0.0626647195013 0.113172859982 0)
(-0.0611730163681 0.127346276621 0)
(-0.0595355787762 0.141149253008 0)
(-0.0577649967977 0.154549844352 0)
(-0.055874118818 0.167519369317 0)
(-0.0538757178816 0.18003242772 0)
(-0.0517822790553 0.192066841507 0)
(-0.0496056827229 0.203603530222 0)
(-0.0473570360152 0.214626316547 0)
(-0.0450463994771 0.225121676209 0)
(-0.0426826904653 0.235078432009 0)
(-0.0402734822548 0.244487410449 0)
(-0.0378250055871 0.253341066156 0)
(-0.0353420419001 0.261633096405 0)
(-0.0328280348122 0.269358054107 0)
(-0.0302850789037 0.276510981114 0)
(-0.027714128936 0.283087069041 0)
(-0.0251150625834 0.289081363817 0)
(-0.0224869567815 0.294488515652 0)
(-0.0198281937607 0.299302582581 0)
(-0.0171367752154 0.303516885368 0)
(-0.0144104530884 0.307123918462 0)
(-0.0116470691981 0.310115302982 0)
(-0.00884472370003 0.312481846368 0)
(-0.00600210038557 0.314213584946 0)
(-0.00311867553892 0.315299944335 0)
(-0.000195085080213 0.315729985449 0)
(0.0027667024792 0.315492706347 0)
(0.00576305393627 0.314577428336 0)
(0.00878854805238 0.312974254325 0)
(0.0118357535249 0.310674591396 0)
(0.0148952240718 0.307671708902 0)
(0.0179554556753 0.30396131749 0)
(0.0210030416588 0.299542118044 0)
(0.0240228304068 0.294416309873 0)
(0.0269982088224 0.288589984986 0)
(0.0299113797957 0.282073427462 0)
(0.0327436288771 0.274881239551 0)
(0.0354755139226 0.267032369728 0)
(0.0380868593342 0.258550004622 0)
(0.040556571727 0.249461457821 0)
(0.0428620844447 0.239798129217 0)
(0.0449786015511 0.229595701095 0)
(0.0468779620117 0.218894806 0)
(0.0485276751199 0.207742321432 0)
(0.049890050685 0.196193456778 0)
(0.0509226529376 0.184314589892 0)
(0.0515798887105 0.172186246375 0)
(0.0518172923793 0.159905624482 0)
(0.0515972756579 0.14758701421 0)
(0.0508964145858 0.135359328467 0)
(0.0497112204643 0.123360502902 0)
(0.0480621119458 0.111730729303 0)
(0.0460007122475 0.100597747436 0)
(0.04359045531 0.0900691460396 0)
(0.0409090570164 0.0802391952072 0)
(0.0380741394346 0.0711644011967 0)
(0.0351923328827 0.0628411089267 0)
(0.0323213403267 0.0552310732572 0)
(0.0294686647916 0.0483059405641 0)
(0.0266441191299 0.0420648918425 0)
(0.0238863559705 0.0365088405367 0)
(0.0212433046268 0.0316178671903 0)
(0.0187554936103 0.0273528914903 0)
(0.0164525720854 0.0236639465935 0)
(0.0143557885779 0.0204947669795 0)
(0.012478939529 0.0177831452235 0)
(0.0108237288034 0.0154627148806 0)
(0.00937550834328 0.0134711366593 0)
(0.00811082769726 0.0117578116059 0)
(0.00700675772048 0.0102837918765 0)
(0.00604487575881 0.00901703637031 0)
(0.00520936771668 0.00792855748077 0)
(0.00448358206347 0.0069931365211 0)
(0.00385288070713 0.00619016985217 0)
(0.00330476168602 0.0055027388149 0)
(0.00283075064554 0.00492040019393 0)
(0.00241654655721 0.00432612019193 0)
(0.00221516192017 0.00399246523864 0)
(0.0020326581727 0.00355839825718 0)
(0.00183119771749 0.00307872649276 0)
(0.00163401199898 0.00253942098872 0)
(0.00160604482944 0.00217873319882 0)
(0.00160207030477 0.00174152498453 0)
(0.00179663551004 0.00147167155719 0)
(0.00201586030235 0.00114199573066 0)
(0.00205155752908 0.000718208057063 0)
(0.0021408454522 0.000414234700948 0)
(0.00212211404851 0.000136953039984 0)
(-0.079020560802 0.00713955047857 0)
(-0.0835152132615 0.0229819799483 0)
(-0.0831614097251 0.0386282829837 0)
(-0.0824171024787 0.0543040637023 0)
(-0.0814256747907 0.0697931483979 0)
(-0.0802005379681 0.0850607169718 0)
(-0.0787531398458 0.100061218802 0)
(-0.0770964806845 0.114752430458 0)
(-0.0752449017433 0.129095151152 0)
(-0.0732137506716 0.143053520262 0)
(-0.0710190108826 0.156595172064 0)
(-0.0686769551214 0.169691323434 0)
(-0.0662037751037 0.182316782529 0)
(-0.0636152525263 0.194449877994 0)
(-0.060926415556 0.20607231254 0)
(-0.0581512560067 0.217168942002 0)
(-0.0553024456452 0.227727487112 0)
(-0.0523911366004 0.237738184173 0)
(-0.0494267770471 0.247193387997 0)
(-0.0464170326726 0.256087140347 0)
(-0.0433677331288 0.264414723285 0)
(-0.0402829335105 0.272172215358 0)
(-0.0371649938883 0.279356070827 0)
(-0.0340147638514 0.285962737153 0)
(-0.0308317614616 0.291988323477 0)
(-0.0276144355287 0.29742832605 0)
(-0.0243603963475 0.302277412719 0)
(-0.0210667142062 0.306529264591 0)
(-0.0177301754128 0.310176473702 0)
(-0.0143476066079 0.313210479268 0)
(-0.010916176113 0.315621624546 0)
(-0.00743371006844 0.317399170808 0)
(-0.00389905388178 0.318531457074 0)
(-0.000312451105564 0.319006146523 0)
(0.00332413055095 0.31881054555 0)
(0.00700664303979 0.317932021206 0)
(0.0107286973999 0.316358518163 0)
(0.0144813347771 0.31407915356 0)
(0.0182529357079 0.311084874609 0)
(0.0220292211304 0.30736913782 0)
(0.0257934094691 0.302928572708 0)
(0.0295264918579 0.2977635749 0)
(0.0332076196365 0.291878771707 0)
(0.0368145593196 0.285283324091 0)
(0.0403241303369 0.277991001946 0)
(0.0437125542696 0.27002006515 0)
(0.0469555885144 0.261392925311 0)
(0.0500283198407 0.252135713497 0)
(0.0529045273389 0.242277856903 0)
(0.0555554551807 0.231851904781 0)
(0.057948140708 0.220893981472 0)
(0.0600433063862 0.209445158064 0)
(0.061793623276 0.197554335286 0)
(0.0631429051691 0.185282451962 0)
(0.0640279089487 0.172707934811 0)
(0.064383426614 0.159931788921 0)
(0.0641516452015 0.147080103723 0)
(0.0632934285988 0.134301575559 0)
(0.0617977573436 0.121759767669 0)
(0.0596847158225 0.109628709016 0)
(0.0570354759308 0.098061054003 0)
(0.0539271754563 0.0871772105232 0)
(0.05044551703 0.0771084612922 0)
(0.0467921015401 0.067933471956 0)
(0.0431463231683 0.0596077247173 0)
(0.0395777664874 0.0520245461494 0)
(0.0360369834741 0.0451245752313 0)
(0.0325038116842 0.0389325425791 0)
(0.0290416052636 0.0334775218945 0)
(0.025729048399 0.0287406185589 0)
(0.0226234519072 0.0246703244834 0)
(0.0197607267062 0.0212048653301 0)
(0.0171672089156 0.0182794673425 0)
(0.0148646840362 0.0158210367119 0)
(0.0128585404177 0.0137454960574 0)
(0.011121613933 0.011974526686 0)
(0.00961237422749 0.010453143908 0)
(0.00829587444902 0.00914683862824 0)
(0.00715016136046 0.00802881883419 0)
(0.00615861202404 0.00707095242797 0)
(0.00529857049951 0.00624832469627 0)
(0.00455130286089 0.0055427390664 0)
(0.00390125150292 0.00494046934337 0)
(0.00333778153745 0.00441559400702 0)
(0.00287540351075 0.00390209034504 0)
(0.00264270675245 0.00355514829659 0)
(0.0023976561217 0.00307239685131 0)
(0.00225538476183 0.00270115231172 0)
(0.00215224824805 0.00230764511546 0)
(0.00211060660107 0.0019234115866 0)
(0.00196026834897 0.00141586930436 0)
(0.00203690124726 0.00107278715803 0)
(0.0023104063802 0.000863442875498 0)
(0.00238279111225 0.000578371062482 0)
(0.00238865420316 0.000320592092033 0)
(0.00237133751479 0.000105835469548 0)
(-0.0941069761449 0.00725206493486 0)
(-0.0994562830606 0.0233975193184 0)
(-0.0990278867368 0.0393133396024 2.46902326235e-27)
(-0.0981305791596 0.0552607661752 0)
(-0.0969356252572 0.0710116897789 0)
(-0.0954595566478 0.0865295889147 0)
(-0.0937166121934 0.101766893039 0)
(-0.0917229097708 0.116679718419 0)
(-0.089496197892 0.131227569669 0)
(-0.0870554361368 0.145373680912 0)
(-0.0844203529737 0.159085178282 0)
(-0.0816110066536 0.172333167531 0)
(-0.0786473432824 0.185092734685 0)
(-0.0755487745369 0.197342860545 0)
(-0.0723337667855 0.209066250234 0)
(-0.069019468843 0.220249079112 0)
(-0.0656213719963 0.230880659505 0)
(-0.0621530355615 0.240953035386 0)
(-0.0586258716267 0.250460517871 0)
(-0.0550490228162 0.259399178815 0)
(-0.0514293186319 0.2677663252 0)
(-0.0477713353825 0.275559978957 0)
(-0.0440775293008 0.282778387114 0)
(-0.0403484548971 0.28941958312 0)
(-0.0365830241862 0.295481013619 0)
(-0.032778814427 0.300959236594 0)
(-0.0289323803207 0.305849688663 0)
(-0.0250395899266 0.310146514693 0)
(-0.0210959536043 0.313842453192 0)
(-0.0170969814768 0.316928752014 0)
(-0.0130385654203 0.319395217721 0)
(-0.00891733768562 0.321230188068 0)
(-0.00473114357484 0.322420683823 0)
(-0.000479494065686 0.322952646588 0)
(0.00383598307897 0.322811270501 0)
(0.00821109306795 0.321981456136 0)
(0.012638693974 0.320448396141 0)
(0.0171083938585 0.318198267622 0)
(0.0216063928517 0.315219020242 0)
(0.0261154814085 0.311501202998 0)
(0.0306152345808 0.307038787415 0)
(0.0350824013938 0.301829906147 0)
(0.0394914621826 0.295877427081 0)
(0.0438153157082 0.289189303017 0)
(0.0480259851085 0.281778592168 0)
(0.0520952476378 0.273663182231 0)
(0.0559949963544 0.264865126719 0)
(0.0596971877182 0.25540976303 0)
(0.0631730880403 0.245324650847 0)
(0.0663917227169 0.234638733002 0)
(0.0693171768153 0.223382121941 0)
(0.0719051916617 0.211587328956 0)
(0.0740991392036 0.199292652477 0)
(0.0758274401469 0.186548550929 0)
(0.0770037565147 0.173426520355 0)
(0.077533320141 0.160029180414 0)
(0.0773271919602 0.146496886886 0)
(0.0763213134898 0.133005343965 0)
(0.0744917341498 0.119751704261 0)
(0.0718425209618 0.106968347597 0)
(0.0685268420251 0.094840096624 0)
(0.0646200411271 0.0834790702369 0)
(0.0601559091907 0.0731039574869 0)
(0.0555196174575 0.0638649830812 0)
(0.0510424991364 0.0556265162774 0)
(0.0468052685823 0.0481215033687 0)
(0.0425836618313 0.0412318209783 0)
(0.0382862192858 0.0350694118521 0)
(0.0340476859214 0.0297340169057 0)
(0.0300096551382 0.0251996746953 0)
(0.0262494002113 0.0213845401357 0)
(0.0228005869706 0.0182076752176 0)
(0.0196909012335 0.0155986890466 0)
(0.0169593149282 0.0134744304047 0)
(0.014626164863 0.0117195931315 0)
(0.0126389530449 0.0102249241279 0)
(0.0109191865084 0.00893203745183 0)
(0.00941347071826 0.00782155548316 0)
(0.0081020423231 0.00687975733774 0)
(0.00697572950656 0.00607695375482 0)
(0.00600021992968 0.00538581544286 0)
(0.00515224076106 0.00479277896023 0)
(0.00441493830857 0.00428711302037 0)
(0.0037722526633 0.00382605449692 0)
(0.00331866133367 0.00342257399501 0)
(0.00305984110052 0.00306362152937 0)
(0.0028274717454 0.00266220425159 0)
(0.00261980459463 0.00224669716155 0)
(0.00254341461147 0.00189950101536 0)
(0.0024307109689 0.00149541585626 0)
(0.00243930522568 0.0011860281547 0)
(0.00233213601993 0.000803605141765 0)
(0.00243032365115 0.000584796579814 0)
(0.00260193031856 0.000430794359129 0)
(0.00257799984368 0.000238357111226 0)
(0.00255953892138 7.85877780432e-05 0)
(-0.109486116951 0.00738573108771 0)
(-0.11570399902 0.0238926831146 0)
(-0.115195381487 0.0401296645881 -2.46864371837e-27)
(-0.114136090549 0.0564006677369 0)
(-0.112725981146 0.0724630720231 0)
(-0.110984987305 0.0882782706805 0)
(-0.108930480208 0.103796245001 0)
(-0.106582089042 0.118971113166 0)
(-0.10396138941 0.133760826051 0)
(-0.101091390845 0.148127538889 0)
(-0.0979960054507 0.162037781866 0)
(-0.094699515471 0.175462548056 0)
(-0.0912260439912 0.188377285833 0)
(-0.0875990398299 0.2007617975 0)
(-0.0838407800437 0.212600043149 0)
(-0.0799719060078 0.223879849029 0)
(-0.076011003211 0.234592521588 0)
(-0.0719742490139 0.244732373423 0)
(-0.0678751432813 0.254296173922 0)
(-0.0637243464988 0.263282545988 0)
(-0.0595296324125 0.271691337072 0)
(-0.0552959649883 0.279522998452 0)
(-0.0510256849928 0.28677800591 0)
(-0.0467187929915 0.293456351029 0)
(-0.0423732937604 0.2995571202 0)
(-0.0379855790372 0.30507816706 0)
(-0.0335508161684 0.310015868769 0)
(-0.0290633372384 0.314364950938 0)
(-0.0245170214558 0.318118364038 0)
(-0.0199056923395 0.321267175826 0)
(-0.0152235599308 0.323800605343 0)
(-0.0104656339966 0.325705935641 0)
(-0.00562830339849 0.326968643288 0)
(-0.000709891977167 0.32757261126 0)
(0.00428875176933 0.327500462768 0)
(0.00936366497911 0.326734051321 0)
(0.014507243845 0.325255125083 0)
(0.0197078194281 0.323046143883 0)
(0.0249494063286 0.320091237921 0)
(0.0302116706369 0.316377239168 0)
(0.0354701616231 0.311894736191 0)
(0.0406968356092 0.306639030358 0)
(0.0458608338799 0.30061089923 0)
(0.0509294970451 0.29381704726 0)
(0.0558694570166 0.286270123864 0)
(0.0606477012081 0.277988260376 0)
(0.0652323771782 0.268994049811 0)
(0.0695930280614 0.259312999397 0)
(0.0737000767202 0.248971608772 0)
(0.0775228174064 0.237995249636 0)
(0.0810259206488 0.226406765304 0)
(0.0841636129128 0.214226514895 0)
(0.086872593325 0.201476076126 0)
(0.0890649771559 0.188186670728 0)
(0.0906249406943 0.174413524447 0)
(0.0914145431816 0.160255026605 0)
(0.0912955987684 0.145867967592 0)
(0.0901649171789 0.131466033741 0)
(0.0879837321258 0.117280904999 0)
(0.0846754662131 0.103663700403 0)
(0.0806128117585 0.0908384515565 0)
(0.0758160847312 0.0788061981355 0)
(0.0700394448821 0.0680078785508 0)
(0.0641249124538 0.0588197720463 0)
(0.05874680208 0.0508929998605 0)
(0.0540126380208 0.0435654302554 0)
(0.0491777405199 0.0366054495795 0)
(0.0440103185797 0.0303966547312 0)
(0.0388689084866 0.0252011304137 0)
(0.0340268965257 0.0209425270854 0)
(0.0295722828745 0.0174614384405 0)
(0.0255066575814 0.0146465120091 0)
(0.0218454436601 0.0124382765049 0)
(0.0186687908797 0.0107562993775 0)
(0.0160509593393 0.00942508214181 0)
(0.0138843084889 0.00826749080998 0)
(0.012006184333 0.00722761988347 0)
(0.0103351061318 0.00632966954603 0)
(0.00887205304039 0.00559106002176 0)
(0.00764045700151 0.00496911476446 0)
(0.00657335273325 0.00442481924774 0)
(0.00564307687471 0.00395730605284 0)
(0.00483962970017 0.0035557844424 0)
(0.00413413722748 0.00316408095545 0)
(0.00371758805114 0.00285879801167 0)
(0.00342352246447 0.00251048289398 0)
(0.00323416980023 0.00219298279681 0)
(0.0030409962453 0.00182814710132 0)
(0.00289368516478 0.00147772477454 0)
(0.00273861976567 0.00112283868493 0)
(0.00266732636947 0.000839961141271 0)
(0.00267739823194 0.000614887035057 0)
(0.00258621338441 0.000389207008349 0)
(0.00276398050964 0.00027961089221 0)
(0.00271422280816 0.000165364398351 0)
(0.00268603807633 5.1965890706e-05 0)
(-0.125210731181 0.00754184511721 0)
(-0.132313747783 0.0244727615004 0)
(-0.131718089087 0.0410856063469 0)
(-0.130485839563 0.0577351355724 0)
(-0.128846359314 0.0741614110329 0)
(-0.126823364627 0.0903232764514 0)
(-0.124437791949 0.106167783903 0)
(-0.121713263801 0.121646671602 0)
(-0.118675694925 0.136716055327 0)
(-0.115352672596 0.151336826857 0)
(-0.111772823273 0.165474832252 0)
(-0.10796518022 0.179100958088 0)
(-0.103958557746 0.192191115524 0)
(-0.0997809368236 0.204726123587 0)
(-0.0954588674405 0.216691487944 0)
(-0.0910169000622 0.228077069758 0)
(-0.0864770641986 0.238876640814 0)
(-0.0818584209829 0.249087327315 0)
(-0.077176718842 0.258708954885 0)
(-0.0724441824682 0.267743319967 0)
(-0.0676694555884 0.27619342518 0)
(-0.0628577063165 0.284062725002 0)
(-0.0580108831414 0.291354429723 0)
(-0.0531280930095 0.298070908821 0)
(-0.048206056366 0.30421321789 0)
(-0.0432395922837 0.309780752515 0)
(-0.038222092736 0.314771009158 0)
(-0.0331459679553 0.319179421049 0)
(-0.0280030665473 0.322999235856 0)
(-0.0227850987507 0.326221382264 0)
(-0.0174841202604 0.328834477416 0)
(-0.0120929961937 0.330824651794 0)