/*--------------------------------*- C++ -*----------------------------------*\
| =========                 |                                                 |
| \\      /  F ield         | OpenFOAM: The Open Source CFD Toolbox           |
|  \\    /   O peration     | Version:  v1906                                 |
|   \\  /    A nd           | Web:      www.OpenFOAM.com                      |
|    \\/     M anipulation  |                                                 |
\*---------------------------------------------------------------------------*/
FoamFile
{
    version     2.0;
    format      ascii;
    class       volScalarField;
    location    "260";
    object      p;
}
// * * * * * * * * * * * * * * * * * * * * * * * * * * * * * * * * * * * * * //

dimensions      [0 2 -2 0 0 0 0];


internalField   nonuniform List<scalar> 
9216
(
304.473886274
304.553315784
304.723877295
304.978487696
305.316964108
305.737643359
306.238335045
306.816455123
307.469046564
308.192888087
308.984482887
309.840169928
310.75609675
311.72833507
312.752837617
313.825556032
314.942381401
316.099263271
317.292134885
318.517033037
319.770009943
321.047254183
322.34499168
323.65960793
324.987540551
326.325402796
327.66987008
329.017804284
330.366136269
331.711990177
333.05256423
334.385253587
335.707530953
337.017066899
338.311612139
339.589113631
340.847600239
342.085293077
343.300496298
344.491700079
345.657478228
346.796582304
347.907847729
348.990277551
350.042958639
351.065133755
352.056129314
353.015414509
353.94254195
354.837192785
355.699131347
356.528235369
357.324465554
358.087880212
358.818620412
359.516908601
360.183049743
360.817413753
361.420452688
361.99266715
362.534639307
363.046983716
363.530395557
363.985586712
364.413348295
364.814473115
365.189831179
365.540280076
365.866751838
366.170153057
366.451461106
366.711616193
366.951624731
367.172445736
367.375098879
367.560547955
367.729811129
367.883844312
368.023651173
368.15016949
368.264378995
368.367193968
368.459568125
368.542397791
368.61662778
368.68317527
368.743223255
368.796668599
368.840130852
368.872551109
368.895906035
368.912062777
368.922679651
368.928933825
368.932007908
368.933073388
304.394537537
304.474419641
304.643146193
304.898425179
305.238418264
305.661154847
306.164317934
306.74524193
307.400923725
308.128085017
308.923195127
309.782540594
310.70224232
311.678324174
312.706720367
313.783340262
314.904064844
316.064806965
317.26149744
318.490141144
319.746794228
321.027617041
322.328844308
323.646835903
324.978041793
326.319051429
327.666555012
329.017391882
330.36850944
331.717010561
333.060110955
334.395185511
335.719725117
337.031381333
338.327923334
339.607280473
340.867500025
342.106787098
343.323463868
344.516006287
345.683005473
346.823200718
347.935443704
349.018727321
350.072153343
351.094956624
352.086476833
353.046177625
353.97362296
354.868490916
355.730555058
356.559692593
357.355871168
358.119151153
358.84967815
359.547679281
360.213461553
360.847402134
361.449952628
362.021623411
362.562993737
363.074690323
363.557403089
364.011858309
364.438839635
364.839156268
365.21366878
365.563252888
365.888829471
366.191324639
366.471703219
366.73092595
366.969985623
367.189862321
367.391561347
367.576067563
367.744384232
367.897487622
368.036365999
368.161975817
368.275280373
368.377209062
368.468695558
368.55064116
368.623951105
368.689494695
368.748160401
368.800580612
368.843746735
368.875740928
368.898505043
368.914181388
368.924460212
368.930340137
368.933126726
368.934204078
304.223187863
304.306725242
304.477294476
304.735222338
305.078730332
305.505809975
306.014062847
306.600728512
307.262715047
307.996649272
308.798916719
309.665715597
310.593093537
311.576997538
312.613302761
313.697855545
314.826492925
315.995078313
317.199512309
318.435761972
319.69986443
320.987951222
322.296246472
323.621087759
324.958920433
326.306316183
327.659964756
329.01669094
330.373444571
331.727316325
333.075526544
334.415439974
335.744553807
337.060511313
338.361089357
339.644210806
340.90793176
342.150452623
343.370105287
344.565362734
345.734826431
346.877234378
347.991448972
349.076463414
350.131390293
351.1554663
352.148041773
353.108583652
354.036666197
354.931972151
355.794284819
356.623487387
357.419556521
358.182559832
358.912651097
359.610065865
360.275118395
360.908195411
361.509754782
362.080317492
362.620468054
363.130844766
363.612141807
364.065097896
364.49049999
364.88917048
365.261972353
365.609795119
365.933561267
366.234211139
366.512710455
366.770034411
367.007176041
367.225129831
367.424900666
367.607487321
367.773891797
367.925103103
368.062106838
368.185869839
368.297350053
368.397482732
368.487190742
368.567372543
368.638911751
368.70266091
368.759491469
368.809962035
368.851472278
368.882142644
368.903760504
368.918610893
368.928007672
368.933317248
368.936033912
368.937291417
303.965024817
304.050653553
304.224162655
304.486327267
304.835357487
305.269178116
305.785282013
306.380779828
307.052444968
307.796765714
308.609994482
309.488199773
310.427311072
311.423164349
312.471538246
313.568190572
314.708884772
315.889417506
317.105636373
318.353460081
319.628889294
320.928021316
322.247056037
323.582306899
324.930203593
326.287300645
327.650278025
329.015948205
330.381255401
331.74328154
333.099244533
334.44650331
335.782555275
337.105040475
338.411738324
339.700570876
340.969598895
342.217024215
343.441185266
344.640558519
345.813753591
346.959513811
348.076711044
349.164345428
350.221540055
351.247539928
352.241706643
353.203516614
354.132555872
355.028517603
355.891197177
356.720489033
357.516382016
358.278955652
359.008375865
359.704890671
360.368826322
361.000582448
361.600628677
362.16949925
362.707790132
363.216153146
363.695293572
364.145963848
364.56896165
364.9651232
365.335321809
365.680460856
366.001472743
366.299311617
366.574952686
366.829384761
367.063609865
367.278635684
367.475475414
367.655140222
367.818639294
367.966972465
368.101130474
368.22208802
368.330804373
368.428217284
368.515244343
368.592778339
368.661690134
368.722823538
368.777070488
368.824924367
368.863372277
368.891758169
368.912025332
368.925513348
368.934002761
368.938934547
368.941650346
368.94293676
303.61733744
303.705154775
303.882643133
304.150636911
304.507261332
304.95032249
305.477159634
306.084708064
306.769555793
307.528002634
308.356117294
309.249792686
310.204795983
311.216814655
312.281495692
313.394480412
314.551432512
315.748062517
316.980146394
318.243541881
319.534200142
320.848176453
322.181637251
323.530867267
324.89227377
326.262391598
327.637885778
329.015555292
330.392334683
331.765296966
333.131654471
334.488760975
335.834111802
337.165345198
338.480241691
339.776724648
341.052858895
342.306850466
343.537044525
344.741924346
345.920108627
347.070349774
348.191530722
349.282662606
350.342881207
351.37144411
352.367726874
353.331219759
354.261523723
355.15834679
356.021499948
356.850893227
357.646531557
358.408510609
359.137012673
359.832302294
360.494722217
361.124688858
361.722688336
362.289271819
362.825051668
363.330696677
363.806928351
364.254516062
364.67427347
365.067053629
365.433745544
365.77526925
366.092572506
366.386625869
366.658419507
366.908958281
367.139258661
367.350343832
367.543240665
367.718974868
367.878567983
368.023032598
368.153369362
368.270562332
368.37557611
368.469351588
368.55280374
368.626818888
368.692256404
368.749952096
368.800889662
368.84467191
368.879650976
368.905633842
368.923694912
368.935721759
368.943364717
368.947939613
368.950608421
368.951899688
303.177928012
303.268341088
303.450895978
303.726388222
304.09279632
304.547749009
305.088374969
305.711376684
306.413098249
307.189593996
308.036694058
308.950065619
309.925267823
310.957800151
312.043143348
313.176793813
314.354291224
315.571240939
316.823331152
318.106346549
319.416178334
320.748832296
322.10043456
323.467236511
324.845618264
326.232092008
327.623304355
329.016038869
330.407217825
331.793904207
333.173302912
334.542762184
335.899774175
337.241975717
338.56714814
339.873217274
341.158252481
342.420465859
343.65821052
344.869979044
346.054401081
347.210241154
348.336395695
349.431890306
350.495876353
351.52762779
352.526537413
353.492113348
354.423975059
355.321849572
356.185567323
357.015058177
357.810347174
358.5715504
359.298870688
359.992593374
360.65308199
361.280773943
361.876176238
362.439861099
362.972461742
363.47466797
363.947222013
364.390914111
364.806578438
365.195088689
365.557354105
365.89431507
366.20693924
366.496217157
366.763158477
367.008787592
367.234139936
367.440257591
367.628185612
367.798967585
367.953641895
368.093237145
368.218768287
368.331231813
368.431601649
368.520824106
368.599813602
368.669447535
368.730562718
368.783947521
368.830430468
368.869933145
368.901277383
368.92375031
368.939459127
368.949974009
368.956571401
368.960993783
368.963584827
368.964841131
302.644113767
302.737678701
302.926500147
303.211301541
303.589859911
304.059563862
304.617265066
305.259364894
305.981895512
306.780600434
307.651010291
308.588511665
309.588407417
310.645967953
311.756473389
312.915247309
314.11768295
315.359263034
316.635574333
317.942318163
319.275317747
320.630523384
322.004016065
323.392010132
324.790855356
326.197038721
327.607186064
329.018063606
330.426579549
331.829785464
333.224877591
334.609197873
335.980234755
337.335623607
338.673146806
339.990733371
341.286458237
342.558541051
343.805344648
345.025373075
346.217269358
347.379812863
348.511916482
349.61262346
350.681104136
351.716652358
352.718681875
353.686722461
354.620416051
355.51951264
356.383866252
357.213430682
358.008255342
358.768480911
359.494335104
360.186128262
360.844249088
361.469160215
362.061393924
362.621547719
363.150280056
363.648305942
364.116392688
364.555355553
364.966053533
365.349385072
365.706283891
366.037714774
366.344669454
366.628162465
366.889227074
367.128911188
367.348273296
367.548378383
367.730293807
367.895085123
368.043811775
368.177522663
368.297251435
368.404011561
368.498790911
368.58254594
368.656195094
368.720611463
368.776614252
368.824956285
368.866371288
368.901020111
368.927829949
368.946709522
368.96003188
368.96888159
368.974578739
368.978488575
368.980818348
368.981932152
302.012620743
302.109996317
302.306427624
302.602542512
302.995856338
303.483446108
304.061807716
304.726960288
305.474544164
306.299916687
307.198240386
308.16456102
309.193873858
310.281177956
311.421518841
312.610020901
313.841910845
315.112534022
316.417365056
317.752014411
319.112231985
320.493908928
321.893078297
323.305915343
324.72873761
326.158005309
327.590321844
329.022434677
330.451236425
331.873766091
333.287210114
334.688903475
336.076330378
337.447124785
338.799070358
340.130100178
341.438295803
342.721886103
343.979245456
345.208891764
346.409483895
347.579819034
348.718829522
349.825579687
350.899262232
351.939194678
352.944815429
353.915679932
354.851456515
355.751922343
356.616959108
357.446548849
358.24076954
358.999790826
359.723869564
360.413345502
361.068636812
361.690235745
362.278704175
362.83466925
363.358818979
363.851897889
364.314702665
364.748077839
365.152911494
365.530130989
365.880698759
366.205608073
366.505878931
366.78255387
367.036693942
367.269374536
367.481681408
367.674706442
367.849543637
368.00728468
368.149014703
368.275807427
368.388720376
368.488789207
368.57702184
368.65439127
368.721827669
368.780208236
368.830345612
368.872971247
368.908768901
368.937914412
368.959714229
368.975137964
368.98578511
368.992860641
368.99755499
369.000440204
369.002348249
369.003217461
301.279485095
301.381430669
301.586994771
301.896677923
302.307661653
302.816624399
303.419610803
304.11215983
304.889425132
305.746290141
306.67747153
307.677607958
308.741332754
309.863330658
311.03837998
312.261382085
313.527380586
314.831572489
316.169313529
317.536119472
318.927664996
320.339781256
321.768453111
323.209816489
324.660156416
326.115905705
327.573644539
329.030100518
330.482149581
331.926816982
333.361278431
334.782861132
336.189044699
337.577461576
338.945897184
340.292289417
341.614727817
342.911452084
344.180850311
345.421456601
346.63194852
347.811144011
348.957998243
350.071600009
351.151168144
352.19604756
353.205705356
354.179726605
355.117810262
356.019764778
356.885503873
357.715042054
358.508490289
359.266051481
359.988016096
360.674757614
361.326728145
361.944453892
362.528530768
363.079619895
363.598443236
364.085779146
364.542458032
364.969357968
365.367400396
365.737545824
366.080789577
366.398157594
366.690702238
366.959498195
367.205638336
367.430229688
367.634389307
367.819240245
367.985907318
368.135512902
368.269172373
368.387989437
368.493050842
368.585420737
368.666133958
368.736188469
368.796535862
368.848069607
368.891609122
368.927875554
368.957475107
368.980651718
368.997257488
369.009051967
369.016871584
369.021944526
369.025056776
369.026822326
369.028096446
369.02861573
300.439952026
300.547346086
300.763791133
301.089617576
301.521580277
302.055850213
302.687901927
303.412674354
304.224720428
305.118346787
306.087735708
307.127046048
308.230492157
309.392401964
310.607256593
311.869714796
313.174625491
314.517031703
315.892168642
317.29545832
318.722502414
320.169074819
321.631114681
323.104720643
324.586146423
326.071798004
327.558232113
329.042155884
330.520427497
331.990057434
333.448209556
334.892202548
336.319510875
337.727765505
339.114753947
340.47841992
341.816862247
343.128333416
344.411237401
345.664127262
346.885702119
348.074804036
349.23041438
350.351650209
351.437760227
352.488120834
353.502231814
354.479712173
355.420295652
356.323826423
357.190254511
358.019631395
358.812105385
359.567917179
360.287395231
360.970951289
361.619075788
362.232333396
362.811358444
363.356850493
363.869569823
364.350333023
364.800008549
365.219512352
365.609803515
365.971879935
366.30677406
366.615548635
366.899292564
367.159116726
367.396149957
367.611534921
367.806424176
367.981976008
368.139350469
368.27970499
368.404190132
368.513944648
368.610090501
368.693726796
368.765923316
368.827712351
368.880079343
368.923950507
368.960177159
368.989512541
369.012582412
369.029783296
369.041259403
369.048605723
369.053201275
369.055909891
369.057164023
369.057687619
369.057880698
369.057943417
299.488354414
299.602223684
299.831586176
300.17653982
300.633292871
301.197368417
301.863520739
302.625939802
303.478439505
304.414628328
305.428053401
306.512314601
307.66114879
308.868486814
310.128487586
311.435554056
312.78433602
314.16972396
315.586837657
317.031012201
318.497783609
319.982875306
321.482186518
322.991782916
324.507889858
326.026887952
327.545310894
329.059844784
330.567329064
332.064758101
333.549282734
335.018212041
336.469014812
337.899320333
339.306918733
340.689760454
342.045955255
343.373770354
344.671628224
345.938103664
347.171920696
348.371948885
349.537199647
350.666822098
351.760098992
352.816442283
353.83538884
354.816595837
355.759836335
356.664994577
357.532061496
358.361129961
359.152390255
359.906125317
360.622706211
361.302587404
361.946302249
362.554458312
363.12773289
363.666868394
364.172667903
364.645990623
365.087747466
365.4988966
365.880439066
366.23341443
366.558896472
366.857988951
367.131821399
367.381545026
367.608328622
367.813354603
367.997814995
368.162907542
368.309831657
368.439784412
368.553956182
368.653526169
368.739657263
368.813490518
368.87613849
368.928677825
368.972140014
369.007500873
369.035667279
369.057462134
369.073607932
369.08470352
369.091210076
369.094094429
369.094822914
369.094425418
369.093583934
369.092405957
369.091263552
369.090655156
298.417959628
298.539522619
298.784209156
299.151799144
299.637794123
300.236886202
300.942916417
301.749138855
302.648459261
303.633644539
304.697492518
305.832959376
307.03324665
308.291853144
309.602598623
310.959626673
312.35739338
313.790647622
315.254407279
316.743934713
318.254713564
319.782428384
321.32294772
322.872311156
324.426720072
325.982532087
327.536258379
329.084563448
330.624266552
332.15234431
333.665932786
335.16233019
336.638998692
338.093565761
339.523824474
340.927733207
342.303414274
343.649152048
344.963390178
346.244728534
347.491919454
348.703863938
349.87960734
351.018335137
352.119368312
353.182158903
354.206285213
355.191447247
356.137461841
357.044258038
357.911872185
358.740443296
359.530208152
360.281496669
360.994727048
361.670401166
362.309099796
362.911478038
363.478260621
364.010237378
364.508258624
364.973230672
365.406111292
365.807905269
366.179659949
366.522460857
366.837427368
367.125708412
367.388478312
367.626932614
367.842284135
368.035758932
368.208592548
368.362026081
368.497302526
368.615662759
368.718341731
368.80656399
368.881539254
368.944456881
368.996480121
369.038738833
369.072321687
369.098266751
369.117551846
369.131084999
369.139698975
369.144154894
369.145176194
369.143607343
369.140382917
369.136598124
369.132993301
369.129823008
369.127270808
369.125605695
297.220772898
297.351496979
297.614396973
298.008811246
298.529320466
299.169542509
299.922154739
300.77923847
301.732583691
302.773946439
303.895247467
305.088711234
306.346950771
307.663007736
309.030358668
310.44289798
311.894906985
313.38101607
314.896165396
316.435567473
317.994673867
319.569147034
321.15483792
322.747769204
324.344124088
325.94023988
327.532605596
329.117862855
330.692808736
332.254399434
333.799753989
335.326157767
336.831065221
338.312101485
339.767063117
341.19391755
342.590801755
343.95601977
345.288039719
346.585490008
347.847155344
349.071972198
350.259024338
351.407537951
352.516876956
353.586537986
354.61614561
355.605447259
356.554308427
357.462707589
358.330731405
359.158569667
359.946510528
360.694935501
361.404314735
362.075202101
362.708230532
363.3041072
363.863608932
364.387577475
364.876914964
365.332579279
365.755579545
366.146971577
366.507853416
366.839360887
367.142663212
367.418958716
367.669470583
367.895442779
368.098136016
368.27882394
368.438789337
368.579320574
368.70170798
368.807240395
368.897201485
368.972866034
369.035495695
369.086334439
369.126603003
369.157492814
369.180158525
369.195710328
369.20520536
369.209641171
369.209952159
369.20701542
369.201672784
369.194786929
369.187223007
369.179809539
369.173178192
369.167750935
369.163757171
369.161259691
295.887280633
296.028963402
296.313599721
296.739912408
297.30126742
297.989882188
298.796941399
299.713051549
300.728631473
301.83422791
303.020744491
304.279587384
305.602738981
306.982775591
308.412845755
309.886624382
311.398254779
312.942287553
314.513622104
316.107454245
317.719231472
319.344616635
320.979459807
322.619778199
324.261743307
325.901674695
327.536038568
329.161451201
330.774683898
332.37266873
333.952504253
335.511460467
337.046982328
338.55669212
340.038390195
341.490054599
342.909839164
344.296070791
345.647245601
346.962024753
348.239229569
349.477836721
350.676972976
351.835910188
352.954059946
354.030968529
355.066311556
356.059888963
357.011619694
357.921536727
358.789781812
359.61660055
360.402337204
361.147429844
361.852405255
362.517874167
363.144526293
363.733125648
364.284505714
364.799564834
365.27926148
365.724609695
366.136674438
366.516567055
366.865440709
367.184485897
367.474926006
367.738012943
367.975022903
368.187252206
368.37601339
368.542631348
368.688439831
368.814777927
368.922986972
369.014407256
369.090375149
369.152219678
369.201259362
369.238797995
369.266120362
369.284486384
369.295124895
369.299225823
369.297932426
369.292333592
369.283458948
369.27227837
369.259709113
369.246629649
369.233866486
369.222163865
369.21211971
369.204171987
369.198634739
369.195645159
294.406112373
294.560992189
294.871732735
295.336186482
295.946098586
296.69184171
297.562672269
298.547334713
299.634563271
300.813465828
302.073781177
303.406020521
304.801514854
306.252393942
307.751521951
309.292410526
310.869125021
312.476194053
314.108528402
315.76135173
317.430143897
319.110596265
320.798578352
322.490114818
324.181372062
325.868653112
327.548399012
329.217195711
330.871783069
332.509063411
334.126110132
335.720174182
337.288688882
338.829272689
340.339730362
341.818052175
343.262411766
344.671162432
346.042832711
347.376121071
348.669890537
349.923162916
351.13511328
352.305064186
353.432480237
354.516962397
355.558242657
356.556178459
357.510747476
358.422042135
359.290264493
360.115720853
360.898816723
361.640051542
362.340013753
362.999375668
363.618888674
364.199378265
364.741739359
365.246931471
365.715974098
366.149941988
366.549960544
366.917201155
367.25287661
367.558236515
367.834562763
368.083165118
368.305376863
368.502550687
368.676054667
368.827268615
368.957580561
369.068383667
369.161073281
369.2370444
369.29768915
369.344394467
369.378539498
369.401492755
369.414608377
369.419221657
369.416642735
369.408149406
369.394977853
369.378313411
369.359280655
369.338936382
369.318264152
369.298171456
369.279476565
369.262888872
369.248984191
369.238200886
369.230866698
369.227128477
292.763588342
292.934504687
293.276856674
293.787254847
294.455249837
295.268758414
296.214526702
297.27893979
298.448664976
299.711112143
301.054709748
302.469021912
303.94474455
305.473621391
307.048316151
308.662269085
310.309556849
311.984766745
313.682890018
315.399235037
317.129358807
318.86901482
320.614115159
322.360705681
324.104953015
325.843142416
327.571683758
329.287124279
330.986163367
332.665665584
334.32267253
335.954411502
337.55830121
339.131955328
340.673183557
342.179990744
343.650573721
345.083316807
346.476785934
347.82972249
349.141036673
350.409801222
351.635244981
352.816746949
353.95383012
355.046155777
356.093517549
357.09583591
358.053152421
358.965624392
359.833519261
360.657209363
361.437166431
362.173956477
362.868234458
363.520739317
364.132288847
364.703774911
365.236158503
365.730465085
366.187779776
366.60924273
366.99604438
367.349420791
367.670648934
367.961042039
368.221944946
368.454729562
368.660790448
368.841540556
368.998407283
369.132828725
369.246250436
369.340122424
369.415896803
369.475025598
369.518959281
369.5491451
369.567026015
369.57403877
369.571611877
369.561161679
369.5440875
369.521763495
369.495528725
369.466673753
369.436426035
369.405934231
369.37625362
369.34833295
369.323000708
369.300953524
369.282747399
369.268801807
369.259429377
369.254731103
290.943106314
291.133728706
291.514763944
292.081021716
292.819038302
293.713422778
294.747629134
295.905044618
297.169809567
298.527355273
299.964675818
301.470384528
303.034619482
304.648860854
306.305711812
307.998679205
309.721975884
311.470354329
313.238973398
315.023295007
316.819005923
318.621959866
320.428136643
322.233616456
324.034568895
325.827255426
327.608043289
329.37342711
331.120052287
332.844734114
334.544473912
336.216469348
337.858121173
339.467036967
341.041032473
342.578129943
344.07655408
345.534725717
346.951254562
348.324931215
349.654719604
350.939749508
352.179309824
353.372841818
354.519932909
355.620310308
356.673835115
357.680496253
358.640404847
359.553788372
360.420985198
361.24243887
362.01869276
362.750384494
363.438240775
364.083072038
364.685767513
365.247290146
365.768671871
366.25100873
366.695456239
367.103224591
367.475573984
367.813809815
368.119277923
368.393359779
368.637467703
368.853040175
369.04153722
369.204436087
369.343227096
369.459410015
369.554490732
369.629978674
369.687384648
369.72821953
369.753993436
369.766215531
369.76639419
369.756036902
369.736649938
369.709736504
369.67679261
369.639299571
369.598711778
369.556440223
369.513830155
369.472137192
369.43250137
369.395926313
369.363262452
369.335199281
369.312268151
369.294855154
369.283237447
369.277453847
288.924294911
289.139466196
289.568438523
290.203371987
291.026593538
292.018206471
293.157317365
294.423500491
295.797828485
297.263473086
298.805925679
300.412931678
302.074244271
303.781292386
305.526833752
307.304637663
309.109219103
310.935629607
312.779299856
314.635924472
316.501378506
318.371657222
320.24283394
322.111034581
323.972429507
325.823242908
327.659779335
329.478459086
331.275853178
333.048712408
334.793987106
336.508838597
338.190645689
339.837008779
341.445751037
343.014916326
344.542763129
346.027756193
347.46855658
348.864011921
350.213147014
351.515155755
352.769393523
353.975370396
355.132744258
356.241314467
357.301015333
358.311910184
359.274185222
360.188143875
361.054200833
361.872876507
362.644791167
363.370659516
364.051285055
364.687554923
365.280434606
365.830963098
366.340247942
366.809460586
367.239831585
367.632645966
367.989238403
368.310988442
368.599315562
368.855674247
369.081549002
369.278449423
369.447905394
369.591462476
369.710677664
369.807115537
369.882345074
369.937937065
369.975462528
369.996491827
370.002595227
369.99534355
369.976310618
369.947075166
369.909223591
369.864350105
369.814055447
369.759939768
369.703590222
369.646559174
369.59033458
369.536303048
369.485711195
369.439632839
369.398947535
369.36433579
369.336290103
369.315140786
369.301108436
369.294153054
286.681823858
286.928078221
287.417349198
288.13782112
289.065845941
290.175319606
291.439576803
292.833350016
294.334034516
295.922304812
297.582195817
299.300813636
301.067845354
302.875007099
304.715524246
306.583693243
308.474541299
310.383578161
312.306623558
314.239689927
316.178901872
318.12043866
320.060492651
321.995243509
323.920852988
325.833483449
327.729343255
329.604743836
331.4561535
333.280238641
335.073886752
336.834215762
338.558578646
340.244567302
341.89001471
343.492991937
345.051799678
346.564956013
348.031183279
349.449395139
350.818685697
352.138320278
353.407727915
354.626494041
355.794353699
356.911184537
357.97700038
358.991944741
359.956284922
360.870405893
361.734804568
362.550083717
363.316946261
364.036189284
364.708698545
365.335442878
365.917469138
366.45589709
366.951914749
367.406773584
367.821783991
368.198310525
368.537767213
368.841612609
369.111344799
369.348496238
369.554628519
369.731327175
369.880196481
370.002854609
370.100928952
370.176052189
370.229858784
370.263982655
370.280055639
370.279707669
370.264567541
370.236265967
370.196439928
370.146737854
370.088825437
370.024390364
369.955144645
369.882820993
369.809160275
369.735886533
369.664665907
369.597054064
369.534435759
369.477975613
369.428587724
369.386931209
369.353434019
369.328338083
369.311774204
369.303595509
284.183693537
284.470072434
285.036520807
285.865134124
286.92363561
288.177285228
289.591730644
291.13559253
292.781951669
294.508874039
296.299196036
298.139848867
300.020987741
301.935126301
303.876392405
305.839951012
307.821592781
309.817462115
311.823888556
313.837285523
315.854086111
317.870695287
319.883449466
321.888586847
323.882241159
325.860471323
327.819334842
329.754981621
331.663737175
333.542159919
335.387063646
337.195517677
338.964845237
340.692628273
342.376712436
344.015204398
345.606458592
347.149059552
348.64180328
350.083680628
351.473863972
352.811698063
354.09669261
355.328515545
356.506985703
357.632065795
358.703855289
359.722584158
360.688606569
361.602395129
362.464534684
363.275716421
364.036731521
364.74846526
365.411890927
366.028064404
366.598118751
367.123259428
367.604759492
368.043955184
368.442241329
368.801066854
369.121929975
369.406373317
369.655978691
369.87236174
370.057166372
370.212059142
370.338723667
370.438855213
370.514155667
370.566329043
370.59707782
370.608100381
370.601089653
370.577733294
370.539716066
370.488724556
370.426453903
370.354616464
370.274952894
370.189242504
370.099312952
370.007042323
369.914351402
369.82317542
369.735412048
369.652842288
369.577038307
369.509283542
369.450531081
369.40139587
369.362195488
369.333030576
369.313894026
369.304490686
281.388717202
281.728087303
282.395322051
283.362959426
284.586058869
286.017773829
287.613522662
289.334305815
291.148323598
293.031196926
294.965190504
296.937894168
298.940774762
300.967878552
303.014813022
305.07802778
307.154355715
309.240751292
311.334160941
313.431467216
315.529461196
317.624813489
319.714032237
321.793418108
323.859046037
325.906802508
327.932506484
329.932064625
331.901604309
333.837551482
335.736642816
337.595899048
339.412609888
341.184343419
342.908961344
344.584618052
346.209738968
347.782992918
349.303266173
350.769639715
352.181373972
353.537900463
354.838816776
356.083880275
357.273000928
358.406233201
359.483768864
360.505930286
361.473164685
362.386038111
363.245229615
364.051524736
364.805809165
365.509062065
366.162350009
366.766821011
367.323699418
367.834280937
368.299928334
368.722067027
369.102180954
369.441808074
369.742535803
370.005995963
370.233859495
370.427830757
370.589641564
370.72104509
370.823809615
370.89971257
370.950534691
370.978055036
370.984046821
370.970273965
370.93848966
370.890437222
370.827853143
370.752473069
370.666041263
370.570323809
370.467125625
370.358309623
370.245816881
370.131681011
370.018030715
369.907066005
369.800992199
369.701904656
369.611639705
369.531636902
369.462888112
369.405944805
369.360943122
369.327746178
369.306124288
369.295571261
278.242704272
278.65398822
279.455908327
280.605596881
282.03926113
283.693028617
285.508796268
287.438274583
289.44448819
291.501305911
293.59166378
295.705206429
297.835984898
299.980591809
302.136840053
304.302934591
306.477024531
308.657015266
310.840534581
313.024967319
315.20749393
317.385090733
319.55447748
321.712030761
323.853724536
325.975161582
328.071777309
330.139106329
332.173002472
334.169742433
336.126004337
338.038773081
339.905298091
341.723122098
343.490124406
345.204526842
346.864851824
348.469878168
350.018604256
351.510216784
352.944072903
354.319696942
355.63678039
356.895177484
358.094896859
359.236092255
360.319054082
361.344203332
362.312085938
363.223367628
364.078827759
364.879352899
365.625929515
366.319637032
366.961640899
367.553186715
368.095594778
368.590255669
369.038626028
369.442224843
369.802629481
370.121471676
370.400432967
370.641239755
370.84565775
371.015485972
371.152550275
371.258696567
371.335783864
371.385677366
371.410241799
371.411335804
371.390805749
371.350482253
371.292178598
371.217690743
371.128800619
371.027283292
370.914919062