/*--------------------------------*- C++ -*----------------------------------*\
| =========                 |                                                 |
| \\      /  F ield         | OpenFOAM: The Open Source CFD Toolbox           |
|  \\    /   O peration     | Version:  v1906                                 |
|   \\  /    A nd           | Web:      www.OpenFOAM.com                      |
|    \\/     M anipulation  |                                                 |
\*---------------------------------------------------------------------------*/
FoamFile
{
    version     2.0;
    format      ascii;
    class       surfaceScalarField;
    location    "220";
    object      phia;
}
// * * * * * * * * * * * * * * * * * * * * * * * * * * * * * * * * * * * * * //

dimensions      [0 3 -1 0 0 0 0];
oriented        oriented;


internalField   nonuniform List<scalar> 
18240
(
0.000478768951731
-0.000478597633509
0.000933982441253
-0.000454874788897
0.00139738994591
-0.000463318987574
0.00185723195334
-0.00045948355237
0.00230822136962
-0.000450984606705
0.002747887828
-0.000439312109918
0.00317319633686
-0.000425394186367
0.00358288061362
-0.000409358470216
0.00397447433458
-0.000391775099985
0.00434734831567
-0.000372599105927
0.00469945643782
-0.000352387150738
0.00503070562856
-0.000331043760942
0.00533946122251
-0.000309128929422
0.00562609257573
-0.000286509611978
0.00588936095407
-0.000263729478025
0.00613001070328
-0.000240621228666
0.00634716652208
-0.000217694168671
0.00654185080981
-0.000194753917562
0.00671351056169
-0.000172262978517
0.00686335295571
-0.000150010567671
0.0069911053449
-0.000128405926766
0.0070980768334
-0.000107234637162
0.00718423774721
-8.68498265049e-05
0.0072509322108
-6.70456077939e-05
0.00729834176221
-4.81185626885e-05
0.00732779365345
-2.9881480119e-05
0.00733965367328
-1.25747804953e-05
0.00733519423268
3.96278652161e-06
0.00731494052719
1.95464144829e-05
0.00728008119268
3.43080095347e-05
0.00723127676674
4.81161122687e-05
0.00716961315469
6.10703422559e-05
0.00709586243636
7.30909012576e-05
0.0070109940424
8.42456414373e-05
0.00691586729865
9.45030237703e-05
0.00681132677299
0.000103900007919
0.00669829531817
0.000112449202873
0.00657748904828
0.000120158623141
0.00644987182942
0.000127080129475
0.0063160312222
0.000133195127044
0.00617695133564
0.000138589615641
0.0060330945596
0.000143221324513
0.00588544664517
0.00014720494343
0.00573435015289
0.000150477433097
0.00558077634366
0.000153177014232
0.00542495556016
0.000155223071309
0.00526783103598
0.000156772187128
0.0051095292606
0.000157729023651
0.0049509546125
0.000158263945963
0.00479213946982
0.000158269816767
0.00463394112189
0.000157926384323
0.00447630752062
0.000157117148752
0.00432004314802
0.000156027589685
0.00416502194728
0.000154534277177
0.0040119920557
0.000152825042309
0.00386076320202
0.000150771459762
0.00371202559571
0.000148561108939
0.00356553478897
0.000146062500284
0.00342192299251
0.000143460610986
0.00328090064266
0.000140622358646
0.00314304315084
0.000137728448338
0.00300802487061
0.000134645678629
0.00287636649036
0.000131548949063
0.00274771428564
0.000128305988744
0.00262253705497
0.000125084853571
0.00250046103411
0.000121755238918
0.0023819065058
0.000118477278258
0.00226648703347
0.000115123254276
0.00215457842127
0.000111844549565
0.00204578947909
0.000108516568057
0.0019404563586
0.00010528083445
0.0018381912999
0.000102015896763
0.00173929703902
9.88522157669e-05
0.00164339929496
9.56711354564e-05
0.00155077598655
9.25901488429e-05
0.00146107893237
8.94920598011e-05
0.00137457420815
8.64786554057e-05
0.00129095816157
8.34315207331e-05
0.0012105058548
8.04319599928e-05
0.00113298626792
7.73545109963e-05
0.0010587199319
7.42505493819e-05
0.000987600430258
7.09717631281e-05
0.000920079278981
6.75087253393e-05
0.000856327401267
6.36184678831e-05
0.000797259680931
5.90547145496e-05
0.000744268947256
5.28675628587e-05
0.000701416515237
4.28343548229e-05
0.000662381273762
3.89234847875e-05
0.00061610825405
4.62361814867e-05
0.000561576214703
5.4412675119e-05
0.000500850039667
6.0656176533e-05
0.000432563377147
6.81530149187e-05
0.000351750266907
8.06778554337e-05
0.000251485268357
0.000100116321545
0.000128092126795
0.000123241764955
0.000128002760995
0.000460269899998
-0.000938658313732
0.000980421532286
-0.000974744611422
0.00148447340965
-0.000967175547749
0.00197776989242
-0.000952523373294
0.00245956043168
-0.000932628266553
0.00292821637723
-0.000907751269535
0.00338140725373
-0.000878503155027
0.00381745780631
-0.000845249662976
0.00423431458395
-0.0008086287697
0.00463078664087
-0.000768985016124
0.00500528091675
-0.000726966255932
0.00535712531905
-0.000682886822843
0.00568519562764
-0.000637376622174
0.00598929486942
-0.000590699390302
0.0062687316245
-0.000543436240539
0.00652371087238
-0.00049578541028
0.00675391652765
-0.000448258583829
0.00695987015435
-0.000400985195834
0.00714156628326
-0.000354399255313
0.00729975914279
-0.000308568342201
0.00743469207389
-0.000263850260281
0.00754727776742
-0.000220263976725
0.00763795544178
-0.000178098086321
0.00770773616109
-0.000137337847986
0.00775721227642
-9.82111523367e-05
0.0077874464765
-6.06827180446e-05
0.0077991500205
-2.49270983565e-05
0.00779340131873
9.10200702733e-06
0.00777100214962
4.12779123212e-05
0.00773302001878
7.16513270936e-05
0.00768032254142
0.000100139444276
0.007613943027
0.000126794228588
0.0075347914318
0.000151573146459
0.00744384935276
0.000174526790556
0.00734204808207
0.000195649315388
0.00723030361853
0.000214988393744
0.00710954944093
0.000232570787118
0.00698062548645
0.000248439992839
0.00684445051805
0.000262651016996
0.00670178124903
0.000275242305111
0.00655350732011
0.000286292558653
0.00640029794362
0.000295834520824
0.00624300172361
0.000303966151825
0.00608219861257
0.00031071415303
0.00591868679038
0.00031619143449
0.00575295734548
0.000320418442385
0.00558575102598
0.000323519044157
0.0054174722272
0.000325507386063
0.00524879959382
0.000326514567335
0.00508005454608
0.000326548419411
0.00491185105083
0.000325743979697
0.00474443243688
0.000324102864632
0.00457834736496
0.000321761135039
0.00441376694411
0.000318714337428
0.00425117549203
0.000315097158724
0.00409067834524
0.000310899355569
0.00393269778682
0.000306252273132
0.00377728026087
0.000301140229449
0.00362478927689
0.00029568975424
0.00347521932384
0.000289880191804
0.00332887912506
0.000283832129713
0.00318571817807
0.000277520423107
0.00304599483475
0.000271058928883
0.00290962035135
0.000264418505992
0.00277680746558
0.000257705638778
0.00264743588868
0.000250887571222
0.00252167774364
0.00024406285623
0.00239938781434
0.000237195326125
0.00228070300972
0.000230374893023
0.00216546015467
0.000223561829831
0.00205376697376
0.000216836391497
0.00194544997133
0.000210154592604
0.00184059495833
0.000203585335235
0.00173902737213
0.000197078729823
0.00164082060758
0.000190689500004
0.0015458111404
0.000184358631609
0.00145407355956
0.000178121828695
0.00136547284309
0.000171905045952
0.00128010542093
0.000165716670572
0.00119789039583
0.000159456957243
0.00111897655442
0.00015309217127
0.0010433720288
0.00014647651319
0.000971312334292
0.000139504994704
0.00090290208024
0.000131940100953
0.000838361684816
0.000123536874143
0.000777279900332
0.000113867402863
0.000717285053704
0.000102773744507
0.000661198762746
9.4936175625e-05
0.000610500642067
9.68695439102e-05
0.000557179434029
0.000107649346279
0.000495505670135
0.000122239013727
0.000424091573057
0.000139454160298
0.000343341987193
0.000161311178513
0.000245239997577
0.000198079239172
0.000123009233196
0.000245326957467
0.000250954803498
0.000478831744768
-0.00141725672977
0.000993698503306
-0.00148935899717
0.00150201500612
-0.00147525294973
0.00200104013956
-0.00145131478703
0.00248852573204
-0.00141992019897
0.00296235010828
-0.00138138886785
0.00342029317415
-0.00133631409936
0.00386047393106
-0.00128530937266
0.00428104130031
-0.00122914018284
0.00468059046355
-0.00116849351456
0.00505776273618
-0.00110416999949
0.00541166986209
-0.00103684348939
0.0057414473816
-0.000967279353165
0.00604668718514
-0.000896084067565
0.00632697019133
-0.000823940166433
0.00658229818408
-0.000751354046636
0.0068126256271
-0.000678900034928
0.00701828081132
-0.000606973139195
0.00719951455726
-0.000536033918912
0.0073569005
-0.000466371825463
0.00749091465518
-0.000398342752436
0.00760230550093
-0.00033214704217
0.00769171548983
-0.000268052213608
0.00776001213389
-0.000206189219613
0.00780795860844
-0.000146754384586
0.00783649874755
-8.98268172971e-05
0.00784648138971
-3.55454014373e-05
0.00783889402609
1.60498703503e-05
0.00781464283662
6.48682010574e-05
0.00777473244137
0.000110900052899
0.00772010234357
0.000154096342504
0.00765175196539
0.000194473281252
0.00757063243931
0.000232018902916
0.00747771876285
0.000266770722817
0.00737395445292
0.00029874957894
0.00726027387861
0.000328010511238
0.00713759620306
0.000354602681695
0.00700680207513
0.000378594989883
0.00686877225713
0.00040006022261
0.00672432352019
0.000419077551085
0.00657428691383
0.000435738796429
0.00641940810519
0.000450130157428
0.00626045970289
0.000462358036797
0.00609811145524
0.000472512674718
0.00593307126605
0.000480710987524
0.00576593056259
0.000487044669157
0.00559732849789
0.000491637303911
0.00542777762882
0.000494579657263
0.00525784643244
0.000495998575645
0.00508796998867
0.000495981880001
0.00491864600533
0.000494656549059
0.00475023482625
0.000492105669562
0.00458316497741
0.000488453769296
0.00441772622324
0.00048377784643
0.00425428078823
0.00047819777726
0.00409305276872
0.000471783418218
0.00393434204501
0.00046464840752
0.00377831275878
0.00045685486732
0.00362520706243
0.000448508989522
0.00347513502903
0.000439664829219
0.0033282861849
0.000430420433345
0.00318472271727
0.000420821783204
0.00304458680023
0.000410958279127
0.00290789874216
0.000400867887458
0.00277475879032
0.000390631102639
0.00264515148916
0.000380277991804
0.00251914061994
0.000369879768313
0.00239668095168
0.000359458466068
0.00227780550395
0.000349075483732
0.00216244563938
0.000338744327619
0.00205060973564
0.000328515433953
0.00194221260908
0.000318392472996
0.00183724511609
0.000308412873987
0.00173561381439
0.000298567908269
0.00163730096453
0.000288878210898
0.00154221551813
0.00027931784166
0.00145034351931
0.000269884080531
0.0013616115387
0.000260525314357
0.00127602751366
0.000251204189247
0.00119355714259
0.000241829073333
0.00111425493071
0.000232309902195
0.00103815171772
0.000222493488116
0.000965367898548
0.000212214266466
0.000895990985706
0.000201241597538
0.000830112676356
0.000189348428627
0.000767561927193
0.000176347814813
0.000707659036092
0.000162617237883
0.000646808036087
0.000155723614151
0.000590140689311
0.000153472143281
0.000536212818343
0.000161502283694
0.000471676730382
0.000186696284183
0.000394512787311
0.000216518349397
0.000303809286198
0.00025189053209
0.00020080602999
0.000300979561722
0.000101556769567
0.000344481549902
0.000352453636218
0.000490442542798
-0.00190744827572
0.00101078556716
-0.00200941580871
0.00152613592925
-0.00199034807554
0.00203249409417
-0.00195742661031
0.00252708170501
-0.00191429399535
0.00300745839607
-0.00186157319544
0.00347133458159
-0.00180003828013
0.00391670663906
-0.00173055937467
0.00434176208872
-0.00165412231081
0.00474502152523
-0.00157171549735
0.00512521018359
-0.00148437592674
0.0054813917352
-0.00139308184329
0.00581281451071
-0.00129881688029
0.00611904050052
-0.00120246580467
0.00639977866561
-0.0011048924071
0.00665501052335
-0.00100684045118
0.00688482111542
-0.000909021359691
0.00708952119526
-0.000812022105314
0.00726948454347
-0.000716397961684
0.00742526559081
-0.000622587929942
0.00755744942587
-0.000531007342981
0.00766676276699
-0.000441970604787
0.00775394071179
-0.000355778731064
0.0078198280593
-0.000272648979809
0.00786526453952
-0.000192793563846
0.00789117334423
-0.000116356215433
0.00789846532052
-4.34799720327e-05
0.00788811213697
2.57485348947e-05
0.00786106899308
9.12429665298e-05
0.00781833121324
0.0001529632019
0.0077608754195
0.000210871236401
0.00768969885922
0.000264967873124
0.00760577855627
0.000315257836563
0.00751009422013
0.000361777123654
0.00740360454497
0.000404567834048
0.0072872549109
0.000443695955092
0.00716196960473
0.000479235270214
0.00702864576248
0.000511276332494
0.00688816006961
0.000539918779179
0.00674135055627
0.000565272402323
0.00658903600661
0.000587456990554
0.00643198726247
0.000606596524243
0.00627095756218
0.000622825645267
0.00610664506277
0.000636277951806
0.00593973226402
0.00064709805785
0.00577084139069
0.000655424989322
0.00560058120366
0.000661408901901
0.00542949684017
0.000665190491837
0.00525812237842
0.000666921422344
0.00508692654843
0.000666740660309
0.0049163696006
0.000664797832124
0.00474684618301
0.000661227270757
0.00457874517552
0.000656173540521
0.00441239079571
0.00064976393094
0.00424810425249
0.00064213555064
0.00408614402048
0.00063340685506
0.00392676829895
0.00062370572303
0.00377017518527
0.000613140537462
0.00361656510738
0.000601828797105
0.00346608154134
0.000589868130135
0.00331887272119
0.000577364995805
0.00317503338654
0.000564405957983
0.0030346652264
0.000551086151628
0.00289782010463
0.000537481033376
0.00276455880904
0.000523674282868
0.00263489609302
0.000509730219095
0.00250885741115
0.000495720896137
0.00238642611828
0.00048169928964
0.00226759796161
0.000467725323738
0.00215233071546
0.000453839907534
0.00204059627307
0.000440089664542
0.00193233304234
0.000426501809336
0.00182749556691
0.000413107275623
0.00172601002084
0.000399916348766
0.00162782140231
0.000386939823857
0.00153285262117
0.000374165132046
0.00144104952759
0.000361574973702
0.00135234423703
0.00034912345948
0.00126669848209
0.000336751482394
0.0011840715616
0.000324362250659
0.00110446275029
0.000311832850832
0.00102788451513
0.000298989913564
0.000954402538138
0.000285621222314
0.000884109361447
0.000271463649532
0.000817138242552
0.000256252801655
0.000753521204119
0.000239901010472
0.000692324440218
0.000223755639593
0.000632830638744
0.000215159376466
0.000570746047066
0.000215498566979
0.00050143574654
0.000230750634184
0.000434851584046
0.000253205673335
0.00035198138953
0.000299299602688
0.000253052371482
0.000350739219596
0.000163771690483
0.000390168437751
8.23670094231e-05
0.000425796992765
0.000434790751323
0.00050254877786
-0.0024097203028
0.00103337515463
-0.0025399592476
0.00155910593664
-0.00251579205558
0.00207553335999
-0.00247359362645
0.00257966460793
-0.00241818777018
0.00306883282297
-0.00235053543638
0.00354063467973
-0.00227166910839
0.0039929608457
-0.00218275411644
0.00442398123943
-0.00208505436605
0.00483218088751
-0.00197987345643
0.00521632786964
-0.001868529623
0.00557549517041
-0.00175230693432
0.00590901302666
-0.00163244351295
0.00621648013662
-0.00151009450792
0.00649770790481
-0.00138633285604
0.00675272660353
-0.0012621237119
0.00698172803274
-0.00113833625253
0.00718507137614
-0.00101572760346
0.00736322935771
-0.000894962928784
0.00751679677431
-0.000776605892731
0.00764644303931
-0.000661143406585
0.00775292451279
-0.000548978971826
0.00783704442274
-0.000440458194965
0.00789966803019
-0.00033586189029
0.00794168904581
-0.000235429377979
0.00796404557021
-0.000139349627191
0.00796769159958
-4.7781067839e-05
0.00795361161948
3.91589547249e-05
0.00792279588455
0.000121378084078
0.00787625253575
0.000198818603804
0.00781498668367
0.000271444705162
0.00774000911282
0.000339252189477
0.00765231929327
0.000402255870558
0.00755291106402
0.000460498301313
0.00744275975265
0.000514038655251
0.00732282501657
0.000562959579204
0.00719404218748
0.000607357722325
0.00705732249075
0.000647348709
0.00691354848694
0.000683059483187
0.00676357182304
0.000714631524397
0.00660821252801
0.000742215147865
0.00644825446096
0.00076597104429
0.00628444807145
0.000786066495405
0.00611750375086
0.000802675338049
0.00594809772938
0.000815976019162
0.00577686358717
0.000826150045163
0.005604400869
0.000833381703686
0.00543126505057
0.000837855163271
0.00525797854203
0.000839755741251
0.00508501939267
0.000839265799316
0.00491283424079
0.000836567379642
0.00474182603573
0.000831837135404
0.00457236859103
0.000825250213362
0.00440479354824
0.00081697439279
0.00423940608542
0.000807175024712
0.00407647133805
0.00079600860529
0.003916230945
0.000783628625102
0.00375888908735
0.000770178704185
0.00360462948109
0.000755799138189
0.0034536012069
0.000740619756978
0.00330593591055
0.000724767001158
0.00316173355493
0.000708356568651
0.00302107954031
0.000691500803518
0.00288403053809
0.000674301235264
0.00275063139197
0.000656856117299
0.00262090116223
0.000639252875268
0.00249484962064
0.000621575594677
0.00237246366466
0.00060389743391
0.00225372335706
0.000586287895801
0.0021385888411
0.000568805172336
0.00202701582511
0.000551502975303
0.00191894317044
0.000534422779773
0.00181430784548
0.000517599967085
0.00171303337002
0.000501055784831
0.00161504425406
0.00048480240735
0.0015202556133
0.000468834307516
0.00142858734858
0.000453131637011
0.00133995543191
0.000437650361063
0.00125428637967
0.000422322979288
0.00117151090044
0.000407046339755
0.00109158096151
0.000391678240886
0.00101447067153
0.000376021201685
0.000940206087351
0.00035981224252
0.000868904108677
0.000342697841388
0.000800897339703
0.000324196544533
0.000737083347707
0.000303654112456
0.000680351458482
0.000280432807513
0.000612960288909
0.000282499937279
0.000537356052272
0.000291050243973
0.000460663710645
0.000307388543091
0.00038260998721
0.000331202449932
0.000306770501297
0.000375068241756
0.00021992743227
0.000437491768138
0.000137868821714
0.000472169176734
6.85252008176e-05
0.000495092074964
0.000503280906981
0.000516861750708
-0.00292628194537
0.00106189558846
-0.00308465355023
0.00160131374622
-0.00305490497747
0.00213078580097
-0.00300277449672
0.00264712346486
-0.00293426674194
0.00314747952137
-0.00285066246616
0.00362931124093
-0.00275331161528
0.00409041407174
-0.00264370766619
0.0045289129413
-0.00252345225004
0.00494328162262
-0.00239418805275
0.00533231638384
-0.00225756464826
0.00569513995983
-0.00211518170525
0.00603115923389
-0.00196857136467
0.00634005934383
-0.00181915536205
0.00662175306946
-0.00166824472545
0.00687637129372
-0.00151701096111
0.00710421162906
-0.00136650034506
0.0073057302253
-0.00121761735334
0.00748149543583
-0.00107114908401
0.00763218409357
-0.000927757650576
0.00775854362744
-0.000788009183242
0.0078613936811
-0.000652370921031
0.00794159734536
-0.000521239130619
0.00800006661806
-0.00039493683252
0.00803774100811
-0.00027373650546
0.00805559400586
-0.000157856239761
0.00805461651657
-4.74759174289e-05
0.00803582180896
5.7267853654e-05
0.00800023191423
0.000156271452133
0.00794888007072
0.000249467408533
0.00788279952608
0.000336818787115
0.00780302333407
0.000418321665351
0.00771057566529
0.000493999818326
0.00760646974377
0.000563905654157
0.00749170182337
0.000628116397466
0.00736724785794
0.000686733014257
0.00723406009484
0.000739877694933
0.00709306291988
0.000787691275283
0.00694515183156
0.000830331982131
0.00679118872561
0.000867971847676
0.0066320028296
0.00090079658151
0.00646838560409
0.00092900136883
0.00630109325574
0.000952791649406
0.00613084143563
0.000972378533031
0.00595830897455
0.000987980191745
0.00578413256491
0.000999817084926
0.00560891146986
0.00100811374379
0.00543320237262
0.00101309396581
0.00525752482081
0.00101498281467
0.00508235637258
0.00101400196007
0.00490813858564
0.00101037182109
0.00473527254113
0.00100430718573
0.00456412516962
0.000996019435802
0.00439502516559
0.000985712566746
0.00422826947608
0.00097358548271
0.00406411958745
0.000959828466927
0.00390280799823
0.000944625505322
0.00374453482283
0.000928151227266
0.00358947411976
0.00091057323196
0.00343777076384
0.00089204945647
0.00328954651879
0.000872730442783
0.00314489712356
0.000852757076373
0.00300389805492
0.000832262745022
0.00286660180377
0.000811371353704
0.00273304329163
0.000790199310703
0.00260323731153
0.000768853726184
0.00247718361182
0.000747434170052
0.00235486449841
0.000726030946852
0.00223624960674
0.000704726542704
0.00212129366058
0.000683593853152
0.00200994097665
0.000662697228208
0.0019021233823
0.00064209048197
0.00179776449629
0.000621817362206
0.00169677781206
0.000601909086389
0.00159907082695
0.00058238395169
0.00150454335023
0.000563243948697
0.00141309164446
0.00054447295275
0.00132460715522
0.000526031598055
0.00123898108808
0.000507852982291
0.00115610387832
0.000489834225848
0.00107587200667
0.000471827473358
0.000998191428468
0.000453625092908
0.000922991701805
0.000434941501447
0.000850240706877
0.000415384210702
0.000779959129737
0.000394418260545
0.000712230010184
0.000371326697153
0.000646241830196
0.000346372772706
0.00058248293631
0.000346211598653
0.000512226119709
0.000361262995212
0.000430966220583
0.000388603431094
0.000343111685544
0.000419000191989
0.000262275233199
0.000455845207861
0.000195061983173
0.000504660205472
0.000123281447682
0.000543894419802
6.08405046602e-05
0.000557479443434
0.00056410876462
0.000534152257957
-0.00346009647524
0.0010969191199
-0.00364707819354
0.00165343352851
-0.0036110701121
0.0021990843453
-0.0035481086063
0.00273047448313
-0.00346536515473
0.0032445474877
-0.0033644815599
0.00373861241923
-0.00324716124001
0.00421035763841
-0.00311528463852
0.00465786481642
-0.00297083872505
0.0050796009194
-0.00281585845313
0.00547440919506
-0.00265236033134
0.00584147988691
-0.00248229961368
0.00618032721671
-0.00230752143077
0.00649074723288
-0.00212973939617
0.00677278931752
-0.00195050587706
0.0070267101634
-0.00177121046049
0.00725294659603
-0.00159306746906
0.0074520731736
-0.00141712980383
0.00762478111332
-0.00124428986598
0.00777184473218
-0.00107530272238
0.00789410872451
-0.000910794992266
0.00799246555484
-0.000751290148553
0.00806785029865
-0.00059721906914
0.0081212274397
-0.00044894091799
0.00815358974839
-0.000306750558709
0.00816595068036
-0.000170891664348
0.00815934332144
-4.15598784664e-05
0.00813481479619
8.10910282982e-05
0.00809342329252
0.000196948373875
0.00803623317782
0.000305936963586
0.0079643095618
0.000408019499894
0.00787871422882
0.000503195228503
0.00778049895867
0.00059149699
0.00767070268285
0.00067299100769
0.00755034453121
0.000747772349053
0.00742042245371
0.000815964967742
0.00728190663969
0.000877716138297
0.0071357395201
0.000933196860155
0.00698282984417
0.000982595917609
0.00682405371399
0.00102612073358
0.00666024940429
0.00106399153507
0.00649221903798
0.00109644254537
0.00632072417596
0.00112371647141
0.0061464878252
0.00114606580539
0.00597019088881
0.00116374772964
0.00579247432739
0.00117702529584
0.00561393654749
0.00118616280369
0.00543513561339
0.0011914267445
0.00525658763785
0.00119308175011
0.00507876897415
0.00119139126274
0.00490211557843
0.00118661413583
0.00472702511427
0.00117900507897
0.00455385721242
0.00116881198608
0.00438293541609
0.00115627620359
0.00421454818269
0.00114163060522
0.0040489505987
0.00112509974424
0.00388636597
0.00110689865722
0.0037269872433
0.0010872329164
0.00357097900243
0.00106629807847
0.00341847855769
0.00104427964529
0.00326959821416
0.00102135305097
0.00312442602156
0.000997683493156
0.00298302818263
0.000973426320128
0.00284544947586
0.000948726711915
0.00271171573699
0.000923720326877
0.0025818339891
0.000898532787088
0.00245579492018
0.000873280439081
0.00233357277273
0.000848069605597
0.00221512778754
0.000822997324722
0.00210040588325
0.000798150303073
0.00198934101332
0.000773605463438
0.00188185465595
0.000749428511371
0.00177785803272
0.000725674084976
0.00167725139327
0.000702383746941
0.00157992598789
0.000679585403573
0.00148576310831
0.000657290377263
0.00139463570067
0.000635491497026
0.00130640710492
0.00061415849667
0.00122093220628
0.000593233575466
0.00113805555792
0.000572623427376
0.00105761293104
0.000552189643647
0.000979430571427
0.000531733508136
0.000903328563988
0.000510975359994
0.000829125794798
0.000489526170168
0.000756633114757
0.000466854622607
0.000685594364711
0.000442314898341
0.00061527914724
0.000416643163708
0.000543521264709
0.000417929067383
0.00046630374467
0.000438441585351
0.000392749173019
0.00046211635667
0.000310818388353
0.000500895267387
0.000231965220476
0.000534654214466
0.000172176865811
0.000564390388959
0.000111986175351
0.000604056275768
5.51560575169e-05
0.000614287931148
0.00061924317702
0.00055489319934
-0.00401461843424
0.00113916303236
-0.00423092847067
0.00171636633865
-0.00418789540806
0.00228155875225
-0.00411293920387
0.00283103657852
-0.00401451926383
0.00336151196456
-0.00389466803836
0.00387011172166
-0.0037555183421
0.0043544175235
-0.00359939443967
0.00481246151974
-0.0034287425715
0.00524272784606
-0.00324603909889
0.00564411868574
-0.0030537280249
0.00601593288275
-0.00285414935226
0.0063578138046
-0.00264950342347
0.0066697174512
-0.0024418036542
0.00695185389721
-0.00223286783973
0.00720465423873
-0.00202429369635
0.00742871510159
-0.00181747231743
0.00762477124873
-0.0016135826074
0.00779365021973
-0.00141362017328
0.00793625512277
-0.00121840496924
0.00805353342133
-0.00102861704992
0.00814647104463
-0.000844809572754
0.00821607482515
-0.000667441723293
0.00826337459892
-0.000496888985612
0.00828941441344
-0.000333466031255
0.00829525660485
-0.000177430230514
0.00828197594776
-2.89934557894e-05
0.00825066082847
0.000111679564975
0.00820240776106
0.000244465897511
0.00813831868485
0.000369285816293
0.00805949484715
0.000486102068081
0.0079670318945
0.000594918964697
0.00786201462068
0.000695780792125
0.00774551104494
0.00078876885067
0.00761856888866
0.000874000081581
0.00748220966264
0.000951622100072
0.00733742706516
0.00102181227768
0.00718518153923
0.00108477174876
0.00702640031228
0.00114072526138
0.006861972487
0.00118991495065
0.00669275021077
0.00123260097292
0.00651954424532
0.00126905545372
0.00634312583841
0.00129956362682
0.00616422280403
0.00132441806498
0.00598352184314
0.00134391994928
0.00580166525383
0.00135837364137
0.00561925358886
0.00136808783839
0.00543684312172
0.00137337058367
0.00525494875905
0.0013745302085
0.00507404231986
0.00137187092231
0.00489455562183
0.00136569356018
0.00471687955603
0.00135629187347
0.00454136723054
0.00134395314346
0.00436833374577
0.00132895525678
0.00419805927582
0.00131156725757
0.0040307894071
0.00129204722078
0.00386673802661
0.0012706427798
0.00370608806605
0.00124758975036
0.00354899409879
0.00122311263843
0.00339558335043
0.00119742390118
0.00324595794048
0.00117072439377
0.0031001960365
0.0011432031368
0.00295835371814
0.00111503765388
0.00282046619773
0.00108639408687
0.0026865493132
0.0010574273636
0.00255660075439
0.00102828151709
0.00243060121885
0.000999089637282
0.00230851559431
0.000969974247988
0.00219029381157
0.000941046988089
0.00207587192034
0.000912408911431
0.00196517265853
0.000884149833015
0.0018581063292
0.000856348388639
0.00175457104826
0.000829070946998
0.0016544532549
0.000802371215175
0.00155762751929
0.000776288519246
0.00146395639656
0.000750846609394
0.00137328950596
0.000726050898997
0.00128546219837
0.000701885756226
0.00120029331333
0.000678309750259
0.00111758144343
0.000655249802237
0.0010371009525
0.000632591721469
0.000958596056867
0.000610166653802
0.000881778128267
0.000587728523153
0.000806330701457
0.00056491581452
0.000731951140751
0.000541182782523
0.000658519576635
0.000515701404827
0.000587229465485
0.000487892983099
0.000516042536309
0.000489081149523
0.000437505467728
0.000516944774859
0.000357041242843
0.000542551103634
0.000282877454578
0.000575021247613
0.000214673843252
0.00060282140253
0.000153368486153
0.000625678851365
0.000103987770618
0.000653404896575
5.0785541054e-05
0.000667459012555
0.000670026988035
0.000579568898164
-0.0045937621367
0.00118942487569
-0.00484035428481
0.00179126845253
-0.00478929958144
0.00237963998092
-0.00470091026557
0.00295048595425
-0.00458499421936
0.00350022012657
-0.00444407601227
0.00402577115514
-0.00428078866069
0.00452459781631
-0.00409799596361
0.00499470024586
-0.00389867561336
0.00543459275776
-0.00368582689782
0.0058432789226
-0.0034623713299
0.00622019484202
-0.00323109234609
0.00656516828946
-0.00299456804461
0.00687834881444
-0.0027551464088
0.00716016447596
-0.00251490856264
0.00741125146184
-0.00227567406429
0.00763241708372
-0.00203898987238
0.00782457857156
-0.00180615834761
0.00798873839438
-0.00157824616053
0.00812593958348
-0.0013561261654
0.00823725662615
-0.00114049773345
0.00832377018778
-0.00093193059895
0.00838657147314
-0.000730884927182
0.00842675213732
-0.000537744721723
0.00844541416152
-0.000352828156122
0.00844366605939
-0.000176404810275
0.00842262969631
-8.69565299656e-06
0.00838343562432
0.000150122477804
0.00832722434376
0.000299918642395
0.00825513965456
0.000440608344858
0.00816832413417
0.000572155553975
0.00806791339361
0.000694571780912
0.00795502904701
0.000807913730412
0.00783077477916
0.000912282218584
0.00769622886342
0.00100781682132
0.00755244264148
0.00109469467594
0.00740043352015
0.00117312348736
0.00724118565684
0.00124334090732
0.00707564364529
0.0013056071673
0.0069047147048
0.00136020541107
0.00672926293572
0.00140743467124
0.00655011227838
0.00144761097016
0.00636804130009
0.00148106077089
0.00618378647414
0.00150812234798
0.00599803766558
0.00152913965677
0.00581144154926
0.0015444635654
0.00562459801852
0.00155444616297
0.00543806367574
0.00155944169012
0.00525234931273
0.00155980142727
0.00506792341823
0.00155587432998
0.00488521074635
0.00154800265487
0.00470459576336
0.00153652239898
0.00452642221162
0.00152175979524
0.00435099639313
0.00150403166284
0.00417858754678
0.00148364283403
0.00400943085378
0.00146088649795
0.0038437284165
0.00143604254036
0.00368165187798
0.00140937790919
0.00352334379338
0.00138114575498
0.00336891980182
0.0013515857884
0.00321847020836
0.0013209240809
0.0030720616839
0.00128937334806
0.00292973893787
0.00125713321786
0.00279152596063
0.00122439038371
0.00265742769784
0.00119131916937
0.00252743087787
0.00115808148163
0.00240150562654
0.00112482751774
0.0022796059184
0.00109169547286
0.00216167108055
0.00105881225184