/*--------------------------------*- C++ -*----------------------------------*\
| =========                 |                                                 |
| \\      /  F ield         | OpenFOAM: The Open Source CFD Toolbox           |
|  \\    /   O peration     | Version:  v1906                                 |
|   \\  /    A nd           | Web:      www.OpenFOAM.com                      |
|    \\/     M anipulation  |                                                 |
\*---------------------------------------------------------------------------*/
FoamFile
{
    version     2.0;
    format      ascii;
    class       volVectorField;
    location    "101";
    object      U;
}
// * * * * * * * * * * * * * * * * * * * * * * * * * * * * * * * * * * * * * //

dimensions      [0 1 -1 0 0 0 0];


internalField   nonuniform List<vector> 
9216
(
(0.0020172292149 -0.00202162525035 0)
(0.00151020393876 -0.00485975259913 7.33015239048e-28)
(0.0015591478807 -0.00831718067029 1.16213980574e-31)
(0.00155860030781 -0.0115705841908 0)
(0.00153415682677 -0.0148062055965 0)
(0.00149750086529 -0.0179749732619 0)
(0.00145273498022 -0.0210577221916 0)
(0.00140122126374 -0.0240395940355 0)
(0.00134470315577 -0.0269083405987 0)
(0.00128352270706 -0.0296541186844 0)
(0.00121917306095 -0.0322686027981 0)
(0.00115163594873 -0.0347455299793 0)
(0.00108242374511 -0.0370792890589 0)
(0.00101139009074 -0.0392670394373 0)
(0.000939911842209 -0.0413056474107 0)
(0.000867529214311 -0.0431944284058 0)
(0.000795643634193 -0.044932411875 0)
(0.000723638929648 -0.0465203730705 0)
(0.000652828116957 -0.0479592732169 0)
(0.000582313038747 -0.0492507249191 0)
(0.000513395829638 -0.0503963494926 0)
(0.000444828702707 -0.0513990522002 0)
(0.000378065559182 -0.0522601517308 0)
(0.000311996462337 -0.0529829103603 0)
(0.000247996288237 -0.0535699413933 0)
(0.00018463178922 -0.0540239359654 0)
(0.00012324993236 -0.0543479841034 0)
(6.23266498892e-05 -0.0545442179879 0)
(3.39932269641e-06 -0.0546153977087 0)
(-5.50664870646e-05 -0.0545643698758 0)
(-0.000111373553217 -0.0543929240897 0)
(-0.000167449217135 -0.0541052193393 0)
(-0.000221709395604 -0.0537017038341 0)
(-0.000275216873127 -0.0531856395454 0)
(-0.00032650402133 -0.0525609599506 0)
(-0.000377236754945 -0.0518289738889 0)
(-0.000425652154056 -0.0509938182869 0)
(-0.000473273964945 -0.0500581281129 0)
(-0.000518307528214 -0.0490256285967 0)
(-0.000562156165379 -0.047900212416 0)
(-0.000602920022694 -0.0466862408051 0)
(-0.000642020756882 -0.0453887368258 0)
(-0.000677709906835 -0.0440131946787 0)
(-0.000711066470426 -0.0425653170568 0)
(-0.000740077101519 -0.0410521040537 0)
(-0.000766008064013 -0.0394815595667 0)
(-0.000787139304776 -0.037861632272 0)
(-0.00080454333718 -0.0362012565696 0)
(-0.000816578276417 -0.0345100569084 0)
(-0.000824348411088 -0.0327980195406 0)
(-0.000826401154941 -0.0310756669377 0)
(-0.000823965320256 -0.0293536082277 0)
(-0.000815897452798 -0.0276425410538 0)
(-0.000803491815301 -0.0259527344794 0)
(-0.00078586603449 -0.0242943585478 0)
(-0.00076455569007 -0.0226765428286 0)
(-0.000738983709871 -0.0211078383362 0)
(-0.000710692250327 -0.0195953446922 0)
(-0.000679205828987 -0.0181454157665 0)
(-0.000646034916348 -0.016763000078 0)
(-0.000610912800157 -0.015451975975 0)
(-0.000575294621383 -0.0142148393473 0)
(-0.000538871560984 -0.0130530218376 0)
(-0.000502964640343 -0.0119667020543 0)
(-0.000467262236074 -0.0109552518752 0)
(-0.000432818038686 -0.0100170117357 0)
(-0.000399159715765 -0.00914993378238 0)
(-0.000367198035881 -0.00835112388869 0)
(-0.000336548091723 -0.00761782428775 0)
(-0.000308021086442 -0.0069461922199 0)
(-0.000281008504205 -0.00633254354485 0)
(-0.000256078480453 -0.00577310661885 0)
(-0.000232648030443 -0.00526410514929 0)
(-0.000211222032287 -0.00480176646313 0)
(-0.000191301713012 -0.00438249386637 0)
(-0.000173256199498 -0.0040027034584 0)
(-0.000156521458913 -0.00365907707407 0)
(-0.000141493223603 -0.00334832126516 0)
(-0.000127612910979 -0.00306747994449 0)
(-0.000114392699946 -0.0028145030267 0)
(-9.9230464618e-05 -0.0025802517709 0)
(-8.59265199621e-05 -0.00237324271108 0)
(-7.80628918548e-05 -0.00220848652428 0)
(-7.47577037702e-05 -0.00205694820253 0)
(-7.54910337677e-05 -0.00191464447078 0)
(-7.15900199081e-05 -0.00175622225974 0)
(-6.12328843192e-05 -0.0016094082328 0)
(-5.10123428427e-05 -0.00150026374833 0)
(-5.67191829451e-05 -0.00141136570114 0)
(-6.9654103631e-05 -0.00128318190469 0)
(-7.2991326291e-05 -0.00114694383446 0)
(-7.66598869212e-05 -0.000991468123617 0)
(-9.14799713413e-05 -0.000814759104033 0)
(-0.000104162582513 -0.000615153777995 0)
(-0.000113366758758 -0.000370702412217 0)
(-0.000117571400778 -0.000114271169518 0)
(0.00486620109089 -0.00153096649576 0)
(0.00503534782385 -0.00508269143147 0)
(0.00507599195344 -0.00875118828749 -7.53728623788e-28)
(0.00502333678237 -0.0122965716366 0)
(0.0049306899198 -0.0157635431587 0)
(0.00480809499243 -0.0191453717852 0)
(0.00466210256992 -0.0224298471009 0)
(0.00449593367385 -0.025604119842 0)
(0.00431353067104 -0.0286561174832 0)
(0.00411686907525 -0.0315757685304 0)
(0.00390953201233 -0.0343545043484 0)
(0.00369285028362 -0.0369856191975 0)
(0.00347020547453 -0.0394640795687 0)
(0.00324233035623 -0.0417860885995 0)
(0.00301239276367 -0.0439490201148 0)
(0.00278058655014 -0.0459520686207 0)
(0.00254950580769 -0.0477946526 0)
(0.00231895736626 -0.0494775175926 0)
(0.00209127593165 -0.0510016040296 0)
(0.00186546577476 -0.0523690755643 0)
(0.00164382620689 -0.0535810577789 0)
(0.0014248391937 -0.0546413815345 0)
(0.00121048948601 -0.0555519640846 0)
(0.000999352389026 -0.0563158575242 0)
(0.000793472597998 -0.0569356203997 0)
(0.00059080564064 -0.0574142249369 0)
(0.000393384053032 -0.0577545920819 0)
(0.000198951546961 -0.0579597578237 0)
(9.69371177641e-06 -0.0580323944515 0)
(-0.000176854312171 -0.0579757625567 0)
(-0.000358309124028 -0.0577918796633 0)
(-0.000537288502157 -0.0574832513761 0)
(-0.000711366966508 -0.0570531779503 0)
(-0.000882090921937 -0.0565042839299 0)
(-0.00104737415512 -0.0558391945137 0)
(-0.00120944713554 -0.0550607522366 0)
(-0.0013655057523 -0.0541719889636 0)
(-0.00151764699678 -0.0531767710041 0)
(-0.00166294963222 -0.0520779938965 0)
(-0.00180311358237 -0.0508805706233 0)
(-0.0019349823871 -0.049588287673 0)
(-0.00206005055723 -0.0482066806182 0)
(-0.00217515540462 -0.0467414261986 0)
(-0.00228155302537 -0.04519970011 0)
(-0.00237567102634 -0.0435877569551 0)
(-0.0024585766213 -0.0419140421487 0)
(-0.00252726007687 -0.0401872869768 0)
(-0.00258270835355 -0.0384170048781 0)
(-0.0026221024894 -0.0366134842836 0)
(-0.00264648598895 -0.0347874850452 0)
(-0.00265359640782 -0.0329504093891 0)
(-0.00264517151326 -0.0311137278422 0)
(-0.00261959409134 -0.0292888702568 0)
(-0.00257907647012 -0.0274872988326 0)
(-0.00252285211996 -0.0257195524783 0)
(-0.00245368284925 -0.0239955497605 0)
(-0.00237159165741 -0.022324729907 0)
(-0.00227976359321 -0.0207147644429 0)
(-0.00217869633866 -0.01917277075 0)
(-0.00207155742087 -0.0177033965975 0)
(-0.00195889756228 -0.0163108300396 0)
(-0.00184388561019 -0.0149977264551 0)
(-0.00172709702692 -0.0137655656576 0)
(-0.00161125354313 -0.0126142837099 0)
(-0.00149668427939 -0.0115432778489 0)
(-0.00138561908583 -0.0105507755882 0)
(-0.0012779239127 -0.009634274861 0)
(-0.00117524545026 -0.00879044177445 0)
(-0.00107727002937 -0.00801597718259 0)
(-0.000985309145481 -0.00730703027386 0)
(-0.000898636690607 -0.00665996308551 0)
(-0.000818366697061 -0.00607068296697 0)
(-0.000743498802659 -0.00553495279386 0)
(-0.000674777918511 -0.00504866668212 0)
(-0.000611403208826 -0.00460780260827 0)
(-0.000553577818723 -0.00420852369465 0)
(-0.000500585184516 -0.00384723951613 0)
(-0.000452901934676 -0.00351996314494 0)
(-0.000409534470878 -0.00322283448591 0)
(-0.000370710054375 -0.00295232291892 0)
(-0.000333651577308 -0.00269824309434 0)
(-0.000297397589058 -0.00244624574734 0)
(-0.000262459709861 -0.00222223921063 0)
(-0.00023932501854 -0.00203690206405 0)
(-0.000229237842394 -0.00187122568074 0)
(-0.000217818604324 -0.00172207579658 0)
(-0.000179760599515 -0.00156311182612 0)
(-0.000151193404085 -0.00146987475795 0)
(-0.000162339378732 -0.00135275080064 0)
(-0.000195878030062 -0.00126530188082 0)
(-0.000216411492344 -0.00116194786921 0)
(-0.000239446141078 -0.000996274308062 0)
(-0.000274145022615 -0.000816338037263 0)
(-0.000347059621342 -0.000655802504425 0)
(-0.000419448409769 -0.00041620434104 0)
(-0.00036128075164 -0.000108682754201 0)
(0.00838584188335 -0.00161327664965 0)
(0.00873313905906 -0.00523060485399 0)
(0.00865326645101 -0.00885227531662 -7.52771190142e-28)
(0.00852092908447 -0.0124347739651 0)
(0.00834670156301 -0.0159415289668 0)
(0.00813182062921 -0.0193607469679 0)
(0.00788049403349 -0.0226787019071 0)
(0.00759688345548 -0.0258822820613 0)
(0.00728593092141 -0.0289597490939 0)
(0.00695182209651 -0.0319010433798 0)
(0.00659930257522 -0.0346979731747 0)
(0.00623199042314 -0.0373437828514 0)
(0.00585411730259 -0.039833705862 0)
(0.0054685732735 -0.0421642100581 0)
(0.0050790025871 -0.044334215075 0)
(0.00468718092027 -0.046341048243 0)
(0.00429611260919 -0.0481860817283 0)
(0.00390697458896 -0.0498695991085 0)
(0.00352181976122 -0.0513931264588 0)
(0.00314102296503 -0.0527587028653 0)
(0.00276628692959 -0.0539686173253 0)
(0.00239753556291 -0.0550254981809 0)
(0.00203573940504 -0.0559320097987 0)
(0.00168043376329 -0.0566918411626 0)
(0.00133271922186 -0.0573068989414 0)
(0.000991758975851 -0.0577813046775 0)
(0.000658301505384 -0.0581172274412 0)
(0.000331234047301 -0.0583177991394 0)
(1.15018895506e-05 -0.0583852716007 0)
(-0.000302008944682 -0.0583227481121 0)
(-0.000608720632272 -0.0581334361874 0)
(-0.000909485580906 -0.0578190428289 0)
(-0.00120318168462 -0.057383524686 0)
(-0.00149047623422 -0.056828097616 0)
(-0.00177027158489 -0.0561561328348 0)
(-0.00204324768713 -0.0553701739807 0)
(-0.00230766345929 -0.0544732277966 0)
(-0.00256396955954 -0.0534685932853 0)
(-0.0028104079183 -0.0523599010031 0)
(-0.00304689203563 -0.0511510555558 0)
(-0.00327097895848 -0.0498465424269 0)
(-0.00348200879458 -0.0484512142509 0)
(-0.00367762913356 -0.0469715490091 0)
(-0.0038570764507 -0.0454125973111 0)
(-0.00401771520179 -0.0437832225173 0)
(-0.00415810505764 -0.0420895402547 0)
(-0.00427575748537 -0.0403421224699 0)
(-0.00436958304587 -0.0385490868751 0)
(-0.00443732532149 -0.036722174572 0)
(-0.00447859283793 -0.0348720537144 0)
(-0.00449147669618 -0.0330096855857 0)
(-0.00447652349775 -0.0311476903763 0)
(-0.00443338139996 -0.0292979301457 0)
(-0.00436357415557 -0.0274721839683 0)
(-0.00426803676808 -0.0256817863925 0)
(-0.00414936876386 -0.0239371881638 0)
(-0.00400948132685 -0.0222478356618 0)
(-0.00385200391527 -0.0206220306271 0)
(-0.00367976535129 -0.0190666319124 0)
(-0.00349669714197 -0.0175870833126 0)
(-0.00330523550653 -0.0161870103402 0)
(-0.00310911982333 -0.0148689787959 0)
(-0.00291088246861 -0.013634244804 0)
(-0.00271373573848 -0.0124827441758 0)
(-0.00251962038595 -0.0114133528327 0)
(-0.00233098498551 -0.0104239612698 0)
(-0.00214895895449 -0.00951183529025 0)
(-0.00197511959472 -0.00867359441855 0)
(-0.00181002665167 -0.00790559026978 0)
(-0.00165461861798 -0.00720373993009 0)
(-0.00150883764423 -0.00656383078307 0)
(-0.00137312050403 -0.00598081235441 0)
(-0.00124734292885 -0.00545214772739 0)
(-0.00113126011285 -0.00497158941397 0)
(-0.00102471133484 -0.00453743256849 0)
(-0.000927316893326 -0.0041447925667 0)
(-0.000838674011406 -0.00378996706418 0)
(-0.000758982577008 -0.0034694515981 0)
(-0.000688005400448 -0.00317958550401 0)
(-0.000627563889662 -0.00291547614707 0)
(-0.000578993750509 -0.00266427524689 0)
(-0.000521973360605 -0.00241401179981 0)
(-0.000462272201741 -0.00221227307176 0)
(-0.000415993405097 -0.00202042701909 0)
(-0.00038717527184 -0.00185280377423 0)
(-0.000359466665266 -0.0016962280285 0)
(-0.000320952123875 -0.00158972462509 0)
(-0.000275656760775 -0.00141060832991 0)
(-0.000257097033278 -0.00125811506375 0)
(-0.000287741841364 -0.00118445388664 0)
(-0.000370398549932 -0.00114370980706 0)
(-0.000395801757327 -0.00090808949313 0)
(-0.000469471344509 -0.000765985112531 0)
(-0.000562624506016 -0.00056817594099 0)
(-0.00063614531394 -0.000345920877723 0)
(-0.000601002508953 -0.000103778209573 0)
(0.0117897065175 -0.00166370377572 0)
(0.012400650539 -0.00534103648157 0)
(0.0122836926619 -0.00899449356855 7.52668532338e-28)
(0.0120873340764 -0.0126253639096 0)
(0.0118319743427 -0.0161806261359 0)
(0.0115208257999 -0.0196454665894 0)
(0.0111590369159 -0.0230044741937 0)
(0.0107524254971 -0.0262438875798 0)
(0.0103074630008 -0.0293519025623 0)
(0.00983030532234 -0.032318318015 0)
(0.00932729953734 -0.0351351658553 0)
(0.0088041200539 -0.0377962385243 0)
(0.00826643927339 -0.0402970282104 0)
(0.00771897587869 -0.0426350993125 0)
(0.00716568884509 -0.0448080729504 0)
(0.00661022483126 -0.0468160389136 0)
(0.00605605585426 -0.0486593937755 0)
(0.00550536080827 -0.050339351221 0)
(0.00496032965775 -0.0518577832761 0)
(0.00442231631093 -0.0532170813044 0)
(0.00389276888665 -0.0544198081107 0)
(0.00337218513343 -0.0554692570641 0)
(0.00286144931576 -0.0563676185493 0)
(0.00236059809501 -0.0571190089698 0)
(0.00187015214423 -0.0577261442474 0)
(0.00138963665057 -0.0581920069869 0)
(0.000919096319752 -0.0585196641437 0)
(0.000458140093356 -0.0587114863974 0)
(6.86766074018e-06 -0.0587715100449 0)
(-0.000435131696621 -0.0587009767258 0)
(-0.00086782822702 -0.0585033615426 0)
(-0.0012916392875 -0.0581810927603 0)
(-0.00170608490083 -0.0577368174435 0)
(-0.00211131524109 -0.0571730979142 0)
(-0.00250672258765 -0.0564925065313 0)
(-0.00289214434336 -0.0556973374833 0)
(-0.00326651745799 -0.0547912008256 0)
(-0.00362923345821 -0.0537757446155 0)
(-0.00397845191467 -0.0526552091047 0)
(-0.00431289096244 -0.0514329286621 0)
(-0.00463098739971 -0.0501149338892 0)
(-0.00493080551915 -0.0487033331842 0)
(-0.00520977328225 -0.0472049390625 0)
(-0.00546548272182 -0.0456246533311 0)
(-0.00569477138097 -0.0439706583199 0)
(-0.005895081652 -0.0422508215509 0)
(-0.00606358496699 -0.0404742626134 0)
(-0.00619783173986 -0.0386507534867 0)
(-0.00629505952163 -0.0367911845985 0)
(-0.00635397713374 -0.0349070089571 0)
(-0.00637303225169 -0.0330113106375 0)
(-0.00635165036249 -0.031115150011 0)
(-0.00628988769358 -0.0292319856236 0)
(-0.0061892126235 -0.0273742348486 0)
(-0.00605183321904 -0.0255540155004 0)
(-0.00588085001688 -0.0237823669463 0)
(-0.00567973555894 -0.0220693094177 0)
(-0.00545308354229 -0.0204234789913 0)
(-0.00520553351052 -0.0188519129285 0)
(-0.00494238254965 -0.0173604710371 0)
(-0.00466804759369 -0.0159526845551 0)
(-0.00438722774044 -0.0146307762291 0)
(-0.00410401370953 -0.0133956804498 0)
(-0.00382254735371 -0.0122467551473 0)
(-0.00354613639699 -0.0111825095584 0)
(-0.00327769616908 -0.0102004331547 0)
(-0.00301928960114 -0.0092973724851 0)
(-0.00277271089038 -0.00846952516451 0)
(-0.00253904592253 -0.007712688401 0)
(-0.00231924749578 -0.00702260666067 0)
(-0.00211371437305 -0.00639472881998 0)
(-0.00192266275335 -0.00582455532827 0)
(-0.00174584863234 -0.00530781546858 0)
(-0.00158251131599 -0.00483927561972 0)
(-0.00143241517216 -0.00441641270285 0)
(-0.00129521063604 -0.00403456173234 0)
(-0.00117053756776 -0.00369043029892 0)
(-0.00105797580869 -0.00338076438388 0)
(-0.000957262609834 -0.00310329632226 0)
(-0.000869916157175 -0.00285513701263 0)
(-0.000799210031129 -0.00261610193492 0)
(-0.000747026424172 -0.00244928206969 0)
(-0.000674601816987 -0.00223935445739 0)
(-0.000609459976882 -0.00203922414746 0)
(-0.000553440346629 -0.00184499339973 0)
(-0.000508803013742 -0.00169059338398 0)
(-0.000462749782944 -0.00153783440752 0)
(-0.000414072744247 -0.00135075810035 0)
(-0.000403748470863 -0.00124348242875 0)
(-0.000400704303413 -0.00106946094016 0)
(-0.000462652910594 -0.000934782067751 0)
(-0.000594775648798 -0.00086534621222 0)
(-0.00063495638057 -0.000629512917861 0)
(-0.000739068973328 -0.00044952566611 0)
(-0.000847770657486 -0.000282260492435 0)
(-0.000832925943297 -9.16580451738e-05 0)
(0.0152999361676 -0.00170744903524 0)
(0.0161211723714 -0.00546681477544 0)
(0.0159697121632 -0.00918803416471 0)
(0.0157093700485 -0.0128879349476 0)
(0.0153700762586 -0.0165089892832 0)
(0.0149579060321 -0.0200347263741 0)
(0.0144799622591 -0.0234483286645 0)
(0.0139442105073 -0.0267354233592 0)
(0.0133589312923 -0.0298836149486 0)
(0.0127325939235 -0.0328830694797 0)
(0.0120734619266 -0.0357260214522 0)
(0.0113892398038 -0.03840667182 0)
(0.010687208941 -0.0409216464565 0)
(0.00997322164841 -0.0432678781746 0)
(0.00925287571202 -0.0454449623374 0)
(0.00853088737734 -0.0474531374454 0)
(0.00781122463235 -0.049293516829 0)
(0.00709703464084 -0.050968000603 0)
(0.00639088344941 -0.0524789436677 0)
(0.00569453959855 -0.0538295761756 0)
(0.00500943571189 -0.0550221979449 0)
(0.00433658519801 -0.0560603668568 0)
(0.00367686293971 -0.056947900164 0)
(0.0030304156979 -0.0576876862492 0)
(0.00239729912761 -0.0582836277787 0)
(0.00177714553495 -0.0587375187552 0)
(0.00116982242305 -0.0590541061708 0)
(0.000575115193189 -0.0592347865631 0)
(-7.18926878491e-06 -0.0592832776213 0)
(-0.000577608584661 -0.059202126551 0)
(-0.00113603338543 -0.0589940552078 0)
(-0.00168277924297 -0.0586613744098 0)
(-0.00221800200886 -0.0582073539174 0)
(-0.00274151969004 -0.0576328562811 0)
(-0.0032529109775 -0.056941036586 0)
(-0.00375153990875 -0.0561339731081 0)
(-0.00423607618299 -0.0552143560437 0)
(-0.00470591776862 -0.0541855910352 0)
(-0.00515939460584 -0.0530509002553 0)
(-0.00559425101539 -0.0518119360287 0)
(-0.00600851867631 -0.0504725111604 0)
(-0.00639970357305 -0.0490378372873 0)
(-0.00676425845079 -0.0475131735248 0)
(-0.0070987654196 -0.0459043958091 0)
(-0.00739967870782 -0.0442196256924 0)
(-0.00766293631055 -0.0424648825118 0)
(-0.00788496292339 -0.0406503102733 0)
(-0.00806195122645 -0.0387857473219 0)
(-0.00819052694862 -0.0368825520439 0)
(-0.00826833750428 -0.0349529727852 0)
(-0.00829343909962 -0.0330101152847 0)
(-0.00826517909372 -0.0310673371802 0)
(-0.00818364095621 -0.0291390597871 0)
(-0.00805012552436 -0.0272374993114 0)
(-0.00786799112058 -0.0253765680162 0)
(-0.00764102556229 -0.0235680448719 0)
(-0.00737438538431 -0.0218228010599 0)
(-0.00707395862651 -0.0201501232153 0)
(-0.00674620941231 -0.0185572749748 0)
(-0.00639836132302 -0.0170505555155 0)
(-0.00603613455089 -0.0156327800257 0)
(-0.00566618332584 -0.0143063347567 0)
(-0.00529414462927 -0.0130714476494 0)
(-0.00492530231486 -0.0119267467811 0)
(-0.00456393374551 -0.0108700329976 0)
(-0.00421376838851 -0.00989853144282 0)
(-0.00387725806647 -0.00900794202474 0)
(-0.00355670057087 -0.00819417747978 0)
(-0.00325381975851 -0.00745294012489 0)
(-0.00296934811546 -0.00677905602218 0)
(-0.00270381579571 -0.0061676416033 0)
(-0.00245716905304 -0.00561362474748 0)
(-0.00222939463552 -0.00511294433972 0)
(-0.00201945443255 -0.00466063945957 0)
(-0.00182669460948 -0.00425275701485 0)
(-0.00165064032793 -0.00388535439876 0)
(-0.00149017315014 -0.00355435438531 0)
(-0.0013445914906 -0.00325760020935 0)
(-0.00121303460115 -0.00299235078755 0)
(-0.00109559682062 -0.00275386109093 0)
(-0.000994914958881 -0.00251797154161 0)
(-0.000931198784887 -0.00234996422033 0)
(-0.000850289772709 -0.00214443361514 0)
(-0.000784524752142 -0.00198805833963 0)
(-0.00072823823918 -0.00183250454459 0)
(-0.000682324241712 -0.00168734284472 0)
(-0.000651608644499 -0.0015363331647 0)
(-0.000600835682039 -0.00134313499602 0)
(-0.000541177220574 -0.00110792361621 0)
(-0.000552256364124 -0.000976574818701 0)
(-0.000577850727431 -0.000793330154975 0)
(-0.000715833289345 -0.000709124874494 0)
(-0.00087298903019 -0.000582782722215 0)
(-0.000913115379942 -0.000370631593232 0)
(-0.000982000889936 -0.000219489876069 0)
(-0.000972393389411 -7.28243021239e-05 0)
(0.0189037638767 -0.00175671645997 0)
(0.0199261505495 -0.00561892095127 0)
(0.0197373726546 -0.00943491243521 0)
(0.0194093282571 -0.0132260637185 0)
(0.0189807201404 -0.0169322047629 0)
(0.0184606629863 -0.0205356366919 0)
(0.0178588097001 -0.0240184074091 0)
(0.0171854494084 -0.0273651738282 0)
(0.0164515144233 -0.0305635910109 0)
(0.0156678597281 -0.0336038580661 0)
(0.0148449578072 -0.0364786056935 0)
(0.0139927128765 -0.0391829527886 0)
(0.0131198311287 -0.0417138358234 0)
(0.0122338662074 -0.0440695572004 0)
(0.0113418280199 -0.0462504967764 0)
(0.010449390913 -0.0482577934643 0)
(0.00956120077673 -0.0500933707074 0)
(0.00868106224611 -0.0517602747332 0)
(0.00781181238093 -0.0532609373121 0)
(0.00695557748823 -0.0545991970837 0)
(0.00611393460872 -0.0557784030416 0)
(0.00528834034127 -0.0568027958775 0)
(0.00447944764102 -0.0576756329291 0)
(0.00368720037081 -0.0584009729365 0)
(0.00291124914516 -0.0589818676035 0)
(0.00215146798596 -0.0594212391217 0)
(0.00140767777442 -0.0597228362499 0)
(0.000679372782605 -0.0598895525002 0)
(-3.35529001326e-05 -0.0599244447723 0)
(-0.000731701283294 -0.0598300374318 0)
(-0.00141562359416 -0.059609711928 0)
(-0.00208550797159 -0.0592642255531 0)
(-0.00274167246581 -0.0587966831814 0)
(-0.0033838725428 -0.0582091819378 0)
(-0.00401161593903 -0.0575037302631 0)
(-0.00462414978274 -0.0566828430628 0)
(-0.00522024368464 -0.0557493605849 0)
(-0.00579879628055 -0.0547026311314 0)
(-0.00635853763039 -0.0535482930082 0)
(-0.00689685484607 -0.0522868531248 0)
(-0.00741039322829 -0.0509231538704 0)
(-0.0078956209844 -0.0494607143475 0)
(-0.00834915082909 -0.0479056852104 0)
(-0.00876618243961 -0.0462615075664 0)
(-0.00914203565656 -0.044536208506 0)
(-0.00947188513438 -0.0427376218909 0)
(-0.00975074507849 -0.0408747401163 0)
(-0.00997404651471 -0.0389589217651 0)
(-0.0101368370991 -0.0370000710476 0)
(-0.0102355568416 -0.0350122671374 0)
(-0.0102675771645 -0.0330094394981 0)
(-0.0102317595439 -0.0310063069615 0)
(-0.0101286011411 -0.0290188486664 0)
(-0.00995951859687 -0.0270606590006 0)
(-0.00972837715382 -0.0251469053542 0)
(-0.00944064935351 -0.0232915050824 0)
(-0.00910255959707 -0.0215048628108 0)
(-0.00872243065932 -0.0197985569386 0)
(-0.0083075207058 -0.0181790235395 0)
(-0.00786711152494 -0.0166528715089 0)
(-0.00741110847273 -0.0152248408254 0)
(-0.00694691122664 -0.0138940716103 0)
(-0.00648141366024 -0.0126604023694 0)
(-0.00602147822214 -0.0115219793843 0)
(-0.00557162917306 -0.0104755077284 0)
(-0.00513656591918 -0.00951726842409 0)
(-0.00472020176861 -0.00864379551955 0)
(-0.00432425482526 -0.00784849774374 0)
(-0.00395079068368 -0.00712712752114 0)
(-0.00360102278934 -0.00647402697979 0)
(-0.00327549342323 -0.00588380098756 0)
(-0.00297382436379 -0.00535114883076 0)
(-0.00269548852376 -0.0048708312664 0)
(-0.00243970769299 -0.00443829117436 0)
(-0.00220510496223 -0.00404884191877 0)
(-0.00199059306094 -0.0036985305097 0)
(-0.0017953242051 -0.00338476271347 0)
(-0.00161785109161 -0.0031041392223 0)
(-0.00145713862378 -0.00285378454101 0)
(-0.00131406737933 -0.00262784864387 0)
(-0.00118399757091 -0.00239603380924 0)
(-0.00111579052723 -0.00224338536883 0)
(-0.00103565614944 -0.00207328485188 0)
(-0.000935578136791 -0.00187910808865 0)
(-0.000873499490173 -0.00172296903109 0)
(-0.000835988382531 -0.00158294797844 0)
(-0.000781697886053 -0.00138447057514 0)
(-0.000770344607255 -0.00125357745814 0)
(-0.000758637086752 -0.00109895027933 0)
(-0.00077004658702 -0.000945457887272 0)
(-0.000726106847121 -0.000699723430406 0)
(-0.000800794650626 -0.000549768133372 0)
(-0.00100369646852 -0.000477274771231 0)
(-0.00109213315668 -0.00033105341265 0)
(-0.00111755077645 -0.000185709892614 0)
(-0.00111298533946 -6.16040227003e-05 0)
(0.0226189123191 -0.00181546705274 0)
(0.0238420767303 -0.00580417612001 0)
(0.0236107749364 -0.00974025320581 7.47866917724e-28)
(0.0232084300501 -0.0136458236187 0)
(0.0226825150837 -0.0174577139935 0)
(0.022045239345 -0.0211568413563 0)
(0.0213089399834 -0.0247237586027 0)
(0.020487213984 -0.0281427455688 0)
(0.019593863784 -0.0314012210306 0)
(0.0186424801358 -0.0344896466073 0)
(0.0176461597336 -0.0374012972258 0)
(0.0166170670257 -0.0401325464136 0)
(0.0155654464503 -0.0426806664668 0)
(0.0145008837182 -0.045045935291 0)
(0.0134315730193 -0.047229901085 0)
(0.0123638924679 -0.0492342578202 0)
(0.0113033922867 -0.0510624319732 0)
(0.0102542172747 -0.0527179828531 0)
(0.00921959769957 -0.0542049390615 0)
(0.00820192772424 -0.0555275079442 0)
(0.00720301422763 -0.0566896153485 0)
(0.00622414661047 -0.0576966038554 0)
(0.00526565091893 -0.0585514116654 0)
(0.00432727598982 -0.0592582978765 0)
(0.00340855005514 -0.0598204632756 0)
(0.00250948670584 -0.0602420552337 0)
(0.00162968638754 -0.0605262760161 0)
(0.000768629925419 -0.0606761231654 0)
(-7.43509025933e-05 -0.0606954320427 0)
(-0.000900088633516 -0.0605852811893 0)
(-0.00170928725145 -0.0603489305394 0)
(-0.00250239853777 -0.0599884706324 0)
(-0.00327937183276 -0.0595058644839 0)
(-0.00404046392903 -0.058904004511 0)
(-0.00478487043428 -0.0581825990191 0)
(-0.00551206066992 -0.0573461811376 0)
(-0.00622172264766 -0.0563939970339 0)
(-0.00691205221609 -0.0553278005402 0)
(-0.00758045215565 -0.0541504764568 0)
(-0.00822430635998 -0.0528640882208 0)
(-0.00884028258361 -0.0514729006764 0)
(-0.00942370723939 -0.0499779529766 0)
(-0.00997031571494 -0.0483849963845 0)
(-0.0104745547617 -0.0466987433533 0)
(-0.0109306416425 -0.0449269039774 0)
(-0.0113321126683 -0.0430751152098 0)
(-0.0116726391615 -0.0411536201723 0)
(-0.0119460177844 -0.0391729545046 0)
(-0.0121463337463 -0.0371454384775 0)
(-0.0122689231015 -0.0350862338783 0)
(-0.01230925348 -0.0330087427403 0)
(-0.0122656009655 -0.0309302773936 0)
(-0.0121387990721 -0.0288688330173 0)
(-0.0119303236421 -0.0268395183921 0)
(-0.0116453158556 -0.0248605258138 0)
(-0.0112897254342 -0.022944885096 0)
(-0.0108730779463 -0.0211080597307 0)
(-0.0104025351749 -0.0193586071651 0)
(-0.00989160634941 -0.0177084989866 0)
(-0.00935265313678 -0.0161630727997 0)
(-0.00879420674334 -0.0147204296123 0)
(-0.00822931910948 -0.0133859140268 0)
(-0.00766402837123 -0.0121540525925 0)
(-0.00710714570801 -0.0110239530296 0)
(-0.0065652099643 -0.00999217032234 0)
(-0.00604186682918 -0.00905202677356 0)
(-0.00554217654182 -0.00819943302326 0)
(-0.0050688062551 -0.00742800695761 0)
(-0.00462420120505 -0.00673242607344 0)
(-0.00420853242141 -0.00610515937135 0)
(-0.00382264774805 -0.00554107364941 0)
(-0.00346633700684 -0.00503424182833 0)
(-0.00313851263236 -0.00457909518561 0)
(-0.00283798213547 -0.00417051871663 0)
(-0.00256308247931 -0.00380415472009 0)
(-0.00231140282359 -0.0034751973546 0)
(-0.00208226098198 -0.00318158993353 0)
(-0.00187358711784 -0.00291971424366 0)
(-0.00168391770797 -0.00268815103382 0)
(-0.00151410397852 -0.00247281962112 0)
(-0.00138157402328 -0.00228381934221 0)
(-0.00128433594458 -0.00211042616336 0)
(-0.00120867822837 -0.00196382169435 0)
(-0.00111898240451 -0.00179393659858 0)
(-0.00104097709278 -0.00162691666256 0)
(-0.000999610148544 -0.00147746472713 0)
(-0.00095568220786 -0.001313975871 0)
(-0.000907789227688 -0.00113303227317 0)
(-0.000919725358753 -0.000998042294466 0)
(-0.00091165938252 -0.000806911741996 0)
(-0.000959985581036 -0.000671402615671 0)
(-0.000941502549965 -0.000466485738128 0)
(-0.00104888865607 -0.000357239021299 0)
(-0.0012145563049 -0.00027949771265 0)
(-0.00123118227068 -0.000156890478985 0)
(-0.00122995130019 -5.20489736236e-05 0)
(0.0264680511291 -0.00188610331925 0)
(0.0278952377602 -0.00602812808218 0)
(0.0276149741426 -0.0101109094022 -7.47751040986e-28)
(0.0271294783322 -0.0141557559025 0)
(0.0264954138871 -0.0180955545922 0)
(0.0257283510458 -0.0219093017671 0)
(0.0248443664533 -0.0255763084948 0)
(0.0238606776835 -0.0290802654092 0)
(0.0227943483299 -0.0324083411793 0)
(0.0216623397822 -0.0355516009683 0)
(0.0204807687194 -0.0385045942928 0)
(0.0192638160354 -0.0412642659157 0)
(0.0180242214423 -0.04383009255 0)
(0.0167732447633 -0.0462040064419 0)
(0.0155197338534 -0.0483880810068 0)
(0.0142713677734 -0.0503864586671 0)
(0.013034215428 -0.0522035317601 0)
(0.0118128247826 -0.0538441164837 0)
(0.0106105745999 -0.0553132588327 0)
(0.0094298843473 -0.0566158331757 0)
(0.00827280079175 -0.0577571708567 0)
(0.00714008137269 -0.0587420637059 0)
(0.00603152705862 -0.0595749671832 0)
(0.0049468699101 -0.0602591756999 0)
(0.00388591402743 -0.0607997333191 0)
(0.00284825770105 -0.0612001466382 0)
(0.00183330319856 -0.061463771963 0)
(0.000840175524453 -0.0615946810726 0)
(-0.000132453151869 -0.0615942690654 0)
(-0.00108543810923 -0.061466034816 0)
(-0.0020194936821 -0.0612121004647 0)
(-0.0029350742834 -0.060834425142 0)
(-0.00383280773323 -0.0603358746452 0)
(-0.00471280715651 -0.0597159629217 0)
(-0.00557466037138 -0.0589789981878 0)
(-0.0064184133438 -0.0581235465841 0)
(-0.00724346354937 -0.0571509470197 0)
(-0.00804715401317 -0.0560630103309 0)
(-0.00882713822539 -0.0548622729384 0)
(-0.009580161208 -0.0535480951921 0)
(-0.0103025638943 -0.0521239053447 0)
(-0.0109890762234 -0.0505922808284 0)
(-0.0116338962924 -0.0489567130359 0)
(-0.0122311843283 -0.0472230971153 0)
(-0.0127734677293 -0.0453949758513 0)
(-0.0132529240088 -0.0434811366995 0)
(-0.0136612705432 -0.0414900911859 0)
(-0.0139912590653 -0.0394341332959 0)
(-0.0142339585551 -0.0373240610863 0)
(-0.0143831034208 -0.0351762118754 0)
(-0.0144340334369 -0.0330087675843 0)
(-0.0143825813756 -0.0308379157006 0)
(-0.014229742842 -0.0286856921507 0)
(-0.0139773239997 -0.0265691389066 0)
(-0.0136319106269 -0.0245092722659 0)
(-0.0131997676435 -0.0225212575229 0)
(-0.0126915976291 -0.0206208184359 0)
(-0.0121236062224 -0.0188258961155 0)
(-0.011505474808 -0.0171369900871 0)
(-0.0108554265416 -0.0155647660433 0)
(-0.0101857390567 -0.0141084299759 0)
(-0.00951083838596 -0.0127704571585 0)
(-0.00883872968989 -0.0115443190071 0)
(-0.00817977071308 -0.010428586511 0)
(-0.00753886372742 -0.00941466403724 0)
(-0.00692444933066 -0.00850001482249 0)
(-0.00633870176788 -0.00767490868588 0)
(-0.00578678873669 -0.00693469067259 0)
(-0.00526901873446 -0.00627009986202 0)
(-0.00478731478495 -0.00567505392568 0)
(-0.00434225862032 -0.00514356618744 0)