/*--------------------------------*- C++ -*----------------------------------*\
| =========                 |                                                 |
| \\      /  F ield         | OpenFOAM: The Open Source CFD Toolbox           |
|  \\    /   O peration     | Version:  v1906                                 |
|   \\  /    A nd           | Web:      www.OpenFOAM.com                      |
|    \\/     M anipulation  |                                                 |
\*---------------------------------------------------------------------------*/
FoamFile
{
    version     2.0;
    format      ascii;
    class       volVectorField;
    location    "600";
    object      Ua;
}
// * * * * * * * * * * * * * * * * * * * * * * * * * * * * * * * * * * * * * //

dimensions      [0 1 -1 0 0 0 0];


internalField   nonuniform List<vector> 
9216
(
(-0.00362066732642 0.00362384506452 0)
(-0.00370901390377 0.0112837575601 -5.04359339667e-28)
(-0.00368232115269 0.0189598764402 -2.51936493994e-31)
(-0.00362728336675 0.0265794066378 0)
(-0.00355283031152 0.0340504758779 0)
(-0.00346067750545 0.041336170071 0)
(-0.00335258910135 0.0483995108343 0)
(-0.00323019025403 0.0552072814694 0)
(-0.00309514301927 0.0617299442002 0)
(-0.00294914618362 0.06794178162 0)
(-0.00279392028782 0.0738209677305 0)
(-0.00263116549434 0.0793495731023 0)
(-0.0024625405387 0.084513486914 0)
(-0.0022896239905 0.0893022759085 0)
(-0.00211390508819 0.0937089814094 0)
(-0.00193675516577 0.0977298791876 0)
(-0.00175943215024 0.101364205873 0)
(-0.00158306181603 0.104613874391 0)
(-0.00140865362958 0.107483181391 0)
(-0.0012370891505 0.109978523542 0)
(-0.00106914522339 0.112108123892 0)
(-0.000905485995729 0.113881777995 0)
(-0.000746689063293 0.115310619646 0)
(-0.000593238020077 0.116406908483 0)
(-0.000445547957336 0.117183839521 0)
(-0.000303956922015 0.11765537054 0)
(-0.000168749048938 0.117836069324 0)
(-4.01444215638e-05 0.117740971913 0)
(8.16895261772e-05 0.117385471417 0)
(0.000196636488623 0.116785148567 0)
(0.000304615508069 0.115955726375 0)
(0.000405595386602 0.114912941252 0)
(0.000499580854458 0.113672460889 0)
(0.000586617551099 0.112249793993 0)
(0.000666782725135 0.110660219682 0)
(0.000740186644896 0.108918712044 0)
(0.000806967220986 0.107039885586 0)
(0.000867287064629 0.105037934242 0)
(0.000921332568825 0.102926592448 0)
(0.000969306418924 0.100719088282 0)
(0.00101143167404 0.0984281188843 0)
(0.00104793971236 0.096065816627 0)
(0.00107907958242 0.0936437366768 0)
(0.00110510151801 0.0911728344844 0)
(0.0011262714994 0.0886634628218 0)
(0.0011428506245 0.086125358809 0)
(0.00115511440565 0.0835676476061 0)
(0.00116332858336 0.0809988374385 0)
(0.00116777228288 0.0784268273562 0)
(0.00116871120992 0.0758589092286 0)
(0.00116642331405 0.0733017771982 0)
(0.00116117080865 0.0707615361314 0)
(0.0011532264586 0.0682437108062 0)
(0.00114284637776 0.0657532608754 0)
(0.00113029446453 0.0632945881871 0)
(0.00111581851209 0.060871558918 0)
(0.00109966963936 0.0584875081379 0)
(0.00108208478789 0.0561452704192 0)
(0.00106329741477 0.0538471816481 0)
(0.00104352993176 0.0515951202443 0)
(0.00102299136068 0.0493905075082 0)
(0.00100188369549 0.0472343621988 0)
(0.000980382101763 0.0451273020705 0)
(0.000958659421233 0.0430696149235 0)
(0.000936844674558 0.0410612648196 0)
(0.000915070163501 0.0391019815196 0)
(0.000893405146751 0.0371912744253 0)
(0.000871929851661 0.0353285391109 0)
(0.000850642769774 0.0335130787089 0)
(0.000829565413676 0.031744219429 0)
(0.000808623969287 0.0300213333413 0)
(0.000787786725091 0.0283439465372 0)
(0.000766922191826 0.0267117503018 0)
(0.000745967558824 0.025124679413 0)
(0.000724765541562 0.0235828980665 0)
(0.000703256223662 0.0220868309685 0)
(0.000681293342226 0.0206371221846 0)
(0.000658846152477 0.0192346225971 0)
(0.000635795331868 0.017880346767 0)
(0.000612128346732 0.0165754536132 0)
(0.000587716183505 0.0153212567885 0)
(0.000562484939576 0.0141192691301 0)
(0.000536170438255 0.012971354312 0)
(0.000508435035868 0.0118799573541 0)
(0.000478556027645 0.0108485655201 0)
(0.000445341271524 0.0098825407891 0)
(0.000406519481423 0.00899021085946 0)
(0.000353174421539 0.00820505143779 0)
(0.000281310492407 0.00726626030127 0)
(0.000299781175503 0.00691728992435 0)
(0.000349893944105 0.00626723035096 0)
(0.000389291615959 0.00550990148701 0)
(0.000449723322147 0.00466168047871 0)
(0.000546329821094 0.00370335680495 0)
(0.000724796410243 0.00249581581814 0)
(0.000929882197231 0.000919986457116 0)
(-0.0113152498138 0.00375206498351 0)
(-0.0119138850118 0.0120157517839 0)
(-0.0118119790236 0.0201996044149 5.18794135681e-28)
(-0.0116181343921 0.028330057787 0)
(-0.0113594406306 0.0362942474883 0)
(-0.0110414767363 0.0440573265809 0)
(-0.0106694651705 0.0515806981445 0)
(-0.0102489058958 0.0588291831554 0)
(-0.00978561199369 0.0657713666828 0)
(-0.00928559434115 0.0723799112325 0)
(-0.00875494347818 0.0786316776148 0)
(-0.00819968430103 0.0845077357273 0)
(-0.00762567297334 0.0899932767473 0)
(-0.00703848114735 0.0950774492691 0)
(-0.00644333660438 0.0997531314382 0)
(-0.00584504937919 0.104016660155 0)
(-0.00524799854537 0.107867528935 0)
(-0.00465609690582 0.111308072794 0)
(-0.00407281549749 0.114343149281 0)
(-0.00350117616478 0.116979828966 0)
(-0.00294380017756 0.119227100739 0)
(-0.00240291534549 0.121095598992 0)
(-0.00188041421541 0.122597354325 0)
(-0.00137786379073 0.123745568803 0)
(-0.000896561821958 0.124554415095 0)
(-0.000437541970794 0.1250388559 0)
(-1.62229450626e-06 0.125214483082 0)
(0.000410595645396 0.125097370731 0)
(0.000798693529048 0.124703931581 0)
(0.00116243399167 0.124050837117 0)
(0.00150172670772 0.123154859263 0)
(0.00181663748244 0.122032781427 0)
(0.00210736143534 0.120701302147 0)
(0.00237422279987 0.119176944498 0)
(0.00261765394867 0.117475977764 0)
(0.00283818980874 0.11561434162 0)
(0.0030364526256 0.113607584094 0)
(0.00321314033254 0.11147080163 0)
(0.00336901822229 0.109218593417 0)
(0.00350490142038 0.10686501699 0)
(0.00362165464946 0.104423557749 0)
(0.00372016915796 0.10190709864 0)
(0.00380137122887 0.0993279026701 0)
(0.00386619391326 0.0966975944973 0)
(0.00391559421998 0.0940271532671 0)
(0.00395052004385 0.0913269037924 0)
(0.00397193522229 0.0886065170171 0)
(0.00398078234229 0.0858750087431 0)
(0.00397801417899 0.0831407453398 0)
(0.00396455355834 0.0804114484442 0)
(0.00394132898616 0.0776942039114 0)
(0.00390923344643 0.0749954714043 0)
(0.00386916126096 0.0723210950336 0)
(0.00382196844346 0.0696763172959 0)
(0.0037685069174 0.0670657902951 0)
(0.00370958982533 0.0644935940396 0)
(0.00364601822056 0.0619632478539 0)
(0.00357855541959 0.0594777338308 0)
(0.00350794030168 0.0570395089222 0)
(0.0034348754107 0.0546505352371 0)
(0.00336002020876 0.052312294614 0)
(0.00328399820327 0.0500258285672 0)
(0.00320736336432 0.0477917584015 0)
(0.00313063216668 0.045610338315 0)
(0.0030542172092 0.043481485013 0)
(0.00297849097693 0.0414048471605 0)
(0.00290368319352 0.0393798476158 0)
(0.00282998416207 0.0374057695215 0)
(0.00275740619623 0.0354818104008 0)
(0.002685935061 0.0336071786527 0)
(0.00261536009811 0.031781151166 0)
(0.00254548014875 0.0300031642711 0)
(0.00247590829913 0.0282728573526 0)
(0.00240633097956 0.0265901344108 0)
(0.00233628884525 0.0249551729447 0)
(0.00226547301822 0.0233684359569 0)
(0.00219347405953 0.0218306381416 0)
(0.00212008377788 0.0203427114154 0)
(0.00204499836619 0.0189057517482 0)
(0.00196808770473 0.0175209783178 0)
(0.00188904208646 0.0161897190065 0)
(0.00180757313115 0.0149134334303 0)
(0.00172298997709 0.0136938153387 0)
(0.00163427599528 0.0125329635879 0)
(0.00153952056509 0.0114336551687 0)
(0.00143568067908 0.0103997502819 0)
(0.00131748983285 0.00943563346185 0)
(0.00117565956892 0.00856284630597 0)
(0.00099429074546 0.00756182651061 0)
(0.000979401677053 0.00687376488809 0)
(0.00109408995216 0.00623592887667 0)
(0.0012158575639 0.00540539684164 0)
(0.00138101189284 0.00448868197848 0)
(0.00174064219405 0.00352967141573 0)
(0.00230195478909 0.00229246422902 0)
(0.00244823565443 0.000706376462407 0)
(-0.0191565263944 0.00380251208692 0)
(-0.0201815915686 0.012178651345 0)
(-0.0199925892321 0.020453455434 5.16737893426e-28)
(-0.019659566999 0.0286827264084 0)
(-0.0192202014951 0.0367411687862 0)
(-0.0186819908377 0.044592457456 0)
(-0.0180530548473 0.052196854001 0)
(-0.0173424856355 0.0595184757453 0)
(-0.0165600609539 0.0665254412701 0)
(-0.015715951495 0.0731901601813 0)
(-0.014820461699 0.0794894388738 0)
(-0.0138837851652 0.0854044710733 0)
(-0.0129158048408 0.0909207255334 0)
(-0.0119259169951 0.0960277523528 0)
(-0.0109229091141 0.10071892541 0)
(-0.0099148615368 0.104991140987 0)
(-0.00890910248841 0.108844488557 0)
(-0.00791217890939 0.112281910693 0)
(-0.00692987338404 0.115308864378 0)
(-0.00596722449314 0.117932995486 0)
(-0.00502858236162 0.120163833617 0)
(-0.00411765425977 0.122012512834 0)
(-0.00323757424985 0.123491520286 0)
(-0.00239095216453 0.124614472544 0)
(-0.00157993839842 0.125395917914 0)
(-0.00080626272076 0.125851160944 0)
(-7.1284948235e-05 0.125996106092 0)
(0.000623979704061 0.125847117934 0)
(0.0012788221986 0.125420890388 0)
(0.00189282064706 0.124734323957 0)
(0.0024658189298 0.123804422896 0)
(0.00299790860285 0.122648186327 0)
(0.0034894052144 0.121282513192 0)
(0.00394083397458 0.119724112365 0)
(0.00435290710068 0.11798942223 0)
(0.00472650637551 0.116094536359 0)
(0.00506266237074 0.114055139462 0)
(0.00536253431 0.111886449588 0)
(0.00562739261406 0.109603170818 0)
(0.00585859723263 0.107219451669 0)
(0.00605758507162 0.104748853367 0)
(0.00622584787483 0.102204322747 0)
(0.00636492548902 0.0995981737776 0)
(0.00647638387245 0.0969420724158 0)
(0.00656181432351 0.0942470285881 0)
(0.00662281173789 0.0915233903505 0)
(0.00666097923152 0.0887808436377 0)
(0.00667790661691 0.0860284134112 0)
(0.00667517939635 0.0832744689279 0)
(0.00665435755183 0.0805267300699 0)
(0.00661698755617 0.0777922763241 0)
(0.00656458185857 0.0750775569693 0)
(0.00649863222936 0.0723884024349 0)
(0.00642059059066 0.069730037483 0)
(0.006331881537 0.0671070940335 0)
(0.00623388535954 0.0645236270166 0)
(0.00612794699162 0.0619831284183 0)
(0.00601536212836 0.0594885461987 0)
(0.00589737917323 0.0570423001872 0)
(0.00577518938838 0.0546463055349 0)
(0.00564991793907 0.0523019924049 0)
(0.0055226191769 0.0500103367397 0)
(0.00539425296384 0.0477718871801 0)
(0.00526568694218 0.0455868072883 0)
(0.00513765565895 0.0434549143165 0)
(0.00501077356595 0.0413757374333 0)
(0.0048854777045 0.0393485726254 0)
(0.00476205852851 0.0373725593982 0)
(0.0046405920802 0.0354467521616 0)
(0.00452099960974 0.03357021111 0)
(0.00440298016964 0.0317420814948 0)
(0.00428611080021 0.0299616826706 0)
(0.00416978991226 0.0282285736891 0)
(0.00405338122578 0.0265426122136 0)
(0.00393616593046 0.0249039771266 0)
(0.00381751193784 0.0233131693165 0)
(0.00369681002391 0.0217709737149 0)
(0.0035736250002 0.0202783998582 0)
(0.00344757507282 0.0188366034467 0)
(0.003318414789 0.0174468091853 0)
(0.00318582444521 0.016110252979 0)
(0.00304938863469 0.01482815835 0)
(0.00290827318813 0.0136017723286 0)
(0.00276105933542 0.0124324648156 0)
(0.0026052626495 0.0113218996138 0)
(0.00243696532442 0.0102723837348 0)
(0.00225020716141 0.00928639616816 0)
(0.00203698211912 0.00838404454773 0)
(0.00179173608307 0.00737393176805 0)
(0.00174594233318 0.00665580153327 0)
(0.00191397557918 0.00600448460342 0)
(0.00210841323529 0.0050669811711 0)
(0.00246932341407 0.00412825813226 0)
(0.00298278519876 0.0029706071677 0)
(0.00348629228764 0.00172230925858 0)
(0.00367739137472 0.000546908730953 0)
(-0.0271560762212 0.00386458953459 0)
(-0.0286218033519 0.0123868132473 0)
(-0.0283502587952 0.0207928989935 -5.16671480538e-28)
(-0.0278724934036 0.029153175801 0)
(-0.0272427465135 0.0373354550482 0)
(-0.026472110613 0.0453016822908 0)
(-0.0255723192164 0.0530106067021 0)
(-0.0245565142731 0.0604252990555 0)
(-0.0234388298638 0.0675132095652 0)
(-0.0222339581734 0.0742464257109 0)
(-0.0209567542963 0.0806017443305 0)
(-0.0196218812146 0.0865606230424 0)
(-0.0182435115678 0.0921090237646 0)
(-0.0168350823692 0.0972371708971 0)
(-0.0154091144967 0.101939245426 0)
(-0.0139770851203 0.106213036538 0)
(-0.012549360425 0.110059569761 0)
(-0.0111351706255 0.113482729411 0)
(-0.00974263200257 0.116488889542 0)
(-0.00837879412138 0.119086565262 0)
(-0.00704971619124 0.121286092268 0)
(-0.00576054956276 0.123099339432 0)
(-0.00451563176705 0.124539455697 0)
(-0.00331857103498 0.125620649785 0)
(-0.00217233016183 0.12635799914 0)
(-0.00107929292806 0.126767283144 0)
(-4.13256193529e-05 0.126864835022 0)
(0.000940178477938 0.126667411317 0)
(0.00186425763303 0.126192065957 0)
(0.00273034845377 0.125456030136 0)
(0.00353826042761 0.124476616975 0)
(0.00428814920672 0.123271110755 0)
(0.00498048907326 0.121856672812 0)
(0.00561604816385 0.120250251764 0)
(0.00619586027754 0.118468501939 0)
(0.0067211976089 0.116527709292 0)
(0.00719354217151 0.114443726572 0)
(0.00761455720797 0.112231916589 0)
(0.00798606033014 0.109907104936 0)
(0.00830999581971 0.107483540386 0)
(0.00858841175235 0.104974863912 0)
(0.00882343499824 0.102394084138 0)
(0.00901725368756 0.0997535599582 0)
(0.00917209570413 0.0970649880455 0)
(0.00929021671329 0.094339395927 0)
(0.00937388203594 0.0915871385351 0)
(0.00942535964295 0.0888178988924 0)
(0.00944690486953 0.0860406912005 0)
(0.00944075740989 0.0832638668743 0)
(0.00940912828815 0.0804951222634 0)
(0.00935419977167 0.0777415083151 0)
(0.00927811415528 0.075009441511 0)
(0.00918297540864 0.072304715872 0)
(0.00907083938319 0.0696325160946 0)
(0.0089437157389 0.0669974309859 0)
(0.00880355907493 0.0644034682196 0)
(0.00865226919308 0.0618540688594 0)
(0.00849168232013 0.0593521238609 0)
(0.00832356713674 0.0568999902065 0)
(0.00814961487266 0.0544995103676 0)
(0.0079714279964 0.0521520320227 0)
(0.00779050781869 0.0498584333721 0)
(0.0076082328388 0.0476191502564 0)
(0.00742584325884 0.0454342121757 0)
(0.00724440760913 0.0433032826608 0)
(0.00706480627228 0.0412257124342 0)
(0.0068876893481 0.0392005995074 0)
(0.00671346678447 0.0372268649414 0)
(0.00654226777038 0.035303335794 0)
(0.00637395268375 0.0334288422289 0)
(0.00620809212458 0.0316023157515 0)
(0.00604402036282 0.0298228911348 0)
(0.00588085205094 0.0280899938196 0)
(0.00571758741604 0.02640341039 0)
(0.00555316511908 0.0247633227583 0)
(0.00538659742508 0.023170304207 0)
(0.00521701805102 0.0216252674306 0)
(0.00504378471191 0.0201293732619 0)
(0.0048664513691 0.0186839092003 0)
(0.00468476649579 0.017290158582 0)
(0.00449851698225 0.0159492816864 0)
(0.00430738560799 0.014662226378 0)
(0.00411064800196 0.0134296863734 0)
(0.00390686346553 0.0122521146149 0)
(0.00369338195035 0.0111297950344 0)
(0.00346580027512 0.0100631160092 0)
(0.00321720852756 0.00905221376195 0)
(0.00293786126321 0.00811324360354 0)
(0.00261778158987 0.00707326461245 0)
(0.00255807985962 0.00631076713059 0)
(0.00275360221484 0.00550518653268 0)
(0.00316672062559 0.00466623704918 0)
(0.00357414037077 0.00350795082267 0)
(0.00409567646489 0.00238422144826 0)
(0.00451747609438 0.00135728661399 0)
(0.00465561839849 0.000437690400652 0)
(-0.0353112899892 0.00394717171138 0)
(-0.0372179192567 0.0126670893815 0)
(-0.0368595365481 0.0212546924843 0)
(-0.0362299096324 0.0297932731758 0)
(-0.0354003551274 0.0381435099455 0)
(-0.0343859719601 0.0462652099489 0)
(-0.0332025905157 0.0541151757175 0)
(-0.0318678576716 0.061655078961 0)
(-0.0304006897377 0.0688514846584 0)
(-0.0288206892626 0.0756760794408 0)
(-0.0271476078814 0.0821056971844 0)
(-0.0254008707853 0.0881222126051 0)
(-0.0235991776279 0.0937123192561 0)
(-0.0217601832672 0.0988672181426 0)
(-0.0199002631472 0.103582242446 0)
(-0.0180343571269 0.107856442896 0)
(-0.0161758893842 0.111692155944 0)
(-0.0143367516461 0.115094574313 0)
(-0.0125273428814 0.11807133607 0)
(-0.0107566487602 0.120632144739 0)
(-0.00903235199889 0.122788428821 0)
(-0.00736095602602 0.124553044826 0)
(-0.00574791447848 0.125940023845 0)
(-0.00419775216657 0.126964358044 0)
(-0.0027141750628 0.12764182106 0)
(-0.0013001612173 0.127988814818 0)
(4.19637832302e-05 0.128022234385 0)
(0.0013104693122 0.12775935126 0)
(0.00250417176356 0.127217691283 0)
(0.00362239441121 0.126414925955 0)
(0.00466493798117 0.125368778547 0)
(0.00563204790144 0.124096913781 0)
(0.00652438194563 0.122616843899 0)
(0.00734297749053 0.120945838095 0)
(0.00808921625369 0.119100839598 0)
(0.00876478796158 0.117098390962 0)
(0.00937165292468 0.114954568696 0)
(0.00991200445356 0.11268492718 0)
(0.0103882325972 0.110304452245 0)
(0.0108028888379 0.107827523561 0)
(0.0111586543021 0.10526788561 0)
(0.0114583093825 0.102638625927 0)
(0.0117047082632 0.0999521601126 0)
(0.0119007544484 0.0972202222513 0)
(0.0120493817917 0.0944538602735 0)
(0.0121535355496 0.0916634350788 0)
(0.0122161590667 0.0888586231266 0)
(0.0122401793573 0.0860484215827 0)
(0.0122284982647 0.0832411558456 0)
(0.0121839815371 0.0804444887937 0)
(0.0121094533259 0.077665431579 0)
(0.0120076878831 0.0749103555479 0)
(0.0118814063117 0.0721850050238 0)
(0.0117332700223 0.0694945107685 0)
(0.011565878444 0.0668434037323 0)
(0.0113817631028 0.0642356292437 0)
(0.0111833844745 0.061674561148 0)
(0.0109731249387 0.0591630164925 0)
(0.0107532821503 0.0567032702963 0)
(0.0105260583651 0.054297071665 0)
(0.0102935469125 0.0519456609908 0)
(0.0100577148329 0.0496497903797 0)
(0.00982037883851 0.0474097474813 0)
(0.00958317877115 0.0452253859943 0)
(0.00934754109622 0.0430961634444 0)
(0.00911464393339 0.0410211906519 0)
(0.00888537148068 0.0389992932383 0)
(0.00866027903705 0.0370290898557 0)
(0.00843955222354 0.0351090853845 0)
(0.00822299264866 0.0332377814542 0)
(0.0080100089045 0.031413797209 0)
(0.00779965393364 0.0296359960348 0)
(0.00759067869655 0.0279036028934 0)
(0.00738164375892 0.0262162993885 0)
(0.0071710405151 0.0245742763528 0)
(0.00695745307059 0.022978229634 0)
(0.00673968888087 0.021429289515 0)
(0.00651689895958 0.0199288856889 0)
(0.00628860734384 0.0184785645445 0)
(0.00605468314141 0.0170797836728 0)
(0.00581519376138 0.0157337132738 0)
(0.00557019642646 0.0144410656317 0)
(0.00531941744866 0.0132019643623 0)
(0.00506186513665 0.0120158537944 0)
(0.00479529708994 0.0108814352089 0)
(0.00451554126125 0.00979674878615 0)
(0.00421552104487 0.00875869078638 0)
(0.00388450173306 0.00777628920226 0)
(0.00351062499155 0.00670243002893 0)
(0.0034277700619 0.00583210754088 0)
(0.00369693159898 0.00497949883197 0)
(0.0041296649662 0.00398311279423 0)
(0.00473516356035 0.00302560475403 0)
(0.00506081354192 0.00197185802147 0)
(0.00532241502048 0.00112324624671 0)
(0.00541603735553 0.000365861697835 0)
(-0.043673999938 0.00405219883671 0)
(-0.046028628509 0.0130257304278 0)
(-0.0455767688567 0.021847082633 0)
(-0.0447850196163 0.0306144039268 0)
(-0.0437424476455 0.0391795058188 0)
(-0.0424686491145 0.047499516737 0)
(-0.0409841348184 0.0555288070453 0)
(-0.0393116553833 0.063227305327 0)
(-0.0374754885862 0.0705605038072 0)
(-0.0355006818556 0.0774996538737 0)
(-0.0334123563604 0.084021728989 0)
(-0.0312350981288 0.0901092380825 0)
(-0.0289924525058 0.0957499128568 0)
(-0.0267065281867 0.100936301532 0)
(-0.0243977121578 0.105665299877 0)
(-0.0220844896487 0.109937648291 0)
(-0.0197833612302 0.113757420523 0)
(-0.0175088437037 0.117131526296 0)
(-0.0152735412126 0.120069245989 0)
(-0.0130882685128 0.122581811273 0)
(-0.0109622097836 0.124682040401 0)
(-0.00890309369021 0.126384031636 0)
(-0.00691736964578 0.127702912818 0)
(-0.0050103704954 0.12865464058 0)
(-0.00318645393172 0.129255839334 0)
(-0.00144911704495 0.129523668971 0)
(0.000198914458236 0.129475708842 0)
(0.00175562082239 0.129129860573 0)
(0.0032196340009 0.128504229366 0)
(0.00459019847434 0.127617033146 0)
(0.00586713812436 0.126486505941 0)
(0.00705082048657 0.125130789014 0)
(0.00814211996512 0.123567835605 0)
(0.00914237829979 0.121815318218 0)
(0.0100533614805 0.119890543464 0)
(0.0108772141166 0.117810375824 0)
(0.0116164121621 0.115591171559 0)
(0.0122737153934 0.113248723152 0)
(0.0128521211856 0.110798214304 0)
(0.0133548204344 0.10825418481 0)
(0.0137851571312 0.105630504505 0)
(0.0141465913902 0.102940355029 0)
(0.0144426671951 0.100196218357 0)
(0.0146769836238 0.0974098708049 0)
(0.0148531707571 0.0945923816364 0)
(0.0149748682885 0.0917541152651 0)
(0.0150457082654 0.0889047364691 0)
(0.0150692995552 0.086053217952 0)
(0.0150492158414 0.0832078498729 0)
(0.0149889845187 0.0803762509049 0)
(0.0148920786276 0.0775653805202 0)
(0.0147619090674 0.0747815521779 0)
(0.0146018193619 0.0720304470887 0)
(0.0144150801366 0.069317128311 0)
(0.0142048854395 0.0666460548082 0)
(0.0139743480508 0.0640210953468 0)
(0.0137264954286 0.061445541896 0)
(0.0134642635597 0.0589221226483 0)
(0.0131904895192 0.0564530145276 0)
(0.0129079003845 0.0540398557531 0)
(0.0126190981213 0.05168375887 0)
(0.0123265389565 0.0493853255532 0)
(0.012032505488 0.0471446645466 0)
(0.0117390718824 0.0449614152158 0)
(0.0114480593697 0.0428347794901 0)
(0.0111609858722 0.0407635659513 0)
(0.0108790071587 0.0387462499192 0)
(0.0106028592441 0.0367810540025 0)
(0.0103328016912 0.0348660516813 0)
(0.0100685795337 0.0329992961812 0)
(0.00980940660954 0.0311789704012 0)
(0.00955399424591 0.0294035515009 0)
(0.00930062598529 0.0276719725148 0)
(0.00904729699335 0.0259837603814 0)
(0.00879190153531 0.024339120426 0)
(0.00853246248675 0.0227389418289 0)
(0.00826735404084 0.0211847040073 0)
(0.00799548663881 0.0196782841869 0)
(0.007716392249 0.0182216877854 0)
(0.0074301987588 0.0168167413621 0)
(0.00713747082982 0.0154647931964 0)
(0.00683895396746 0.0141664499766 0)
(0.00653522570279 0.0129213564579 0)
(0.00622627696391 0.0117279968421 0)
(0.00591097323687 0.0105834744487 0)
(0.00558631743854 0.00948333496836 0)
(0.00524622475464 0.00842087066817 0)
(0.00488001963407 0.00739814618927 0)
(0.00447102061685 0.00627908646908 0)
(0.00445666475735 0.00540683299202 0)
(0.00469910854135 0.00442028892853 0)
(0.00511607834002 0.00342494464743 0)
(0.00560199377933 0.00254541484466 0)
(0.00589313733367 0.00171860921227 0)
(0.00604120714081 0.00097953987394 0)
(0.00610573694081 0.000319888992488 0)
(-0.0522967249935 0.0041818726466 0)
(-0.0551095254189 0.0134693921898 0)
(-0.054555308457 0.0225801138926 -5.06111547928e-28)
(-0.0535879074159 0.0316300674975 0)
(-0.0523150802789 0.0404599451249 0)
(-0.0507615756551 0.0490235186186 0)
(-0.048953331018 0.0572721709437 0)
(-0.0469189747932 0.0651637372127 0)
(-0.0446888975596 0.072662482719 0)
(-0.0422942827209 0.0797392497158 0)
(-0.0397662266804 0.0863713325253 0)
(-0.0371349805243 0.0925421808125 0)
(-0.034429331025 0.0982409647481 0)
(-0.0316761268555 0.103462043191 0)
(-0.0288999481828 0.108204372507 0)
(-0.0261229110435 0.11247088978 0)
(-0.0233645941847 0.116267900004 0)
(-0.0206420717699 0.119604492584 0)
(-0.0179700330488 0.122492007972 0)
(-0.015360966632 0.12494357004 0)
(-0.0128253859621 0.12697369377 0)
(-0.0103720713912 0.128597970807 0)
(-0.00800830690412 0.129832828392 0)
(-0.0057400929798 0.130695350695 0)
(-0.00357232422618 0.131203147335 0)
(-0.00150892693723 0.13137425233 0)
(0.000447040952866 0.131227035758 0)
(0.00229332311404 0.130780132817 0)
(0.00402840699915 0.130052327788 0)
(0.00565149508345 0.129062488059 0)
(0.00716246955539 0.127829458379 0)
(0.00856185693165 0.126371953881 0)
(0.00985078792041 0.124708460924 0)
(0.0110309515329 0.122857140187 0)
(0.0121045434901 0.120835737659 0)
(0.0130742102884 0.118661505744 0)
(0.0139429907562 0.116351136002 0)
(0.0147142571711 0.113920704127 0)
(0.0153916580357 0.111385626963 0)
(0.015979064076 0.108760630703 0)
(0.0164805188994 0.106059728964 0)
(0.0169001947682 0.103296209198 0)
(0.0172423540456 0.100482625907 0)
(0.0175113157772 0.0976307992208 0)
(0.0177114274375 0.0947518176441 0)
(0.0178470407897 0.0918560440111 0)
(0.0179224918372 0.0889531239328 0)
(0.0179420837143 0.0860519961982 0)
(0.0179100727134 0.0831609047279 0)
(0.017830656372 0.0802874117609 0)
(0.01770796405 0.0774384119643 0)
(0.0175460489757 0.0746201471862 0)
(0.0173488822818 0.0718382215011 0)
(0.0171203479512 0.0690976162267 0)
(0.0168642390859 0.0664027045067 0)
(0.0165842542351 0.0637572651253 0)
(0.0162839938716 0.0611644951876 0)
(0.0159669554531 0.0586270214194 0)
(0.0156365266358 0.0561469100008 0)
(0.015295974729 0.0537256750091 0)
(0.0149484312648 0.0513642860791 0)
(0.0145968695186 0.0490631760547 0)
(0.0142440732309 0.0468222506457 0)
(0.0138925947497 0.0446409023179 0)
(0.0135447008062 0.0425180325011 0)
(0.0132023062787 0.0404520867147 0)
(0.012866895955 0.0384411088399 0)
(0.0125394401332 0.0364828214902 0)
(0.0122203096016 0.0345747387213 0)
(0.0119092052652 0.0327143165717 0)
(0.0116051171912 0.0308991405756 0)
(0.0113063372897 0.0291271438677 0)
(0.0110105450519 0.0273968352284 0)
(0.0107149845535 0.025707506894 0)
(0.0104167319259 0.0240593772481 0)
(0.0101130321188 0.022453621851 0)
(0.00980165234184 0.0208922583001 0)
(0.00948117922225 0.0193778738028 0)
(0.00915118285098 0.0179132319502 0)
(0.0088122028089 0.0165008228194 0)
(0.0084655567061 0.0151424340692 0)
(0.00811302412451 0.0138387907441 0)
(0.00775646268066 0.0125892618173 0)
(0.0073974040484 0.0113915795345 0)
(0.00703661750775 0.0102414568645 0)
(0.00667358704567 0.00913197367768 0)
(0.00630563422676 0.0080520096296 0)
(0.00592684865289 0.00698857602287 0)
(0.00552022175 0.00585667383652 0)
(0.0053731525919 0.004780671579 0)
(0.00571002379483 0.00390888246722 0)
(0.00602189444025 0.00297406996302 0)
(0.00629907715954 0.00217093513984 0)
(0.0065981807429 0.0015093486068 0)
(0.00668232372683 0.000861235020095 0)
(0.00671433115551 0.000279742856141 0)
(-0.0612371023088 0.0043386017087 0)
(-0.0645207376422 0.0140062002245 0)
(-0.0638528631688 0.0234666719172 5.06035175444e-28)
(-0.0626925632665 0.0328575851784 0)
(-0.06116757793 0.0420059037075 0)
(-0.0593087085 0.0508612485387 0)
(-0.0571483006896 0.05937139682 0)
(-0.0547218630747 0.067491740522 0)
(-0.0520668605913 0.0751852133121 0)
(-0.0492214865151 0.0824223594248 0)
(-0.0462235672827 0.0891810833475 0)
(-0.0431096368579 0.0954462024583 0)
(-0.0399141975871 0.101208849911 0)
(-0.0366691702433 0.106465779852 0)
(-0.0334035262604 0.111218620315 0)
(-0.0301430889194 0.11547311303 0)
(-0.0269104861475 0.119238373771 0)
(-0.0237252341077 0.122526202084 0)
(-0.0206039273599 0.125350464337 0)
(-0.0175605075252 0.127726568495 0)
(-0.0146065793619 0.129671041558 0)
(-0.0117517416207 0.131201211703 0)
(-0.00900390214139 0.13233498705 0)
(-0.00636955230546 0.133090713949 0)
(-0.00385398564256 0.133487091272 0)
(-0.00146145626548 0.133543115677 0)
(0.000804716899156 0.133278032572 0)
(0.00294209238488 0.132711299388 0)
(0.00494905014162 0.131862470598 0)
(0.00682478592561 0.130751163906 0)
(0.00856927597245 0.129396935763 0)
(0.0101832460351 0.127819175826 0)
(0.0116681289984 0.126036999727 0)
(0.0130260125158 0.124069144866 0)
(0.0142595776313 0.121933875209 0)
(0.0153720307972 0.11964889821 0)
(0.0163670322022 0.117231295778 0)
(0.0172486235546 0.11469746994 0)
(0.0180211582102 0.112063102725 0)
(0.0186892359685 0.109343128924 0)
(0.0192576441717 0.106551719808 0)
(0.0197313058643 0.10370227569 0)
(0.0201152352056 0.100807425252 0)
(0.0204144996353 0.0978790298635 0)
(0.0206341881777 0.0949281914553 0)
(0.0207793849042 0.0919652629331 0)
(0.020855146864 0.0889998604195 0)
(0.020866485604 0.0860408768914 0)
(0.0208183518795 0.0830964969043 0)
(0.0207156229537 0.0801742122022 0)
(0.0205630923844 0.0772808379594 0)
(0.0203654618652 0.0744225294277 0)
(0.0201273351341 0.0716047986 0)
(0.0198532134729 0.0688325305395 0)
(0.01954749271 0.0661099988184 0)
(0.0192144609671 0.0634408796242 0)
(0.0188582967566 0.0608282638927 0)
(0.0184830661525 0.0582746670672 0)
(0.0180927181463 0.0557820360001 0)
(0.0176910761444 0.0533517528757 0)
(0.0172818240075 0.0509846363075 0)
(0.0168684837202 0.0486809402971 0)
(0.0164543822828 0.0464403527972 0)
(0.016042604434 0.0442619963192 0)
(0.0156359285648 0.0421444354979 0)
(0.0152367436662 0.0400856971656 0)
(0.0148469468185 0.0380833122697 0)
(0.0144678247738 0.0361343896352 0)
(0.0140999269522 0.0342357335601 0)
(0.0137429468515 0.0323840167391 0)
(0.0133956340378 0.0305760132263 0)
(0.0130557725959 0.0288088896929 0)
(0.0127202609786 0.0270805313442 0)
(0.0123853291841 0.0253898616677 0)
(0.0120469077983 0.0237370866734 0)
(0.0117011244012 0.0221237863448 0)
(0.0113448547117 0.0205527814439 0)
(0.0109762067599 0.0190277517259 0)
(0.0105948021411 0.0175526552308 0)
(0.0102017751538 0.0161310657567 0)
(0.00979950276229 0.0147655713726 0)
(0.00939117432916 0.0134573186312 0)
(0.0089803356634 0.0122057042995 0)
(0.00857051053629 0.0110081242046 0)
(0.00816495524173 0.00985963381247 0)
(0.00776659583468 0.00875232562561 0)
(0.00737821122053 0.00767391609951 0)
(0.0070035422195 0.00660614391978 0)
(0.00664550025923 0.00550832877388 0)
(0.00639150484778 0.00436302566359 0)
(0.00652038712472 0.00341780348691 0)
(0.00680669961246 0.00262141367192 0)
(0.00698734799382 0.00190245383091 0)
(0.00723400324267 0.00131554596719 0)
(0.00726421281049 0.000749441530529 0)
(0.00724060848212 0.000236511438921 0)
(-0.0705587416925 0.00452531430397 0)
(-0.0743281885256 0.0146462853949 0)
(-0.0735324292701 0.0245230179531 0)
(-0.072157554493 0.0343187998626 0)
(-0.0703529723776 0.0438438626781 0)
(-0.0681567466428 0.0530427596414 0)
(-0.0656089197307 0.0618589876596 0)
(-0.0627531722067 0.0702451646075 0)
(-0.0596352619382 0.0781628666792 0)
(-0.0563014803565 0.0855825728318 0)
(-0.052797306184 0.0924832349456 0)
(-0.0491662947663 0.0988516251775 0)
(-0.0454492153579 0.104681525595 0)
(-0.0416834312086 0.109972825062 0)
(-0.0379025073288 0.114730576942 0)
(-0.0341360255794 0.118964061707 0)
(-0.0304095842636 0.122685891668 0)
(-0.0267449568056 0.125911190019 0)
(-0.0231603803502 0.128656872313 0)
(-0.0196709395843 0.130941052839 0)
(-0.0162890054243 0.132782590061 0)
(-0.0130246845344 0.134200773104 0)
(-0.00988623698276 0.135215137069 0)
(-0.00688042727894 0.135845380846 0)
(-0.00401278834948 0.136111351646 0)