/*--------------------------------*- C++ -*----------------------------------*\
| =========                 |                                                 |
| \\      /  F ield         | OpenFOAM: The Open Source CFD Toolbox           |
|  \\    /   O peration     | Version:  v1906                                 |
|   \\  /    A nd           | Web:      www.OpenFOAM.com                      |
|    \\/     M anipulation  |                                                 |
\*---------------------------------------------------------------------------*/
FoamFile
{
    version     2.0;
    format      ascii;
    class       volScalarField;
    location    "916";
    object      p;
}
// * * * * * * * * * * * * * * * * * * * * * * * * * * * * * * * * * * * * * //

dimensions      [0 2 -2 0 0 0 0];


internalField   nonuniform List<scalar> 
9216
(
273.652038249
273.731796436
273.89683407
274.148555422
274.485541216
274.906203704
275.408576204
275.990347572
276.648907333
277.381378756
278.184664059
279.055475394
279.990379444
280.985823881
282.038178728
283.14375624
284.298847601
285.499735476
286.742725855
288.024153611
289.340410113
290.687942734
292.063279234
293.463022371
294.883872087
296.322616294
297.776151706
299.24147167
300.715686243
302.196007701
303.679770275
305.164413258
306.647500511
308.126702973
309.599817482
311.064747071
312.519519903
313.962268514
315.391248376
316.80481605
318.201447436
319.579715037
320.93830588
322.275998128
323.591678689
324.884319394
326.15299431
327.396855735
328.615151233
329.807199668
330.972407978
332.110247459
333.220270294
334.302086261
335.355378995
336.37988329
337.375401051
338.341779307
339.278925786
340.186787726
341.065366994
341.914699745
342.734870966
343.525995027
344.288229543
345.021756816
345.726796904
346.403589974
347.052408478
347.673540418
348.267300555
348.834014614
349.374029473
349.887698339
350.375389883
350.837474441
351.274332101
351.686339977
352.073879256
352.43732362
352.777045285
353.093404627
353.386755257
353.657434923
353.905769662
354.132066062
354.336614567
354.519683233
354.681520419
354.822350489
354.942376994
355.041782719
355.120739924
355.179440062
355.218432459
355.235480872
273.572330029
273.652450665
273.817832113
274.070555557
274.408976965
274.831434323
275.335915628
275.920073188
276.58125971
277.316564019
278.122852395
278.996804593
279.934954155
280.933720599
281.989445458
283.098418361
284.256907353
285.46117818
286.707518794
287.992252265
289.311756225
290.662470408
292.040912151
293.44367975
294.867465122
296.309054044
297.765336888
299.233306571
300.710067985
302.192834208
303.678934943
305.165811642
306.651025249
308.132249468
309.607278122
311.074017876
312.530494711
313.974845584
315.405324373
316.820292712
318.218225411
319.597700577
320.957404565
322.296121556
323.612738103
324.906232328
326.175678171
327.420234364
328.639148465
329.831745793
330.997433323
332.135688717
333.246064166
334.328175642
335.381706719
336.406398152
337.402051698
338.368520082
339.305710805
340.213576537
341.09211887
341.941379137
342.761442054
343.55242695
344.314491224
345.047821953
345.752639093
346.429187432
347.077739469
347.698587701
348.292047115
348.858447805
349.398137064
349.911472327
350.39882286
350.860563067
351.29707378
351.708735976
352.095931707
352.459038268
352.798428811
353.114467026
353.407507483
353.677890885
353.925944187
354.151976484
354.356278964
354.539121489
354.700752436
354.841395946
354.961251372
355.060489983
355.139249926
355.197614891
355.235509081
355.252531999
273.406546151
273.487815152
273.654729308
273.909757665
274.251224062
274.677421881
275.186277586
275.775375971
276.441997891
277.183159859
277.995655619
278.876095757
279.82094734
280.826569355
281.889247025
283.00522078
284.170713928
285.381954629
286.635197045
287.926736968
289.252927426
290.610189163
291.995021995
293.404011442
294.833837047
296.281276289
297.743210824
299.216628486
300.6986281
302.186420095
303.677330236
305.1687992
306.658385471
308.143763791
309.622727299
311.093185223
312.553164218
314.000805204
315.43436401
316.852207477
318.252813474
319.634766359
320.996756454
322.337574999
323.656113197
324.951356796
326.222384826
327.468363962
328.688547076
329.882267512
331.048937573
332.188042838
333.299140677
334.381854715
335.435873442
336.460944904
337.456875453
338.423524701
339.360804424
340.268673786
341.147138377
341.996245692
342.816084253
343.606779298
344.368491938
345.101415003
345.80577216
346.481813877
347.129816443
347.750078013
348.342917488
348.908670622
349.447688753
349.96033496
350.446982657
350.908011829
351.343807498
351.754756085
352.141243793
352.503653131
352.842361271
353.157736788
353.450138032
353.719910151
353.967383526
354.192871114
354.396666991
354.579044039
354.740252563
354.880518188
355.000040154
355.098988469
355.17749985
355.235666835
355.273454957
355.291472659
273.151659016
273.234215017
273.403526589
273.662159373
274.00837594
274.440394041
274.956046188
275.552812351
276.227861986
276.978098144
277.80020193
278.690675543
279.6458835
280.662090359
281.735495308
282.862262384
284.038547332
285.260520131
286.524384621
287.826394353
289.162866335
290.530191709
291.924845171
293.343391982
294.782494422
296.238916345
297.709527685
299.191307372
300.681346529
302.176850218
303.675139661
305.17365298
306.669946628
308.161695413
309.646692977
311.122850932
312.588198626
314.040881479
315.479160011
316.901407455
318.306108103
319.691854292
321.057344183
322.401378234
323.722856539
325.020774926
326.294221997
327.542374994
328.764496674
329.959931088
331.128100416
332.268500785
333.38069917
334.464329352
335.519088974
336.544735704
337.541084494
338.508003989
339.445414004
340.35328218
341.231621654
342.080487936
342.899976729
343.690220967
344.451388732
345.18368038
345.887326485
346.562585008
347.209739199
347.829094762
348.420977685
348.985731362
349.523714346
350.035297432
350.520861326
350.980793725
351.415486931
351.825334959
352.210731146
352.572065339
352.909721551
353.224075282
353.515491278
353.784321036
354.030900718
354.255548881
354.458564577
354.640225318
354.800785331
354.940473658
355.05949233
355.158014308
355.236181098
355.294098583
355.331759422
355.349954055
272.806587657
272.890792517
273.063393509
273.326980062
273.679721311
274.119724239
274.644689272
275.251949812
275.938520322
276.701146178
277.536352857
278.440493118
279.40979114
280.440382556
281.528350136
282.669754717
283.860661745
285.097163425
286.375397199
287.691560692
289.041923979
290.422839286
291.830748953
293.26219167
294.713807689
296.182342912
297.664652435
299.157703303
300.65857698
302.164471185
303.672701554
305.180702548
306.686028463
308.186353872
309.679473561
311.163302005
312.635872676
314.095336728
315.539961526
316.96812859
318.37833142
319.769172793
321.139362
322.487711614
323.813134283
325.114639114
326.391328167
327.642392613
328.867109075
330.064835705
331.235008509
332.377137477
333.49080301
334.575652206
335.631395476
336.657803061
337.654701895
338.621972386
339.559545531
340.467399968
341.345559324
342.194089481
343.013096115
343.802722116
344.563145233
345.294575577
345.9972533
346.671446105
347.317446893
347.93557123
348.526154917
349.089551382
349.626129167
350.136269236
350.620362389
351.078806526
351.512004012
351.920358939
352.3042745
352.664150298
353.000379791
353.313347706
353.603427613
353.870979499
354.116347519
354.339857782
354.541816304
354.722507031
354.882189994
355.021099544
355.139442668
355.237397472
355.315111975
355.37270233
355.410173762
355.428352538
272.369549459
272.455845915
272.632682597
272.902655955
273.263806058
273.714088989
274.251028557
274.871763789
275.573104916
276.351590664
277.20354382
278.125123676
279.112374031
280.161265905
281.267734614
282.427711186
283.637148463
284.892042327
286.188448711
287.522496992
288.890400471
290.288464469
291.713092641
293.160791882
294.628176274
296.111970251
297.609011278
299.11625209
300.630762637
302.149731699
303.670468245
305.190402255
306.707085592
308.218192567
309.721519605
311.21498479
312.696627017
314.164604683
315.617194039
317.052787097
318.46988925
319.867116505
321.243192484
322.596945118
323.927303184
325.23329261
326.514032715
327.768732292
328.996685707
330.197268921
331.369935595
332.51421319
333.629699204
334.716057466
335.773014602
336.800356599
337.797925557
338.765616552
339.7033747
340.611192305
341.489106195
342.337195116
343.155577274
343.944407891
344.703876865
345.434206403
346.135648706
346.80848359
347.453016124
348.069574178
348.658505959
349.220177457
349.754969867
350.263276928
350.745502248
351.202056573
351.633355056
352.039814495
352.421850614
352.779875336
353.114294131
353.425503392
353.713887916
353.979818442
354.223649315
354.445716245
354.646334191
354.825795373
354.984367414
355.122291631
355.239781479
355.33702138
355.4141658
355.471337817
355.508548858
355.526626847
271.838267298
271.927154523
272.109255449
272.387166812
272.758759734
273.221793046
273.773561753
274.410954897
275.130521923
275.928539575
276.801075673
277.744048108
278.75327759
279.824533377
280.953571796
282.136167822
283.368140312
284.645371652
285.963822731
287.319544073
288.708684002
290.127494532
291.572335659
293.039678512
294.526107803
296.028323816
297.543144154
299.067505313
300.598464139
302.133199148
303.669011636
305.203326433
306.73369272
308.257784616
309.773400685
311.278463496
312.771018681
314.249233559
315.711395342
317.155908942
318.5812944
319.986183968
321.369318895
322.729545942
324.06581369
325.377168664
326.662751334
327.921792031
329.15360682
330.357593377
331.533226897
332.68005608
333.797699215
334.885840401
335.944225908
336.972660715
337.971005218
338.939172116
339.877123474
340.784867947
341.662458157
342.509988193
343.327591217
344.115437146
344.87373038
345.602707555
346.302635285
346.973807877
347.616545007
348.23118932
348.818103976
349.377670106
349.91028421
350.416355475
350.896303045
351.35055324
351.779536748
352.183685801
352.563431364
352.919200337
353.251412812
353.560479372
353.846798488
354.110753988
354.352712645
354.573021876
354.772007573
354.949972081
355.107192322
355.243918112
355.360370666
355.456741439
355.533191335
355.589849085
355.626730078
355.644656141
271.209918685
271.301954338
271.490455219
271.778010866
272.162276103
272.640757078
273.210457614
273.86795094
274.609459683
275.430935114
276.328131282
277.296671993
278.332109094
279.42997143
280.585804585
281.795202044
283.053828808
284.357438606
285.701885954
287.083134213
288.4972607
289.94045975
291.40904447
292.899447737
294.408222882
295.932044299
297.46770817
299.01213332
300.56236221
302.115561996
303.669025343
305.220171384
306.766546457
308.305824545
309.835806909
311.354421559
312.859722259
314.349887043
315.823216304
317.278130422
318.713167008
320.12697777
321.518325071
322.886078193
324.229209396
325.546789788
326.837985079
328.102051247
329.338330187
330.54624536
331.725297518
332.875060499
333.995177169
335.085355518
336.145364932
337.175032666
338.174240529
339.142921776
340.081058204
340.988677441
341.865850412
342.712688939
343.529343473
344.316000892
345.072882359
345.800241189
346.498360702
347.167552023
347.80815183
348.42052
349.005037182
349.562102253
350.092129691
350.59554686
351.072791215
351.52430745
351.950544607
352.35195316
352.728982105
353.082076062
353.411672429
353.718198591
354.00206921
354.263683614
354.503423295
354.721649541
354.9187012
355.094892605
355.250511674
355.385818193
355.501042312
355.596383432
355.672009191
355.728053561
355.764536111
355.782271035
270.481073441
270.576885533
270.773059047
271.072164381
271.471581658
271.968496182
272.559544541
273.240904893
274.008394811
274.857566331
275.783792949
276.782346127
277.848459787
278.977382416
280.164417414
281.404952885
282.694482468
284.028618915
285.403102084
286.813802871
288.256724377
289.728001401
291.223899085
292.740811343
294.275259493
295.82389134
297.383480807
298.950928102
300.523260302
302.097632243
303.67132716
305.241757895
306.806467708
308.363130622
309.909551159
311.4436638
312.96353192
314.467346214
315.953422614
317.420199742
318.866235906
320.290205728
321.690896398
323.06720367
324.418127603
325.742768135
327.040320532
328.310070775
329.551390919
330.763734501
331.946632005
333.099686469
334.222569239
335.315015914
336.376822517
337.407841899
338.407980389
339.377194703
340.315489081
341.22291267
342.099557093
342.94555419
343.761073898
344.54632221
345.301539188
346.026996981
346.72299781
347.389871881
348.027975217
348.637687368
349.219409
349.773559361
350.300573625
350.800900115
351.274997445
351.72333157
352.146372792
352.544592737
352.918461315
353.268443712
353.59499742
353.898569324
354.179592887
354.43848543
354.675645531
354.891450573
355.086254428
355.260385323
355.414143873
355.547801341
355.661598082
355.75574229
355.830409005
355.885738038
355.921753588
355.939261753
269.647618036
269.747922855
269.953216256
270.266030368
270.683396862
271.20209459
271.818298539
272.527694946
273.325602476
274.207087385
275.167066289
276.200393794
277.301933559
278.466613046
279.689463287
280.96564577
282.290468815
283.659395867
285.068047917
286.512202
287.987787347
289.490880454
291.017700002
292.564602278
294.128077511
295.704747311
297.291363232
298.884806329
300.482087499
302.080348353
303.67686186
305.269033906
306.854404427
308.430647598
309.99557179
311.547119033
313.083363912
314.602511864
316.102896929
317.582978959
319.041340356
320.476682372
321.88782105
323.273682855
324.63330007
325.965806003
327.270430091
328.54649294
329.793401364
331.010643481
332.197783913
333.354459129
334.480372999
335.575292563
336.639044075
337.671509325
338.67262226
339.64236591
340.580769597
341.487906412
342.363890943
343.208877181
344.023056592
344.80665628
345.559937198
346.283192349
346.976744941
347.640946438
348.276174496
348.882830741
349.461338395
350.012139731
350.535693379
351.032471485
351.502956756
351.947639398
352.367013996
352.761576346
353.131820285
353.478234529
353.80129956
354.101484584
354.379244574
354.635017434
354.869221283
355.0822519
355.274480319
355.44625061
355.597877857
355.729646327
355.841807861
355.934580625
356.008147869
356.062655726
356.098134195
356.115380719
268.704660408
268.810286772
269.026370177
269.355375073
269.793889753
270.338177271
270.983832182
271.725928933
272.559173551
273.478044246
274.476913294
275.550147201
276.69218425
277.897590584
279.161097427
280.477622719
281.842280679
283.250382596
284.697431764
286.17911494
287.691292234
289.229986802
290.791375379
292.371780274
293.96766321
295.575621096
297.192383631
298.814812466
300.43990155
302.064778261
303.68670429
305.303077733
306.911434816
308.509449892
310.094935742
311.665843082
313.22025941
314.756407176
316.272641312
317.767446175
319.239431946
320.687330573
322.10999131
323.506375938
324.875553738
326.216696286
327.529072136
328.812041473
330.065050763
331.287627503
332.479375088
333.639967871
334.769146461
335.866713295
336.932528528
337.966506266
338.968611155
339.938855333
340.877295723
341.784031656
342.659202774
343.502987165
344.315599669
345.097290303
345.848342713
346.569072614
347.259826149
347.920978114
348.552930014
349.156107933
349.73096018
350.277954747
350.797576554
351.29032452
351.756708493
352.197246045
352.6124592
353.002871096
353.369002642
353.71136919
354.030477255
354.326821305
354.600880662
354.853116514
355.083969077
355.293854917
355.483164446
355.652259606
355.801471761
355.931099808
356.041408498
356.13262702
356.20494784
356.258524465
356.293393317
356.310342417
267.646408574
267.758329926
267.987159372
268.335249315
268.798620569
269.372878619
270.052885991
270.832955409
271.707041356
272.668912664
273.712297136
274.830995276
276.018963252
277.2703679
278.579618196
279.941378234
281.350566698
282.802347276
284.292113701
285.815472292
287.368224136
288.946348413
290.545987861
292.163436986
293.795133285
295.43765145
297.087700272
298.742121776
300.397891975
302.052122634
303.702062794
305.345101612
306.978770966
308.60074525
310.208842162
311.80102228
313.375387855
314.930180822
316.463780072
317.974698057
319.4615768
320.923183393
322.358405076
323.766243962
325.14581153
326.496322923
327.817091164
329.10752134
330.367104823
331.595413603
332.79209478
333.956865286
335.089506886
336.189861518
337.257827003
338.293353172
339.296438424
340.267126708
341.205504941
342.111700798
342.985880853
343.828248993
344.639045033
345.418543451
346.167052163
346.884911249
347.572491567
348.230193187
348.858443608
349.457695705
350.028425431
350.571129234
351.086321243
351.574530221
352.036296341
352.472167817
352.882697427
353.26843899
353.629943807
353.967757142
354.282414737
354.574439424
354.844337846
355.092597309
355.319682799
355.526034169
355.712063514
355.878152757
356.024651448
356.151874784
356.260101848
356.349574225
356.420494607
356.473024502
356.507207984
356.523822673
266.466014706
266.585392049
266.82929292
267.199891607
267.692476576
268.301809453
269.0218251
269.845885298
270.767022365
271.778151659
272.872242593
274.042445979
275.282179821
276.58517903
277.945516241
279.357601247
280.816165985
282.316240888
283.853127141
285.422368141
287.019722449
288.641139704
290.282740415
291.940800108
293.611737942
295.292109624
296.978604068
298.668043084
300.357383162
302.04371834
303.724282953
305.396455708
307.057763025
308.705878972
310.338626584
311.953977523
313.550050793
315.125110543
316.677563015
318.205952741
319.708958079
321.185386187
322.634167539
324.054350095
325.445093209
326.805661372
328.135417879
329.433818485
330.700405125
331.934799778
333.136698516
334.305865836
335.442129313
336.545374664
337.615541246
338.652618061
339.65664027
340.627686235
341.565875076
342.471364689
343.344350183
344.185062647
344.993768148
345.770766875
346.516392296
347.231010256
347.915017903
348.568842377
349.192939208
349.787790376
350.35390204
350.891801921
351.402036387
351.88516726
352.341768399
352.772422117
353.177715469
353.558236491
353.914570401
354.247295836
354.556981153
354.844180819
355.109431935
355.353250907
355.576130296
355.778535854
355.960903776
356.123638165
356.26710873
356.391648734
356.49755317
356.585077192
356.654434859
356.705796851
356.739215451
356.755456783
265.155373257
265.283613264
265.545392571
265.942609053
266.46959649
267.12002466
267.886645674
268.761629797
269.736876945
270.804278339
271.955917024
273.184207029
274.481976843
275.842506955
277.259532692
278.727223294
280.240146624
281.793226908
283.381700855
285.001075708
286.647091428
288.315688264
290.002980372
291.705235757
293.418862495
295.140400833
296.866520362
298.59402114
300.319837443
302.041041984
303.754851633
305.458632641
307.149903974
308.826338777
310.485765757
312.126168947
313.745686311
315.342607251
316.915369162
318.462553112
319.98287881
321.475198942
322.938493047
324.371861001
325.774516282
327.14577905
328.485069203
329.791899428
331.065868357
332.306653882
333.514006712
334.687744231
335.827744763
336.933942282
338.006321682
339.044914612
340.049795958
341.021080951
341.958922903
342.863511514
343.735071685
344.573862723
345.380177838
346.15434378
346.896720502
347.607700699
348.28770913
348.937201618
349.556663659
350.146608612
350.707575443
351.240126058
351.744842244
352.222322281
352.673177287
353.098027363
353.497497604
353.87221404
354.222799557
354.549869864
354.854029526
355.135868117
355.395956515
355.634843371
355.853051774
356.051076125
356.229379242
356.388389707
356.528499465
356.650061664
356.753388749
356.838750959
356.906374812
356.956440802
356.989010688
357.00483785
263.704856973
263.843692119
264.126791902
264.555631205
265.123284525
265.821995582
266.642997992
267.576962925
268.614398691
269.745971772
270.962738283
272.256289764
273.618825144
275.043165235
276.522726932
278.051472613
279.623847182
281.234711805
282.879280229
284.553061139
286.251808238
287.971478765
289.708200646
291.458248292
293.218026815
294.984064114
296.753009671
298.521638403
300.286857653
302.045713903
303.795402147
305.53327283
307.256835196
308.963760468
310.651883245
312.319201331
313.963874119
315.58421972
317.178710974
318.745970517
320.284765039
321.793998884
323.272707131
324.72004832
326.135296929
327.517835743
328.867148185
330.182810711
331.464485316
332.71191224
333.924902943
335.103333431
336.24713803
337.356303714
338.430865048
339.470899859
340.476525645
341.447896786
342.385202491
343.288665479
344.158541255
344.995117888
345.798716112
346.569689616
347.308425312
348.015343447
348.690897409
349.335573096
349.949887787
350.534388464
351.089649564
351.616270219
352.114871004
352.586090299
353.030580318
353.449002925
353.842025295
354.210315515
354.55453817
354.875349989
355.173395588
355.44930334
355.703681426
355.937114071
356.150158008
356.343339175
356.517149665
356.672044947
356.808441341
356.9267138
357.027193932
357.110168311
357.175877136
357.224511958
357.256144543
357.271514198
262.102967586
262.254568579
262.563279255
263.029931109
263.645915504
264.401594248
265.286236929
266.288620928
267.397544282
268.602216293
269.892517612
271.259141675
272.693639574
274.188394854
275.736553879
277.331933179
278.96891973
280.642374619
282.347545974
284.079993753
285.835526919
287.61015262
289.400036888
291.20147651
293.010881864
294.824770109
296.639767235
298.45261655
300.260190703
302.059502756
303.847719367
305.622170525
307.380352939
309.119934516
310.838755923
312.53483032
314.206341396
315.851639931
317.469239132
319.057808922
320.616169359
322.143283328
323.638248718
325.100290221
326.528750947
327.923083949
329.282843779
330.607678133
331.897319653
333.151577934
334.370331841
335.5535222
336.701145008
337.813245259
338.889911526
339.931271383
340.937487754
341.908756209
342.845303216
343.747385252
344.615288693
345.44933029
346.24985807
347.017252414
347.751927117
348.454330205
349.124944331
349.764286611
350.372907792
350.951390704
351.500348016
352.020419308
352.512267573
352.976575225
353.414039747
353.825369078
354.211276865
354.572477642
354.909682037
355.223592049
355.514896457
355.784266382
356.032351056
356.259773814
356.467128324
356.654975106
356.823838308
356.974202793
357.10651152
357.221163202
357.318510266
357.398857243
357.462459165
357.509519281
357.540120696
357.554987172
260.335867147
260.503004053
260.842766409
261.355007199
262.02883519
262.852101469
263.811516372
264.893456399
266.084620468
267.372497897
268.745647479
270.193813847
271.707919851
273.279976759
274.902949614
276.570606603
278.277371902
280.018193103
281.788427906
283.583750547
285.400076266
287.233501609
289.080258991
290.936684971
292.799202399
294.664316228
296.528621143
298.388817535
300.241731124
302.0843307
303.913746178
305.727281106
307.52241599
309.296813807
311.048321534
312.774969626
314.474969466
316.146709145
317.78874792
319.399809569
320.978774782
322.524672798
324.036672473
325.514073033
326.956294666
328.362869131
329.733430451
331.067705754
332.365506295
333.6267187
334.851296511
336.039252149
337.190649418
338.30559674
339.384241248
340.426763915
341.433375787
342.404315405
343.339847395
344.240262152
345.105876476
345.937034965
346.734111897
347.497513342
348.227679197
348.925084901
349.590242564
350.223701359
350.82604704
351.397900533
351.939915632
352.452775851
352.937190554
353.39389052
353.82362308
354.227146985
354.605227145
354.958629323
355.288114895
355.594435716
355.878329149
356.14051329
356.381682425
356.602502747
356.803608352
356.985597543
357.149029442
357.294420935
357.422243931
357.532922969
357.626833117
357.704298176
357.765589286
357.8109227
357.840393383
357.854707997
258.386739102
258.573017463
258.950858706
259.518619826
260.262265189
261.166258848
262.213952978
263.388673123
264.674551171
266.057071559
267.523346305
269.062169747
270.663918189
272.320359027
274.024422454
275.769973148
277.551604154
279.364462902
281.20411073
283.066412292
284.947449278
286.843453329
288.750755077
290.665748893
292.584874789
294.504618693
296.42152905
298.332244653
300.233525172
302.122279924
303.995591792
305.850730014
307.685154885
309.496522787
311.282687519
313.041699321
314.771801439
316.471424779
318.139181274
319.773856129
321.374399009
322.939914382
324.469651304
325.962992901
327.419445829
328.838629845
330.220267599
331.564174621
332.870249519
334.138464378
335.368855433
336.561514146
337.716578872
338.834227323
339.914670057
340.958145188
341.964914472
342.935260846
343.869487446
344.767917989
345.630898377
346.458799225
347.252019023
348.010987545
348.736169143
349.428065566
350.087218026
350.714208244
351.30965838
351.874229749
352.408620391
352.913561579
353.38981346
353.838159997
354.259403469
354.654358678
355.023847071
355.368690872
355.689707323
355.987703094
356.263468897
356.517774335
356.751363025
356.964948012
357.159207511
357.334780989
357.492265597
357.632212974
357.755126415
357.861458367
357.951608282
358.025920933
358.084684758
358.128129639
358.156363806
358.170075103
256.234901103
256.445117217
256.870294085
257.50647864
258.335231373
259.336397903
260.488898215
261.772179252
263.16725614
264.657322207
266.227973728
267.867141115
269.56483353
271.312794756
273.104143746
274.933045785
276.79443666
278.683805092
280.597028041
282.530248139
284.479781448
286.442045937
288.413505605
290.390630691
292.369878652
294.347700977
296.320573703
298.28504393
300.237777027
302.175602222
304.095542269
305.99482377
307.870882978
309.721368289
311.5441413
313.337275388
315.099050896
316.827948159
318.522639524
320.181980402
321.80499904
323.39088531
324.938978925
326.44875744
327.919824376
329.351897716
330.744798741
332.098441193
333.412820617
334.688003854
335.924118715
337.121343996
338.279900084
339.400040452
340.482044336
341.526210895
342.532855046
343.502305139
344.434902464
345.331002535
346.190977885
347.015222078
347.80415449
348.558225387
349.277920816
349.963766839
350.616332736
351.236232875
351.824127087
352.380719487
352.906755804
353.403019398
353.870326186
354.309518789
354.72146017
355.107027038
355.46710322
355.80257314
356.114315486
356.403197121
356.670067241
356.915751828
357.141048402
357.346721117
357.533496216
357.702057886
357.853044507
357.987045315
358.104597463
358.206183487
358.292229122
358.363101453
358.419107518
358.460492169
358.487377413
358.500430451
253.854546871
254.095238765
254.580208736
255.301884271
256.235552178
257.354700689
258.632377968
260.043112977
261.564183709
263.176247568
264.863430745
266.613034072
268.415027915
270.261482085
272.146028482
274.063407964
276.009118095
277.979156215
279.969840296
281.977685488
283.99931505
286.031389295
288.070544663
290.113345574
292.156260704
294.195678362
296.22795838
298.249508362
300.256859443
302.246732281
304.216074158
306.16206349
308.082109706
309.973852292
311.835162221
313.664140622
315.459111714
317.218613216
318.941386898
320.626368557
322.272676161
323.879596699
325.44657248
326.973187311
328.459153105
329.904297228
331.308550471
332.671935445
333.994555137
335.276581437
336.518243661
337.719817265
338.881613113
340.00396769
341.087234717
342.13177852
343.137969514
344.106181961
345.036794097
345.930190493
346.786766415
347.606933699
348.391127642
349.139814219
349.853497022
350.53272329
351.178088542
351.790239429
352.369874619
352.917743653
353.434643885
353.921415758
354.378936758
354.808114455
355.209879044
355.585175736
355.934957234
356.260176477
356.561779686
356.840699741
357.097849867
357.33411766
357.550359441
357.747395
357.926002755
358.086915356
358.230815746
358.358333696
358.470042791
358.566457823
358.648032597
358.715158242
358.768161572
358.807303001
358.83271976
358.845056392
251.212917813
251.493250882
252.055177618
252.885345982
253.949954338
255.213680168
256.641789177
258.202617674
259.869054119
261.619096252
263.435657357
265.305882652
267.22025288
269.171690333
271.154789742
273.165221462
275.199306079
277.253733958
279.325392523
281.411262331
283.508346805
285.613609211
287.723904479
289.835912539
291.946098514
294.050738427
296.14600424
298.228089109
300.293330091
302.338304624
304.359871645
306.355161167
308.321556273
310.25668694
312.158435362
314.024936996
315.854569057
317.645936195
319.397859827
321.109367932
322.779681214
324.40819738
325.994475059
327.538217646
329.039258117
330.497545302
331.913131159
333.286158656
334.616849689
335.905492633
337.152429512
338.358043094
339.522744401
340.646961243
341.731128369
342.775679765
343.781043562
344.74763985
345.675881494
346.56617789
347.418941266
348.234595008
349.013583247
349.756380876
350.463503113
351.135513834
351.773031982
352.376735624
352.947363381
353.485713222
353.992638775
354.46904352
354.91587337
355.334108225
355.724753068
356.088829082
356.427365094
356.7413895
357.031922675
357.299969815
357.546514155
357.772510528
357.978879304
358.166500742
358.336209823
358.488791587
358.624977015
358.745439438
358.850791452
358.941582336
359.018295874
359.081348544
359.131088208
359.167792161
359.191613339
359.203171474
248.267568635
248.600820857
249.263976051
250.234238614
251.464438582
252.907021573
254.516986764
256.254974537
258.088886513
259.994197789
261.953233814
263.953835191
265.987860891
268.049844908
270.135942443
272.243185306
274.369006491
276.510971293
278.66664867
280.833560867
283.009157295
285.190771108
287.375537398
289.560284921
291.741450466
293.915117211
296.077152085
298.223413394
300.34995821
302.453181058
304.529848753
306.577058701
308.592173899
310.572812201
312.516867451
314.422519428
316.288211525
318.112626437
319.894676142
321.633494406
323.328420115
324.978977671
326.584857989
328.145899145
329.662068995
331.133450647
332.560229471
333.942680952
335.281158354
336.576079296
337.827911318
339.037156846
340.204338399
341.329984843
342.414619556
343.458751212
344.462867833
345.427434528
346.352895148
347.239677722
348.088203298
348.898897412
349.672203219
350.40859514
351.108591854
351.772767554
352.40176062
352.996279104
353.557102757
354.08508158
354.581131164
355.046225313
355.481386689
355.887676313
356.266182764
356.618011714
356.944276178
357.246087603
357.524547683
357.78074072
358.01572638
358.230532789
358.426149992