/*--------------------------------*- C++ -*----------------------------------*\
| =========                 |                                                 |
| \\      /  F ield         | OpenFOAM: The Open Source CFD Toolbox           |
|  \\    /   O peration     | Version:  v1906                                 |
|   \\  /    A nd           | Web:      www.OpenFOAM.com                      |
|    \\/     M anipulation  |                                                 |
\*---------------------------------------------------------------------------*/
FoamFile
{
    version     2.0;
    format      ascii;
    class       surfaceScalarField;
    location    "474";
    object      phia;
}
// * * * * * * * * * * * * * * * * * * * * * * * * * * * * * * * * * * * * * //

dimensions      [0 3 -1 0 0 0 0];
oriented        oriented;


internalField   nonuniform List<scalar> 
18240
(
0.00134362522464
-0.00134390088258
0.00281456881899
-0.00147126632088
0.00428452802142
-0.00147024088411
0.0057358040439
-0.00145160516686
0.00716051875242
-0.0014249833905
0.00855184896121
-0.00139166220596
0.00990389266089
-0.00135229791071
0.0112110839979
-0.00130752367234
0.0124687108302
-0.00125786529142
0.0136723524881
-0.00120397180328
0.014818512519
-0.00114638147504
0.0159039510653
-0.00108576413986
0.016926389783
-0.00102264242002
0.0178837392105
-0.000957668317347
0.0187748668354
-0.00089131296955
0.0195987339835
-0.000824177458262
0.020355223269
-0.000756656203086
0.0210442018648
-0.000689278723623
0.0216664040969
-0.000622350701738
0.0222224375462
-0.000556322115411
0.0227137161684
-0.000491409127536
0.0231414238699
-0.000427983918616
0.0235074914196
-0.000366180539264
0.0238135297135
-0.000306301383373
0.0240618430138
-0.0002484096459
0.0242543415578
-0.000192748071749
0.0243935821795
-0.000139321061348
0.0244816680589
-8.83216513917e-05
0.0245213086627
-3.97062036587e-05
0.0245147136125
6.37306671664e-06
0.0244646658621
4.99961440081e-05
0.0243734079645
9.10495887537e-05
0.0242437131064
0.000129656148864
0.0240777904382
0.000165727860667
0.0238783610897
0.000199402710405
0.0236475628866
0.00023061664648
0.0233880172709
0.000259530012968
0.0231017495845
0.000286099113299
0.0227912452252
0.000310499034026
0.0224583877328
0.000332701603748
0.0221054998661
0.000352891871747
0.0217343028191
0.000371053553677
0.0213469380771
0.000387377393763
0.0209449510371
0.000401855634449
0.0205302904769
0.000414680989694
0.0201043195847
0.000425851276275
0.0196687895515
0.000435557605329
0.0192248808854
0.000443800516021
0.0187741484085
0.000450766372345
0.0183175954246
0.000456455971661
0.017856587019
0.0004610480089
0.0173919594583
0.000464541320854
0.016924899365
0.000467104614374
0.0164560903628
0.000468733152803
0.0159865553657
0.000469583826988
0.0155168422519
0.000469647229508
0.0150478271891
0.000469067439487
0.0145799407515
0.000467830073869
0.0141139300232
0.000466066056942
0.0136501263707
0.000463756326552
0.0131891648115
0.000461019123638
0.012731294339
0.000457831690281
0.0122770530334
0.000454300550273
0.0118266216814
0.000450400597057
0.0113804538793
0.000446228087468
0.0109386734224
0.000441757217621
0.0105016587338
0.000437075530512
0.0100694843645
0.000432158130812
0.00964245978579
0.00042708544328
0.00922061508177
0.000421834970148
0.00880419422857
0.000416481346917
0.00839318491403
0.000411005595049
0.00798776698088
0.000405477626384
0.00758788605153
0.000399882747732
0.00719365783307
0.000394286781902
0.00680498508043
0.000388679626184
0.00642191882967
0.000383123306925
0.00604431802169
0.000377612249711
0.00567216865956
0.000372204582304
0.0053052853461
0.000366898822109
0.0049435895417
0.000361748810839
0.00458685219723
0.000356756433692
0.00423493216657
0.00035197050854
0.00388755926463
0.000347395171125
0.00354453410147
0.000343072921615
0.00320555134386
0.000339008035518
0.00287036315956
0.000335233323535
0.00253864500434
0.000331746473012
0.00221013143447
0.000328556256944
0.00188454287999
0.000325619405306
0.00156174824432
0.000322834202466
0.00124189041911
0.000319890008959
0.000925966576728
0.000315957956127
0.000617863428543
0.000308134755519
0.000332239581413
0.000285663243602
0.000332261340753
0.00148537822042
-0.00282957996962
0.00314344751721
-0.00312966477386
0.00479249900476
-0.00311960897195
0.00641786130731
-0.00307729581128
0.00801219260955
-0.0030196245672
0.00956854171912
-0.00294833578
0.0110804039572
-0.0028644611435
0.01254169876
-0.00276913693737
0.0139470693596
-0.0026635259911
0.0152916933682
-0.0025489060965
0.0165715573696
-0.00242652296711
0.0177831891774
-0.00229769609643
0.0189239378462
-0.00216365447198
0.0199916463552
-0.00202566515197
0.0209849428593
-0.00188485765927
0.0219028662532
-0.00174237598702
0.0227451727669
-0.00159919485049
0.0235119265433
-0.0014562933812
0.024203824996
-0.00131446478188
0.0248217656137
-0.00117450862854
0.0253671921194
-0.00103703451255
0.0258416466972
-0.000902668963973
0.0262471369087
-0.000771852987272
0.0265856800147
-0.000645059371716
0.0268596885193
-0.000522583991353
0.0270715107393
-0.000404769649745
0.0272238312483
-0.000291791516492
0.027319210198
-0.000183884692149
0.0273604943727
-8.11249807202e-05
0.0273503564855
1.63417508444e-05
0.027291710309
0.000108522359026
0.0271872590876
0.000195346015558
0.0270399240985
0.000276885151259
0.0268523821639
0.000353128901076
0.0266274863102
0.000424205801564
0.0263678208051
0.000490154606821
0.0260761241683
0.000551146433403
0.0257548493526
0.000607259191682
0.0254065831505
0.000658696843639
0.0250336150334
0.000705567248334
0.024638351667
0.000748098035277
0.0242228957511
0.00078641874447
0.0237894539895
0.000820772474347
0.0233399271392
0.000851302993718
0.0228763099953
0.000878261382019
0.0224002937491
0.000901798769996
0.02191365659
0.000922167310269
0.0214178794447
0.000939519144073
0.0209145259545
0.000954101127384
0.0204048725091
0.00096606063333
0.0198902763106
0.000975633566066
0.0193718205061
0.000982957553286
0.0188506691404
0.000988252842749
0.0183277279809
0.000991643420615
0.0178039850938
0.000993330445587
0.017280187823
0.000993421733044
0.0167571678532
0.000992097402009
0.0162355346233
0.00098944809558
0.0157159837585
0.000985632534792
0.0151990071329
0.000980724720397
0.0146851837866
0.000974863093735
0.0141749067596
0.000968106880336
0.0136686557443
0.000960576578035
0.0131667408233
0.000952319494178
0.0126695564176
0.000943441314321
0.0121773420333
0.000933980827433
0.0116904172463
0.000924032379412
0.0112089595909
0.000913629716376
0.0107332206232
0.000902859197428
0.0102633210495
0.000891752665366
0.00979944805037
0.000880391367132
0.00934166773624
0.000868807733441
0.0088901041316
0.000857080039398
0.00844476896861
0.000845242971959
0.00800572278393
0.000833373129286
0.00757292200697
0.000821508241534
0.00714636273584
0.000809723672083
0.00672594498411
0.000798060154872
0.00631159967184
0.000786591489677
0.00590316984261
0.000775360647511
0.0055005214408
0.00076443887157
0.00510344126391
0.000753869987289
0.0047117320249
0.000743721073993
0.00432512682295
0.000734034759712
0.00394336901078
0.000724871491834
0.00356614296915
0.000716269353732
0.00319313912062
0.000708277427716
0.00282400016995
0.000700921671808
0.00245836923896
0.000694227050559
0.00209584119393
0.000688184499086
0.0017359586819
0.000682754740607
0.00137805234889
0.000677832174631
0.00102081710377
0.000673229727245
0.000660356804181
0.000668629893714
0.000284816794632
0.000661237462592
0.000617095619393
0.00151157365382
-0.00434145956684
0.00319083136495
-0.00480924928008
0.00486351443452
-0.00479261698235
0.00651240929491
-0.00472651640129
0.00812941027388
-0.00463694505108
0.00970727318741
-0.00452651899415
0.0112392866105
-0.00439678648308
0.0127192832982
-0.00424944625078
0.0141417782204
-0.00408632325312
0.0155019323549
-0.00390936307194
0.0167956568344
-0.00372053826914
0.0180195252572
-0.00352185572406
0.0191708573173
-0.00331526425656
0.0202475929971
-0.00310267883896
0.0212483646697
-0.00288589260748
0.0221723440539
-0.00266661896202
0.0230193107428
-0.00244640943706
0.0237894820052
-0.00222671291207
0.0244835845441
-0.00200879914398
0.0251026760294
-0.00179383249953
0.0256482254384
-0.00158279938548
0.0261219330106
-0.00137659276146
0.0265258218558
-0.00117594083445
0.0268620603175
-0.000981497908716
0.0271330651038
-0.000793771554908
0.0273413274018
-0.000613216082053
0.0274895255876
-0.000440156579961
0.0275803549681
-0.000274882666734
0.0276166476872
-0.000117569241516
0.0276012056561
3.16302333664e-05
0.0275369257419
0.000172665518691
0.0274266353712
0.000305497295628
0.0272732225643
0.000430175302402
0.0270794750129
0.00054675122734
0.0268482110328
0.000655360610422
0.0265821232117
0.000756130430395
0.0262839112389
0.000849262009946
0.0259561300817
0.000934940973906
0.0256013233834
0.00101341932525
0.0252218761984
0.00108492707412
0.0248201482563
0.00114975327869
0.0243983314896
0.00120815960486
0.0239585823538
0.00126045988084
0.0235028844624
0.00130693586701
0.0230331794731
0.00134791499495
0.0225512350927
0.00138368848822
0.0220587739045
0.00141458695144
0.0215573470536
0.00144090113987
0.0210484606205
0.0014629552414
0.0205334551608
0.0014810305112
0.0200136290071
0.00149543609718
0.0194901237983
0.00150643589023
0.0189640442225
0.00151431687858
0.0184363494778
0.00151931944392
0.0179079687327
0.00152170317475
0.0173796984068
0.00152168089602
0.0168523127647
0.00151948191806
0.0163264667628
0.00151528990503
0.0158028010539
0.00150930342516
0.0152818501808
0.00150167776032
0.0147641414972
0.00149258262687
0.0142501084621
0.00148214784504
0.0137401829737
0.00147051800293
0.0132347136452
0.00145780191367
0.0127340513443
0.00144412402644
0.0122384723754
0.00142957747884
0.0117482570709
0.00141427202678
0.0112636179475
0.00139829055939
0.0107847714689
0.00138173340073
0.0103118712754
0.00136467810485
0.00984507326303
0.00134722000681
0.0093844740726
0.00132943520726
0.00893016981216
0.00131141734985
0.00848219995993
0.00129324368911
0.00804060002033
0.00127500810791
0.00760535101055
0.00125679024447
0.00717642642169
0.00123868483689
0.00675374738379
0.00122077386671
0.00633722421792
0.00120315233005
0.00592671735509
0.00118590340263
0.00552207378065
0.00116912075971
0.00512309370244
0.0011528867287
0.00472956208046
0.00113729124209
0.00434122098831
0.00112241292746
0.00395779631919
0.00110833469615
0.00357897548954
0.00109512757476
0.00320442875653
0.00108286273703
0.00283379058925
0.00107159770199
0.00246667170106
0.00106138456592
0.0021026347732
0.00105225926715
0.00174117695165
0.00104425069517
0.00138165699354
0.00103738848012
0.00102317261957
0.00103174870289
0.000664440738941
0.00102739814327
0.000305725053639
0.00101998942501
0.000922837407666
0.0015347895218
-0.00587655809154
0.00323695160322
-0.00651174198903
0.00493266203918
-0.00648865605641
0.00660391581263
-0.00639809794345
0.00824213230983
-0.00627548537492
0.00983975510311
-0.00612446337224
0.0113898396263
-0.00594718754911
0.0128860750484
-0.00574599503271
0.0143228613918
-0.00552341665396
0.0156953199056
-0.00528212463827
0.0169993356097
-0.00502484958257
0.01823152611
-0.00475433711118
0.0193892548759
-0.00447327546843
0.0204705685457
-0.00418426967602
0.0214741909599
-0.00388978297219
0.022399439732
-0.00359212997566
0.0232462106678
-0.00329343279365
0.0240148836644
-0.00299563235847
0.0247063061277
-0.00270045785943
0.0253216968772
-0.00240945339018
0.0258626352443
-0.00212395747647
0.0263309692067
-0.00184514034572
0.0267288140006
-0.0015739888059
0.0270584674884
-0.00131134856978
0.0273224188037
-0.00105790968014
0.0275232708714
-0.000814249157864
0.0276637572604
-0.000580813827607
0.0277466702272
-0.000357960934621
0.0277748833475
-0.000145937776186
0.0277512836139
5.50798170815e-05
0.0276787983907
0.000245010142873
0.0275603297606
0.00042383029875
0.0273987858241
0.000591592836587
0.0271970187296
0.0007483965802
0.0269578580722
0.000894408376661
0.0266840528328
0.00102982714902
0.0263783066021
0.00115490822254
0.0260432230308
0.00126992860839
0.025681343013
0.00137521154555
0.0252950932672
0.0014710928504
0.0248868249162
0.00155794546785
0.0244587650421
0.00163614689586
0.0240130562837
0.00170610351776
0.0235517113454
0.00176821904281
0.0230766533384
0.00182291837856
0.0225896732567
0.00187061708343
0.0220924708597
0.00191174465704
0.0215866151719
0.00194671506953
0.0210735856942
0.00197594942369
0.0205547359029
0.00199984772705
0.0200313345252
0.0020188110026
0.0195045319401
0.00203321451878
0.018975401154
0.00204342945553
0.0184449068539
0.00204979783363
0.0179139456193
0.00205265386349
0.0173833172942
0.00205230076231
0.0168537639019
0.00204903183624
0.0163259429111
0.00204310928651
0.0158004643081
0.00203478500346
0.015277865356
0.00202428133767
0.0147586453385
0.00201181146215
0.0142432414527
0.00199756198043
0.0137320608518
0.00198171264588
0.0132254574451
0.0019644205894
0.012723761026
0.00194583912353
0.0122272548727
0.00192610333921
0.0117362019035
0.0019053477337
0.0112508231245
0.0018836929267
0.0107713209106
0.00186126187967
0.0102978584375
0.00183816752828
0.00983058029135
0.00181452743852
0.00936959310836
0.00179045221364
0.00891498379109
0.001766058505
0.00846680159183
0.0017414581239
0.00802507422831
0.001716769407
0.00758979164791
0.00169210702183
0.00716092033196
0.00166759174189
0.00673838892934
0.00164334097851
0.00632210098852
0.00161947706106
0.00591192260414
0.00159611854993
0.00550769377063
0.00157338713012
0.00510921810803
0.00155139976175
0.00471627293661
0.00153027428559
0.00432860103853
0.00151012245262
0.00394591938524
0.0014910543179
0.00356791257109
0.0014731721849
0.00319423953234
0.00145657391108
0.00282452727406
0.00144134803851
0.00245837324148
0.00142757697458
0.0020953353333
0.00141533542051
0.00173492415458
0.00140469887079
0.00137659028864
0.00139575849108
0.00101973761219
0.00138863827412
0.000663952174833
0.00138321878599
0.000311139350818
0.00137283739158
0.00123399485047
0.00156458941934
-0.00744146049414
0.00329844433578
-0.00824592922301
0.00502525702921
-0.00821580207006
0.00672640007606
-0.00809957186392
0.00839284854238
-0.007942261874
0.0100166816451
-0.00774862116547
0.0115906650164
-0.00752149142252
0.0131082837143
-0.00726392990794
0.0145637978268
-0.00697924161766
0.015952264833
-0.00667089714405
0.0172695567389
-0.00634244064508
0.0185123422351
-0.00599741551909
0.0196780703636
-0.00563928933104
0.0207649226843
-0.00527140074464
0.0217717746176
-0.00489690580421
0.0226981291886
-0.0045187479196
0.0235440671461
-0.00413962580388
0.0243101730649
-0.0037619854359
0.0249974841489
-0.00338800747338
0.0256074179491
-0.00301961765796
0.0261417277646
-0.00265848900672
0.0266024384736
-0.00230606468202
0.0269918129047
-0.00196356811508
0.0273122982689
-0.00163203085287
0.027566503738
-0.00131230345834
0.027757156089
-0.00100508207039
0.027887085665
-0.000710915566952
0.0279591881279
-0.000430228116682
0.0279764156836
-0.000163321941236
0.0279417425936
8.96034225545e-05
0.0278581599924
0.000328451063681
0.0277286430574
0.000553212323864
0.0275561511218
0.000763957336755
0.02734359746
0.000960829239448
0.0270938507653
0.00114404121228
0.0268097096575
0.00131386048011
0.0264939063269
0.00147061058152
0.0261490839859
0.00161465574924
0.0257778028882
0.00174640393837
0.0253825203318
0.00186629216695
0.0249655986091
0.0019747901348
0.0245292872887
0.00207238635613
0.0240757327637
0.00215959208077
0.0236069627118
0.00223692805593
0.0231248971235
0.00230492853274
0.0226313349202
0.00236412852783
0.0221279663523
0.00241506779143
0.0216163617939
0.002458278607
0.0210979854582
0.00249428976891
0.0205741863104
0.00252361504577
0.0200462129097
0.00254675731474
0.0195152062813
0.00256419794666
0.0189822156253
0.00257640134187
0.0184481928249
0.00258380548385
0.017914008568
0.00258682709271
0.0173804480553
0.00258585357624
0.016848227039
0.00258124895065
0.0163179882023
0.00257334726474
0.0157903165408
0.00256245928161
0.0152657359106
0.00254886732726
0.0147447232784
0.00253283259772
0.014227705005
0.00251459121064
0.0137150695701
0.00249436186159
0.0132071633159
0.00247234278423
0.0127043014608
0.00244871942531
0.0122067631829
0.00242366195063
0.0117148008724
0.0023973325855
0.0112286346142
0.00236988334707
0.0107484598201
0.0023414627573
0.0102744412851
0.00231221352739
0.00980671942017
0.00228227842522
0.0093454041525
0.00225179775342
0.008890580069
0.00222091426517
0.00844230044967
0.00218977035846
0.00800059161434
0.00215851202114
0.00756544737637
0.00212728576539
0.0071368328819
0.00209624166353
0.00671467971483
0.00206553009165
0.00629888944287
0.00203530395749
0.00588932955327
0.00200571536856
0.00548583686857
0.00197691717892
0.00508821440367
0.00194905969604
0.00469623470905
0.00192229167503
0.00430963762999
0.00189675719526
0.00392813349388
0.00187259624676
0.00355140150675
0.00184994195161
0.00317909234249
0.00182892102974
0.00281082658812
0.00180965189123
0.00244619578
0.00179224588018
0.00208476070389
0.00177680826517
0.00172605370965
0.00176344377777
0.00136958552205
0.00175226290404
0.00101488487277
0.00174337289682
0.00066169651182
0.00173644391025
0.000311826749869
0.00172274419797
0.00154583836866
0.00160226917528
-0.00904404661027
0.00337708978882
-0.0100210887489
0.00514392347921
-0.00998297310308
0.00688337434644
-0.0098393584255
0.00858589808278
-0.00964511799213
0.0102431333225
-0.00940618542249
0.0118474927808
-0.00912617563757
0.0133922046971
-0.00880896202192
0.0148713626988
-0.00845871442081
0.0162799473865
-0.00807979100962
0.0176138302732
-0.00767662626192
0.0188697517915
-0.00725363322331
0.0200452885164
-0.00681511490005
0.0211388003334
-0.00636519412767
0.0221493742575
-0.00590775326915
0.0230767538889
-0.00544639326201
0.0239212722777
-0.00498440139449
0.0246837756448
-0.00452473782393
0.0253655565056
-0.00407002857993
0.025968282141
-0.00362257518126
0.0264939370625
-0.00318436695248
0.0269447636299
-0.00275710590933
0.0273232187635
-0.00234222912686
0.0276319289315
-0.0019409386522
0.027873660396
-0.0015542239677
0.0280512855719
-0.00118288827048
0.0281677621952
-0.000827564922833
0.0282261060485
-0.000488736969601
0.0282293744949
-0.000166747434043
0.0281806422736
0.00013818600474
0.0280829877371
0.00042596354346
0.0279394697834
0.0006965952943
0.027753118973
0.000950180392461
0.0275269170193
0.00118691016448
0.0272637889483
0.00140705511235
0.0269665875607
0.00161095408809
0.0266380880044
0.00179900887628
0.0262809751072
0.00197167345404
0.0258978403919
0.00212944965555
0.0254911717556
0.00227287757962
0.0250633524388
0.00240253212974
0.0246166526964
0.00251901426715
0.0241532304781
0.00262294808542
0.0236751249702
0.00271497257449
0.0231842589218
0.00279573894296
0.0226824340668
0.00286590270235
0.022171335125
0.00292612113185
0.021652527155
0.00297704567157
0.0211274612318
0.00301931959647
0.0205974737103
0.00305357089532
0.0200637934829
0.00308041039498
0.0195275429985
0.00310042543162
0.018989746827
0.00311417874872
0.0184513340868
0.0031222033171
0.0179131478714
0.0031250023282
0.0173759485831
0.0031230454471
0.0168404236363
0.00311677009441
0.0163071910983
0.00310657925643
0.0157768090506
0.00309284407257
0.0152497789503
0.00307590312151
0.014726554089
0.00305606611923
0.0142075421871
0.0030336144156
0.0136931125378
0.00300880545546
0.0131835975254
0.00298187408491
0.0126792982361
0.00295303733177
0.0121804847856
0.00292249607197
0.0116874003847
0.00289043968417
0.0112002605584
0.00285704765287
0.0107192558277
0.00282249371301
0.0102445500468
0.00278694705998
0.00977628198444
0.00275057571991
0.0093145630982
0.00271354716209
0.00885947835875
0.00267603076116
0.00841108380025
0.00263819773851
0.00796940693089
0.0026002227083
0.00753444437807
0.00256228298214
0.00710616218712
0.00252455928156
0.00668449381934
0.00248723451235
0.00626934057247
0.00245049378559
0.0058605701171
0.00241452280846
0.00545801719772
0.00237950738031
0.00506148280468
0.00234563156306
0.00467073522431
0.00231307683173
0.00428550984119
0.00228202020085
0.00390551049619
0.00225263323503
0.00353040977881
0.00222508036822
0.00315985051268
0.00219951809777
0.00279344636159
0.0021760939429
0.0024307836625
0.00215494663714
0.00207142344879
0.00213620652927
0.00171490607215
0.00211999763223
0.00136076469652
0.00210644008122
0.00100855517231
0.00209561941458
0.000657994685216
0.00208703932399
0.000310689014354
0.00207008491038
0.00185654564125
0.00164865130624
-0.0106930203795
0.00347416430569
-0.011846943899
0.00529046383252
-0.0117996160393
0.0070771621235
-0.0116263973167
0.00882406391624
-0.011392357569
0.0105222692044
-0.0111047247051
0.0121637641608
-0.0107680003709
0.0137414703903
-0.0103869931313
0.0152492909975
-0.00996685450433
0.016682127065
-0.00951294050398
0.0180358685519
-0.00903067472298
0.0193073619196
-0.00852542649984
0.0204943607019
-0.00800240627785
0.0215954612438
-0.00746657937871
0.022610029102
-0.0069225978612
0.0235381179119
-0.00637475032895
0.0243803856052
-0.00582692892541
0.0251380096181
-0.00528261283466
0.0258126056698
-0.00474486696427
0.026406151337
-0.00421635420195
0.0269209183212
-0.00369935857032
0.0273594131594
-0.00319581644479
0.0277243287598
-0.00270735179795
0.0280185041838
-0.00223531240641
0.0282448934553
-0.00178080316014
0.0284065389877
-0.0013447152794
0.028506550188
-0.000927749483619
0.0285480826866
-0.000530434754236
0.0285343201253
-0.000153142388228
0.0284684546601
0.000203901642837
0.0283536702354
0.000540605556065
0.0281931250503
0.000857005365022
0.0279899356055
0.00115324178426
0.0277471633953
0.00142956123587
0.0274678025718
0.00168630150422
0.027154768299
0.00192388047559
0.0268108886767
0.00214278698282
0.0264388958199
0.00234357101168
0.0260414202349
0.00252683600345
0.0256209840321
0.00269323045835
0.0251799971783
0.00284344143061
0.024720752457
0.00297818707382
0.0242454233418
0.00309821078659
0.0237560606399
0.00320427423644
0.0232545920083
0.00329715176822
0.0227428203814
0.00337762364285
0.0222224252411
0.00344647055749
0.0216949629639
0.00350446709289
0.0211618699519
0.00355237645312
0.020624464947
0.00359094433769
0.0200839539828
0.00362089422064
0.0195414345311
0.00364292205474
0.0189979020336
0.00365769254978
0.018454255504
0.00366583516717
0.0179113051484
0.0036679418368
0.0173697788353
0.00366456461997
0.0168303301571
0.00365621515234
0.016293545058
0.0036433641247
0.0157599496201
0.00362644248378
0.0152300161532
0.00360584262408
0.0147041700755
0.00358192111602
0.014182794897
0.00355500125077
0.0136662377269
0.00352537685058
0.0131548127997
0.00349331565209
0.0126488053873
0.00345906364436
0.0121484737561
0.00342284870971
0.0116540514915
0.00338488492372
0.0111657480066
0.00334537592503
0.0106837494967
0.00330451870322
0.0102082182889
0.00326250628792
0.00973929277
0.0032195306978
0.00927708596275
0.00317578471278
0.00882168483412
0.00313146383278
0.0083731485009
0.00308676706014
0.00793150730268
0.00304189786656
0.00749676100303
0.00299706405456
0.00706887795783
0.00295247784572
0.00664779360014
0.00290835497223
0.00623340994517
0.00286491406271
0.00582559456399
0.00282237516473
0.00542418058227
0.00278095863306
0.00502896625612
0.00274088329847
0.00463971553241
0.00270236507204
0.0042561582523
0.00266561498918
0.00387799126913
0.00263083776174
0.00350487922802
0.00259822995456
0.00313645619457
0.00256797878093
0.00277232717586
0.00254026078507
0.00241207039594
0.00251524115502
0.00205524078749
0.00249307348959
0.00170137626575
0.00247389986628
0.00135000542408
0.00245784682727
0.0010006688873
0.00244498916166
0.00065303407909
0.00243471082399
0.000308560317566
0.00241459581201
0.00216512249816
0.00170454661108
-0.0123978946202
0.00359120148153
-0.0137339491952
0.00546710474768
-0.0136758680749
0.00731061643906
-0.0134702559739
0.0091107346669
-0.0131928192861
0.0108579035004
-0.0128522333615
0.0125436021581
-0.0124540343428
0.0141603969194
-0.0120041182367
0.0157019829066
-0.0115087650904
0.017163189553
-0.0109744656021
0.0185399566932
-0.0104077534125
0.0198292848955
-0.00981505909258
0.0210291683112
-0.00920258621421
0.0221385119725
-0.00857621160322
0.0231570408458
-0.00794140670587
0.0240852010201
-0.00730318194869
0.0249240600747
-0.00666605036568
0.0256752065984
-0.00603401288757
0.0263406561525
-0.00541056077299
0.026922763409
-0.00479869674095
0.0274241470975
-0.00420096826783
0.0278476259832
-0.00361951243984
0.0281961700262
-0.00305610385679
0.0284728621104
-0.00251220381867
0.0286808714164
-0.00198900300362
0.0288234318831
-0.00148745790943
0.0289038258055
-0.00100831716625
0.0289253669316
-0.000552141637294
0.0288913846372
-0.000119317871835
0.028805205979
0.000289930138401
0.0286701366157
0.000675532311845
0.0284894489179
0.00103755769145
0.0282663616096
0.00137620087584
0.0280040271268
0.00169177435692
0.0277055200329
0.00198469399855
0.0273738263709
0.00225546603718
0.0270118357161
0.00250467594901
0.0266223335594
0.00273297765415
0.0262079957442
0.00294108440191
0.0257713828089
0.00312975985899
0.0253149360393
0.00329981048304
0.0248409732992
0.00345207770695
0.0243516865133
0.00358743102138
0.0238491389893
0.00370676056283
0.0233352644729
0.00381097039349
0.0228118661747
0.00390097114856
0.0222806176497
0.00397767334369
0.0217430637811
0.00404198006418
0.0212006236958
0.00409478043577
0.0206545938543
0.00413694264857
0.0201061530485
0.00416930801488
0.0195563675156
0.00419268486716
0.019006197772
0.00420784380169
0.0184565053584
0.0042155130835
0.0179080609553
0.00421637566276
0.0173615520864
0.00421106659778
0.0168175917342
0.00420017221281
0.0162767261694
0.0041842297641
0.0157394432172
0.00416372877733
0.0152061793978
0.00413911282692
0.0146773270836
0.00411078274471
0.0141532402966
0.00407910006894
0.0136342402208
0.0040443915531
0.0131206192659
0.00400695363184
0.0126126446858
0.00396705751919
0.0121105608112
0.0039249539698
0.0116145908194
0.00388087825926
0.0111249373085
0.00383505458131
0.0106417825007
0.00378770032311
0.0101652875288
0.00373902960437
0.00969559150501
0.00368925646177
0.00923280998865
0.00363859725238
0.00877703340773
0.00358727258066
0.00832832518041
0.00353550850263
0.0078867199416
0.00348353722458
0.00745222173007
0.00343159720697
0.00702480238999
0.00337993279746
0.00660440013571
0.00332879343462
0.00619091839559
0.00327843244961
0.00578422496346
0.00322910561466
0.0053841514535
0.00318106937387
0.00499049315017
0.00313457899229
0.00460300915881
0.00308988648071
0.00422142298247
0.00304723859981
0.00384542339163
0.00300687474303
0.00347466571443
0.00296902505415
0.00310877344214
0.0029339085305
0.00274734029601
0.00290173147439
0.00238993299955
0.00287268615099
0.00203609485298
0.00284694935657
0.00168534976335
0.00282468084103
0.00133721128386
0.00280602064392
0.000991195204812
0.0027910422221
0.000646915382959
0.00277902501615
0.000305740512586
0.00275580523473
0.00247088129121
0.00177089853509
-0.0141691277068
0.00373010516038
-0.0156935107675
0.00567663262311
-0.0156227517363
0.00758730390161
-0.0153812804785
0.00945012671748
-0.0150559922976
0.0112547584854
-0.0146572112689
0.0129920850903
-0.0141917025396
0.0146542734175
-0.0136666428626
0.0162348027522
-0.0130896248645
0.0177284540084
-0.0124684407089
0.0191312641536
-0.0118108803861
0.0204404547415
-0.011124558773
0.0216543409423
-0.0104167735377
0.0227722276956
-0.00969439083884
0.0237942959409
-0.00896375876632
0.0247214844055
-0.00823064497159
0.0255553685398
-0.00750019995988
0.0262980428589
-0.00677694308497
0.0269520085752
-0.0060647730868
0.0275200735908
-0.00536699871665
0.0280052662258
-0.00468638861935
0.0284107679553
-0.00402523240829
0.0287398633172
-0.00338540842042
0.0289959076018
-0.00276844814617
0.0291823062373
-0.00217559297222
0.0293025027627
-0.00160783702595
0.0293599685886
-0.00106595727065
0.0293581924441
-0.00055053150191
0.0293006663997
-6.19499544717e-05
0.0291908696264
0.000399576583156
0.0290322475588
0.000834011519957
0.0288282014891
0.00124146825718
0.0285820660155
0.00162220791596
0.0282970967251
0.00197662214448
0.0279764587609
0.00230521714951
0.0276232175379
0.002608598996
0.027240331314
0.00288746025578
0.0268306450095
0.00314256826202
0.0263968850494
0.00337475470999
0.0259416547785
0.003584906412
0.0254674305423
0.00377395677213
0.0249765582168
0.00394287776509
0.0244712504121
0.00409267207587
0.0239535842941
0.0042243653708
0.0234255002142
0.00433899843294
0.0228888012109
0.00443761931589
0.0223451534697
0.00452127526941
0.0217960879099
0.00459100476772
0.0212430028421
0.00464782940701
0.0206871679181
0.00469274617497
0.0201297291431
0.0047267198772
0.019571715164
0.00475067635149
0.0190140444249
0.00476549623783
0.0184575333549
0.00477200996781
0.0179029050383
0.00477099367721
0.0173507984889
0.00476316664202
0.0168017779123
0.00474918984494
0.0162563420534
0.0047296661412
0.0157149330344
0.00470514154415
0.0151779447833
0.00467610794414
0.0146457305556
0.00464300673229
0.0141186096638
0.00460623349269
0.0135968730657
0.00456614324464
0.0130807879446
0.00452305627639
0.0125706011061
0.00447726411912
0.0120665413253
0.00442903561324
0.011568820642
0.00437862273598
0.0110776347204
0.00432626608689
0.0105931624171
0.0042721998541
0.010115564627
0.00421665612442
0.00964498266667
0.00415986853125
0.00918153618549
0.0041020750781
0.00872532094866
0.00404352029526
0.00827640638168
0.00398445653372
0.00783483327568
0.00392514469563
0.00740061143825
0.00386585415699
0.00697371773033
0.00380686229224
0.00655409417003
0.00374845329533
0.00614164657929
0.0036909167897
0.0057362433659
0.00363454586013
0.00533771494502
0.00357963505625
0.00494585332034
0.00352647794895
0.00456041235476
0.00347536482608
0.00418110818958
0.00342658007462
0.00380762038044
0.00338039984671
0.0034395931408
0.00333708953648
0.00307663732106
0.00329690165606
0.00271833261895
0.00326007363223
0.00236423023038
0.00322682584707
0.00201385646026
0.00319735997013
0.00166671768768
0.00317185704424
0.0013223031644
0.00315047065141
0.000980097036199
0.00313328069053
0.000639676974859
0.0031194815306
0.000302340329456
0.00309317889764
0.00277323784644
0.00184886009202
-0.0160183285157
0.00389322772824
-0.0177382427928
0.00592250407547
-0.0176523908585
0.00791163623764
-0.0173707734333
0.00984743345029
-0.0169921466376