/*--------------------------------*- C++ -*----------------------------------*\
| =========                 |                                                 |
| \\      /  F ield         | OpenFOAM: The Open Source CFD Toolbox           |
|  \\    /   O peration     | Version:  v1906                                 |
|   \\  /    A nd           | Web:      www.OpenFOAM.com                      |
|    \\/     M anipulation  |                                                 |
\*---------------------------------------------------------------------------*/
FoamFile
{
    version     2.0;
    format      ascii;
    class       volVectorField;
    location    "924";
    object      U;
}
// * * * * * * * * * * * * * * * * * * * * * * * * * * * * * * * * * * * * * //

dimensions      [0 1 -1 0 0 0 0];


internalField   nonuniform List<vector> 
9216
(
(0.00156893862895 -0.00156991124577 0)
(0.00160905101268 -0.0048923054135 6.53921832016e-28)
(0.00159771823854 -0.00822287177205 1.08901034285e-31)
(0.00157460442787 -0.0115334432802 0)
(0.00154347820489 -0.0147853911116 0)
(0.00150523247318 -0.0179646903158 0)
(0.0014606181047 -0.0210573497269 0)
(0.00141054452813 -0.024051005437 0)
(0.00135567543089 -0.0269350192655 0)
(0.00129694296573 -0.0297003210613 0)
(0.00123495601106 -0.0323395532867 0)
(0.00117061179076 -0.0348468341032 0)
(0.00110439641939 -0.037217828171 0)
(0.00103711255677 -0.0394494479405 0)
(0.000969080091424 -0.041539876734 0)
(0.00090097977735 -0.0434882426903 0)
(0.000832953310705 -0.0452946283516 0)
(0.000765559936786 -0.0469597492142 0)
(0.000698775309441 -0.0484849721818 0)
(0.000633055822087 -0.0498720171247 0)
(0.000568235167787 -0.0511229970916 0)
(0.000504692250258 -0.0522401531361 0)
(0.000442147396912 -0.0532259171539 0)
(0.000380928512049 -0.0540826806351 0)
(0.000320669319966 -0.0548128784217 0)
(0.000261669666605 -0.0554187917052 0)
(0.000203501481016 -0.0559026460755 0)
(0.000146457115487 -0.0562664462218 0)
(9.00688916789e-05 -0.0565120856006 0)
(3.46401516639e-05 -0.056641214152 0)
(-2.03141931597e-05 -0.0566553583847 0)
(-7.44651057247e-05 -0.0565558200612 0)
(-0.000128292701685 -0.0563437909508 0)
(-0.000181417307802 -0.056020312566 0)
(-0.000234287257863 -0.0555863957517 0)
(-0.000286457658845 -0.0550430061389 0)
(-0.000338323235856 -0.0543911929346 0)
(-0.000389359441412 -0.0536321142395 0)
(-0.000439890127888 -0.0527671560376 0)
(-0.000489307933633 -0.0517979879853 0)
(-0.000537864218764 -0.0507266567321 0)
(-0.000584885300644 -0.0495556557986 0)
(-0.000630568524051 -0.0482879674111 0)
(-0.000674211455214 -0.0469271231428 0)
(-0.000715995363999 -0.0454771748848 0)
(-0.000755239235928 -0.0439427348138 0)
(-0.000792145316123 -0.0423288727599 0)
(-0.000826086239233 -0.0406411508016 0)
(-0.000857285227595 -0.038885489131 0)
(-0.000885141609621 -0.0370682585648 0)
(-0.000909822055474 -0.0351961967086 0)
(-0.000930642760083 -0.0332766475715 0)
(-0.000947569132296 -0.0313176032739 0)
(-0.000959703499841 -0.0293281248071 0)
(-0.000966719645023 -0.0273184487574 0)
(-0.000967533092269 -0.0253004255647 0)
(-0.000961691792685 -0.0232874136061 0)
(-0.000948243409181 -0.0212944081658 0)
(-0.000926998408337 -0.0193374774817 0)
(-0.000897489714384 -0.017433543304 0)
(-0.00086017087194 -0.0155994423122 0)
(-0.000815574899991 -0.0138511050323 0)
(-0.000765123989628 -0.0122022355398 0)
(-0.000709862495653 -0.010664082073 0)
(-0.000651575072111 -0.00924486065226 0)
(-0.000591788704458 -0.00794926393744 0)
(-0.000531685224153 -0.00677895303708 0)
(-0.000471868006893 -0.00573393361573 0)
(-0.000413429276118 -0.00481249695411 0)
(-0.000357514937068 -0.00401065558052 0)
(-0.000305505783957 -0.00332164834624 0)
(-0.000258297560753 -0.00273630672825 0)
(-0.000216551006853 -0.00224375608923 0)
(-0.000180254494041 -0.00183247389035 0)
(-0.000149120413156 -0.0014912489617 0)
(-0.000122347331347 -0.0012101180206 0)
(-9.92376020493e-05 -0.000980779438098 0)
(-7.92835392149e-05 -0.000796273007003 0)
(-6.25292197359e-05 -0.000649998904487 0)
(-4.882858089e-05 -0.000535368686931 0)
(-3.78880833441e-05 -0.000446238434808 0)
(-2.91453354508e-05 -0.00037744388176 0)
(-2.2213229027e-05 -0.000324797860801 0)
(-1.65230769458e-05 -0.000285302754244 0)
(-1.13751134306e-05 -0.000252979206435 0)
(-8.90565447335e-06 -0.000235053584424 0)
(-7.93475657296e-06 -0.000218032967179 0)
(-6.548292923e-06 -0.000203977354385 0)
(-6.82338726849e-06 -0.000192788890175 0)
(-8.05975682777e-06 -0.000178589004586 0)
(-8.81453619569e-06 -0.000163338553733 0)
(-9.99561874108e-06 -0.000145191836012 0)
(-1.26775147964e-05 -0.000122926827315 0)
(-1.57210981408e-05 -9.61791762429e-05 0)
(-1.89326880593e-05 -6.11990140628e-05 0)
(-2.08927544403e-05 -2.00166584608e-05 0)
(0.0049057578096 -0.00162642886398 0)
(0.00516866286611 -0.00520672634905 0)
(0.00512942267886 -0.00875568830699 -6.72406242788e-28)
(0.0050535094097 -0.0122857398778 0)
(0.00495246492366 -0.0157498997534 0)
(0.0048289641574 -0.0191350347843 0)
(0.0046852408856 -0.0224265471717 0)
(0.00452393368657 -0.0256114037599 0)
(0.00434739107823 -0.0286783027745 0)
(0.00415836204468 -0.031617686381 0)
(0.00395909054488 -0.0344217921399 0)
(0.00375216653508 -0.0370845154059 0)
(0.00353948278568 -0.0396013619096 0)
(0.00332327066282 -0.0419692362378 0)
(0.00310492928241 -0.0441863438718 0)
(0.00288624437781 -0.0462519513578 0)
(0.00266808542795 -0.0481662773815 0)
(0.00245179801184 -0.0499302584083 0)
(0.00223776223316 -0.0515454548728 0)
(0.00202694610159 -0.0530138422121 0)
(0.00181931943975 -0.0543377447349 0)
(0.00161555789151 -0.0555196597382 0)
(0.00141531157652 -0.056562221198 0)
(0.00121905029172 -0.057468057117 0)
(0.00102618956505 -0.0582397799748 0)
(0.000837070000272 -0.0588798741854 0)
(0.000650948427753 -0.0593907083475 0)
(0.000468103451036 -0.0597744498579 0)
(0.000287701375848 -0.0600330953194 0)
(0.000110020299356 -0.0601684117718 0)
(-6.57970757952e-05 -0.0601819806576 0)
(-0.000239414215758 -0.060075170065 0)
(-0.000411642152034 -0.0598492068512 0)
(-0.000582015482771 -0.0595051616529 0)
(-0.00075122261268 -0.0590440371477 0)
(-0.000918606871424 -0.0584667994537 0)
(-0.00108466440715 -0.0577744763679 0)
(-0.00124849425189 -0.056968219663 0)
(-0.00141035092487 -0.0560494108113 0)
(-0.00156907143468 -0.0550197422327 0)
(-0.00172466785623 -0.053881313435 0)
(-0.00187575922766 -0.0526367101617 0)
(-0.00202218327401 -0.0512890639742 0)
(-0.00216245725117 -0.0498421017506 0)
(-0.00229637776653 -0.0483001426002 0)
(-0.00242252012059 -0.0466680986588 0)
(-0.00254077681778 -0.0449514024637 0)
(-0.00264988891322 -0.0431559730226 0)
(-0.00274986133553 -0.0412881151633 0)
(-0.00283951260247 -0.0393545222039 0)
(-0.0029187174059 -0.0373622478387 0)
(-0.00298599684941 -0.0353188625466 0)
(-0.00304060843781 -0.0332326104576 0)
(-0.00308029884651 -0.03111278689 0)
(-0.00310337689761 -0.0289700454957 0)
(-0.00310685863446 -0.0268168176884 0)
(-0.00308864991214 -0.0246674082675 0)
(-0.00304611705777 -0.0225379977258 0)
(-0.00297809965498 -0.0204461419812 0)
(-0.00288340393777 -0.0184104705013 0)
(-0.00276296181768 -0.0164498960669 0)
(-0.00261898106773 -0.0145823326091 0)
(-0.00245592250346 -0.0128228603793 0)
(-0.00227733395598 -0.0111837984544 0)
(-0.00208888190402 -0.00967436141081 0)
(-0.00189628016008 -0.00829889257226 0)
(-0.00170280610506 -0.00705817682744 0)
(-0.00151021138736 -0.00595211059688 0)
(-0.00132170267327 -0.00497944598219 0)
(-0.00114137736352 -0.0041362610283 0)
(-0.00097372993794 -0.0034151241054 0)
(-0.000821976318606 -0.00280554961386 0)
(-0.000688110419989 -0.00229503986658 0)
(-0.000572234483637 -0.00187036610856 0)
(-0.000473131459059 -0.00151880142577 0)
(-0.000388115527366 -0.00122935276295 0)
(-0.000314475830581 -0.00099353571792 0)
(-0.000250678470441 -0.000804754505317 0)
(-0.000197089385973 -0.000656390234604 0)
(-0.000153574063754 -0.000541099909974 0)
(-0.000118990152695 -0.000451928178125 0)
(-9.14995871584e-05 -0.000383295657427 0)
(-6.98149333557e-05 -0.000330801996135 0)
(-5.2661228003e-05 -0.000290808930948 0)
(-3.87418264141e-05 -0.000258904351933 0)
(-2.95119883732e-05 -0.00023006427399 0)
(-2.37704011178e-05 -0.00021358742806 0)
(-1.94403149815e-05 -0.000200828831751 0)
(-1.96671038683e-05 -0.000187408530826 0)
(-2.28778184289e-05 -0.000177046050931 0)
(-2.59937315963e-05 -0.000164928980052 0)
(-3.07309782105e-05 -0.000145712942225 0)
(-3.76516908087e-05 -0.000122512216337 0)
(-5.05463532452e-05 -9.98305889492e-05 0)
(-6.55147825472e-05 -6.55379986296e-05 0)
(-6.12369119788e-05 -1.83222788162e-05 0)
(0.00830193785027 -0.00164768298183 0)
(0.00875127553973 -0.00527187108807 0)
(0.00867734299886 -0.00885753008313 -6.71453611426e-28)
(0.0085455898954 -0.0124267864436 0)
(0.00837245077226 -0.0159279731617 0)
(0.00816153859594 -0.019347309257 0)
(0.00791659670018 -0.0226697365676 0)
(0.00764184606624 -0.0258820038764 0)
(0.00734154602178 -0.0289727014242 0)
(0.00702013302258 -0.0319323027453 0)
(0.00668175215439 -0.0347531529277 0)
(0.00633050327078 -0.0374293594841 0)
(0.0059699624391 -0.0399566778256 0)
(0.00560354341552 -0.042332326342 0)
(0.0052340110722 -0.0445548229096 0)
(0.00486395165531 -0.0466237752485 0)
(0.00449526653018 -0.0485397128295 0)
(0.0041297348336 -0.050303888711 0)
(0.00376847121877 -0.0519181335367 0)
(0.00341256317138 -0.0533846874901 0)
(0.00306247898369 -0.0547060880591 0)
(0.00271876609787 -0.0558850378105 0)
(0.00238140153013 -0.0569243259393 0)
(0.00205054272255 -0.0578267291401 0)
(0.00172581853388 -0.0585949627617 0)
(0.00140712858064 -0.0592316099552 0)
(0.00109387768825 -0.0597390963769 0)
(0.000785821974078 -0.0601196428917 0)
(0.000482252420638 -0.0603752607103 0)
(0.000182886648555 -0.0605077262912 0)
(-0.000112990684176 -0.0605185961694 0)
(-0.000405592352712 -0.0604092035883 0)
(-0.000695525480209 -0.0601806941114 0)
(-0.000982817892999 -0.0598340517412 0)
(-0.00126784620956 -0.0593701580368 0)
(-0.00155033258637 -0.0587898459189 0)
(-0.00183030448146 -0.0580939845722 0)
(-0.00210707710736 -0.0572835615655 0)
(-0.00238024608046 -0.0563597861078 0)
(-0.0026486760827 -0.0553241880655 0)
(-0.00291153047779 -0.0541787226928 0)
(-0.00316728627225 -0.0529258629905 0)
(-0.00341479900115 -0.0515686746077 0)
(-0.00365235438215 -0.0501108665333 0)
(-0.00387874898887 -0.0485568009801 0)
(-0.0040923642222 -0.0469114718402 0)
(-0.00429221201397 -0.0451804305251 0)
(-0.00447698347405 -0.043369696006 0)
(-0.00464597907059 -0.0414856340695 0)
(-0.00479806875653 -0.039534878617 0)
(-0.00493243648285 -0.0375242871387 0)
(-0.00504744414961 -0.0354610380709 0)
(-0.0051412339758 -0.0333528426161 0)
(-0.00521067511061 -0.0312083701955 0)
(-0.00525211918971 -0.02903776036 0)
(-0.00526084997583 -0.0268531934616 0)
(-0.00523238573097 -0.0246692100775 0)
(-0.0051624897122 -0.022502672178 0)
(-0.00504851291402 -0.0203720915294 0)
(-0.00488826631551 -0.0182975376087 0)
(-0.004682428681 -0.0163003034611 0)
(-0.00443550515573 -0.0144008446334 0)
(-0.00415607205052 -0.0126150610128 0)
(-0.00384934346382 -0.0109561087437 0)
(-0.00352561808189 -0.00943488764822 0)
(-0.00319745118521 -0.0080539850306 0)
(-0.00286871263757 -0.00681118841533 0)
(-0.00254071400712 -0.00570642540136 0)
(-0.00221841744035 -0.00474023067244 0)
(-0.00190995827225 -0.00390966038648 0)
(-0.00162377146908 -0.0032066511443 0)
(-0.00136602809809 -0.00261895739897 0)
(-0.00114009637097 -0.00213190622093 0)
(-0.00094621170605 -0.00173003840451 0)
(-0.000781749491946 -0.00139865144258 0)
(-0.00064130702196 -0.00112566836344 0)
(-0.000518726221784 -0.000903432077509 0)
(-0.00041131356904 -0.000727637733943 0)
(-0.000321151844885 -0.000592677737087 0)
(-0.000249081481423 -0.000490039365323 0)
(-0.000192545189485 -0.000411487585735 0)
(-0.000147812301366 -0.000351391429381 0)
(-0.000112665829016 -0.000305867887155 0)
(-8.54263525858e-05 -0.000271689951207 0)
(-6.50430223963e-05 -0.000244630338457 0)
(-5.02368280599e-05 -0.000221021129936 0)
(-4.0606035163e-05 -0.0002115155209 0)
(-3.34676656948e-05 -0.000193636868165 0)
(-3.07851493315e-05 -0.000178219220552 0)
(-3.43370989688e-05 -0.000170767966059 0)
(-4.44777268299e-05 -0.000164697563189 0)
(-5.17428531512e-05 -0.000137462305418 0)
(-6.55223899491e-05 -0.00011748986302 0)
(-8.34854520007e-05 -8.83961795781e-05 0)
(-9.93883443512e-05 -5.43689281678e-05 0)
(-9.96872613923e-05 -1.70103909768e-05 0)
(0.0117634657205 -0.00167396228792 0)
(0.012405063568 -0.00535415204786 0)
(0.0122983879009 -0.00899225094196 6.71364235912e-28)
(0.0121087454811 -0.0126127341156 0)
(0.0118598758446 -0.0161617007848 0)
(0.0115570992191 -0.0196245845393 0)
(0.0112059482261 -0.0229857293413 0)
(0.010812498878 -0.0262315501346 0)
(0.0103830375323 -0.029350509148 0)
(0.0099239111004 -0.0323331459624 0)
(0.00944121880244 -0.0351720208985 0)
(0.00894075424009 -0.0378615876517 0)
(0.00842776097689 -0.0403980299827 0)
(0.00790697759649 -0.0427790583346 0)
(0.00738245550692 -0.0450037024035 0)
(0.00685769379513 -0.0470720910984 0)
(0.00633549816237 -0.048985250483 0)
(0.00581817991814 -0.0507449055575 0)
(0.00530742950138 -0.0523533110545 0)
(0.00480455383486 -0.0538130924466 0)
(0.00431034250124 -0.0551271180887 0)
(0.00382532536341 -0.0562983811568 0)
(0.00334961857063 -0.0573299101844 0)
(0.00288319279333 -0.0582246861677 0)
(0.00242569445627 -0.0589855839394 0)
(0.00197672230185 -0.0596153165293 0)
(0.0015356254624 -0.0601164001454 0)
(0.00110178991983 -0.0604911200517 0)
(0.000674418163505 -0.0607415148231 0)
(0.000252829208644 -0.0608693611629 0)
(-0.000163774013708 -0.0608761782539 0)
(-0.000575988868856 -0.0607632316172 0)
(-0.000984452765436 -0.0605315576467 0)
(-0.00138951163205 -0.0601819983393 0)
(-0.00179146762719 -0.0597152526073 0)
(-0.00219023685777 -0.0591319391933 0)
(-0.00258561040987 -0.0584326809492 0)
(-0.00297691538373 -0.0576181999213 0)
(-0.00336330157231 -0.056689429703 0)
(-0.00374342688496 -0.0556476335081 0)
(-0.00411578734131 -0.0544945270825 0)
(-0.00447844874347 -0.0532323929066 0)
(-0.00482943219435 -0.051864176943 0)
(-0.00516650093711 -0.050393553597 0)
(-0.00548758913027 -0.0488249453764 0)
(-0.00579061543308 -0.0471634882644 0)
(-0.00607389361219 -0.0454149341384 0)
(-0.00633588819483 -0.0435855007793 0)
(-0.00657549161082 -0.04168168307 0)
(-0.00679159587871 -0.0397100695161 0)
(-0.00698311622666 -0.0376772184663 0)
(-0.00714830894859 -0.0355896721432 0)
(-0.00728457485069 -0.0334541969503 0)
(-0.00738774685061 -0.0312783142956 0)
(-0.00745214554416 -0.029071111694 0)
(-0.00747062380006 -0.026844209145 0)
(-0.00743576994396 -0.0246124161364 0)
(-0.00734105791474 -0.0223937738282 0)
(-0.00718252068572 -0.0202079162263 0)
(-0.00695542857979 -0.0180768319706 0)
(-0.00665893420404 -0.0160261595535 0)
(-0.00630058771467 -0.0140817400062 0)
(-0.00589746944526 -0.0122593884058 0)
(-0.00545171290811 -0.0105731669125 0)
(-0.0049805030126 -0.00903964725335 0)
(-0.00451122609541 -0.00765675252274 0)
(-0.00404373514161 -0.00641402637153 0)
(-0.00357416702283 -0.00531245708861 0)
(-0.00310920159616 -0.00435761740334 0)
(-0.00266356425041 -0.00354905074361 0)
(-0.00225179549563 -0.00287734861321 0)
(-0.00188388723836 -0.00232694143583 0)
(-0.0015647849149 -0.00187937547551 0)
(-0.00129474944163 -0.00151540749174 0)
(-0.00106929145641 -0.00121665147826 0)
(-0.00087841786969 -0.000968562430668 0)
(-0.000709078614994 -0.00076534998194 0)
(-0.000556513373423 -0.000608646458335 0)
(-0.00042887711151 -0.000495354492826 0)
(-0.000330185189311 -0.000413478426508 0)
(-0.000254810722546 -0.000351480172405 0)
(-0.000195022922344 -0.000304110949311 0)
(-0.00014793937607 -0.000269012732357 0)
(-0.000111637634492 -0.000243670867384 0)
(-8.45493912974e-05 -0.000222910870766 0)
(-6.62978017497e-05 -0.000209459796413 0)
(-5.40412450095e-05 -0.000200047043965 0)
(-4.61881028197e-05 -0.000185406565451 0)
(-4.46536756122e-05 -0.000177264333183 0)
(-4.68810813845e-05 -0.000161419833732 0)
(-5.79374282581e-05 -0.000146497224635 0)
(-7.80997827294e-05 -0.000135594496893 0)
(-9.18510916064e-05 -0.000103435140099 0)
(-0.000112790981358 -7.50313993952e-05 0)
(-0.000132621824074 -4.65946206211e-05 0)
(-0.000135915430782 -1.53934189231e-05 0)
(0.0152868992305 -0.00170913932985 0)
(0.0161205580334 -0.00546531094542 0)
(0.0159789000143 -0.00917621612063 0)
(0.015727808274 -0.0128666113228 0)
(0.0153985834636 -0.0164804777565 0)
(0.0149985308481 -0.0200022562722 0)
(0.014535228757 -0.0234155309023 0)
(0.0140169052357 -0.0267062779261 0)
(0.0134520773639 -0.0298628155126 0)
(0.0128492466701 -0.0328758038363 0)
(0.0122165899399 -0.0357381408596 0)
(0.0115617649863 -0.0384447894627 0)
(0.0108917157953 -0.0409925598155 0)
(0.0102126041655 -0.0433798623381 0)
(0.00952972292181 -0.0456064542894 0)
(0.0088475306493 -0.0476731890979 0)
(0.00816963946731 -0.0495817840058 0)
(0.00749891409195 -0.0513346074238 0)
(0.00683749506272 -0.0529344944481 0)
(0.00618692621536 -0.0543845862619 0)
(0.00554818308267 -0.0556881975198 0)
(0.00492180488125 -0.0568487043896 0)
(0.00430791101556 -0.0578694553836 0)
(0.00370632655079 -0.0587536970908 0)
(0.00311658142147 -0.0595045169134 0)
(0.00253802798458 -0.0601247954526 0)
(0.00196982512871 -0.06061717124 0)
(0.00141105215976 -0.0609840119194 0)
(0.000860684157902 -0.0612273957626 0)
(0.000317708818116 -0.0613490987414 0)
(-0.000218899677755 -0.0613505942338 0)
(-0.000750055295302 -0.0612330561327 0)
(-0.00127658098046 -0.0609973781297 0)
(-0.00179907245146 -0.0606442090504 0)
(-0.00231791633927 -0.0601740007001 0)
(-0.00283314671272 -0.0595870749771 0)
(-0.0033444684281 -0.0588837121347 0)
(-0.00385112287429 -0.0580642585051 0)
(-0.00435193653244 -0.0571292542073 0)
(-0.00484522281977 -0.0560795754151 0)
(-0.00532888532576 -0.0549165854194 0)
(-0.00580038763713 -0.0536422824257 0)
(-0.00625693801031 -0.0522594297249 0)
(-0.00669554483988 -0.0507716495346 0)
(-0.00711327885057 -0.0491834597464 0)
(-0.00750738137576 -0.0475002340873 0)
(-0.00787552916228 -0.0457280701575 0)
(-0.00821587628281 -0.0438735658659 0)
(-0.00852715175996 -0.0419435148608 0)
(-0.00880843075913 -0.0399445741586 0)
(-0.00905884578794 -0.037882965945 0)
(-0.00927690682789 -0.0357643546073 0)
(-0.00945977146067 -0.0335940284662 0)
(-0.00960230239723 -0.0313775772069 0)
(-0.009696571963 -0.0291221609428 0)
(-0.0097319773927 -0.0268382283723 0)
(-0.00969702895941 -0.0245409419491 0)
(-0.00958185690137 -0.0222506090459 0)
(-0.00938287035197 -0.0199875391664 0)
(-0.00908930904994 -0.017774922043 0)
(-0.0086946558259 -0.0156463313766 0)
(-0.00821087744799 -0.0136401511447 0)
(-0.00767811772903 -0.0117668657007 0)
(-0.00707703175724 -0.010039735489 0)
(-0.00643589961735 -0.00849491474588 0)
(-0.00582323565476 -0.00711765771692 0)
(-0.00521838560344 -0.00587450335014 0)
(-0.00460063996786 -0.00477220667914 0)
(-0.00397962021372 -0.00382989087817 0)
(-0.0033832444503 -0.00305247226193 0)
(-0.00283627509029 -0.00242715354457 0)
(-0.00235337920874 -0.00193209375586 0)
(-0.0019409679769 -0.00154288837046 0)
(-0.00159935405985 -0.00123464261729 0)
(-0.00132227670232 -0.000982399274177 0)
(-0.00109229494708 -0.000765520169651 0)
(-0.000880706189134 -0.000581580693876 0)
(-0.000677476204096 -0.00044747997891 0)
(-0.000508998287634 -0.000366385443937 0)
(-0.000388166986855 -0.000316002533434 0)
(-0.000300704894044 -0.000276349954084 0)
(-0.000229328723663 -0.000244540838326 0)
(-0.000172344685078 -0.000222497101995 0)
(-0.000128694455786 -0.000208201735598 0)
(-9.50339130811e-05 -0.000195555430012 0)
(-7.65932955038e-05 -0.000195193941511 0)
(-6.53625763368e-05 -0.00019115442533 0)
(-5.90170608154e-05 -0.000181448080726 0)
(-5.61606939338e-05 -0.000164394806722 0)
(-6.20491519073e-05 -0.000155299967638 0)
(-7.31705370632e-05 -0.000136060861154 0)
(-9.82502321667e-05 -0.00012307546886 0)
(-0.000126594586077 -0.000101442431914 0)
(-0.000142122259829 -6.79836455427e-05 0)
(-0.00015794200152 -4.07934678078e-05 0)
(-0.000161751544769 -1.3580224084e-05 0)
(0.0188935311363 -0.00175418104681 0)
(0.0199217316778 -0.00560832542455 0)
(0.0197416915646 -0.00941347426617 0)
(0.0194240348769 -0.013193923537 0)
(0.0190079871058 -0.0168910258307 0)
(0.0185031692708 -0.0204879670008 0)
(0.0179195575377 -0.0239673869312 0)
(0.017267899672 -0.0273147383081 0)
(0.0165592582096 -0.0305182091544 0)
(0.0158045825331 -0.0335686793225 0)
(0.015014335877 -0.0364595528325 0)
(0.0141982189244 -0.0391865161796 0)
(0.013364963349 -0.0417472491238 0)
(0.0125222235224 -0.0441411132713 0)
(0.0116765211447 -0.0463688415188 0)
(0.010833266948 -0.048432243485 0)
(0.00999680488171 -0.0503339390923 0)
(0.00917050728849 -0.0520771249273 0)
(0.00835686375079 -0.0536653765954 0)
(0.00755760103791 -0.0551024845839 0)
(0.0067737768343 -0.0563923218613 0)
(0.00600589455475 -0.0575387377408 0)
(0.00525398157715 -0.0585454749033 0)
(0.00451768682644 -0.0594161038234 0)
(0.0037963384004 -0.0601539720389 0)
(0.0030890242355 -0.0607621636334 0)
(0.00239463349654 -0.0612434678632 0)
(0.00171192734694 -0.061600353807 0)
(0.00103957309308 -0.0618349516426 0)
(0.00037621499733 -0.0619490387363 0)
(-0.000279488707295 -0.0619440360079 0)
(-0.000928785999531 -0.0618210059627 0)
(-0.00157278173915 -0.0615806670981 0)
(-0.00221234424882 -0.0612234250403 0)
(-0.0028480452271 -0.0607494170592 0)
(-0.00348005526396 -0.0601585801262 0)
(-0.00410808257253 -0.0594507444224 0)
(-0.00473127692427 -0.0586257536232 0)
(-0.00534819372267 -0.0576836133631 0)
(-0.00595674215149 -0.0566246639693 0)
(-0.00655421769729 -0.0554497713731 0)
(-0.00713734245502 -0.0541605227263 0)
(-0.00770241284491 -0.052759408817 0)
(-0.00824546890928 -0.0512499665208 0)
(-0.00876257008674 -0.049636851301 0)
(-0.00925006714751 -0.0479258051615 0)
(-0.00970492396106 -0.0461234927344 0)
(-0.0101249377426 -0.0442371840731 0)
(-0.0105088715616 -0.0422742951688 0)
(-0.010856312971 -0.0402418180107 0)
(-0.0111672461833 -0.0381457457842 0)
(-0.0114411784573 -0.0359906457908 0)
(-0.011675847429 -0.0337796371992 0)
(-0.0118656182741 -0.0315151561738 0)
(-0.0120000106282 -0.029200824792 0)
(-0.0120633644305 -0.026844700937 0)
(-0.0120376023216 -0.0244623271994 0)
(-0.0119071928621 -0.0220796431851 0)
(-0.0116768475796 -0.0197153939247 0)
(-0.0113216989574 -0.0173886407464 0)
(-0.0108160835985 -0.0151477488066 0)
(-0.0101773519111 -0.0130652199054 0)
(-0.00951991188885 -0.0111255557634 0)
(-0.0087367371103 -0.00933095485336 0)
(-0.00787423488335 -0.00778584606309 0)
(-0.0071312796336 -0.00643917771194 0)
(-0.00640435535345 -0.00519131816242 0)
(-0.00562935208255 -0.00407354466715 0)
(-0.00482708401206 -0.00314005193744 0)
(-0.00405617311559 -0.0024055180002 0)
(-0.00335891234408 -0.00184728663473 0)
(-0.00275399535509 -0.0014314424969 0)
(-0.00224784008548 -0.00112517576748 0)
(-0.00184114506566 -0.000896566386013 0)
(-0.00152890640038 -0.000709472084608 0)
(-0.00128367600093 -0.000526908006741 0)
(-0.00103875253199 -0.000350493600393 0)
(-0.000766320940329 -0.000236928735215 0)
(-0.000545541398617 -0.000206041672836 0)
(-0.000413178034221 -0.000205183015931 0)
(-0.00032823909245 -0.000192641351732 0)
(-0.000249168054244 -0.000175750838493 0)
(-0.000183657572626 -0.000168371959255 0)
(-0.000135337092981 -0.000166145561427 0)
(-9.58688974045e-05 -0.000164279967043 0)
(-7.71484825768e-05 -0.000173618277465 0)
(-6.68935901865e-05 -0.000173123136334 0)
(-6.65395648757e-05 -0.000173347780263 0)
(-7.06979427383e-05 -0.000168262600454 0)
(-8.19289473342e-05 -0.000159136500338 0)
(-9.21674695045e-05 -0.000132079154685 0)
(-0.000114840001357 -0.000111141932849 0)
(-0.000151178395163 -9.53251657663e-05 0)
(-0.000172709628336 -6.74023745694e-05 0)
(-0.000184424405059 -3.93916631712e-05 0)
(-0.000189135400112 -1.31447094814e-05 0)
(0.0226050808867 -0.00181025111597 0)
(0.0238314374145 -0.00578650100722 0)
(0.0236084064351 -0.00970908555026 6.66592826166e-28)
(0.0232173281846 -0.0136013707149 0)
(0.0227058798125 -0.0174013717097 0)
(0.022086441682 -0.0210906830928 0)
(0.021371864671 -0.0246507966174 0)
(0.0205758919641 -0.0280665731638 0)
(0.0197125584016 -0.0313261284203 0)
(0.0187956284908 -0.0344207218461 0)
(0.0178381309564 -0.0373445001043 0)
(0.0168520128463 -0.0400941576386 0)
(0.015847907618 -0.0426685509265 0)
(0.014835015847 -0.0450683003602 0)
(0.0138210736066 -0.0472954068316 0)
(0.0128123974161 -0.0493529015172 0)
(0.0118139752954 -0.0512445400421 0)
(0.010829594955 -0.0529745451815 0)
(0.00986198210558 -0.0545473975995 0)
(0.00891294778091 -0.0559676703753 0)
(0.00798352378286 -0.0572399015138 0)
(0.00707409331717 -0.0583684974883 0)
(0.00618450084112 -0.0593576612966 0)
(0.00531415428911 -0.0602113388075 0)
(0.00446210621464 -0.0609331784081 0)
(0.00362713080595 -0.0615264996319 0)
(0.00280778401818 -0.0619942677806 0)
(0.00200246614873 -0.0623390723554 0)
(0.00120947375562 -0.0625631085183 0)
(0.000427061597496 -0.0626681609835 0)
(-0.000346499773994 -0.0626555955724 0)
(-0.00111284933786 -0.0625263489738 0)
(-0.00187345893159 -0.0622809358007 0)
(-0.00262953837745 -0.0619194715489 0)
(-0.00338193847632 -0.0614417102932 0)
(-0.00413103628764 -0.0608471104497 0)
(-0.00487662770357 -0.0601349314591 0)
(-0.00561781503412 -0.0593043668495 0)
(-0.00635292181509 -0.0583547161608 0)
(-0.0070794288639 -0.0572855956568 0)
(-0.00779397071213 -0.0560971815498 0)
(-0.00849239065851 -0.0547904729853 0)
(-0.00916989422064 -0.0533675512102 0)
(-0.00982129193505 -0.0518318014628 0)
(-0.0104413549968 -0.050188052366 0)
(-0.0110252445525 -0.0484425820734 0)
(-0.0115689926963 -0.0466029346279 0)
(-0.0120699368039 -0.0446775071288 0)
(-0.0125270221517 -0.042674883558 0)
(-0.0129407994525 -0.0406029420657 0)
(-0.0133129830689 -0.0384678245396 0)
(-0.0136453219367 -0.0362729487924 0)
(-0.0139376813871 -0.0340184610742 0)
(-0.0141851661741 -0.0317017331029 0)
(-0.0143748155687 -0.0293198997956 0)
(-0.0144831627002 -0.0268758126598 0)
(-0.0144800987997 -0.024384763081 0)
(-0.0143360183068 -0.0218898450549 0)
(-0.0140947215848 -0.0194020370002 0)
(-0.0136981286271 -0.0169141491807 0)
(-0.0130587551366 -0.0145019700216 0)
(-0.0121916988011 -0.0123439467024 0)
(-0.0114703460549 -0.0103261072405 0)
(-0.0104592705591 -0.00839381271135 0)
(-0.00922733600639 -0.00688889333345 0)
(-0.00841378945261 -0.00564534775133 0)
(-0.00760981576843 -0.00436849241419 0)
(-0.00666183651109 -0.00318977251858 0)
(-0.0056310688408 -0.00225082262949 0)
(-0.00465182567943 -0.00157783124775 0)
(-0.00378909488818 -0.00111821619697 0)
(-0.00305736543376 -0.000814451206618 0)
(-0.00245772680374 -0.000624071659585 0)
(-0.0019944413341 -0.000510588688177 0)
(-0.00167547777939 -0.000420809553783 0)
(-0.0014698372635 -0.000272469941507 0)
(-0.00121174566554 -6.29177287864e-05 0)
(-0.00081126619201 4.60877509266e-05 0)
(-0.000503383373375 -1.30829285004e-05 0)
(-0.000389465677059 -9.86017383729e-05 0)
(-0.000342173889544 -0.000112297611024 0)
(-0.000256172263155 -9.99490664004e-05 0)
(-0.000179261030675 -0.000108635399009 0)
(-0.000131354213972 -0.000119526255685 0)
(-8.51367587687e-05 -0.000132418097616 0)
(-6.81362058611e-05 -0.000153904564565 0)
(-6.37446036294e-05 -0.00016600663592 0)
(-6.75939792112e-05 -0.000168642476063 0)
(-7.88712177504e-05 -0.0001684653208 0)
(-9.54709675732e-05 -0.000154405856337 0)
(-0.000120020065361 -0.000140681079651 0)
(-0.000138300297943 -0.00011085021076 0)
(-0.000167473199562 -8.8814827148e-05 0)
(-0.000199161103265 -6.77652647778e-05 0)
(-0.000210580980506 -3.95407968667e-05 0)
(-0.000216018860615 -1.32231670402e-05 0)
(0.0264458565172 -0.00187870967203 0)
(0.0278748475903 -0.00600399195578 0)
(0.0276028230363 -0.0100696627059 -6.66489939664e-28)
(0.0271293959868 -0.0140977118072 0)
(0.0265114301381 -0.0180219456923 0)
(0.0257646798122 -0.0218219781676 0)
(0.0249055148233 -0.0254779311841 0)
(0.0239512992649 -0.0289740387377 0)
(0.0229195976441 -0.0322984664985 0)
(0.0218274513267 -0.035443100413 0)
(0.0206908007153 -0.0384031619628 0)
(0.0195240719624 -0.0411767329102 0)
(0.0183399234521 -0.0437642394834 0)
(0.0171491363913 -0.0461679406677 0)
(0.0159606211502 -0.0483914534092 0)
(0.0147815115849 -0.0504393353746 0)
(0.0136173157466 -0.0523167352888 0)
(0.0124720996419 -0.0540291120433 0)
(0.0113486807268 -0.0555820179155 0)
(0.010248818689 -0.0569809372986 0)
(0.00917339069951 -0.0582311709855 0)
(0.00812254864814 -0.0593377556319 0)
(0.00709585317083 -0.0603054091872 0)
(0.00609238820071 -0.061138494028 0)
(0.00511085478589 -0.061840991436 0)
(0.00414965096092 -0.0624164820913 0)
(0.00320693793718 -0.062868129139 0)
(0.00228070080065 -0.0631986610531 0)
(0.00136880451373 -0.0634103535372 0)
(0.000469054044452 -0.063505009518 0)
(-0.000420741086492 -0.0634839440444 0)
(-0.00130268833876 -0.0633479615753 0)
(-0.00217872053851 -0.0630973522181 0)
(-0.00305048736145 -0.0627319002717 0)
(-0.00391923044284 -0.0622509102418 0)
(-0.00478564128723 -0.0616532641951 0)
(-0.00564971168203 -0.0609375175689 0)
(-0.00651058098523 -0.0601020416891 0)
(-0.00736639934142 -0.0591452207065 0)
(-0.00821422126282 -0.0580657059538 0)
(-0.00904995999154 -0.056862725855 0)
(-0.00986842654799 -0.0555364385577 0)
(-0.0106634899552 -0.054088302097 0)
(-0.0114283806272 -0.0525214190309 0)
(-0.0121561580738 -0.0508407954337 0)
(-0.012840328684 -0.0490534342036 0)
(-0.0134755753822 -0.0471681761935 0)
(-0.0140585056293 -0.0451952046265 0)
(-0.0145882741092 -0.0431451488191 0)
(-0.0150668897288 -0.0410277698312 0)
(-0.0154989282701 -0.0388502590615 0)
(-0.015890346064 -0.0366153347624 0)
(-0.0162458577621 -0.0343194719352 0)
(-0.0165643354479 -0.0319522807403 0)
(-0.0168319293278 -0.0294988118563 0)
(-0.0170134006096 -0.0269499745065 0)
(-0.0170544811652 -0.0243151742126 0)
(-0.0168754866293 -0.021694248284 0)
(-0.0166696310964 -0.0190774749533 0)
(-0.0163058325708 -0.0163525761669 0)
(-0.0154881823876 -0.0136410399948 0)
(-0.014152619053 -0.01147592567 0)
(-0.0136140611092 -0.00938843442289 0)
(-0.0123159208152 -0.00708037795516 0)
(-0.0103464343535 -0.00572299864886 0)
(-0.00997931534286 -0.00473939328319 0)
(-0.00931341185266 -0.00330315952128 0)
(-0.00812675312026 -0.00192350865308 0)
(-0.00667559922629 -0.000934807100425 0)