/*--------------------------------*- C++ -*----------------------------------*\
| =========                 |                                                 |
| \\      /  F ield         | OpenFOAM: The Open Source CFD Toolbox           |
|  \\    /   O peration     | Version:  v1906                                 |
|   \\  /    A nd           | Web:      www.OpenFOAM.com                      |
|    \\/     M anipulation  |                                                 |
\*---------------------------------------------------------------------------*/
FoamFile
{
    version     2.0;
    format      ascii;
    class       volVectorField;
    location    "151";
    object      Ua;
}
// * * * * * * * * * * * * * * * * * * * * * * * * * * * * * * * * * * * * * //

dimensions      [0 1 -1 0 0 0 0];


internalField   nonuniform List<vector> 
9216
(
(-0.0955944457543 0.0959806378935 0)
(-0.0969370642878 0.298597195611 4.53142056136e-26)
(-0.0922416722472 0.503628995115 -6.02645179087e-30)
(-0.0849251771688 0.70744107535 0)
(-0.0752699130346 0.908106915047 0)
(-0.0634594281448 1.1048261592 0)
(-0.0496978177113 1.29679388904 0)
(-0.034206002598 1.48328656147 0)
(-0.0172202375144 1.66365748369 0)
(0.00101262501493 1.83733978515 0)
(0.0202406372543 2.0038479646 0)
(0.0402121474851 2.16277801522 0)
(0.0606807728507 2.31380594338 0)
(0.0814096978493 2.45668482292 0)
(0.102175280159 2.59124064887 0)
(0.12276985623 2.71736725397 0)
(0.143003839518 2.83502058068 0)
(0.16270707368 2.94421255117 0)
(0.181729593054 3.04500477521 0)
(0.199941783126 3.13750227379 0)
(0.217234118635 3.22184738299 0)
(0.233516474789 3.29821394501 0)
(0.24871719001 3.36680187999 0)
(0.262781862415 3.42783218534 0)
(0.275672045981 3.48154240167 0)
(0.287363807722 3.52818254972 0)
(0.297846293994 3.56801154233 0)
(0.307120244121 3.60129405442 0)
(0.315196577071 3.62829784381 0)
(0.322094956248 3.64929151613 0)
(0.327842407111 3.66454277889 0)
(0.332471730867 3.6743174098 0)
(0.33601885732 3.67887914319 0)
(0.338514136558 3.67848785107 0)
(0.339947975626 3.67340150947 0)
(0.340441272707 3.66382759186 0)
(0.34005322096 3.65000798649 0)
(0.338836597293 3.63216911557 0)
(0.336844326833 3.61052956028 0)
(0.334129322151 3.58529954839 0)
(0.330744122118 3.55668109102 0)
(0.326740543437 3.52486801898 0)
(0.322169427992 3.49004607005 0)
(0.317080389997 3.45239301018 0)
(0.311521651765 3.41207878576 0)
(0.305539871807 3.36926570254 0)
(0.299180051772 3.32410862292 0)
(0.292485427948 3.27675517895 0)
(0.285497432564 3.22734599328 0)
(0.278255633305 3.17601490766 0)
(0.270797734962 3.12288921205 0)
(0.263159554525 3.06808987589 0)
(0.255375052034 3.01173177503 0)
(0.247476331448 2.95392391753 0)
(0.239493691976 2.89476966216 0)
(0.231455647178 2.83436693377 0)
(0.223388990105 2.77280842978 0)
(0.21531882486 2.71018182278 0)
(0.207268640465 2.64656995334 0)
(0.199260350577 2.58205101891 0)
(0.191314372268 2.51669875277 0)
(0.183449670677 2.45058259946 0)
(0.17568383986 2.38376788044 0)
(0.168033150007 2.31631595688 0)
(0.160512628285 2.24828438322 0)
(0.153136106873 2.17972705856 0)
(0.145916302255 2.11069436951 0)
(0.138864862825 2.04123333169 0)
(0.131992445501 1.97138772332 0)
(0.125308762011 1.90119821832 0)
(0.118822651991 1.83070251224 0)
(0.112542127304 1.75993544837 0)
(0.106474441043 1.68892913735 0)
(0.100626129424 1.61771307782 0)
(0.0950030762447 1.54631427091 0)
(0.0896105520392 1.47475733663 0)
(0.0844532736758 1.40306462452 0)
(0.0795354405457 1.33125632673 0)
(0.0748607890563 1.25935058595 0)
(0.0704326256885 1.18736360613 0)
(0.0662538761854 1.11530975857 0)
(0.062327115318 1.04320169136 0)
(0.0586546105212 0.971050434608 0)
(0.0552383480683 0.898865509869 0)
(0.0520800705476 0.826655036573 0)
(0.0491812982734 0.75442584481 0)
(0.0465433578748 0.68218358954 0)
(0.0441673924167 0.609932881101 0)
(0.0420543642475 0.537677440574 0)
(0.0402050086398 0.465420329354 0)
(0.0386196831461 0.393164378621 0)
(0.0372978889214 0.320913136819 0)
(0.0362364835111 0.248673207521 0)
(0.0354304696304 0.176423731065 0)
(0.0348015351367 0.10468024389 0)
(0.0336030965178 0.0335634414947 0)
(-0.298110568464 0.100607422842 0)
(-0.317293787774 0.314539522374 0)
(-0.316643917281 0.53202071306 -4.58748268849e-26)
(-0.314841131222 0.747579364156 0)
(-0.312355875645 0.959725000743 0)
(-0.309274363122 1.16769039667 0)
(-0.30564580982 1.37066493549 0)
(-0.301518100354 1.56790161491 0)
(-0.296938283103 1.75872749866 0)
(-0.291952935065 1.94255010507 0)
(-0.286607427059 2.11886026805 0)
(-0.280945118916 2.28723267678 0)
(-0.275006600229 2.44732452195 0)
(-0.26882916959 2.59887257265 0)
(-0.262446477753 2.74168900294 0)
(-0.255888426976 2.87565626162 0)
(-0.249181192029 3.00072127794 0)
(-0.242347438285 3.1168892555 0)
(-0.235406584718 3.22421728841 0)
(-0.228375193274 3.32280798389 0)
(-0.221267333251 3.41280325109 0)
(-0.214095016495 3.49437836866 0)
(-0.206868557759 3.56773642215 0)
(-0.199596972535 3.63310316297 0)
(-0.192288273317 3.69072232685 0)
(-0.184949790374 3.74085141947 0)
(-0.177588384183 3.78375797056 0)
(-0.170210688223 3.81971623454 0)
(-0.162823259742 3.84900431086 0)
(-0.155432799239 3.87190163125 0)
(-0.14804633538 3.8886867324 0)
(-0.140671498019 3.89963505221 0)
(-0.133316146364 3.90501609825 0)
(-0.12598053879 3.90509088453 0)
(-0.118587127595 3.90010901907 0)
(-0.111228481294 3.8903534091 0)
(-0.103921360837 3.87606605526 0)
(-0.09667267527 3.85748642018 0)
(-0.0894894997019 3.83484562004 0)
(-0.0823789280589 3.80836651819 0)
(-0.0753479177881 3.77826356265 0)
(-0.068403250815 3.74474277077 0)
(-0.0615514540023 3.70800176874 0)
(-0.054798800128 3.66822988447 0)
(-0.0481512470136 3.62560828012 0)
(-0.0416144491026 3.58031011674 0)
(-0.0351937057231 3.53250074199 0)
(-0.0288939793424 3.48233789645 0)
(-0.0227198514154 3.42997193128 0)
(-0.0166755463493 3.37554603517 0)
(-0.0107648943192 3.3191964646 0)
(-0.004991360175 3.26105277713 0)
(0.000641987418933 3.20123806274 0)
(0.00613244294714 3.13986917408 0)
(0.0114776892814 3.07705695155 0)
(0.0166757613738 3.01290644486 0)
(0.0217250665972 2.94751712756 0)
(0.0266243459928 2.8809831068 0)
(0.0313726903969 2.81339332514 0)
(0.0359695000232 2.74483175726 0)
(0.0404144970134 2.67537759843 0)
(0.0447076840523 2.60510544798 0)
(0.0488493539023 2.5340854848 0)
(0.052840047689 2.4623836383 0)
(0.0566805619187 2.39006175185 0)
(0.060371906988 2.31717774232 0)
(0.0639153121171 2.24378575283 0)
(0.0673121845786 2.16993630225 0)
(0.0705641129262 2.09567642864 0)
(0.0736728273738 2.02104983025 0)
(0.076640201641 1.9460970011 0)
(0.0794682148664 1.87085536495 0)
(0.0821589523514 1.79535940446 0)
(0.0847145693374 1.71964078941 0)
(0.0871372908805 1.64372850085 0)
(0.0894293777829 1.56764895479 0)
(0.0915931257915 1.49142612244 0)
(0.0936308339183 1.41508165055 0)
(0.0955448031008 1.33863497876 0)
(0.0973373070817 1.26210345751 0)
(0.0990105905776 1.18550246345 0)
(0.100566842737 1.10884551582 0)
(0.102008194613 1.03214439075 0)
(0.103336694759 0.955409237122 0)
(0.104554304892 0.878648690786 0)
(0.105662875305 0.801869991022 0)
(0.106664133527 0.725079095817 0)
(0.107559648103 0.648280798487 0)
(0.108350783866 0.571478836758 0)
(0.109038591671 0.494675974652 0)
(0.109623577365 0.417874008566 0)
(0.110105150645 0.341073343507 0)
(0.110479899684 0.264271086422 0)
(0.110732419236 0.187400378594 0)
(0.110616442557 0.111230723327 0)
(0.104820528441 0.0344455903625 0)
(-0.503247225685 0.105815865659 0)
(-0.53466148389 0.316801640402 0)
(-0.530572232021 0.538038240374 -4.55839822449e-26)
(-0.523526662602 0.755853467848 0)
(-0.514159722042 0.970267159788 0)
(-0.502648053862 1.1803669528 0)
(-0.489149107222 1.38532405775 0)
(-0.473846246912 1.58437199485 0)
(-0.456937762873 1.77682503304 0)
(-0.438631700342 1.96208233904 0)
(-0.419140409605 2.13963086433 0)
(-0.398675649099 2.30904556886 0)
(-0.377444243434 2.4699876229 0)
(-0.355644451703 2.62220093344 0)
(-0.333463051433 2.76550736761 0)
(-0.311073180492 2.89980101632 0)
(-0.288632850915 3.02504181932 0)
(-0.266284113402 3.14124883191 0)
(-0.244152739962 3.24849337671 0)
(-0.222348383112 3.34689227617 0)
(-0.200965068578 3.43660132261 0)
(-0.180081987374 3.51780909936 0)
(-0.15976445558 3.59073123434 0)
(-0.140065027876 3.65560513433 0)
(-0.121024652668 3.71268522534 0)
(-0.102673878209 3.7622387022 0)
(-0.085034017011 3.80454177657 0)
(-0.0681182978488 3.83987639761 0)
(-0.0519329265264 3.86852741003 0)
(-0.0364780929824 3.89078010217 0)
(-0.0217488407352 3.90691807307 0)
(-0.00773584328774 3.91722122229 0)
(0.00557379215989 3.9219637905 0)
(0.0181933657491 3.92141513795 0)
(0.0301086746365 3.91584548346 0)
(0.0413719661005 3.90551268146 0)
(0.0520084576464 3.89066289283 0)
(0.0620403157415 3.87153544912 0)
(0.0714903480733 3.84836198436 0)
(0.0803816396887 3.82136579125 0)
(0.0887373569038 3.79076161181 0)
(0.0965805495979 3.75675560123 0)
(0.103934018751 3.71954538448 0)
(0.11082018424 3.67932017013 0)
(0.117261004979 3.6362609042 0)
(0.123277892858 3.59054045361 0)
(0.12889167199 3.54232381104 0)
(0.134122526454 3.49176831528 0)
(0.138989987488 3.43902388156 0)
(0.143512905137 3.3842332385 0)
(0.147709454579 3.3275321674 0)
(0.151597124033 3.26904974226 0)
(0.155192733536 3.2089085674 0)
(0.158512433412 3.14722501199 0)
(0.16157173058 3.08410943931 0)
(0.164385493434 3.01966643076 0)
(0.166967982137 2.9539950031 0)
(0.169332856972 2.88718881926 0)
(0.171493210118 2.81933639187 0)
(0.173461575437 2.75052127999 0)
(0.175249960027 2.68082227856 0)
(0.176869854089 2.61031360132 0)
(0.178332261117 2.53906505666 0)
(0.179647706996 2.46714221769 0)
(0.180826268127 2.39460658567 0)
(0.181877579251 2.32151574838 0)
(0.182810859121 2.24792353271 0)
(0.183634916804 2.17388015278 0)
(0.184358174727 2.0994323532 0)
(0.1849886734 2.02462354857 0)
(0.185534091802 1.94949395888 0)
(0.186001750589 1.87408074198 0)
(0.186398629896 1.79841812254 0)
(0.186731371167 1.72253751891 0)
(0.187006292506 1.64646766699 0)
(0.187229389313 1.57023474269 0)
(0.187406347348 1.49386248201 0)
(0.187542542365 1.41737230012 0)
(0.187643051043 1.34078340861 0)
(0.187712649779 1.26411293225 0)
(0.187755823578 1.18737602423 0)
(0.187776764037 1.11058598133 0)
(0.187779376051 1.03375435782 0)
(0.187767274627 0.956891079549 0)
(0.187743788542 0.880004556701 0)
(0.187711954328 0.803101796216 0)
(0.187674513759 0.726188511301 0)
(0.187633899562 0.649269225968 0)
(0.187592218113 0.572347365018 0)
(0.187551216762 0.49542530902 0)
(0.187512253346 0.418504410323 0)
(0.187476333043 0.341584710627 0)
(0.187443931517 0.264664729977 0)
(0.187407085999 0.187671896918 0)
(0.187018874021 0.111673791743 0)
(0.176976206471 0.0340147945356 0)
(-0.712208256523 0.113320493766 0)
(-0.757075771725 0.318788264403 0)
(-0.751297679838 0.545256739655 4.52404496177e-26)
(-0.741387259102 0.765682267863 0)
(-0.728232142923 0.982730265375 0)
(-0.712099271501 1.19527276982 0)
(-0.693215812619 1.40246602656 0)
(-0.671845397595 1.60351909638 0)
(-0.648271651991 1.79773239948 0)
(-0.622790487245 1.98449791108 0)
(-0.595702005399 2.16330173142 0)
(-0.567303421836 2.3337234994 0)
(-0.537882979374 2.49543374181 0)
(-0.507714981659 2.64818948256 0)
(-0.477055952937 2.79182854387 0)
(-0.446141900898 2.92626293162 0)
(-0.415186579513 3.05147166064 0)
(-0.384380647301 3.16749332569 0)
(-0.353891566649 3.27441867129 0)
(-0.323864117744 3.3723833597 0)
(-0.2944213715 3.46156108753 0)
(-0.265666011444 3.54215715546 0)
(-0.237681874696 3.61440255878 0)
(-0.210535634783 3.6785486336 0)
(-0.184278530384 3.73486226944 0)
(-0.158948096923 3.78362167883 0)
(-0.134569835968 3.82511270117 0)
(-0.11115880675 3.85962560772 0)
(-0.0887210961136 3.88745236962 0)
(-0.0672551647611 3.90888435229 0)
(-0.0467530246425 3.92421040382 0)
(-0.0272012136326 3.93371530363 0)
(-0.00858140602438 3.93767870374 0)
(0.0091297258867 3.93637506518 0)
(0.0259633750786 3.93007144284 0)
(0.0419347626307 3.91901943926 0)
(0.0570698557694 3.90347166338 0)
(0.0713964560113 3.88366938667 0)
(0.0849433608538 3.85984513031 0)
(0.0977397980662 3.83222249662 0)
(0.109815106895 3.80101625871 0)
(0.121198491548 3.76643241183 0)
(0.131918841122 3.72866827936 0)
(0.14200458103 3.68791265906 0)
(0.151483566182 3.64434600236 0)
(0.160382992054 3.59814061874 0)
(0.168729337073 3.54946089793 0)
(0.176548314753 3.49846354461 0)
(0.183864849923 3.44529782063 0)
(0.190703058877 3.39010579146 0)
(0.197086248229 3.33302257339 0)
(0.203036913463 3.27417657948 0)
(0.208576752185 3.21368976216 0)
(0.213726674093 3.15167785115 0)
(0.218506822686 3.08825058562 0)
(0.222936591687 3.02351193981 0)
(0.227034651041 2.95756034169 0)
(0.230818966312 2.89048888422 0)
(0.234306826106 2.82238552924 0)
(0.237514862108 2.75333330396 0)
(0.240459076029 2.68341049007 0)
(0.243154858775 2.61269080588 0)
(0.245617015701 2.54124358158 0)
(0.24785978401 2.46913392812 0)
(0.249896855623 2.3964228999 0)
(0.25174139231 2.32316765186 0)
(0.253406045834 2.24942159115 0)
(0.254902970631 2.17523452404 0)
(0.256243841138 2.1006527982 0)
(0.257439862024 2.02571944104 0)
(0.258501782784 1.95047429424 0)
(0.259439905668 1.87495414508 0)
(0.260264097712 1.79919285464 0)
(0.260983796601 1.72322148364 0)
(0.26160802037 1.64706841568 0)
(0.262145371466 1.57075947872 0)
(0.262604044389 1.49431806467 0)
(0.262991828217 1.41776524766 0)
(0.263316112434 1.34111990081 0)
(0.263583888165 1.26439881222 0)
(0.263801752367 1.18761679986 0)
(0.263975907906 1.11078682584 0)
(0.264112166151 1.03392010984 0)
(0.264215945779 0.957026241978 0)
(0.264292273478 0.880113294561 0)
(0.264345780975 0.803187932398 0)
(0.264380703209 0.726255520125 0)
(0.264400873517 0.649320224173 0)
(0.264409721848 0.572385103786 0)
(0.264410279563 0.495452180806 0)
(0.264405213711 0.418522532019 0)
(0.264396955014 0.341596129659 0)
(0.264387279391 0.26467262794 0)
(0.264364123541 0.187665750718 0)
(0.26383200058 0.111996236723 0)
(0.24956120995 0.0332355506563 0)
(-0.924311069821 0.123485959918 0)
(-0.982698405448 0.321354428545 0)
(-0.975068531416 0.555006915888 0)
(-0.962050554294 0.778951048925 0)
(-0.944766801613 0.999554597204 0)
(-0.923582504277 1.21538643059 0)
(-0.898801399416 1.42558827269 0)
(-0.870775025728 1.62933619665 0)
(-0.839880522406 1.82591196804 0)
(-0.806510517345 2.01469793764 0)
(-0.771062242184 2.19517932111 0)
(-0.733928069794 2.36694245167 0)
(-0.695487461186 2.52967090902 0)
(-0.656100472944 2.68313983307 0)
(-0.616102825219 2.82720894348 0)
(-0.575802459322 2.96181471863 0)
(-0.535477441245 3.08696213558 0)
(-0.495375038548 3.20271630464 0)
(-0.455711769408 3.30919426386 0)
(-0.416674231277 3.40655713284 0)
(-0.378420516009 3.49500276652 0)
(-0.34108204739 3.57475899902 0)
(-0.304765688393 3.64607752608 0)
(-0.269556000911 3.70922844185 0)
(-0.235517553187 3.7644954213 0)
(-0.202697203727 3.81217152126 0)
(-0.171126298519 3.85255556151 0)
(-0.140822746633 3.88594903944 0)
(-0.111792941396 3.91265352881 0)
(-0.0840335169936 3.93296851653 0)
(-0.0575329236752 3.94718963218 0)
(-0.0322728303627 3.95560714655 0)
(-0.00822951298561 3.9585046465 0)
(0.0146245398692 3.9561599763 0)
(0.0363202777781 3.94884394077 0)
(0.0568927733395 3.93681195714 0)
(0.0763782863917 3.92031666639 0)
(0.0948141732243 3.89960008041 0)
(0.112238565691 3.87489528662 0)
(0.128689990522 3.84642614392 0)
(0.144207024108 3.81440739077 0)
(0.158828004295 3.77904474851 0)
(0.17259080211 3.7405350766 0)
(0.185532639533 3.69906656026 0)
(0.197689951149 3.65481892446 0)
(0.209098277402 3.60796366701 0)
(0.219792189247 3.55866430479 0)
(0.22980523387 3.50707662824 0)
(0.239169902666 3.45334896001 0)
(0.24791761256 3.39762241455 0)
(0.256078702868 3.34003115614 0)
(0.263682439865 3.28070265326 0)
(0.270757031987 3.2197579278 0)
(0.277329648682 3.15731179808 0)
(0.28342644638 3.09347311461 0)
(0.28907259527 3.02834498842 0)
(0.294292310687 2.96202501126 0)
(0.299108883401 2.89460546789 0)
(0.303544712764 2.8261735402 0)
(0.307621337511 2.75681150351 0)
(0.311359468251 2.68659691508 0)
(0.314779016844 2.61560279539 0)
(0.317899126712 2.5438978022 0)
(0.320738199626 2.47154639815 0)
(0.323313922956 2.39860901203 0)
(0.325643293238 2.32514219431 0)
(0.327742639953 2.25119876732 0)
(0.32962764563 2.17682797056 0)
(0.331313366051 2.10207560144 0)
(0.33281424691 2.02698415211 0)
(0.334144140553 1.95159294251 0)
(0.335316319394 1.87593825027 0)
(0.336343489428 1.80005343766 0)
(0.337237800709 1.72396907602 0)
(0.338010857964 1.64771306793 0)
(0.338673728472 1.57131076754 0)
(0.339236950151 1.49478509915 0)
(0.339710537207 1.41815667444 0)
(0.340103986041 1.34144390849 0)
(0.340426279024 1.26466313487 0)
(0.340685888538 1.18782871974 0)
(0.34089077916 1.11095317538 0)
(0.341048410112 1.03404727293 0)
(0.341165736083 0.957120154443 0)
(0.341249208355 0.880179444016 0)
(0.341304774748 0.803231357592 0)
(0.34133788048 0.726280810673 0)
(0.341353469905 0.649331522891 0)
(0.341355993525 0.572386117686 0)
(0.341349426059 0.495446214487 0)
(0.341337308572 0.41851259085 0)
(0.341322851113 0.34158502358 0)
(0.341308123927 0.264663783086 0)
(0.341276212126 0.187641235743 0)
(0.340582884844 0.112394418998 0)
(0.32213517888 0.0321744732177 0)
(-1.14060459116 0.136493458052 0)
(-1.21279130789 0.324595732023 0)
(-1.20315512264 0.567494227171 0)
(-1.18682857956 0.795928405244 0)
(-1.16515291411 1.02107477572 0)
(-1.13860549955 1.24109494854 0)
(-1.10757855498 1.45511669733 0)
(-1.07252449136 1.66227448466 0)
(-1.03392641951 1.8618273968 0)
(-0.992285200792 2.05314687926 0)
(-0.948105371215 2.23571870274 0)
(-0.901883036938 2.40913960377 0)
(-0.854095712362 2.57311172096 0)
(-0.805194276523 2.72743513136 0)
(-0.755597016223 2.87199913861 0)
(-0.705685621578 3.00677284819 0)
(-0.655802918651 3.13179548778 0)
(-0.606252083997 3.24716683756 0)
(-0.557297067123 3.35303804559 0)
(-0.509163955622 3.44960302185 0)
(-0.46204303435 3.53709053442 0)
(-0.416091322134 3.61575707413 0)
(-0.371435398992 3.68588050944 0)
(-0.328174373986 3.74775451975 0)
(-0.286382872372 3.80168377225 0)
(-0.246113953191 3.84797979198 0)
(-0.20740188997 3.88695746585 0)
(-0.170264771659 3.91893211737 0)
(-0.134706894498 3.94421708891 0)
(-0.100720931746 3.96312177837 0)
(-0.0682898668564 3.97595007683 0)
(-0.0373886914529 3.98299898813 0)
(-0.0079860212396 3.98455728279 0)
(0.0199546378881 3.98090818809 0)
(0.0464744661014 3.97232376587 0)
(0.0716153379807 3.95906251457 0)
(0.0954224279335 3.94137903983 0)
(0.117942422259 3.91951649423 0)
(0.139222819505 3.89370858667 0)
(0.159311451451 3.864179377 0)
(0.17825607703 3.83114345845 0)
(0.196104053289 3.79480612657 0)
(0.212902072678 3.75536359193 0)
(0.228695956301 3.71300321682 0)
(0.243530495994 3.66790377072 0)
(0.257449335918 3.62023569797 0)
(0.270494888566 3.57016139292 0)
(0.282708277788 3.51783547812 0)
(0.294129305422 3.46340508253 0)
(0.3047964357 3.40701011686 0)
(0.314746795332 3.34878354427 0)
(0.324016184633 3.28885164468 0)
(0.332639098575 3.22733427173 0)
(0.340648754072 3.16434510152 0)
(0.348077123107 3.09999187267 0)
(0.354954968695 3.03437661742 0)
(0.36131188384 2.9675958837 0)
(0.367176331026 2.89974094822 0)
(0.372575682753 2.8308980208 0)
(0.377536261087 2.76114844017 0)
(0.382083376995 2.69056886165 0)
(0.386241367732 2.61923143706 0)
(0.390033633234 2.54720398737 0)
(0.393482670026 2.47455016849 0)
(0.396610103701 2.4013296307 0)
(0.399436718666 2.32759817226 0)
(0.401982486261 2.25340788757 0)
(0.404266590111 2.17880731052 0)
(0.406307449822 2.10384155328 0)
(0.408122741996 2.02855244116 0)
(0.409729419686 1.95297864389 0)
(0.411143729348 1.87715580371 0)
(0.412381226375 1.80111666065 0)
(0.413456788386 1.72489117539 0)
(0.414384627263 1.64850664997 0)
(0.415178299217 1.57198784671 0)
(0.415850713808 1.49535710557 0)
(0.416414141245 1.4186344602 0)
(0.416880218859 1.3418377529 0)
(0.417259956111 1.26498274871 0)
(0.417563738958 1.1880832487 0)
(0.41780133302 1.11115120265 0)
(0.417981886289 1.03419682117 0)
(0.418113930966 0.957228687171 0)
(0.418205385162 0.880253866793 0)
(0.418263554362 0.803278019438 0)
(0.41829513379 0.72630550689 0)
(0.418306212531 0.649339501448 0)
(0.418302282088 0.572382093354 0)
(0.41828825258 0.495434397148 0)
(0.418268479108 0.418496757999 0)
(0.418246816058 0.34156848399 0)
(0.41822545157 0.264650058952 0)
(0.418182878168 0.187605293643 0)
(0.417326637369 0.112882884233 0)
(0.39471642929 0.0308371618718 0)
(-1.362142992 0.152563231987 0)
(-1.44852237379 0.328565275469 0)
(-1.43668379897 0.582921308599 4.44494215524e-26)
(-1.41679218989 0.816873165245 0)
(-1.39039031617 1.04761145461 0)
(-1.3580845784 1.27276807728 0)
(-1.32036904762 1.49145806036 0)
(-1.27781191044 1.70276509504 0)
(-1.23101670473 1.9059221739 0)
(-1.18060592427 2.10028964245 0)
(-1.12720322019 2.28535670154 0)
(-1.07141835271 2.4607358238 0)
(-1.01383478972 2.62615489645 0)
(-0.955000128045 2.78144739223 0)
(-0.895419237019 2.92654139688 0)
(-0.835549893708 3.06144813043 0)
(-0.775800588528 3.18625048548 0)
(-0.716530138946 3.30109197719 0)
(-0.658048741446 3.40616638316 0)
(-0.600620111952 3.50170824981 0)
(-0.544464399194 3.58798435996 0)
(-0.489761600321 3.66528619201 0)
(-0.436655253878 3.73392335439 0)
(-0.385256231745 3.79421794654 0)
(-0.335646492456 3.84649977726 0)
(-0.287882695927 3.89110236007 0)
(-0.241999609483 3.92835960091 0)
(-0.198013261329 3.95860309378 0)
(-0.155923816807 3.98215994466 0)
(-0.115718168296 3.99935106125 0)
(-0.0773722303507 4.01048984172 0)
(-0.0408529474202 4.01588093013 0)
(-0.00612016030962 4.01581895211 0)
(0.026872363695 4.01059372852 0)
(0.0581745085665 4.00047797879 0)
(0.0878388184864 3.98573453236 0)
(0.115920394199 3.96661957045 0)
(0.142475938256 3.94337742516 0)
(0.167562853118 3.91624235091 0)
(0.191238728087 3.88543848319 0)
(0.2135608833 3.85118009709 0)
(0.234586007876 3.8136718547 0)
(0.254369871922 3.77310908361 0)
(0.272967102606 3.72967807 0)
(0.290431014589 3.68355636166 0)
(0.306813485624 3.63491307553 0)
(0.322164870104 3.58390920582 0)
(0.336533943494 3.53069792945 0)
(0.34996787238 3.47542490637 0)
(0.362512204851 3.41822857283 0)
(0.374210877472 3.35924042626 0)
(0.385106234934 3.29858530075 0)
(0.395239059821 3.23638163248 0)
(0.404648609582 3.17274171482 0)
(0.41337265903 3.10777194286 0)
(0.421447546265 3.04157304751 0)
(0.428908220929 2.97424031925 0)
(0.43578829328 2.90586382195 0)
(0.442120083507 2.83652859706 0)
(0.447934670131 2.76631485863 0)
(0.453261937287 2.69529817968 0)
(0.45813062004 2.62354967041 0)
(0.462568347756 2.55113614886 0)
(0.466601684915 2.47812030445 0)
(0.470256169546 2.40456085513 0)
(0.473556348843 2.33051269853 0)
(0.476525812244 2.25602705764 0)
(0.47918722165 2.18115162173 0)
(0.481562339133 2.10593068276 0)
(0.483672051902 2.03040526785 0)
(0.485536394909 1.95461326836 0)
(0.487174570915 1.87858956578 0)
(0.488604968435 1.80236615505 0)
(0.489845177399 1.72597226545 0)
(0.490912002959 1.64943447958 0)
(0.491821477318 1.5727768506 0)
(0.492588869975 1.49602101813 0)
(0.493228696294 1.41918632284 0)
(0.493754724784 1.34228992027 0)
(0.49417998299 1.26534689371 0)
(0.494516762375 1.18837036653 0)
(0.494776622127 1.11137161404 0)
(0.49497039225 1.03436017491 0)
(0.495108175962 0.95734396217 0)
(0.495199351812 0.880329374037 0)
(0.495252575756 0.803321404338 0)
(0.495275783862 0.726323752902 0)
(0.495276196384 0.649338936333 0)
(0.495260324389 0.572368399843 0)
(0.495233979769 0.495412629015 0)
(0.495202285163 0.41847138597 0)
(0.49516969718 0.341543268443 0)
(0.49513855271 0.264628846928 0)
(0.495083163246 0.187556450708 0)
(0.49406301385 0.113465058561 0)
(0.467295615823 0.0292277509151 0)
(-1.59006594503 0.171967018323 0)
(-1.69112869732 0.333321995771 0)
(-1.67684020436 0.601545700098 -4.40855695341e-26)
(-1.65305663702 0.842115248624 0)
(-1.62150388836 1.07957117958 0)
(-1.58294021598 1.31087178545 0)
(-1.53797921764 1.53512185497 0)
(-1.48732424095 1.7513445462 0)
(-1.43171788464 1.95874418899 0)
(-1.37192138077 2.15667133117 0)
(-1.30869238634 2.34462345848 0)
(-1.24276662238 2.52223634028 0)
(-1.17484310367 2.6892730932 0)
(-1.10557309171 2.84561125133 0)
(-1.03555254616 2.99122889874 0)
(-0.965317697506 3.12619062035 0)
(-0.895343268914 3.25063386298 0)
(-0.826042843576 3.36475612326 0)
(-0.757770885658 3.46880322879 0)
(-0.690825964704 3.56305885535 0)
(-0.625454790922 3.64783532815 0)
(-0.56185673376 3.72346568512 0)
(-0.500188560577 3.79029693384 0)
(-0.440569192496 3.84868440448 0)
(-0.383084327342 3.89898708613 0)
(-0.327790824767 3.94156382916 0)
(-0.274720785143 3.97677029838 0)
(-0.223885283272 4.00495656806 0)
(-0.175277740147 4.02646526045 0)
(-0.128876931445 4.04163015581 0)
(-0.0846496334291 4.0507751907 0)
(-0.0425529198785 4.05421339632 0)
(-0.00253618275973 4.05224585237 0)
(0.035458475922 4.04516995195 0)
(0.0714899738811 4.03325767932 0)
(0.105622631065 4.01677750214 0)
(0.13792224802 3.99598680717 0)
(0.168456212635 3.97113104815 0)
(0.197292381097 3.94244484694 0)
(0.224498549654 3.91015220101 0)
(0.250141961397 3.87446681744 0)
(0.274288923378 3.83559245101 0)
(0.297004504546 3.7937232558 0)
(0.318352304452 3.74904414122 0)
(0.338394281164 3.70173112769 0)
(0.357190628455 3.65195169814 0)
(0.374799693865 3.59986514245 0)
(0.391277930125 3.54562289259 0)
(0.406679873805 3.48936884704 0)
(0.421058145673 3.43123968341 0)
(0.434463468353 3.37136515848 0)
(0.446944697315 3.30986839551 0)
(0.458548862068 3.24686615856 0)
(0.469321214744 3.18246911407 0)
(0.479305283933 3.11678207983 0)
(0.488542931772 3.04990426187 0)
(0.497074412889 2.9819294797 0)
(0.504938433826 2.91294638038 0)
(0.512172212042 2.84303864217 0)
(0.518811533604 2.77228516828 0)
(0.524890809027 2.70076027138 0)
(0.530443126687 2.62853384959 0)
(0.535500303568 2.5556715546 0)
(0.540092932979 2.48223495243 0)
(0.544250429182 2.4082816777 0)
(0.548001068763 2.33386558179 0)
(0.551372028791 2.25903687562 0)
(0.554389421715 2.18384226752 0)
(0.557078327138 2.10832509686 0)
(0.559462820491 2.0325254637 0)
(0.561565998797 1.95648035519 0)
(0.56341000359 1.88022376895 0)
(0.565016041235 1.80378683397 0)
(0.566404400706 1.7271979293 0)
(0.567594469109 1.65048280092 0)
(0.568604745015 1.57366467712 0)
(0.569452849873 1.49676438255 0)
(0.570155537607 1.41980045131 0)
(0.570728702626 1.3427892393 0)
(0.571187386377 1.2657450358 0)
(0.571545782652 1.18868017476 0)
(0.571817241796 1.11160514568 0)
(0.572014274037 1.03452870428 0)
(0.57214855211 0.957457983036 0)
(0.572230913461 0.880398601783 0)
(0.572271362311 0.803354778349 0)
(0.572279071946 0.726329439659 0)
(0.572262387643 0.649324333809 0)
(0.572228830556 0.572340143525 0)
(0.57218510205 0.495376597892 0)
(0.572137082634 0.418432734394 0)
(0.572089841836 0.341506244957 0)
(0.572045932309 0.264597834549 0)
(0.571975772383 0.18749329247 0)
(0.57079044822 0.114141755656 0)
(0.539868059381 0.0273477281711 0)
(-1.82562316754 0.195041636518 0)
(-1.94196169029 0.338937899755 0)
(-1.9249144721 0.623690275114 0)
(-1.89682963104 0.872069188617 0)
(-1.85959561574 1.11746309277 0)
(-1.81415272034 1.35598698858 0)
(-1.76125728426 1.58674005238 0)
(-1.70177279326 1.80867473143 0)
(-1.63660452191 2.0209655068 0)
(-1.56667374823 2.2229566085 0)
(-1.49289031539 2.41416141014 0)
(-1.41613056929 2.59424954036 0)
(-1.33722014865 2.76303183577 0)
(-1.25692164834 2.92044338807 0)
(-1.17592672533 3.06652602197 0)
(-1.09485205222 3.20141108893 0)
(-1.01423843643 3.32530323029 0)
(-0.93455241618 3.43846552896 0)
(-0.856189689805 3.54120627912 0)
(-0.77947981043 3.63386745672 0)
(-0.704691668427 3.71681486625 0)
(-0.632039376433 3.79042986862 0)
(-0.561688258709 3.85510255114 0)
(-0.49376072404 3.91122617949 0)
(-0.428341866769 3.95919276524 0)
(-0.365484694192 3.99938958734 0)
(-0.305214920724 4.03219651693 0)
(-0.247535301732 4.05798400908 0)
(-0.192429503598 4.0771116431 0)
(-0.139865521115 4.08992712747 0)
(-0.0897986615715 4.09676566329 0)
(-0.0421741360731 4.09794912745 0)
(0.00307083393633 4.09378548717 0)
(0.046007856272 4.08458049609 0)
(0.0867050805616 4.07060362947 0)
(0.125240290022 4.0521303727 0)
(0.161690848425 4.02941865012 0)
(0.196135555904 4.00271485796 0)
(0.228653323 3.97225369072 0)
(0.259322641696 3.93825869509 0)
(0.288221069368 3.90094267433 0)
(0.315424838464 3.86050812819 0)
(0.341008553069 3.8171476841 0)
(0.365044961497 3.7710445213 0)
(0.387604791649 3.7223727832 0)
(0.408756638371 3.67129797578 0)
(0.428566893488 3.61797735055 0)
(0.447099710547 3.56256027104 0)
(0.464416997528 3.50518856245 0)
(0.480578431741 3.44599684418 0)
(0.49564149211 3.38511284557 0)
(0.509661504721 3.32265770508 0)
(0.522691698244 3.25874625339 0)
(0.534783266366 3.19348728124 0)
(0.545985434884 3.12698379244 0)
(0.556345531495 3.05933324314 0)
(0.565909056726 2.99062776788 0)
(0.574719754681 2.92095439345 0)
(0.582819682603 2.8503952413 0)
(0.590249278436 2.77902771935 0)
(0.597047425753 2.70692470407 0)
(0.603251515595 2.63415471357 0)
(0.608897504876 2.56078207241 0)
(0.614019971134 2.48686706916 0)
(0.618652163487 2.41246610699 0)
(0.622826049742 2.33763184839 0)
(0.626572359658 2.26241335437 0)
(0.629920624419 2.18685621893 0)
(0.632899212425 2.11100269919 0)
(0.635535361507 2.0348918419 0)
(0.637855207753 1.9585596067 0)
(0.639883811097 1.88203898656 0)
(0.641645177868 1.80536012591 0)
(0.643162280504 1.72855043679 0)
(0.644457074625 1.65163471333 0)
(0.645550513682 1.57463524489 0)
(0.646462561384 1.49757192819 0)
(0.647212202117 1.42046237857 0)
(0.647817449546 1.34332204066 0)
(0.648295353617 1.26616429862 0)
(0.648662006149 1.18900058615 0)
(0.648932545219 1.11184049632 0)
(0.649121158539 1.03469189141 0)
(0.649241086041 0.957561012858 0)
(0.649304621888 0.880452591434 0)
(0.649323116144 0.803369957831 0)
(0.649306976301 0.726315153891 0)
(0.649265668835 0.649289044982 0)
(0.649207720698 0.572291433357 0)
(0.649140719873 0.495321167351 0)
(0.649071308366 0.418376432156 0)
(0.649005189274 0.341453849235 0)
(0.648945179922 0.264554404852 0)
(0.648857992785 0.187413998033 0)
(0.64750575427 0.114912640247 0)
(0.612429544086 0.0251978384455 0)
(-2.07019809736 0.222202484163 0)
(-2.2025166875 0.345503339745 0)
(-2.182326454 0.649756551744 0)
(-2.14943125133 0.907250358644 0)