/*--------------------------------*- C++ -*----------------------------------*\
| =========                 |                                                 |
| \\      /  F ield         | OpenFOAM: The Open Source CFD Toolbox           |
|  \\    /   O peration     | Version:  v1906                                 |
|   \\  /    A nd           | Web:      www.OpenFOAM.com                      |
|    \\/     M anipulation  |                                                 |
\*---------------------------------------------------------------------------*/
FoamFile
{
    version     2.0;
    format      ascii;
    class       surfaceScalarField;
    location    "902";
    object      phia;
}
// * * * * * * * * * * * * * * * * * * * * * * * * * * * * * * * * * * * * * //

dimensions      [0 3 -1 0 0 0 0];
oriented        oriented;


internalField   nonuniform List<scalar> 
18240
(
0.00134687633289
-0.00134701803642
0.00282138074731
-0.00147467156515
0.00429484044601
-0.00147360382135
0.0057495200853
-0.00145485102897
0.0071774618633
-0.00142807906597
0.00857184966571
-0.00139456197683
0.0099266997318
-0.00135498002097
0.0112364716141
-0.00130994782019
0.0124963694898
-0.00126001994114
0.0137020156959
-0.0012058228584
0.0148498301634
-0.00114792801463
0.0159366326887
-0.00108697888766
0.0169600628884
-0.00102353483334
0.0179181057286
-0.000958217949422
0.0188095491612
-0.000891538724637
0.0196334412985
-0.000824065082421
0.0203895881297
-0.000756232597633
0.0210779530595
-0.000688534842081
0.0216991967509
-0.000621319686354
0.0222540295463
-0.000554998868843
0.0227437945037
-0.00048983118755
0.0231697819181
-0.000426148897389
0.0235338541315
-0.000364128604561
0.0238377295702
-0.000304031655646
0.0240836462079
-0.000245963370553
0.0242736207846
-0.000190124915632
0.0244101457016
-0.000136562073399
0.0244954280228
-8.54262553728e-05
0.0245321144066
-3.67142936309e-05
0.0245225145409
9.46279383799e-06
0.0244693501374
5.314552734e-05
0.024374958979
9.42613203676e-05
0.0242420540856
0.000132894602613
0.02407293523
0.000168996563298
0.0238702649029
0.00020266830628
0.0236362662661
0.000233884117233
0.0233735033714
0.00026276860867
0.0230840817363
0.000289315053841
0.0227704307077
0.000313664085193
0.0224345090641
0.000335823091279
0.0220785849333
0.00035594394048
0.0217044500193
0.00037404442953
0.0213141927187
0.000390283425389
0.0209094245186
0.00040468575868
0.0204920427863
0.000417413558741
0.0200634726183
0.000428495703655
0.0196254156422
0.000438094044884
0.0191791103763
0.000446238660289
0.018726064097
0.000453087977435
0.0182673344126
0.00045867078798
0.0178042410684
0.00046313921062
0.0173376711506
0.000466518539136
0.0168687683215
0.000468952269231
0.0163982636789
0.000470460567616
0.0159271397284
0.000471176515194
0.0154559886448
0.000471114065237
0.0149856488774
0.000470394893883
0.0145165922206
0.000469026432213
0.0140495308431
0.000467118639393
0.0135848343783
0.000464672746448
0.0131231057854
0.000461787471318
0.0126646294286
0.000458458848419
0.0122099141867
0.000454775345703
0.0117591733789
0.00045072919773
0.011312834173
0.000446400074623
0.0108710500393
0.000441778110012
0.0104341755875
0.000436935745635
0.0100023121439
0.000431862689213
0.0095757477348
0.000426625742095
0.00915453620308
0.000421215736265
0.00873890213957
0.000415695157186
0.00832885384112
0.000410057150224
0.0079245534617
0.000404360917142
0.00752596391713
0.000398602733217
0.00713318454379
0.000392839109665
0.006746131942
0.000387069802912
0.00636484172015
0.000381348855946
0.00598918311677
0.000375679476357
0.00561912730739
0.000370113061188
0.00525449561463
0.000364655871436
0.00489519494818
0.000359356192478
0.00454099937975
0.000354222677447
0.00419175312463
0.000349299742198
0.00384718534149
0.000344597483331
0.00350708121093
0.000340155349228
0.00317112996023
0.00033598335991
0.002839065159
0.000332113776009
0.00251054717417
0.000328552511896
0.00218527756976
0.000325316482351
0.00186292555907
0.000322388468246
0.00154324672437
0.000319722934918
0.001226128132
0.000317155763702
0.000911926893069
0.000314239564761
0.000602573603224
0.000309390329156
0.000306499562591
0.000296117459051
0.000306522073609
0.00148901542098
-0.00283618809685
0.00315114573094
-0.00313697186564
0.00480417972882
-0.00312680046873
0.00643339522384
-0.00308423634577
0.00803139144065
-0.00302623497073
0.00959119581258
-0.00295453503101
0.0111062468422
-0.00287018688501
0.0125704542335
-0.00277432193756
0.0139784089436
-0.00266812573389
0.0153252920067
-0.00255286977013
0.0166070440055
-0.00242982557947
0.0178202093497
-0.00230030433971
0.0189620980396
-0.00216556284768
0.0200305818537
-0.00202685733158
0.0210242567345
-0.00188534610938
0.0219422008891
-0.00174215954504
0.0227841444782
-0.00159830131529
0.0235501993168
-0.0014547340709
0.0242410418356
-0.00131227954562
0.024857623222
-0.0011717181522
0.0254013700691
-0.00103368719745
0.0258738819847
-0.000898791709858
0.0262771520367
-0.000767499395147
0.0266132565678
-0.000640259663957
0.0268845951241
-0.000517394017864
0.0270935750193
-0.000399220520253
0.0272428685149
-0.000285938927054
0.027335093326
-0.000177758747947
0.0273730838828
-7.47794105169e-05
0.0273595680158
2.28791993414e-05
0.0272974464944
0.000115201225585
0.0271894748985
0.000202141783432
0.0270385612198
0.000283751123488
0.026847430917
0.000360044113411
0.026618922539
0.000431128004042
0.026355665646
0.000497066609362
0.0260603834324
0.000558010425779
0.0257355706953
0.000614061661046
0.0253837981127
0.000665404263986
0.0250073937023
0.000712169499991
0.0246087473723
0.000754565574414
0.0241899972871
0.000792744457829
0.0237533329476
0.000826930412191
0.0233006877518
0.00085728861027
0.0228340390594
0.000884051892537
0.0223551081341
0.000907391736541
0.0218656557282
0.000927542674569
0.0213671905266
0.000944676124402
0.0208612589541
0.000959021965992
0.0203491630715
0.000970745772611
0.0198322433063
0.000980067147262
0.0193116066026
0.000987140843651
0.0187884008739
0.000992171512916
0.0182635539925
0.000995299197629
0.0177380387247
0.000996710195996
0.0172126229953
0.000996527323199
0.0166881241772
0.000994916604409
0.0161651709013
0.000991982645123
0.0156444455973
0.000987870874541
0.0151264580559
0.000982668252754
0.0146117753147
0.00097650077028
0.0141008071217
0.000969439656598
0.0135940223823
0.000961593848106
0.0130917467001
0.00095302176802
0.0125943648705
0.000943818483281
0.0121021306852
0.000934033090285
0.0116153551241
0.000923750317522
0.0111342286595
0.000913013500168
0.0106589950628
0.000901900432782
0.0101897864453
0.000890451913882
0.00972678272812
0.000878741716529
0.00927005966126
0.00086681066579
0.00881973419694
0.000854730662653
0.00837582568019
0.000842544270465
0.00793838741201
0.000830322789072
0.00750738116261
0.000818111320889
0.00708279529836
0.000805980946072
0.00666453269867
0.000793979251707
0.00625251577343
0.000782176686881
0.00584658782399
0.000770622535898
0.00544660527638
0.000759385547653
0.00505235248823
0.000748515336687
0.00466362143209
0.000738077353144
0.00428013993916
0.000728119663485
0.00390163907803
0.000718702256996
0.00352779477327
0.000709869013862
0.0031582830223
0.000701671068725
0.0027927343776
0.000694143194614
0.00243077598988
0.000687320006425
0.00207199312424
0.000681213988058
0.00171593858854
0.000675820618476
0.00136203904851
0.000671096210824
0.00100937370881
0.000666946555249
0.000655677573428
0.000663126339005
0.000295249553622
0.000656585867621
0.000601792557316
0.00151532502435
-0.00435167039598
0.00319874621681
-0.00482056081707
0.00487552274833
-0.00480374428974
0.00652837347451
-0.00473725501908
0.00814914109053
-0.0046471675874
0.00973054655329
-0.00453610651379
0.0112658336219
-0.00440563587825
0.0127488099115
-0.00425746134098
0.0141739532926
-0.00409342714871
0.015536410801
-0.00391548657375
0.0168320654922
-0.0037256335601
0.0180574886029
-0.00352588210129
0.0192099809866
-0.00331820304908
0.0202874911884
-0.00310451678843
0.0212886413495
-0.00288663791383
0.0222126213175
-0.00266628270675
0.0230592078164
-0.00244502271858
0.0238286439404
-0.0022243067289
0.0245216593058
-0.0020054225293
0.0251393430724
-0.00178953128422
0.0256831712056
-0.00157763526212
0.0261548790462
-0.00137062130758
0.0265564991534
-0.00116923136129
0.0268902367695
-0.000974111083288
0.0271585191001
-0.000785779900436
0.0273638744775
-0.000604681469533
0.0275089917093
-0.000431151179533
0.0275966023322
-0.000265466527681
0.0276295480282
-0.000107811521014
0.0276106651634
4.16734449739e-05
0.0275428587366
0.000182929918592
0.0274289883342
0.000315932139763
0.02727194842
0.00044072192
0.0270745562925
0.000557364751942
0.0268396348274
0.000665988904037
0.0265699035272
0.000766734874601
0.0262680648183
0.000859796926083
0.0259366979352
0.000945373817757
0.0255783475668
0.00102371060241
0.0251954205458
0.00109504989272
0.0247902761432
0.00115967383387
0.0243651257718
0.00121785605903
0.0239221241627
0.00126990350185
0.0234632723644
0.00131610920467
0.0229905092886
0.00135679371215
0.0225056182646
0.00139225881375
0.0220103183643
0.00142282825879
0.0215061747981
0.001448802653
0.0209946896049
0.00147049937888
0.0204772160639
0.00148820883055
0.0199550481665
0.00150223343916
0.0194293391548
0.00151284554384
0.0189011892781
0.00152032553092
0.0183715683971
0.00152492155729
0.0178414013337
0.00152688676553
0.0173114944096
0.00152644111447
0.0167826177921
0.00152380765685
0.0162554357153
0.00151917658351
0.0157305851184
0.00151274044581
0.0152086093201
0.00150466050068
0.0146900324296
0.00149510074355
0.0141752962434
0.00148419648741
0.0136648299223
0.00147208697794
0.0131589899987
0.00145888613521
0.0126581250718
0.00144471353536
0.0121625188828
0.0014296671472
0.0116724498508
0.00141385243312
0.0111881373152
0.00139735696074
0.010709795979
0.00138027744087
0.0102375854704
0.00136269606474
0.00977165980447
0.00134470532172
0.00931212050388
0.00132638599566
0.00885906134777
0.00130782969438
0.00841252527921
0.00128911844114
0.00797254468825
0.00127034488738
0.00753910234619
0.00125159351337
0.00711216753095
0.00123295856552
0.00669166116682
0.00121452687833
0.00627748801788
0.00119639359541
0.00586950618724
0.00117864667296
0.00546755559967
0.00116138046897
0.00507143194003
0.00114468196637
0.00468091154345
0.00112864229302
0.004295729803
0.00111334470004
0.00391560251842
0.00109887403251
0.00354020861103
0.00108530640537
0.00316920757301
0.00107271653583
0.00280222558238
0.00106116895962
0.00243886687336
0.00105072307315
0.00207869804954
0.00104142634339
0.00172124277564
0.00103331973715
0.00136594063028
0.00102644018787
0.00101208664405
0.00102083989395
0.000658817147222
0.00101643767777
0.000306914114013
0.00100853163547
0.000908726548359
0.00153867031978
-0.0058904993251
0.00324513002003
-0.00652719087257
0.00494506733931
-0.00650385053141
0.00662040246294
-0.0064127591524
0.00826250427926
-0.00628943659929
0.00986377526109
-0.00613754407485
0.0114172292606
-0.00595925427802
0.0129165239559
-0.00575691941411
0.014356027201
-0.00553309104063
0.0157308398479
-0.00529045852138
0.0170368252668
-0.00503177502126
0.0182705921593
-0.0047598033972
0.0194294928381
-0.00447725437132
0.0205115758892
-0.0041867486003
0.0215155635621
-0.00389077015252
0.0224407848485
-0.00359164644961
0.0232871419739
-0.00329151769996
0.0240550337524
-0.00299233407243
0.0247453201405
-0.0026958395463
0.0253592443251
-0.00240358364146
0.0258984023582
-0.00211691622764
0.0263646699974
-0.00183700930361
0.0267601815494
-0.00156485779797
0.0270872642541
-0.00130130599415
0.0273484271114
-0.00104704929171
0.027546302542
-0.000802660697311
0.0276836435703
-0.000568590203773
0.027763270953
-0.000345189126773
0.0277880764445
-0.000132706329022
0.027760973781
6.86895767453e-05
0.0276849067009
0.000258916399351
0.027562801803
0.000437959213806
0.0273975814312
0.000605870410847
0.0271921198256
0.000762757204257
0.0269492585949
0.000908786865745
0.0266717663021
0.00104416656555
0.0263623563593
0.0011691520728
0.0260236495836
0.0012840283731
0.0256581946499
0.00138911899135
0.0252684332
0.00148476727814
0.0248567223076
0.00157134619419
0.0244253019624
0.00164924023214
0.0239763191756
0.00171885546315
0.0235117977953
0.00178060199947
0.0230336639861
0.00183490409037
0.0225437183786
0.00188218309184
0.0220436627276
0.00192286750941
0.0215350744346
0.00195737651298
0.0210194341812
0.0019861299021
0.0204981027922
0.00200953230967
0.0199723495906
0.00202798318232
0.0194433314878
0.002041861868
0.0189121217071
0.00205153773629
0.0183796908441
0.00205735637578
0.0178469355066
0.00205964999523
0.0173146609969
0.00205872490619
0.0167836093419
0.00205487226975
0.0162544431689
0.00204835695825
0.0157277725836
0.00203942863499
0.015204139829
0.00202831196606
0.0146840445236
0.00201521789652
0.0141679287431
0.00200033508435
0.0136562002397
0.00198384116263
0.0131492177189
0.00196589517913
0.0126473118135
0.00194664856855
0.0121507704558
0.00192623835119
0.0116598575372
0.0019047975434
0.0111747984293
0.00188244886879
0.0106957964124
0.00185931435901
0.0102230185038
0.00183550938012
0.00975660984524
0.00181115124878
0.00929668008443
0.001786353438
0.00884331598836
0.0017612331053
0.0083965686466
0.00173590541907
0.00795646459434
0.00171048997862
0.00752299410848
0.00168510526475
0.00709612111807
0.00165987399039
0.00667577281901
0.00163491773112
0.00626184859883
0.00161036129129
0.0058542111469
0.00158632759754
0.0054526945704
0.00156294118416
0.00505709710208
0.00154032344249
0.00466718849857
0.0015185953277
0.00428270435926
0.00149787304665
0.00390335278243
0.0014782700735
0.00352881011082
0.0014598933468
0.00315872644995
0.00144284470034
0.00279272204408
0.00142721774548
0.00243039039413
0.00141309932165
0.0020712930644
0.00140056813191
0.00171495673021
0.00138969898625
0.00136086806556
0.00138057083499
0.00100848508684
0.00137326565882
0.000657405171652
0.00136755817815
0.000309287183114
0.00135669092875
0.00121803542173
0.00156864241795
-0.00745930252264
0.00330698065824
-0.00826569934776
0.00503820144509
-0.00823524289818
0.00674359708906
-0.00811832516926
0.00841409044334
-0.00796009938209
0.0100417155726
-0.00776533731677
0.0116191961892
-0.00753690138213
0.0131399824724
-0.00727787052639
0.014598303415
-0.00699157468314
0.0159891933913
-0.00668150912195
0.0173085051368
-0.00635124480915
0.0185528963406
-0.00600435018227
0.0197198083609
-0.00564431899653
0.0208074230514
-0.00527451307808
0.0218146185208
-0.00489811207049
0.0227409077782
-0.00451807903108
0.0235863827713
-0.00413713236961
0.0243516456593
-0.00375773323447
0.0250377511829
-0.00338207741858
0.0256461398397
-0.00301210101901
0.0261785865997
-0.00264948756084
0.0266371424919
-0.00229568594477
0.0270240941478
-0.00195192586396
0.0273419162685
-0.00161924055837
0.0275932422987
-0.0012984832906
0.0277808263514
-0.000990348637061
0.0279075222597
-0.000695385417613
0.0279762517942
-0.000414013823835
0.0279899890037
-0.000146534064802
0.02795173231
0.000106859928119
0.0278644925425
0.000346074490482
0.0277312667445
0.000571107510469
0.0275550314964
0.000782032807172
0.0273387193859
0.000979000605781
0.0270852138909
0.00116222825379
0.0267973304285
0.00133198998247
0.0264778135733
0.0014886133944
0.0261293209338
0.00163246944623
0.0257544229354
0.00176396983014
0.0253555890804
0.0018835578101
0.0249351898636
0.00199170635436
0.0244954851116
0.00208890962649
0.0240386277258
0.0021756816085
0.0235666539697
0.00225254804751
0.0230814889254
0.0023200453671
0.022584938692
0.00237871292309
0.0220786974652
0.00242909209454
0.0215643416491
0.00247171886431
0.0210433385038
0.00250712314254
0.0205170421101
0.00253582179163
0.0199867034053
0.00255831833639
0.0194534678357
0.00257509667997
0.0189183865165
0.00258662144517
0.0183824152523
0.00259333263099
0.0178464263717
0.0025956468045
0.0173112086804
0.00259395292384
0.0167774794658
0.00258861452889
0.0162458848571
0.00257996681479
0.0157170114276
0.00256831981761
0.0151913864566
0.00255395669116
0.0146694886434
0.00253713775044
0.014151747839
0.00251809973938
0.0136385544735
0.00249706045582
0.0131302584799
0.00247421871615
0.0126271772333
0.00244975922601
0.0121295935481
0.00242385288286
0.0116377620762
0.00239666153274
0.0111519064342
0.00236833828594
0.0106722241931
0.0023390318546
0.0101988833195
0.00230888660427
0.00973202597861
0.00227804624157
0.00927176457097
0.00224665343477
0.0088181846603
0.00221485273116
0.00837134091408
0.0021827896677
0.00793125945999
0.00215061288921
0.00749793403732
0.00211847277363
0.00707132807846
0.00208652280812
0.00665137132532
0.00205491780922
0.00623796186015
0.00202381466168
0.00583096338417
0.00199337026491
0.0054302073655
0.00196374177014
0.00503549109109
0.00193508438991
0.00464658000362
0.00190755127281
0.00426320654641
0.00188129132273
0.00388507265514
0.00185644885306
0.00351184926074
0.00183316157428
0.00314317864017
0.00181156023113
0.00277867427159
0.00179176710698
0.00241792237207
0.00177389611208
0.00206048188723
0.0017580530349
0.00170588739585
0.00174433816467
0.00135365313773
0.0017328478577
0.00100329905102
0.00172365933995
0.000654505359912
0.00171639486063
0.000308868521656
0.00170237184731
0.00152692415054
0.00160654270228
-0.00906600774765
0.0033860870932
-0.0100454183583
0.00515756248377
-0.0100068915395
0.0069014867255
-0.00986242242084
0.00860825996896
-0.00966704417738
0.0102694719542
-0.0094267196716
0.0118774914549
-0.00914508956974
0.0134255093229
-0.00882605534819
0.0149075875037
-0.00847381769053
0.0163186822668
-0.00809276652489
0.0176546466255
-0.00768736923822
0.0189122099029
-0.00726207093916
0.0200889428785
-0.0068212064712
0.0211832064711
-0.00636892822558
0.022194093069
-0.00590914688201
0.0231213575061
-0.00544548842003
0.0239653471776
-0.00498126332708
0.0247269273339
-0.00451945114453
0.0254074113282
-0.0040626952284
0.0260084907419
-0.00361331048116
0.0265321749664
-0.0031732976604
0.0269807335764
-0.00274436647607
0.0273566502387
-0.00232796009157
0.027662579556
-0.00192528333544
0.0279013146507
-0.00153732734282
0.0280757554676
-0.00116489420019
0.0281888854436
-0.000808615542424
0.028243746232
-0.000468970477633
0.0282434189002
-0.000146297940359
0.0281910017312
0.000159190208668
0.0280895942933
0.000447399713275
0.0279422766418
0.000718347268973
0.0277520977598
0.000972138457579
0.0275220575993
0.00120897181528
0.0272550971018
0.00142912439516
0.0269540846264
0.00163294231128
0.0266218086816
0.00182083369627
0.0262609671758
0.00199325941573
0.025874162665
0.00215072718291
0.0254638939031
0.00229378339917
0.0250325531104
0.00242300821008
0.024582419465
0.0025390081733
0.0241156581396
0.0026424119026
0.0236343156073
0.00273386322816
0.0231403203769
0.00281401713445
0.0226354801212
0.00288353321888
0.0221214841358
0.0029430718118
0.0215999023361
0.00299328771671
0.0210721894437
0.00303482657887
0.0205396858297
0.00306831907657
0.0200036233357
0.00309437778034
0.019465127803
0.00311359209438
0.018925226262
0.00312652593526
0.0183848507982
0.00313371377361
0.0178448466699
0.0031356594599
0.0173059770043
0.00313283364571
0.0167689312624
0.00312567395926
0.0162343301627
0.00311458392791
0.0157027338769
0.00309993452883
0.015174646587
0.00308206453074
0.0146505238503
0.00306128323346
0.0141307762959
0.00303787196382
0.0136157757417
0.00301208766108
0.0131058577133
0.00298416512557
0.0126013260865
0.00295432100726
0.0121024543102
0.00292275635476
0.0116094885538
0.00288966055575
0.0111226477128
0.00285521375624
0.0106421252197
0.00281959035734
0.0101680880609
0.00278296096531
0.0097006775374
0.00274549516452
0.00924000762135
0.00270736278238
0.00878616501724
0.00266873578925
0.0083392072165
0.00262978879652
0.00789916221675
0.00259070006448
0.00746602661335
0.00255165126579
0.00703976529605
0.00251282768176
0.00662030985725
0.00247441734576
0.0062075585154
0.00243661057737
0.00580137504224
0.00239959866822
0.00540158908419
0.00236357293464
0.00500799571956
0.0023287231281
0.00462035625958
0.00229523619742
0.00423839845397
0.00226329460884
0.00386181775746
0.00223307501379
0.00349027810276
0.00220474668171
0.00312341349337
0.00217847031831
0.00276082918016
0.00215439689394
0.00240210369004
0.00213266717143
0.00204679099484
0.00211341127024
0.00169442364375
0.00209674912559
0.00134452272398
0.00208279164458
0.000996617736337
0.00207160849705
0.000650364607885
0.00206268928677
0.000307239923993
0.00204553856835
0.00183418643074
0.00165319844642
-0.0107193718227
0.00348373447256
-0.0118761294325
0.0053049657785
-0.0118282996104
0.00709641138966
-0.0116540433326
0.008847815741
-0.011418622987
0.0105502258106
-0.0111293026615
0.0121955808077
-0.0107906159226
0.013776762417
-0.010407406401
0.0152876408737
-0.00998486351665
0.0167230920422
-0.00952838269397
0.0180789879065
-0.00904342758552
0.0193521643583
-0.00853540707562
0.0205403710445
-0.00800956993558
0.0216422069382
-0.00747091770955
0.0226570458301
-0.00692413610978
0.0235849548296
-0.0063735442252
0.0244266095806
-0.00582306132915
0.0251832090413
-0.0052761900259
0.025856393234
-0.00473601502655
0.0264481664571
-0.0042052152283
0.0269608285302
-0.0036860872295
0.0273969153107
-0.00318057646214
0.0277591492419
-0.00269031302617
0.0280503991739
-0.00221664781957
0.0282736482228
-0.00176068661324
0.0284319674916
-0.0013233191186
0.0285284937562
-0.00090524303357
0.0285664092265
-0.000506982529939
0.0285489224235
-0.000128903245909
0.0284792494194
0.000228775789875
0.0283605959198
0.000565970282974
0.0281961413772
0.000882723565694
0.0279890212526
0.00117918480989
0.0277423150349
0.00145560889963
0.0274590329512
0.00171234175815
0.0271421053574
0.00194980973602
0.0267943737164
0.00216850948592
0.0264185827512
0.00236899896824
0.0260173738991
0.00255188882327
0.025593279591
0.00271783479176
0.0251487186157
0.00286753032733
0.024685992112
0.00300169995485
0.0242072805995
0.00312109259163
0.0237146415995
0.00322647535894
0.0232100083589
0.00331862722712
0.0226951891882
0.00339833300401
0.0221718679966
0.0034663771536
0.0216416054763
0.00352353794466
0.0211058415542
0.00357058154663
0.0205658984734
0.00360825655211
0.0200229851207
0.00363728866539
0.0194782018755
0.00365837600502
0.018932546568
0.00367218483849
0.0183869207262
0.00367934612877
0.0178421366719
0.00368045275081
0.0172989245864
0.00367605766597
0.016757940088
0.00366667290489
0.0162197714138
0.00365276953033
0.0156849467565
0.00363477841859
0.0151539408687
0.00361309191306
0.0146271815172
0.00358806617465
0.0141050549404
0.00356002417789
0.0135879109435
0.00352925918662
0.0130760668508
0.00349603858184
0.0125698110066
0.00346060790619
0.0120694051045
0.00342319494186
0.0115750860938
0.00338401375194
0.0110870669979
0.00334326846971
0.0106055374407
0.00330115684989
0.0101306632418
0.00325787334469
0.00966258591124
0.00321361182135
0.00920142141612
0.00316856766907
0.0087472590617
0.00312293951415
0.00830015985037
0.00307693026947
0.00786015515584
0.00303074783429
0.00742724506265
0.00298460514774
0.00700139718856
0.0029387199859
0.00658254531592
0.00289331417682
0.00617058862638
0.00284861268308
0.00576539084572
0.00280484219609
0.00536678006269
0.00276222972905
0.00497454850886
0.00272100082642
0.00458845303769
0.00268137789798
0.00420821557012
0.00264357828113
0.00383352422976
0.00260781254306
0.00346403441723
0.00257428262951
0.00309937050403
0.00254318037009
0.00273912763701
0.00251468600175
0.00238287384907
0.00248896700133
0.00203015311966
0.00246617747446
0.00168049057881
0.00244645766213
0.00133339690177
0.00242992923501
0.000988384528159
0.00241666100414
0.000645076908358
0.00240604112175
0.000304854126867
0.00238580670174
0.00213906108609
0.00170942609086
-0.0124289659316
0.00360146716352
-0.0137683512736
0.00548265417624
-0.0137096657358
0.0073312448265
-0.0135028128888
0.00913617117627
-0.0132237266765
0.0108878192344
-0.0128811267827
0.0125776174941
-0.0124805884756
0.0141980895172
-0.0120280508413
0.015742895957
-0.0115298401477
0.0172068404462
-0.0109924950127
0.0185858452453
-0.010422597527
0.0198769016443
-0.00982662583094
0.0210780018834
-0.00921082942099
0.0221880562786
-0.00858112819227
0.0232068010572
-0.0079430334921
0.0241346992398
-0.007301591524
0.0249728396767
-0.00666134706966
0.0257228362141
-0.00602632809794
0.0263867323539
-0.00540004860974
0.0269669130568
-0.00478552936723
0.0274660285301
-0.00418533181362
0.0278869299367
-0.00360160278016
0.0282326196175
-0.00303612310822
0.0285062126464
-0.00249035689844
0.0287109095251
-0.00196549488904
0.0288499745653
-0.00146249109601
0.0289267190575
-0.000982089714154
0.0289444843524
-0.000524845482786
0.028906625814
-9.11375620203e-05
0.0288164948822
0.00031881843366
0.0286774198203
0.000704961877122
0.0284926940853
0.00106737039998
0.0282655558825
0.00140624890896
0.0279991753803
0.00172191981618
0.0276966433699
0.00201480890408
0.0273609606118
0.00228543206394
0.0269950300371
0.00253438424536
0.0266016491364
0.00276232837431
0.0261835045664
0.00296998637653
0.025743166508
0.00315813001724
0.0252830848854
0.00332757343593
0.0248055852227
0.00347916512784
0.0243128662748
0.00361378118768
0.023806997387
0.00373231774422
0.0232899176699
0.00383568438519
0.0227634350759
0.0039247966988
0.0222292273672
0.00400056969907
0.0216888431591
0.00406391045183
0.0211437048954
0.0041157116319
0.0205951120077
0.0041568445184
0.0200442459473
0.00418815310711
0.0194921753767
0.00421044800579
0.018939863022
0.00422450170504
0.0183881725012
0.00423104399885
0.01783787645
0.00423075900878
0.0172896643129
0.0042242826357
0.0167441509672
0.0042122017178
0.0162018846409
0.00419505373683
0.0156633551889
0.00417332816124
0.015129001316
0.00414746827869
0.0145992177429
0.004117874429
0.0140743610722
0.00408490752248
0.0135547553001
0.00404889360082
0.0130406959219
0.00401012839015
0.0125324535298
0.00396888248191
0.0120302760481
0.00392540619615
0.0115343904495
0.00387993466811
0.011045003284
0.00383269235185
0.0105623007881
0.00378389740845
0.0100864480759
0.00373376533769
0.00961758807648
0.00368251225734
0.00915583986569
0.00363035736242
0.00870129693199
0.00357752490347
0.00825402514476
0.00352424538966
0.00781406082638
0.00347075627739
0.00738140879822
0.00341730200703
0.00695604065921
0.00336413356226
0.00653789325129
0.00331150754804
0.00612686743851
0.00325968487012
0.00572282722055
0.00320892912173
0.00532559919629
0.00315950467027
0.00493497244196
0.00311167463671
0.00455069874271
0.00306569867835
0.00417249325633
0.00302183083341
0.0038000355162
0.00298031726947
0.00343297084483
0.00294139424162
0.00307091207742
0.00290528604763
0.00271344165977
0.00287220327543
0.00236011430772
0.00284234129385
0.00201046016188
0.00281587855254
0.00166398761098
0.00279297487609
0.00132019124731
0.00277376963109
0.000978562280347
0.00275833578473
0.000638682189483
0.00274596338097
0.000301865206644
0.00272266651746
0.00244094934983
0.0017761755078
-0.0142053135785
0.00374120295389
-0.0157335603905
0.00569343420232
-0.01566208064
0.00760957966312
-0.0154191403525
0.00947757345489
-0.0150919015968
0.0112870091203
-0.0146907418985
0.0130287171934
-0.0142224743266
0.014694818678
-0.0136943280371
0.0162787566505
-0.0131139516146
0.0177752856919
-0.012489195001
0.0191804260217
-0.0118279061229
0.0204913915555
-0.0111377566294
0.0217064983459
-0.0104260983896
0.0228250597854
-0.00969984840023
0.0238472721339
-0.00896540116581
0.0247740950892
-0.00822856603626
0.0256071300189
-0.00749452980528
0.026348501009
-0.00676784281619
0.0270007418512
-0.00605242916705
0.0275666948404
-0.00535161773458
0.02804942394
-0.00466819206398
0.0284521465648
-0.00400445200666
0.0287781830248
-0.00336228177121
0.0290309235896
-0.00274321495193
0.029213807507
-0.00214849176817
0.0293303106981
-0.00157910241299
0.0293839352163
-0.00103581774141
0.029378198717
-0.000519207583192
0.0293166201846
-2.96529648257e-05
0.0292027039232
0.00043264570699
0.0290399185412
0.000867662954568
0.0288316867277
0.00127552285225
0.0285813624448
0.00165649848549
0.0282922191323
0.0020109933065
0.027967437851
0.00233952494432
0.0276100986061
0.00264271085151
0.0272231724984
0.00292125437008
0.0268095161713
0.00317593337179
0.0263718662406
0.00340758931942
0.025912835328
0.00361711843678
0.0254349077536
0.00380546270199
0.0249404366443
0.00397360224346
0.0244316407853
0.00412254706265
0.0239106029596
0.00425332970184
0.0233792682685
0.00436699702678
0.0228394440814
0.00446460274195
0.0222928002316
0.00454719902291
0.0217408709806
0.00461582886242
0.0211850574557
0.00467151772559
0.020626631913
0.00471526609121
0.0200667425703
0.0047480416768
0.0195064201561
0.00477077288061
0.018946584922
0.00478434238085
0.0183880550523
0.00478958231599
0.0178315552236
0.00478727004993
0.0172777260759
0.00477812577292
0.0167271333898
0.00476281094092
0.0161802776177
0.00474192859527
0.0156376026532
0.00471602454316
0.0150995044357
0.00468559023539
0.0145663384072
0.0046510663121
0.0140384264069
0.00461284747361
0.0135160621843
0.00457128767758
0.0129995161221
0.00452670617984
0.0124890385292
0.00447939349779
0.0119848620928
0.00442961771159
0.0114872030264
0.00437763030906
0.0109962614793
0.0043236719195
0.0105122209055
0.0042679773069
0.0100352468978
0.00421077991538
0.00956548532221
0.00415231552532
0.00910306016454
0.00409282526522
0.00864807103379
0.00403255772654
0.00820059061281
0.00397177036833
0.00776066208837
0.00391073013329
0.00732829671541
0.00384971338821
0.00690347162224
0.00378900525849
0.00648612787229
0.0037288983825
0.00607616895653
0.00366969127624
0.00567345960165
0.00361168624404
0.00527782513096
0.00355518711822
0.00488905114081
0.00350049667874
0.00450688379732
0.00344791410366
0.0041310303997
0.00339773222766
0.00376116059408
0.0033502350015
0.00339690777937
0.00330569486801
0.00303787112255
0.00326437046362
0.00268361787842
0.00322650434397
0.00233368583864
0.00319232087231
0.00198758661661
0.00316202462624
0.00164481044452
0.00313579866194
0.00130482778445
0.00311379763412
0.000967100680878
0.00309610383846
0.000631182874031
0.00308192681308
0.000298326609649
0.00305556952956
0.00273929688578
0.00185460829279
-0.0160600971179
0.00390531068367
-0.0177844515358
0.00594078752477
-0.0176977442704
0.00793585954282
-0.0174143989718
0.00987725390622
-0.0170334808299
0.0117536233399