/*--------------------------------*- C++ -*----------------------------------*\
| =========                 |                                                 |
| \\      /  F ield         | OpenFOAM: The Open Source CFD Toolbox           |
|  \\    /   O peration     | Version:  v1906                                 |
|   \\  /    A nd           | Web:      www.OpenFOAM.com                      |
|    \\/     M anipulation  |                                                 |
\*---------------------------------------------------------------------------*/
FoamFile
{
    version     2.0;
    format      ascii;
    class       volVectorField;
    location    "318";
    object      Ua;
}
// * * * * * * * * * * * * * * * * * * * * * * * * * * * * * * * * * * * * * //

dimensions      [0 1 -1 0 0 0 0];


internalField   nonuniform List<vector> 
9216
(
(-0.0103796984544 0.0103905647746 0)
(-0.0109540008656 0.033534939607 3.93761040604e-27)
(-0.0109513518824 0.0570382235785 -7.09294066883e-31)
(-0.0108502406748 0.080551858647 0)
(-0.0107063610356 0.103678978673 0)
(-0.0105231404994 0.126326555551 0)
(-0.010305916262 0.148393680664 0)
(-0.0100569989814 0.169789321297 0)
(-0.00978026485227 0.190430998372 0)
(-0.00947754500325 0.210246188027 0)
(-0.00915293427002 0.229171216631 0)
(-0.00880810861539 0.247152633904 0)
(-0.00844734743829 0.264145899849 0)
(-0.0080720391202 0.280116422735 0)
(-0.00768648291418 0.295037983419 0)
(-0.00729163637676 0.308893483374 0)
(-0.00689169139561 0.321673198218 0)
(-0.00648709021491 0.333375317682 0)
(-0.00608184286492 0.344004152018 0)
(-0.00567584779424 0.353570560129 0)
(-0.00527291628742 0.36209020284 0)
(-0.0048724289886 0.369583918855 0)
(-0.00447801467262 0.376076108453 0)
(-0.00408858786984 0.381595105006 0)
(-0.0037076329159 0.38617172078 0)
(-0.00333366427754 0.389839614363 0)
(-0.00297005332692 0.392634021435 0)
(-0.00261497003892 0.394592117238 0)
(-0.00227169948212 0.395751918692 0)
(-0.00193812259308 0.396152620125 0)
(-0.00161746460194 0.395833636327 0)
(-0.00130730730575 0.394835069702 0)
(-0.0010107070183 0.393196618097 0)
(-0.000725056260564 0.390957777204 0)
(-0.000453428899558 0.388157596317 0)
(-0.000193020573545 0.384834643764 0)
(5.32048158716e-05 0.381026570678 0)
(0.000288225032744 0.376770197371 0)
(0.00050916708242 0.372101201273 0)
(0.000719143542118 0.36705413795 0)
(0.000915369691394 0.361662274666 0)
(0.00110105566137 0.355957524555 0)
(0.00127350878418 0.349970432595 0)
(0.00143600392731 0.343730030091 0)
(0.00158593744367 0.337263956642 0)
(0.00172661006274 0.330598225051 0)
(0.00185550739349 0.323757485655 0)
(0.00197592121755 0.316764713262 0)
(0.00208541992169 0.309641594749 0)
(0.00218724756946 0.302408132528 0)
(0.00227905292447 0.295083156695 0)
(0.00236400019254 0.287683858647 0)
(0.00243981197436 0.280226403925 0)
(0.00250954059489 0.272725392723 0)
(0.00257098233739 0.265194568572 0)
(0.00262705547833 0.257646219145 0)
(0.00267562878554 0.250091953441 0)
(0.00271946781838 0.242542040508 0)
(0.00275652044081 0.235006246949 0)
(0.00278939174636 0.227493126061 0)
(0.00281611542472 0.220010889333 0)
(0.00283913217379 0.212566644883 0)
(0.00285657478991 0.205167296221 0)
(0.00287072422616 0.197818742347 0)
(0.00287982424934 0.190526783053 0)
(0.00288600187638 0.183296281873 0)
(0.00288762679527 0.176132075826 0)
(0.00288668210203 0.169038114206 0)
(0.00288167416695 0.162018359308 0)
(0.00287444989906 0.155075904724 0)
(0.00286366262858 0.148213869481 0)
(0.00285103114259 0.141434508903 0)
(0.00283535999083 0.134740094489 0)
(0.00281824365158 0.128132022139 0)
(0.00279863984448 0.121611682514 0)
(0.00277802104107 0.115179577826 0)
(0.00275549428797 0.108836178475 0)
(0.00273240815192 0.102581052172 0)
(0.0027080129394 0.096413712197 0)
(0.00268352957895 0.090332766299 0)
(0.0026583411499 0.0843367551332 0)
(0.0026335332927 0.0784233226539 0)
(0.00260860850474 0.0725900517582 0)
(0.00258450434871 0.0668336627743 0)
(0.00256081908424 0.0611508532727 0)
(0.0025383102281 0.0555375427271 0)
(0.00251660764511 0.0499897545613 0)
(0.0024961645837 0.0445029934927 0)
(0.00247635391936 0.039073350926 0)
(0.00245663611586 0.0336974899011 0)
(0.00243436259216 0.0283751209666 0)
(0.00240351384894 0.0231131346239 0)
(0.00234196302895 0.0179541000493 0)
(0.00219639434137 0.0127921858581 0)
(0.00226538257068 0.00777666010669 0)
(0.0038552188545 0.00385612662152 0)
(-0.033601492851 0.0110507580583 0)
(-0.0371458141123 0.0374435654395 0)
(-0.0370622572992 0.0637659634031 -4.13354635836e-27)
(-0.036564298752 0.0901240914285 0)
(-0.0358726028945 0.116014516368 0)
(-0.035012774493 0.141353617596 0)
(-0.0340006914051 0.166034440758 0)
(-0.0328491887434 0.189956582874 0)
(-0.0315743640031 0.213028447183 0)
(-0.0301898387901 0.235168878414 0)
(-0.028712880658 0.256307086488 0)
(-0.0271572077468 0.276383390865 0)
(-0.0255402219959 0.295348636518 0)
(-0.0238746701269 0.313164484034 0)
(-0.0221770902123 0.329802470785 0)
(-0.020458416267 0.345243982523 0)
(-0.018733632778 0.35947909588 0)
(-0.0170113654528 0.372506355065 0)
(-0.0153046929079 0.384331526093 0)
(-0.0136197632915 0.394967289722 0)
(-0.0119676945517 0.404432016736 0)
(-0.0103522504286 0.412749463009 0)
(-0.00878273672928 0.41994764432 0)
(-0.0072607816263 0.426058583056 0)
(-0.00579413407673 0.431117319869 0)
(-0.00438259858168 0.435161725737 0)
(-0.0030326346994 0.43823165742 0)
(-0.00174252041199 0.440368823507 0)
(-0.000517665014992 0.441616068546 0)
(0.00064491490761 0.442017267768 0)
(0.00174065445004 0.44161674554 0)
(0.00277359434877 0.440459042931 0)
(0.00373995533925 0.438588702326 0)
(0.00464465450703 0.436050251965 0)
(0.00548440185221 0.432887471013 0)
(0.0062647653505 0.429143474482 0)
(0.0069829288303 0.4248604125 0)
(0.00764498515624 0.420079397488 0)
(0.00824847348273 0.414840310713 0)
(0.00879985953178 0.409181714038 0)
(0.00929694542257 0.403140741398 0)
(0.00974643260285 0.396752996553 0)
(0.0101463124755 0.390052529218 0)
(0.0105034012044 0.383071717412 0)
(0.0108158116371 0.37584132187 0)
(0.0110903589289 0.368390351055 0)
(0.0113252209394 0.360746192289 0)
(0.0115271087403 0.352934460314 0)
(0.0116942118145 0.344979197607 0)
(0.0118330402534 0.336902705909 0)
(0.0119417536922 0.328725811768 0)
(0.0120265810289 0.320467682184 0)
(0.0120856178058 0.312146144382 0)
(0.0121247447308 0.30377748392 0)
(0.0121419763593 0.295376810838 0)
(0.0121428018348 0.286957839868 0)
(0.0121251508796 0.27853328874 0)
(0.0120940967687 0.270114637389 0)
(0.0120475008077 0.261712548577 0)
(0.0119900212183 0.253336605082 0)
(0.0119194802016 0.244995738768 0)
(0.0118401383736 0.236697943175 0)
(0.0117498232644 0.228450703344 0)
(0.0116524326841 0.220260684595 0)
(0.0115458486619 0.212134153502 0)
(0.0114336471748 0.204076643173 0)
(0.0113138177003 0.196093362696 0)
(0.01118965976 0.188188843009 0)
(0.0110593167593 0.180367330944 0)
(0.0109258514479 0.172632419336 0)
(0.0107876006079 0.164987427751 0)
(0.0106474236716 0.157435023517 0)
(0.0105038763498 0.149977589358 0)
(0.0103596358472 0.142616840617 0)
(0.0102134905342 0.13535418418 0)
(0.0100679463242 0.128190338748 0)
(0.00992202345299 0.121125686743 0)
(0.00977805504362 0.114159902037 0)
(0.00963528182993 0.107292299292 0)
(0.00949585349509 0.100521474165 0)
(0.00935920834729 0.0938456517922 0)
(0.00922729066207 0.0872623418237 0)
(0.00909970223883 0.0807686903881 0)
(0.00897814429563 0.0743611539711 0)
(0.00886232166066 0.0680358582783 0)
(0.00875360783811 0.0617882966533 0)
(0.00865165794839 0.0556137032938 0)
(0.00855724210349 0.0495067798775 0)
(0.00846938986739 0.0434620445898 0)
(0.00838704422376 0.037473433803 0)
(0.00830581514757 0.0315340601744 0)
(0.00821628555535 0.0256335814897 0)
(0.00809422687052 0.0197523960956 0)
(0.00786724135944 0.0137903791179 0)
(0.00761602897753 0.00760114513501 0)
(0.00776647995571 0.0022591779344 0)
(-0.0575241657138 0.0111971169321 0)
(-0.0636875589459 0.0380575717789 0)
(-0.0634753779769 0.0647099730861 -4.13728528219e-27)
(-0.0626122686232 0.091449568704 0)
(-0.0614414075443 0.117710468802 0)
(-0.0599962252486 0.143403632486 0)
(-0.0582976651147 0.168418381917 0)
(-0.0563672934148 0.192651949797 0)
(-0.0542296754601 0.216011153439 0)
(-0.0519093442388 0.238413563997 0)
(-0.0494329023655 0.259787770276 0)
(-0.0468255501412 0.280073739059 0)
(-0.0441137663124 0.299222556842 0)
(-0.0413214648264 0.317196312592 0)
(-0.0384732888202 0.333967456269 0)
(-0.0355904413016 0.349518362796 0)
(-0.0326945946373 0.363840454937 0)
(-0.0298034133565 0.37693358731 0)
(-0.0269350487936 0.388805073687 0)
(-0.0241033542179 0.399469017198 0)
(-0.0213229102617 0.408945353265 0)
(-0.0186039186588 0.417259218135 0)
(-0.0159576864094 0.424440088349 0)
(-0.0133911823291 0.430521242802 0)
(-0.0109129047435 0.43553902878 0)
(-0.00852709396994 0.439532426169 0)
(-0.00623991807577 0.442542440604 0)
(-0.00405335706261 0.444611755497 0)
(-0.00197165950817 0.445784227095 0)
(5.06813577278e-06 0.446104597489 0)
(0.00187417682862 0.445618083125 0)
(0.00363712378141 0.444370130575 0)
(0.00529253456541 0.442406058629 0)
(0.00684310877801 0.439770898803 0)
(0.00828858142511 0.436509091797 0)
(0.00963269531767 0.432664321851 0)
(0.010876025338 0.428279302891 0)
(0.012023105651 0.423395641383 0)
(0.0130751681896 0.418053686178 0)
(0.0140373360931 0.412292415663 0)
(0.0149113255531 0.406149339415 0)
(0.0157026632868 0.399660403487 0)
(0.0164133958592 0.392859944759 0)
(0.017049285172 0.385780614155 0)
(0.0176125670268 0.378453375697 0)
(0.018109081838 0.370907443596 0)
(0.0185411253574 0.363170327908 0)
(0.0189144719083 0.355267786906 0)
(0.0192313576449 0.347223911579 0)
(0.0194973587334 0.339061089815 0)
(0.0197145473548 0.330800130076 0)
(0.0198881886695 0.322460237505 0)
(0.0200201053496 0.314059166575 0)
(0.0201151629157 0.305613203462 0)
(0.0201748762282 0.29713734445 0)
(0.0202036545075 0.288645281686 0)
(0.0202026768505 0.280149594482 0)
(0.0201758737078 0.271661730657 0)
(0.0201240945985 0.263192205444 0)
(0.0200508043726 0.254750574262 0)
(0.0199565594073 0.246345626854 0)
(0.0198444020151 0.237985344653 0)
(0.0197146576959 0.229677086552 0)
(0.0195700125975 0.221427528927 0)
(0.0194106386862 0.213242834895 0)
(0.0192389439596 0.205128574195 0)
(0.0190550301424 0.197089876776 0)
(0.0188611070583 0.189131334796 0)
(0.0186572836406 0.181257137956 0)
(0.0184456424258 0.173470959407 0)
(0.0182263639203 0.165776077783 0)
(0.018001458891 0.158175252568 0)
(0.0177712237781 0.150670834093 0)
(0.0175376324028 0.143264632628 0)
(0.0173011201259 0.135958022799 0)
(0.017063637775 0.128751812479 0)
(0.0168257605776 0.121646343862 0)
(0.0165894098127 0.1146413661 0)
(0.0163552826636 0.107736138513 0)
(0.0161252470723 0.100929311257 0)
(0.0159000871167 0.0942190319491 0)
(0.0156815770542 0.0876028362719 0)
(0.0154705361464 0.0810777610251 0)
(0.015268584571 0.0746402457616 0)
(0.0150764967567 0.0682862500966 0)
(0.0148956343841 0.0620111615624 0)
(0.0147265729961 0.0558099052695 0)
(0.0145701834032 0.0496768186311 0)
(0.0144264675281 0.0436056565954 0)
(0.0142952247411 0.0375891985636 0)
(0.0141750522012 0.0316185571648 0)
(0.0140639193147 0.0256811070904 0)
(0.0139599094145 0.0197565102147 0)
(0.0138639824791 0.0137955895067 0)
(0.013789270549 0.00781098774326 0)
(0.0127575885139 0.00218242160859 0)
(-0.0820029794727 0.0113252804308 0)
(-0.0908601413326 0.0386328093207 0)
(-0.0905485015822 0.0656281901208 4.13536119627e-27)
(-0.0893020651809 0.0927318026766 0)
(-0.0876137337533 0.11934085966 0)
(-0.085533147006 0.145361312559 0)
(-0.0830898520987 0.170678231801 0)
(-0.0803155013095 0.195185856594 0)
(-0.0772449223142 0.218788996346 0)
(-0.0739143714526 0.241403953661 0)
(-0.0703615374905 0.262958833493 0)
(-0.0666237276739 0.283393705823 0)
(-0.0627382079153 0.302660393991 0)
(-0.058740423594 0.32072214944 0)
(-0.05466471324 0.337553038216 0)
(-0.0505425963652 0.353137292771 0)
(-0.0464038676557 0.367468459992 0)
(-0.0422749521275 0.380548587117 0)
(-0.0381803527191 0.3923872804 0)
(-0.0341410474897 0.403000861272 0)
(-0.0301762358756 0.412411459396 0)
(-0.0263017272905 0.4206462434 0)
(-0.0225319087745 0.427736629357 0)
(-0.0188780664644 0.433717639243 0)
(-0.0153504965366 0.438627253365 0)
(-0.011956710486 0.442505900681 0)
(-0.00870363081052 0.445395939496 0)
(-0.00559566473396 0.447341250007 0)
(-0.0026369592064 0.448386810311 0)
(0.000170645549661 0.448578360802 0)
(0.00282531007646 0.44796204705 0)
(0.00532733434431 0.446584171803 0)
(0.00767675342335 0.444490808349 0)
(0.00987559965913 0.441727646644 0)
(0.0119254939415 0.43833974765 0)
(0.0138298869943 0.434371329294 0)
(0.0155916264548 0.429865588071 0)
(0.0172152560333 0.424864547277 0)
(0.0187045669777 0.419408919342 0)
(0.020064918912 0.413537989864 0)
(0.0213007902904 0.407289522495 0)
(0.0224181070943 0.400699673708 0)
(0.0234218062043 0.393802936217 0)
(0.0243181539854 0.386632080595 0)
(0.025112334447 0.379218134163 0)
(0.0258107441387 0.371590348502 0)
(0.0264186191799 0.363776212504 0)
(0.0269422913556 0.355801443984 0)
(0.0273868670492 0.347690034584 0)
(0.0277584348221 0.339464264553 0)
(0.0280618111199 0.331144777105 0)
(0.0283026883753 0.322750612982 0)
(0.0284854602932 0.31429930905 0)
(0.0286153041325 0.305806948497 0)
(0.0286960983883 0.297288277628 0)
(0.0287324307855 0.28875676485 0)
(0.0287276174114 0.280224726933 0)
(0.0286856310997 0.271703389641 0)
(0.0286092294489 0.263203015225 0)
(0.0285017954931 0.254732956717 0)
(0.0283655776997 0.246301777788 0)
(0.0282034373239 0.237917294332 0)
(0.0280172018906 0.229586680561 0)
(0.0278093113606 0.221316492904 0)
(0.0275812833835 0.213112757535 0)
(0.0273352532991 0.204980974571 0)
(0.0270725491733 0.196926186082 0)
(0.0267951196304 0.188952960891 0)
(0.0265042152758 0.181065443713 0)
(0.0262017018609 0.173267323468 0)
(0.0258888457206 0.165561867381 0)
(0.025567509744 0.157951877165 0)
(0.0252390402551 0.150439712252 0)
(0.0249053466941 0.143027239165 0)
(0.0245678887262 0.135715849461 0)
(0.0242286405697 0.128506407539 0)
(0.0238891770505 0.121399267667 0)
(0.0235515259287 0.114394224815 0)
(0.0232173523787 0.107490535185 0)
(0.0228887019328 0.100686873616 0)
(0.0225672822472 0.0939813598037 0)
(0.0222550999974 0.0873715240139 0)
(0.0219538383612 0.08085434001 0)
(0.0216653888464 0.0744261983088 0)
(0.0213913206384 0.0680829417833 0)
(0.0211333064339 0.0618198380043 0)
(0.0208926776397 0.0556316012266 0)
(0.0206707453612 0.0495123291604 0)
(0.0204684534928 0.0434554389177 0)
(0.0202866718995 0.0374534370913 0)
(0.0201261751746 0.0314976045031 0)
(0.0199885461465 0.0255773023572 0)
(0.0198780067876 0.0196795109222 0)
(0.0198017761765 0.0137835972882 0)
(0.0196984840876 0.00797290882703 0)
(0.0178576788116 0.00231313970706 0)
(-0.106878535508 0.0114899341832 0)
(-0.118436634506 0.0393867833058 0)
(-0.118019353496 0.066856670881 0)
(-0.116374478267 0.094448312618 0)
(-0.114147320683 0.121521449708 0)
(-0.111404737892 0.147976597995 0)
(-0.108186382633 0.173693634971 0)
(-0.104534872492 0.198562877736 0)
(-0.100496543084 0.222486409644 0)
(-0.0961199777529 0.245378900391 0)
(-0.0914550694002 0.267167856146 0)
(-0.0865516014544 0.287793637976 0)
(-0.0814586006842 0.307209170604 0)
(-0.0762231487701 0.325379450686 0)
(-0.0708900842573 0.342280839913 0)
(-0.065501075599 0.35790024705 0)
(-0.0600946780509 0.372234184589 0)
(-0.054705658586 0.385287797651 0)
(-0.0493653764175 0.397073849979 0)
(-0.0441013149672 0.407611753755 0)
(-0.0389377181063 0.416926621659 0)
(-0.0338952505868 0.425048412515 0)
(-0.0289917930142 0.43201113832 0)
(-0.0242421339065 0.437852181855 0)
(-0.0196588224266 0.442611679259 0)
(-0.0152518113813 0.446331998712 0)
(-0.0110293009048 0.449057265345 0)
(-0.00699729871348 0.450832953515 0)
(-0.00316043737004 0.451705502005 0)
(0.000478537368943 0.451721975071 0)
(0.00391796282922 0.450929728059 0)
(0.00715783107782 0.449376175199 0)
(0.0101989087814 0.447108362414 0)
(0.0130434059242 0.444172887275 0)
(0.015694134062 0.440615614416 0)
(0.0181551064223 0.436481468962 0)
(0.0204307239434 0.431814271568 0)
(0.0225263977306 0.426656586578 0)
(0.0244477417595 0.421049591863 0)
(0.0262012087309 0.415032966622 0)
(0.0277932927113 0.408644799064 0)
(0.0292311717387 0.401921506447 0)
(0.0305219219584 0.394897777358 0)
(0.031673159482 0.387606521681 0)
(0.0326922681435 0.380078843906 0)
(0.0335870348789 0.372344021159 0)
(0.0343648941613 0.364429507928 0)
(0.0350335527381 0.35636094249 0)
(0.0356002557173 0.348162180722 0)
(0.0360723991723 0.339855329247 0)
(0.0364568238381 0.331460807466 0)
(0.0367604152984 0.322997405422 0)
(0.0369894320216 0.314482368498 0)
(0.0371500941643 0.305931474337 0)
(0.0372479518397 0.297359134876 0)
(0.0372884627579 0.288778485645 0)
(0.0372764051219 0.280201495453 0)
(0.0372164435793 0.271639058628 0)
(0.0371125885134 0.263101104287 0)
(0.0369687475106 0.254596683016 0)
(0.0367882303269 0.246134065859 0)
(0.0365742818531 0.237720816983 0)
(0.0363296296234 0.229363876545 0)
(0.0360569925516 0.221069614178 0)
(0.0357586664125 0.212843890482 0)
(0.035437002668 0.204692088253 0)
(0.035094026701 0.196619152423 0)
(0.034731881054 0.188629599878 0)
(0.0343524716056 0.180727538773 0)
(0.0339578712113 0.172916659743 0)
(0.0335499900771 0.165200239529 0)
(0.0331309370997 0.157581118938 0)
(0.0327027121709 0.150061695464 0)
(0.0322675247638 0.142643893629 0)
(0.0318275073906 0.135329153091 0)
(0.0313849922244 0.128118397369 0)
(0.0309422460628 0.121012022084 0)
(0.0305017072525 0.114009866793 0)
(0.0300657432369 0.107111208099 0)
(0.02963685024 0.100314738268 0)
(0.0292174345751 0.093618565201 0)
(0.0288099778107 0.0870201993118 0)
(0.0284168428843 0.0805165610131 0)
(0.0280404068344 0.0741039746794 0)
(0.0276828927032 0.067778179568 0)
(0.0273464734473 0.0615343239051 0)
(0.0270331352476 0.0553669694159 0)
(0.0267447688424 0.0492700642756 0)
(0.026483102682 0.0432369204648 0)
(0.0262498709027 0.0372601477141 0)
(0.026047001642 0.0313315893995 0)
(0.0258772141752 0.0254423949343 0)
(0.0257447020433 0.019583625076 0)
(0.0256500481248 0.0137422400925 0)
(0.0254744961625 0.00800763203027 0)
(0.0229086455238 0.0023548490011 0)
(-0.132289725377 0.011695363836 0)
(-0.146590761356 0.0403470708638 0)
(-0.146055549785 0.0684300659991 0)
(-0.143989006908 0.0966482052625 0)
(-0.141192303902 0.124315178246 0)
(-0.137750577568 0.151325004593 0)
(-0.133714988047 0.177551268312 0)
(-0.129140383396 0.202879436193 0)
(-0.124086009631 0.227208221071 0)
(-0.118613889966 0.250450350473 0)
(-0.112787344526 0.272532717595 0)
(-0.10666948206 0.293396247172 0)
(-0.100322056603 0.312995454223 0)
(-0.0938043192851 0.331297769886 0)
(-0.0871722873491 0.348282667312 0)
(-0.0804779865442 0.36394065826 0)
(-0.0737691343594 0.378272189567 0)
(-0.0670887536977 0.391286504774 0)
(-0.0604752299432 0.403000495708 0)
(-0.0539622361607 0.413437602154 0)
(-0.04757907898 0.422626776322 0)
(-0.0413508277365 0.430601554206 0)
(-0.0352988196997 0.437399232368 0)
(-0.0294408556767 0.443060168223 0)
(-0.0237917278412 0.447627181538 0)
(-0.0183633655067 0.451145053604 0)
(-0.0131652990711 0.453660090713 0)
(-0.00820471197086 0.455219743086 0)
(-0.00348683184426 0.455872252709 0)
(0.000985089443168 0.455666329961 0)
(0.00520942434334 0.454650832735 0)
(0.00918625106491 0.452874565173 0)
(0.0129168954937 0.450385776682 0)
(0.0164041389698 0.447232206752 0)
(0.0196518097988 0.443460715393 0)
(0.0226648687939 0.439117110007 0)
(0.0254490778105 0.43424598512 0)
(0.0280110916897 0.428890577428 0)
(0.0303581416374 0.42309264108 0)
(0.0324981419468 0.416892342134 0)
(0.0344393867629 0.410328169698 0)
(0.0361906670866 0.40343686272 0)
(0.0377609780502 0.396253352124 0)
(0.0391596402474 0.388810716601 0)
(0.0403960148707 0.381140154459 0)
(0.0414796262551 0.373270968381 0)
(0.0424198850072 0.365230567263 0)
(0.0432262101999 0.357044480054 0)
(0.0439077626499 0.348736387949 0)
(0.0444735687801 0.340328167364 0)
(0.0449322689356 0.331839951291 0)
(0.0452922458157 0.323290198779 0)
(0.0455613934413 0.314695781579 0)
(0.0457472546837 0.30607207513 0)
(0.0458568166511 0.297433063633 0)
(0.0458966600167 0.288791444211 0)
(0.0458727843233 0.280158740932 0)
(0.045790770586 0.271545412367 0)
(0.045655637506 0.262960964068 0)
(0.0454720151822 0.254414049041 0)
(0.0452440296859 0.245912568607 0)
(0.044975483899 0.23746375699 0)
(0.0446697655437 0.229074262733 0)
(0.0443300284405 0.220750210998 0)
(0.043959117055 0.212497260751 0)
(0.0435597413801 0.204320642134 0)
(0.0431344109207 0.196225188477 0)
(0.0426855960656 0.188215349423 0)
(0.0422156649356 0.18029520011 0)
(0.0417270261871 0.172468434022 0)
(0.0412220641145 0.164738354462 0)
(0.0407032593119 0.157107852979 0)
(0.0401731193836 0.149579389555 0)
(0.0396342767208 0.14215496341 0)
(0.0390894145101 0.134836088716 0)
(0.0385413423297 0.127623764169 0)
(0.037992918635 0.120518450085 0)
(0.0374471066882 0.113520042041 0)
(0.0369068958724 0.10662785396 0)
(0.0363753407035 0.0998405994709 0)
(0.0358554836098 0.0931563834396 0)
(0.0353503803416 0.0865726926482 0)
(0.0348630271125 0.0800863961452 0)
(0.0343963757187 0.0736937444245 0)
(0.0339532688803 0.0673903760893 0)
(0.0335364512748 0.0611713217101 0)
(0.0331485227982 0.0550310131408 0)
(0.0327919636582 0.0489632902261 0)
(0.0324691380187 0.0429614133956 0)
(0.0321823926637 0.0370180902034 0)
(0.031934199082 0.031125610709 0)
(0.0317273949012 0.0252760270216 0)
(0.0315650413088 0.019461666451 0)
(0.0314422663965 0.0136705186184 0)
(0.0312013420839 0.00798752781178 0)
(0.0280006764732 0.0023610193629 0)
(-0.158369324551 0.0119467422633 0)
(-0.175473984815 0.0415313933785 0)
(-0.174803602384 0.0703726600846 4.15887833318e-27)
(-0.172284236086 0.0993643346275 0)
(-0.168877624769 0.127762756766 0)
(-0.164688625789 0.155453930558 0)
(-0.159781511036 0.18230378258 0)
(-0.154225002585 0.208191957031 0)
(-0.148092943147 0.233013201149 0)
(-0.141462317411 0.256678089415 0)
(-0.134411323262 0.279113028388 0)
(-0.127017588881 0.300259931534 0)
(-0.119356683186 0.320075568805 0)
(-0.111500821597 0.338530663361 0)
(-0.103517892191 0.355608794772 0)
(-0.0954706701336 0.371305166927 0)
(-0.0874163496766 0.38562529338 0)
(-0.0794062379865 0.39858365194 0)
(-0.0714857444057 0.410202358704 0)
(-0.0636944810127 0.420509908396 0)
(-0.0560666048593 0.429540022005 0)
(-0.0486311863788 0.437330632545 0)
(-0.0414127331858 0.443923025297 0)
(-0.0344316356044 0.449361132536 0)
(-0.0277046822165 0.453690965788 0)
(-0.0212454203286 0.456960158321 0)
(-0.0150645497361 0.459217583837 0)
(-0.00917014600262 0.46051302156 0)
(-0.00356793771272 0.460896843254 0)
(0.00173855962192 0.460419712023 0)
(0.00674781558719 0.459132274886 0)
(0.0114602251207 0.457085002314 0)
(0.0158777221171 0.454327573199 0)
(0.0200038827475 0.450909096587 0)
(0.0238435936056 0.446877615536 0)
(0.0274029758891 0.442279988125 0)
(0.030689178536 0.437161728387 0)
(0.0337102988119 0.43156686943 0)
(0.0364751961465 0.425537847916 0)
(0.0389934319979 0.41911540542 0)
(0.0412751010021 0.412338506247 0)
(0.0433307836091 0.405244268159 0)
(0.0451713881256 0.397867908808 0)
(0.0468081094764 0.390242703747 0)
(0.0482522775851 0.382399960782 0)
(0.049515318511 0.374369006169 0)
(0.0506086076433 0.366177188818 0)
(0.0515434329815 0.357849897049 0)
(0.0523308552347 0.349410593895 0)
(0.0529816764798 0.340880865461 0)
(0.0535063120501 0.332280487356 0)
(0.0539147703047 0.323627503378 0)
(0.0542165430929 0.314938319135 0)
(0.0544206032693 0.306227805548 0)
(0.0545353200891 0.297509412515 0)
(0.0545684797678 0.288795288284 0)
(0.0545272300409 0.280096402244 0)
(0.0544181260429 0.271422668227 0)
(0.0542471044986 0.262783064721 0)
(0.0540195532405 0.254185750053 0)
(0.05374031169 0.24563816835 0)
(0.053413758711 0.237147145795 0)
(0.0530438326347 0.228718973766 0)
(0.0526341293789 0.220359478963 0)
(0.0521879333489 0.212074078398 0)
(0.0517083166567 0.203867820168 0)
(0.051198171739 0.195745409778 0)
(0.0506603028548 0.187711222917 0)
(0.050097452466 0.179769306109 0)
(0.0495123781269 0.171923366274 0)
(0.0489078669329 0.164176752119 0)
(0.0482867935607 0.156532427797 0)
(0.0476521200148 0.148992942564 0)
(0.0470069336238 0.141560396498 0)
(0.0463544320401 0.134236406357 0)
(0.0456979424208 0.127022070856 0)
(0.0450408937506 0.11991793918 0)
(0.0443868202315 0.112923981713 0)
(0.0437393242207 0.106039566173 0)
(0.043102067592 0.0992634377577 0)
(0.0424787290847 0.0925937054638 0)
(0.0418729877786 0.0860278333742 0)
(0.0412884789363 0.0795626378185 0)
(0.040728774096 0.0731942895718 0)
(0.0401973405188 0.0669183206599 0)
(0.0396975246899 0.0607296363941 0)
(0.0392325246508 0.054622533937 0)
(0.0388053904401 0.0485907256652 0)
(0.0384190297486 0.0426273901572 0)
(0.0380762490239 0.0367252460921 0)
(0.0377798094169 0.0308766572541 0)
(0.0375324683021 0.0250738835317 0)
(0.0373363957015 0.0193094324851 0)
(0.037183164745 0.0135704093665 0)
(0.0368830470347 0.00793648842859 0)
(0.0330776630298 0.00235343362373 0)
(-0.185262212275 0.0122482186588 0)
(-0.205246584385 0.0429593982007 0)
(-0.204419194258 0.0727143871263 -4.15666159861e-27)
(-0.201407386459 0.102637174465 0)
(-0.197339718991 0.131913945156 0)
(-0.192342825217 0.160420797734 0)
(-0.186496150787 0.188014457542 0)
(-0.179884413294 0.214567718889 0)
(-0.17259814619 0.239970837673 0)
(-0.164731233635 0.26413215934 0)
(-0.156378509939 0.286977914899 0)
(-0.147633625579 0.308451639924 0)
(-0.138587240652 0.328513245798 0)
(-0.129325529578 0.347137831006 0)
(-0.119929020612 0.364314299136 0)
(-0.110471731175 0.380043849825 0)
(-0.101020623042 0.394338395647 0)
(-0.0916353277268 0.407218965912 0)
(-0.0823681638595 0.418714150825 0)
(-0.0732643741297 0.428858647374 0)
(-0.0643625843343 0.437691955236 0)
(-0.055695378314 0.445257265933 0)
(-0.0472899715357 0.45160056205 0)
(-0.0391688610776 0.456769925444 0)
(-0.0313504468381 0.460815023634 0)
(-0.0238495278907 0.463786730686 0)
(-0.0166777183105 0.465736827857 0)
(-0.00984373364612 0.466717739073 0)
(-0.00335363529889 0.466782268024 0)
(0.00278899856338 0.465983321412 0)
(0.00858286523505 0.464373614924 0)
(0.0140288751979 0.462005558505 0)
(0.0191297133909 0.458930488315 0)
(0.0238899280408 0.455199099338 0)
(0.028315595339 0.450860802036 0)
(0.0324141716071 0.445963665827 0)
(0.0361943038803 0.440554260563 0)
(0.0396656863968 0.434677532671 0)
(0.0428388986879 0.428376699709 0)
(0.0457252875759 0.421693162207 0)
(0.0483368264063 0.414666427539 0)
(0.0506860130177 0.407334047672 0)
(0.0527857399457 0.39973156738 0)
(0.0546491992768 0.391892486427 0)
(0.0562897567761 0.383848233746 0)
(0.0577208592396 0.375628157067 0)
(0.0589559104021 0.367259526849 0)
(0.0600081807331 0.358767557084 0)
(0.0608906874019 0.350175442811 0)
(0.0616161109934 0.341504414941 0)
(0.0621966860896 0.332773812673 0)
(0.0626441324042 0.324001171595 0)
(0.0629695649225 0.315202328026 0)
(0.063183448305 0.306391534977 0)
(0.0632955354646 0.297581590213 0)
(0.0633148521221 0.288783969617 0)
(0.0632496695347 0.280008966483 0)
(0.0631075222823 0.271265828726 0)
(0.0628952161264 0.262562894962 0)
(0.0626188768875 0.253907721288 0)
(0.0622839890625 0.245307200437 0)
(0.0618954692151 0.236767665934 0)
(0.0614577267802 0.228294983732 0)
(0.0609747518432 0.219894625416 0)
(0.0604501868715 0.21157172645 0)
(0.0598874175293 0.203331125284 0)
(0.0592896437225 0.195177387621 0)
(0.0586599625109 0.18711481332 0)
(0.0580014283315 0.179147430951 0)
(0.0573171196432 0.171278978729 0)
(0.0566101813662 0.163512877126 0)
(0.0558838702422 0.155852192612 0)
(0.0551415762455 0.148299597789 0)
(0.0543868455485 0.140857327463 0)
(0.0536233812945 0.13352713554 0)
(0.0528550460266 0.126310251937 0)
(0.0520858448002 0.119207343875 0)
(0.0513199110548 0.112218480162 0)
(0.0505614765738 0.105343102236 0)
(0.049814845512 0.0985799999526 0)
(0.0490843562054 0.091927295226 0)
(0.0483743483672 0.0853824312119 0)
(0.0476891219181 0.0789421692707 0)
(0.0470329024632 0.0726025917624 0)
(0.0464098027809 0.0663591121102 0)
(0.0458237928242 0.0602064915556 0)
(0.0452786712512 0.0541388654046 0)
(0.0447780483462 0.0481497830702 0)
(0.0443253357712 0.0422322614254 0)
(0.0439237481845 0.0363788634083 0)
(0.0435762995735 0.0305818649271 0)
(0.0432857314505 0.0248333423018 0)
(0.0430537731495 0.0191252570122 0)
(0.0428696988973 0.0134438449801 0)
(0.0425142795477 0.00786427457786 0)
(0.0381185220787 0.0023384093555 0)
(-0.213127045192 0.0126043818069 0)
(-0.236082136146 0.0446548693507 0)
(-0.235070392418 0.0754925649261 0)
(-0.231516714907 0.106517375563 0)
(-0.226724337729 0.136830788511 0)
(-0.22084445201 0.166296870643 0)
(-0.213974371077 0.194761423652 0)
(-0.206217522235 0.222089368547 0)
(-0.19768374626 0.248166055991 0)
(-0.188486221656 0.272897725352 0)
(-0.17873854485 0.296210992016 0)
(-0.168552194517 0.318051919599 0)
(-0.158034417017 0.33838473243 0)
(-0.147286512656 0.357190267812 0)
(-0.136402515733 0.374464249533 0)
(-0.125468240374 0.390215440332 0)
(-0.114560692064 0.404463736863 0)
(-0.103747823242 0.417238261342 0)
(-0.0930886297959 0.428575523026 0)
(-0.0826335461658 0.438517715839 0)
(-0.0724251000533 0.44711122703 0)
(-0.0624987375629 0.454405407604 0)
(-0.0528837371394 0.460451636926 0)
(-0.0436040978231 0.465302669455 0)
(-0.034679329018 0.469012220439 0)
(-0.0261250717483 0.471634713736 0)
(-0.0179535535653 0.473225110405 0)
(-0.0101738873283 0.473838745296 0)
(-0.00279228023164 0.473531129539 0)
(0.0041878129123 0.472357684341 0)
(0.0107655110455 0.470373539458 0)
(0.0169423670075 0.467633139343 0)
(0.0227220602832 0.464189880709 0)
(0.0281102882036 0.460096192545 0)
(0.0331144928229 0.455403038198 0)
(0.0377436462882 0.450159846587 0)
(0.0420080455153 0.444414368867 0)
(0.0459191356441 0.43821256978 0)
(0.049489343051 0.431598537695 0)
(0.0527319326197 0.424614407162 0)
(0.0556608675419 0.417300292689 0)
(0.0582906843847 0.409694230471 0)
(0.0606363642649 0.4018321317 0)
(0.0627132129822 0.39374774452 0)
(0.0645367345007 0.385472630864 0)
(0.0661225104142 0.377036154457 0)
(0.0674860730163 0.368465487451 0)
(0.0686427843688 0.359785631254 0)
(0.0696077118753 0.351019458753 0)
(0.0703955127726 0.342187773297 0)