/*--------------------------------*- C++ -*----------------------------------*\
| =========                 |                                                 |
| \\      /  F ield         | OpenFOAM: The Open Source CFD Toolbox           |
|  \\    /   O peration     | Version:  v1906                                 |
|   \\  /    A nd           | Web:      www.OpenFOAM.com                      |
|    \\/     M anipulation  |                                                 |
\*---------------------------------------------------------------------------*/
FoamFile
{
    version     2.0;
    format      ascii;
    class       volScalarField;
    location    "675";
    object      pa;
}
// * * * * * * * * * * * * * * * * * * * * * * * * * * * * * * * * * * * * * //

dimensions      [0 2 -2 0 0 0 0];


internalField   nonuniform List<scalar> 
9216
(
915.253168924
914.947660483
914.3156433
913.351622742
912.061012806
910.449869855
908.52574523
906.297542934
903.775404366
900.970556165
897.89519844
894.562343907
890.985707084
887.179541416
883.158538122
878.937670023
874.532107169
869.957073505
865.227783468
860.359314641
855.366566655
850.264150384
845.066368191
839.787118409
834.439894643
829.03770334
823.593079331
818.118014187
812.623985329
807.121893088
801.622100761
796.134380603
790.667963256
785.231485657
779.833049563
774.480177173
769.179874502
763.938589996
758.762282903
753.656384925
748.625872102
743.675228744
738.808521641
734.029365687
729.34099936
724.7462515
720.247617058
715.847224568
711.546911245
707.348190727
703.252326655
699.260300345
695.372882102
691.590598553
687.913801044
684.342632521
680.877092535
677.517003663
674.262072818
671.111857377
668.065822675
665.123308134
662.283580961
659.545802696
656.909079284
654.372428504
651.934826634
649.595177275
647.352354869
645.205175367
643.152436844
641.192892418
639.32528814
637.548338464
635.860761531
634.261257377
632.748540651
631.321321644
629.978336392
628.718330514
627.540086606
626.442410776
625.424157158
624.484216997
623.621540035
622.835125887
622.124041903
621.487416256
620.924451233
620.434415781
620.016649114
619.670541006
619.39549409
619.190768535
619.053714962
618.996325123
915.557678238
915.250441383
914.616775123
913.648397358
912.351580763
910.7326687
908.799378482
906.560760405
904.027094083
901.209753393
898.121080778
894.774239149
891.183082696
887.362008767
883.32583657
879.089668577
874.668784755
870.078519609
865.334176244
860.450921944
855.443723352
850.327260799
845.115883571
839.823541334
834.463757104
829.049573241
823.59353931
818.107670079
812.603445683
807.091779486
801.583028682
796.086968983
790.612813933
785.169198572
779.764204163
774.405345724
769.099603318
763.853414248
758.672708414
753.56290377
748.528944832
743.575300571
738.706005096
733.924657237
729.234462504
724.638233687
720.138433247
715.737174324
711.43626278
707.237198048
703.141214115
699.149279714
695.262137625
691.480303809
687.804104522
684.233674119
680.768989632
677.409867129
674.155993565
671.006921752
667.962099473
665.020863258
662.182464909
659.446064399
656.810754069
654.275551055
651.839419474
649.501262808
647.259944424
645.114280322
643.06305829
641.105031363
639.238935868
637.463485839
635.77739011
634.179347847
632.668064749
631.242249755
629.90063033
628.641950306
627.464984167
626.368535908
625.351452164
624.412621921
623.550988281
622.765548814
622.055365703
621.41956648
620.857352369
620.367999508
619.950866893
619.605404234
619.331178957
619.12797176
618.996174423
618.938884039
916.191149066
915.879183173
915.2397547
914.262673092
912.954309298
911.321144374
909.371088937
907.11341468
904.558637699
901.718382728
898.605246359
895.232650082
891.614699628
887.766039838
883.701722213
879.437071573
874.987569748
870.368740143
865.596051837
860.684824694
855.65015491
850.506840438
845.269326596
839.951649646
834.567399713
829.129679563
823.651081762
818.143659831
812.618917015
807.087787531
801.560634955
796.047241365
790.556814072
785.097982019
779.67880833
774.306792288
768.9888873
763.731507359
758.540549002
753.421401146
748.378970034
743.417691548
738.541558229
733.754133269
729.058578791
724.457670779
719.953827848
715.549126442
711.245329372
707.043900643
702.946033097
698.952662304
695.064492728
691.282010213
687.605506201
684.035088475
680.570703138
677.212143428
673.95906932
670.811014425
667.767403268
664.827556428
661.990705692
659.255997755
656.622507561
654.089240943
651.655146541
649.319117801
647.080003862
644.936611311
642.887714382
640.932056811
639.06836162
637.295333316
635.611667435
634.016053217
632.507183005
631.083755426
629.744484613
628.488103858
627.313374562
626.219090229
625.204084994
624.267237795
623.4074803
622.623801074
621.915252754
621.280956158
620.720106863
620.231979957
619.815938007
619.471441009
619.198065681
618.995553266
618.864094862
618.801915757
917.165012522
916.847600703
916.199168705
915.208489548
913.882129109
912.226800407
910.250708145
907.963462064
905.375946195
902.50017414
899.34914074
895.936668592
892.27725734
888.385934339
884.278114052
879.96946314
875.475778089
870.812870796
865.996468517
861.042122213
855.965129381
850.7804643
845.502721687
840.146065937
834.724192175
829.250290902
823.737022932
818.196496272
812.640252169
807.079251899
801.523871945
795.983899001
790.468533216
784.986389259
779.545505764
774.15335287
768.816846325
763.542359358
758.335740684
753.202329712
748.146977436
743.174064057
738.287521887
733.490854596
728.787161327
724.179156834
719.669196079
715.259294553
710.951152651
706.746175505
702.645496485
698.649995938
694.760323214
690.976913798
687.300009409
683.729673142
680.26580733
676.908166499
673.656372888
670.50992721
667.468221893
664.530549835
661.696115612
658.964042542
656.33338223
653.803120357
651.372184988
649.039451534
646.803750259
644.663870829
642.618569401
640.666573113
638.806587049
637.03729891
635.357386047
633.765520451
632.260375922
630.840633413
629.504988305
628.252156038
627.080879394
625.98993427
624.978136819
624.044349195
623.187486361
622.406521656
621.700493156
621.068509023
620.509753604
620.02349309
619.609082453
619.265973169
618.993722933
618.792011417
618.660901421
618.597769444
918.483303033
918.158886599
917.498147752
916.488846854
915.137848854
913.452204309
911.440527587
909.112895512
906.480700772
903.556493054
900.35381652
896.8870448
893.171218678
889.221888378
885.054964509
880.686578239
876.132953754
871.410292274
866.534669801
861.521946722
856.387690692
851.147110076
845.814998917
840.405690239
834.933018661
829.410289078
823.850252736
818.26508769
812.666385396
807.065140632
801.471746786
795.895993853
790.347071758
784.833573407
779.363504398
773.9442932
768.582804837
763.285355323
758.057729104
752.905196721
747.832535012
742.8440471
737.94358452
733.134568758
728.420014544
723.802552219
719.284451477
714.867643848
710.553746192
706.344082602
702.239706969
698.241423661
694.349808542
690.565227873
686.887857285
683.317698495
679.854595921
676.498250988
673.248236276
670.104007425
667.064914906
664.130213731
661.299073143
658.570584487
655.94376924
653.417585512
650.990934897
648.662668095
646.431591075
644.296470273
642.256038477
640.308999987
638.454036538
636.689812671
635.014981892
633.428192387
631.928093484
630.513341728
629.18260761
627.934581912
626.76798258
625.681561189
624.674109783
623.744467268
622.891526028
622.114238072
621.411621281
620.782765228
620.226837077
619.743087236
619.330855153
618.989574449
618.718777296
618.518098928
618.387544701
618.324352495
920.152669146
919.819390784
919.142888822
918.109697702
916.727092438
915.002578305
912.945310692
910.565978174
907.876637131
904.89053415
901.621925674
898.085897218
894.298186817
890.275015675
886.032929255
881.588650367
876.958946209
872.160509647
867.209855538
862.123231223
856.91654105
851.60528313
846.204497606
840.728724232
835.191968499
829.607674319
823.988702914
818.347316459
812.695166646
807.043287113
801.402090208
795.781367178
790.190292923
784.637430304
779.130741637
773.677600608
768.284806918
762.958602468
757.704689578
752.528250225
747.433966874
742.426043917
737.508230324
732.683842544
727.955788264
723.326590078
718.798409652
714.373071454
710.052086614
705.836675989
701.727793012
697.726145402
693.83221633
690.046284173
686.368441454
682.79861219
679.336568263
675.98194412
672.734250467
669.592886339
666.557150239
663.626249825
660.799310839
658.07538483
655.453456366
652.932449322
650.511232935
648.18862722
645.963408401
643.834313971
641.800047974
639.85928611
638.010681197
636.252868612
634.584472128
633.004109806
631.510400282
630.101969099
628.77745538
627.535518502
626.374845001
625.294155398
624.292211139
623.36782136
622.519849632
621.747220452
621.048925608
620.424030223
619.871678606
619.391099717
618.981612233
618.64262855
618.37365704
618.174304757
618.044552448
617.98167206
922.181551866
921.837353251
921.141391923
920.078695522
918.657066353
916.88459423
914.771124143
912.328119861
909.568474895
906.506311064
903.156775798
899.535841394
895.660110924
891.546634401
887.212738065
882.675868797
877.953455069
873.062785028
868.020901849
862.844515653
857.549930955
852.152987901
846.669015494
841.112794668
835.49852942
829.839824277
824.149667027
818.440415809
812.723790303
807.010866638
801.312076266
795.637208256
789.99541574
784.395222003
778.84453415
773.35065678
767.920308173
762.559638206
757.27424787
752.069210024
746.949091326
741.91797503
736.979484616
732.136807954
727.392721978
722.749617564
718.209524567
713.774136707
709.444836242
705.222718114
701.108613494
697.10311243
693.206585546
689.419204516
685.7409613
682.171685942
678.711062963
675.358646223
672.113872353
668.976072703
665.944483994
663.018257645
660.196468043
657.478119772
654.862154066
652.347454563
649.932852595
647.617132101
645.399034386
643.277262774
641.250487347
639.31734979
637.47646849
635.726443856
634.065863978
632.49331055
631.007365125
629.606615618
628.289663073
627.055128596
625.901660451
624.82794121
623.832694929
622.914694257
622.072767441
621.305805123
620.612766929
619.992687718
619.444683491
618.967956838
618.561801765
618.225607196
617.958859386
617.761145667
617.63243227
617.570070657
924.580341363
924.222963355
923.503540587
922.405276179
920.936632406
919.106432053
916.925380656
914.405904283
911.561930423
908.408656471
904.96231943
901.239970603
897.259260437
893.038237255
888.5951628
883.948346484
879.115999667
874.116110376
868.966338362
863.683929436
858.285647537
852.787722178
847.205808734
841.554958723
835.849597661
830.103508355
824.329818383
818.540990952
812.748819036
806.964422753
801.198250983
795.460085024
789.759047461
784.103610894
778.501613417
772.960274576
767.486213522
762.085468772
756.763519401
751.525307355
746.375260824
741.317318402
736.354954021
731.491202383
726.72868488
722.069635699
717.51592807
713.069100343
708.73038182
704.500718012
700.380795225
696.371064162
692.471762454
688.68293583
685.004457903
681.436048332
677.977289414
674.62764095
671.386453521
668.25298011
665.226386273
662.305758883
659.490113694
656.778401816
654.169515359
651.662292371
649.25552133
646.947945298
644.738265976
642.625147736
640.607221832
638.683090815
636.851333294
635.110509047
633.459164544
631.895838848
630.419069931
629.027401309
627.719389017
626.493608799
625.348663508
624.28319059
623.295869614
622.385429746
621.550657105
620.790401913
620.103585375
619.4892062
618.946346711
618.47417839
618.071966777
617.739075328
617.47496801
617.279214221
617.151767197
617.090072767
927.361556835
926.988506555
926.24123895
925.100782035
923.57641374
921.677864699
919.416901167
916.807128925
913.863735678
910.603222085
907.043137638
903.201825876
899.098184284
894.751442792
890.18096351
885.40606361
880.445862356
875.319152694
870.044296896
864.639144955
859.12097343
853.506441696
847.811561919
842.051679037
836.241457282
830.394870693
824.525196041
818.64500771
812.766174728
806.899860528
801.056527073
795.245940456
789.47718194
783.758659825
778.098127305
772.502700987
766.978881311
761.532574452
756.169115377
750.89329193
745.709369753
740.621117999
735.631835671
730.744378522
725.961186335
721.284310475
716.715441496
712.255936649
707.906847041
703.66894425
699.54274612
695.528541549
691.626413984
687.836263483
684.157827109
680.59069758
677.134340041
673.788106973
670.551251214
667.4229372
664.402250499
661.488205852
658.679753826
655.975786381
653.375141485
650.87660708
648.478924565
646.180792046
643.980867525
641.877772204
639.870094043
637.956391688
636.135198835
634.405029104
632.764381422
631.211745921
629.745610334
628.364466829
627.066819226
625.851190532
624.716130701
623.660224539
622.68209966
621.780434401
620.953965612
620.201496221
619.521902499
618.914140933
618.37725462
617.910379126
617.512747668
617.183695143
616.922661627
616.729198217
616.603242009
616.542342524
930.540056327
930.148555697
929.368588068
928.178617009
926.588924337
924.610358761
922.255985815
919.540846935
916.481653064
913.096469241
909.404409704
905.425348242
901.179649328
896.687923541
891.970809706
887.048785217
881.942005544
876.670173066
871.252434697
865.707306491
860.052622332
854.305502453
848.482336819
842.598778043
836.669739172
830.709392897
824.731170542
818.747760739
812.77110889
806.812418758
800.882158781
794.990070073
789.145178996
783.355813454
777.629623405
771.973602296
766.394110194
760.896898024
755.487132748
750.169423278
744.947847146
739.8259778
734.806912542
729.893300953
725.087373765
720.390971963
715.805576014
711.332334953
706.972095165
702.725428524
698.592659705
694.573892308
690.669033602
686.877817562
683.199826088
679.634508148
676.181196836
672.839124239
669.607434195
666.485192981
663.471398125
660.564985478
657.764834835
655.069774293
652.478583684
649.989997279
647.60270611
645.315360083
643.126570161
641.034910774
639.038922643
637.137116109
635.327975077
633.609961609
631.981521185
630.441088611
628.987094554
627.617972611
626.332166871
625.128139847
624.004380704
622.959413662
621.991806475
621.100178877
620.283210891
619.539650895
618.868323365
618.268136175
617.738087415
617.277271581
616.884885133
616.560231183
616.302723136
616.111890947
615.987652822
615.92767098
934.133291595
933.720210456
932.902103248
931.654435106
929.988722877
927.917191021
925.454492618
922.617409731
919.424485042
915.895649576
912.051869205
907.914814775
903.506560725
898.849315052
893.965182168
888.875959818
883.602970748
878.16692951
872.587843717
866.88494787
861.076665902
855.180596919
849.213517015
843.191389722
837.129378322
831.041855497
824.942408482
818.843840673
812.75817216
806.696642089
800.66971638
794.68709866
788.757743765
782.889880126
777.091033176
771.368050362
765.727127311
760.173834727
754.713145748
749.349463848
744.086651222
738.928057808
733.876550838
728.934544974
724.104032841
719.386615926
714.783535566
710.295703908
705.923734501
701.667972307
697.528522731
693.505279415
689.597950404
685.806082442
682.12908309
678.566240535
675.116740908
671.779683136
668.554091301
665.438924681
662.433085597
659.535425359
656.74474853
654.059815876
651.479346283
649.002018
646.626469497
644.351300259
642.175071742
640.09630876
638.113501421
636.225107805
634.429557415
632.725255489
631.110588142
629.583928332
628.143642584
626.788098384
625.515672159
624.32475772
623.21377505
622.18117932
621.225469992
620.345199902
619.538984186
618.805508951
618.143539573
617.551928534
617.029622696
616.575670001
616.189225466
615.869556089
615.616045302
615.428199547
615.305913822
615.246972549
938.161622725
937.723392315
936.86098149
935.546368523
933.792595246
931.613582293
929.025923427
926.048508186
922.702075448
919.008772026
914.991742537
910.674754192
906.081860016
901.237101495
896.164251053
890.886594708
885.426755737
879.806560015
874.046943017
868.167896517
862.188450569
856.126683199
849.99974796
843.823908261
837.61456871
831.386296933
825.152834274
818.927097993
812.721180268
806.546349278
800.413057175
794.330954298
788.308903779
782.355011798
776.476654568
770.680507592
764.972575405
759.358221232
753.842196655
748.428671371
743.121263366
737.92306956
732.836697113
727.86429527
723.007587783
718.267905687
713.646220351
709.143176482
704.759124904
700.494154671
696.348124225
692.320691114
688.411339943
684.619408099
680.944109047
677.384552835
673.939763794
670.608695261
667.390241498
664.283246847
661.286512439
658.398800669
655.618837862
652.945315437
650.376890035
647.912182932
645.549779198
643.288226858
641.126036458
639.061681189
637.093597868
635.22018882
633.43982484
631.750849181
630.151582636
628.640329596
627.215385058
625.87504243
624.617602053
623.441380259
622.344718858
621.325994879
620.383630432
619.516102539
618.721952797
617.99979675
617.34833285
616.766350903
616.252739927
615.806495317
615.426725308
615.112656601
614.863638753
614.679150783
614.559061751
614.501287822
942.64870837
942.181210892
941.267428399
939.875302133
938.019768025
935.71684795
932.985513794
929.847207602
926.325296826
922.44455039
918.230664133
913.709836671
908.908395711
903.852472925
898.567725429
893.079103511
887.410665597
881.58544246
875.625351897
869.551162929
863.382504461
857.137908641
850.834874577
844.489936004
838.118717738
831.735971503
825.355589744
818.990603783
812.653176229
806.354597607
800.105293254
793.91483964
787.791983804
781.744682347
775.780133341
769.904810939
764.124499048
758.444323905
752.86878581
747.401790641
742.046681551
736.806271276
731.682875088
726.678344527
721.794101733
717.031174371
712.390230871
707.871615861
703.475385374
699.201341528
695.049066135
691.017952812
687.107237005
683.316023548
679.643311267
676.088014425
672.648980751
669.325006079
666.114845596
663.017221964
660.030830526
657.154342042
654.386403311
651.725636217
649.170635617
646.719966615
644.372161602
642.125717561
639.979093906
637.93071123
635.978951106
634.122157163
632.358637457
630.686668203
629.104498796
627.610358083
626.202461724
624.879020565
623.638249806
622.478378844
621.397661591
620.394387099
619.466890312
618.61356279
617.832863237
617.123327683
616.483579219
615.91233714
615.408425423
614.970780512
614.598458306
614.290639965
614.046637093
613.865898477
613.748262857
613.691787637
947.621993198
947.120416149
946.14705833
944.665201351
942.692155303
940.246562593
937.350321357
934.027969222
930.306016154
926.212323934
921.77556158
917.024731514
911.988760563
906.696148446
901.174668694
895.45112035
889.551132656
883.49902705
877.317740925
871.028814382
864.652435354
858.207530308
851.711879931
845.182234245
838.634403231
832.08330798
825.542992201
819.026607078
812.546388209
806.113643899
799.738755983
793.431200305
787.199578711
781.051664504
774.994443556
769.034155222
763.176330353
757.425826459
751.786861117
746.263044677
740.857413271
735.572462518
730.410182211
725.372091881
720.459277266
715.672427451
711.011872645
706.477622242
702.069402956
697.786696431
693.628775887
689.594741034
685.683550728
681.894052651
678.225009614
674.675122025
671.243046387
667.927409691
664.726819897
661.639872654
658.665154719
655.801244451
653.046710003
650.400105695
647.859967261
645.424806454
643.093105645
640.863312825
638.733837512
636.703047822
634.769269014
632.930783612
631.185833215
629.532621967
627.969321627
626.494078127
625.105019467
623.800264764
622.577934272
621.436160159
620.373097841
619.386937659
618.475916698
617.638330551
616.87254485
616.177006405
615.550253801
614.99092734
614.49777825
614.069677042
613.705621026
613.404740895
613.166305747
612.989729751
612.87481867
612.819780165
953.113321616
952.571964587
951.529384486
949.94350278
947.834639223
945.224733504
942.139303348
938.606647582
934.657028266
930.321941583
925.633502349
920.623925681
915.325089012
909.768159008
903.983273218
897.999273943
891.843498553
885.541635594
879.117656801
872.593831573
865.990821124
859.327836567
852.622830606
845.892682637
839.15333724
832.419871248
825.706491228
819.026488014
812.39218292
805.814898605
799.304953454
792.871689718
786.52352446
780.268006055
774.111867758
768.061076361
762.120874424
756.295817285
750.589806976
745.006125366
739.547467861
734.21597841
729.013285792
723.940541204
718.998456865
714.18734565
709.507161521
704.957540685
700.537842998
696.247193183
692.084521032
688.048599874
684.138082341
680.351532777
676.687455504
673.14431862
669.720572931
666.414666091
663.225051981
660.150195755
657.188574929
654.338677186
651.598995482
648.968021245
646.44423632
644.026104443
641.712062826
639.500514525
637.389821998
635.378302329
633.464224292
631.645807503
629.921223632
628.288599696
626.746023277
625.29154953
623.923209765
622.639021389
621.436998959
620.315166114
619.27156813
618.304284849
617.411443757
616.591232972
615.84191394
615.161833659
614.549436275
614.003273917
613.522016663
613.104461637
612.749541108
612.456329251
612.224048006
612.052073834
611.940174892
611.886717735
959.159719694
958.571729244
957.448422258
955.741576246
953.475382012
950.675971816
947.373368192
943.600447668
939.391942627
934.783597752
929.811492964
924.511495667
918.918808315
913.067583054
906.990586792
900.718913072
894.281749675
887.706219462
881.01731542
874.237946221
867.38909553
860.490076592
853.558838112
846.612256133
839.666343153
832.736329471
825.836623282
818.980702929
812.181006555
805.448871028
798.794525264
792.227131578
785.754868373
779.385006312
773.123977932
766.977435178
760.950295092
755.046776561
749.270432803
743.62418341
738.110348186
732.730683157
727.486418667
722.378299002
717.406623363
712.571288001
707.87182964
703.307469972
698.877160995
694.579630433
690.413426422
686.376960243
682.46854609
678.686436729
675.028854303
671.494015614
668.080151646
664.785521208
661.608418999
658.547178414
655.600169822
652.765794929
650.042478181
647.428655977
644.922764699
642.523228312
640.228446438
638.036783511
635.946559691
633.956043881
632.063449236
630.266931223
628.564588325
626.954465223
625.434558352
624.002823537
622.657185502
621.39554892
620.215810762
619.115873625
618.093659747
617.147125436
616.274275622
615.473178274
614.741978447
614.078911753
613.48231707
612.950648374
612.482485586
612.076544333
611.731684637
611.446918514
611.221415609
611.054509829
610.94592895
610.894206331
965.804405051
965.161405779
963.943434728
962.09526762
959.646160068
956.627641391
953.075376617
949.027818545
944.525004012
939.607605636
934.316220724
928.690826067
922.770337556
916.592228699
910.192182416
903.603772864
896.858193676
889.984064461
883.007354208
875.951456606
868.837433532
861.684409187
854.510051495
847.331034063
840.163355571
833.022429871
825.922961585
818.878716989
811.902312592
805.005104931
798.197189722
791.487479733
784.883839841
778.393194634
772.021618611
765.774402846
759.656101311
753.670563348
747.820960908
742.109817506
736.539041389
731.109962801
725.8233741
720.67957183
715.678400029
710.819295028
706.101331861
701.52327258
697.083616053
692.780648615
688.612494191
684.577162518
680.672593815
676.896698628
673.247391654
669.72261892
666.320377847
663.038730292
659.875808772
656.829816549
653.899022249
651.081750063
648.376366474
645.781264695
643.29484783
640.915511898
638.641629607
636.471535809
634.403515234
632.435793106
630.566528854
628.793813136
627.115668058
625.530050475
624.034858061
622.627937869
621.30709701
620.070115137
618.914758357
617.838794246
616.840007627
615.916216762
615.065289643
614.285160076
613.573843282
612.929450779
612.350204366
611.834449037
611.380664745
610.987476989
610.653666145
610.378175211
610.160116326
609.998777456
609.893840994
609.844014487
973.098114337
972.389678546
971.059859916
969.045526317
966.382698734
963.109949303
959.27005363
954.908249445
950.070821916
944.804091672
939.153729274
933.164270326
926.87873148
920.338257336
913.581762633
906.645568173
899.563059882
892.364424417
885.07652939
877.723015202
870.324642735
862.899889353
855.465706756
848.038265053
840.633457425
833.266985167
825.954054019
818.708912656
811.544466953
804.472096379
797.501681623
790.641776767
783.899824421
777.282313824
770.794894518
764.442449191
758.22913476
752.158402426
746.233013497
740.455062259
734.826008509
729.346716818
724.017499764
718.838162818
713.808050139
708.926091665
704.190852586
699.600585627
695.153286214
690.846749427
686.678627136
682.6464831
678.747843999
674.980244427
671.341264583
667.828559597
664.439880268
661.173085096
658.026144225
654.997135908
652.084236662
649.285706163
646.599868314
644.025089718
641.559757023
639.202254313
636.95094183
634.804136958
632.760098364
630.817013806
628.972992002
627.226058581
625.574156044
624.015147384
622.546823027
621.166910616
619.873087244
618.662993678
617.534250199
616.484473649
615.511295292
614.612379102
613.785440094
613.028262346
612.338716382
611.714775673
611.154532014
610.656209652
610.218178061
609.838963273
609.517257811
609.251929309
609.042026699
608.886786705
608.785843378
608.738084989
981.100882709
980.313753618
978.850469713
976.639112553
973.724961687
970.15591563
965.983750458
961.261920192
956.043976703
950.382594738
944.329022847
937.932755084
931.241271248
924.299747288
917.150689498
909.83349662
902.383998174
894.834054891
887.211333452
879.539377003
871.838069872
864.124523348
856.414276539
848.722527911
841.064975897
833.457870108
825.917332143
818.45845366
811.094610505
803.837182914
796.695681621
789.678116126
782.791346887
776.041313504
769.433166025
762.971335533
756.65955861
750.500870337
744.497597864
738.651374314
732.963172388
727.433348374
722.061690384
716.847467091
711.789475476
706.886089615
702.135312541
697.534832773
693.082085646
688.77431835
684.608655999
680.582165789
676.691916092
672.935028124
669.308718256
665.81033005
662.437355474
659.187445639
656.058411566
653.048216165
650.15495862
647.376852805
644.71220124
642.159366372
639.716740711
637.382717523
635.155663398
633.033894032
631.015654119
629.099102096
627.282300009
625.563208583
623.939687137
622.409497962
620.970314511
619.619732876
618.355285962
617.174459883
616.074712115
615.053490966
614.108255917
613.236498383
612.435762436
611.70366507
611.037915654
610.436334236
609.896868497
609.417609177
608.996803876
608.63286927
608.324401681
608.070185752
607.869201504
607.720630778
607.624053912
607.578545849
989.884484398
989.001406761
987.376827819
984.929352183
981.71730464
977.801115699
973.243963178
968.109139226
962.458464925
956.351556763
949.845602977
942.995340052
935.853014546
928.468202642
920.887433117
913.153628363
905.305438946
897.376600607
889.395489755
881.385084753
873.363533602
865.345443077
857.343796596
849.372057639
841.445670288
833.582018787
825.798954042
818.113058278
810.538444411
803.086395723
795.765741611
788.58361793
781.54607362
774.658361247
767.925057359
761.350113409
754.936846733
748.687878716
742.605088329
736.68961557
730.941903538
725.361752852
719.948378896
714.700465466
709.616213291
704.693388372
699.929375107
695.321236673
690.865783876
686.559650522
682.399371513
678.381458847
674.50247137
670.759074759
667.148089678
663.666526783
660.311608412
657.08077723
653.971692947
650.982218377
648.110396683
645.354421588
642.712602678
640.183327729
637.765024197
635.456121669
633.255017148
631.160044584
629.169449921
627.281372372
625.493832336
623.804725768
622.211824574
620.712782232
619.305143866
617.986359919
616.753802799
615.604785886
614.536584454
613.546458012
612.63167358
611.789529356
611.017378257
610.312650803
609.67287692
609.095706306
608.578927099
608.120482706
607.718486715
607.371235851
607.077221091
606.835137136
606.643888954
606.502597871
606.410787434
606.367724293
999.535860447
998.533794559
996.711132277
993.976851689
990.408317612
986.083015596
981.07846763
975.469481421
969.326944117
962.717702248
955.704958336
948.34876461
940.706334336
932.832024892
924.776935574
916.588153702
908.307758106
899.971761221
891.609247278
883.242041907
874.885293595
866.54928516
858.242506549
849.975360718
841.763062023
833.625393872
825.583504828
817.656600282
809.859901686
802.204276118
794.697224794
787.344440812
780.150851632
773.120883477
766.258483714
759.567129968
753.04977003
746.708651153
740.545202034
734.560032313
728.753003487
723.123304873
717.669525834
712.389716049
707.281430653
702.341773989
697.567451164
692.954831618
688.500026986
684.198980645
680.047562107
676.04165922
672.177261717
668.450531902
664.857859719
661.395901211
658.061600163
654.852193855
651.765204208
648.79841637
645.949846811
643.217703449
640.600340148
638.096208211
635.703807184
633.421637448
631.248156617
629.181741735
627.220658621
625.363039414
623.606868563
621.949977033
620.390043828
618.924603722
617.55105994
616.26670075
615.068719122
613.954234869
612.920318804
611.964018453
611.082384791
610.272499354
609.531501088
608.856612288
608.245163112
607.694614242
607.202577455
606.766833912
606.385350147
606.056291857
605.778035517
605.549177697
605.36854233
605.235186524
605.14857146
605.10815993
1010.16205028
1009.00941791
1006.93855882
1003.84995496
999.850021177
995.039604726
989.513868349
983.360518663
976.659746305
969.485327813
961.90605889
953.987043048
945.790503355
937.375985093
928.799896863
920.114453048
911.366165113
902.594112451
893.828337782
885.088870442
876.386053488
867.722917271
859.100061401
850.522349158
842.00498236
833.572851564
825.253405815
817.07042017
809.040631233
801.173643604
793.474301986
785.945870834
778.591810844
771.415651908
764.420705179
757.610037825
750.98637203
744.551685597
738.306964397
732.252228744
726.386686216
720.708844519
715.21660738
709.907342866
704.777914961
699.824713744
695.043701111
690.430475374
685.980360865
681.688517555
677.550058776
673.560165539
669.714188419
666.007731453
662.436715489
658.997420075
655.686504463
652.501008934
649.438338654
646.496232458
643.672719573
640.966067056
638.374721144
635.89724534
633.532258338
631.278374494
629.134149612
627.09803426
625.168336579
623.343195673
621.620566037
619.998212333
618.473713195
617.044472203
615.707734254
614.460605882
613.300078561
612.223054453
611.226374284
610.306846975
609.461280447
608.686512843