/*--------------------------------*- C++ -*----------------------------------*\
| =========                 |                                                 |
| \\      /  F ield         | OpenFOAM: The Open Source CFD Toolbox           |
|  \\    /   O peration     | Version:  v1906                                 |
|   \\  /    A nd           | Web:      www.OpenFOAM.com                      |
|    \\/     M anipulation  |                                                 |
\*---------------------------------------------------------------------------*/
FoamFile
{
    version     2.0;
    format      ascii;
    class       volScalarField;
    location    "259";
    object      p;
}
// * * * * * * * * * * * * * * * * * * * * * * * * * * * * * * * * * * * * * //

dimensions      [0 2 -2 0 0 0 0];


internalField   nonuniform List<scalar> 
9216
(
273.942959691
274.022970556
274.188532641
274.441061628
274.77913957
275.201186343
275.705239243
276.288998098
276.949858374
277.684957689
278.491206143
279.365333549
280.303916298
281.303422863
282.360234606
283.47068745
284.631085252
285.83773683
287.086961796
288.37512319
289.698626476
291.053948643
292.437631487
293.846308193
295.276692078
296.725601591
298.189945517
299.666747098
301.153126464
302.64632433
304.143682242
305.642665846
307.140842923
308.635907218
310.125655327
311.6080092
313.080991718
314.542749298
315.991526376
317.425687459
318.84369093
320.24411043
321.625608353
322.986956422
324.327009284
325.644724134
326.939134838
328.209370475
329.454630394
330.674201556
331.867434912
333.033761422
334.172670088
335.283722555
336.366533051
337.420781482
338.446195456
339.442561791
340.409710713
341.34752571
342.255929903
343.134894195
343.984425732
344.804574315
345.595422811
346.357091835
347.089731891
347.79352638
348.468685249
349.115446408
349.734070647
350.324841593
350.888061682
351.42405083
351.933143243
352.41568503
352.872031677
353.302544837
353.707590333
354.087534377
354.442742009
354.773573008
355.080380692
355.363507831
355.623285805
355.860030905
356.074044079
356.265608478
356.434991012
356.582444324
356.708216849
356.812575577
356.895881152
356.95924767
356.999574067
357.014083501
273.86300463
273.943376713
274.109279333
274.362806192
274.702315173
275.126150341
275.63230521
276.218441248
276.881919118
277.619839786
278.429079883
279.3063342
280.24814891
281.25096131
282.311127635
283.424957765
284.588736214
285.798751081
287.051308157
288.342754501
289.669486459
291.027968848
292.414738037
293.826417874
295.259719001
296.711452543
298.178526618
299.657958555
301.146869301
302.642494645
304.142177942
305.643380707
307.143674283
308.640749297
310.132405882
311.616563259
313.091248903
314.554607206
316.004887862
317.440453937
318.85976959
320.261407529
321.644036285
323.006427077
324.347440878
325.666034725
326.961248825
328.232212352
329.478130849
330.698291543
331.892051283
333.058841398
334.198156375
335.309558284
336.392666341
337.447160911
338.472774054
339.469293086
340.436552155
341.374435314
342.282869118
343.161825154
344.011313587
344.831385088
345.622125219
346.383655708
347.116129533
347.819731505
348.494673913
349.141196402
349.759562046
350.350056536
350.912984584
351.448668464
351.957444675
352.439661925
352.895677995
353.325857298
353.730567925
354.110178907
354.465057465
354.795566125
355.102060208
355.384884976
355.644373415
355.880843631
356.09459706
356.285916374
356.455064253
356.602281693
356.727785698
356.831761526
356.914335388
356.97553622
357.014114828
357.028603022
273.696709297
273.778228592
273.945659234
274.201483527
274.54402774
274.971590775
275.482105273
276.073164434
276.742057934
277.485813526
278.301236383
279.184951092
280.133438653
281.143074662
282.210160569
283.330955764
284.501701762
285.718647663
286.978067407
288.276279241
289.609657043
290.974644981
292.367764217
293.785624045
295.22492522
296.682468672
298.155156441
299.639998774
301.134113326
302.634731133
304.139194478
305.64496201
307.14960561
308.650814611
310.146391564
311.634255959
313.112439067
314.579086891
316.032454217
317.470906919
318.892915331
320.297055965
321.682004361
323.046536305
324.38952033
325.709918551
327.006778998
328.27923618
329.526503449
330.74787339
331.9427104
333.110450993
334.250596747
335.3627146
336.446430271
337.5014286
338.527447505
339.524278375
340.491760589
341.429781932
342.338273655
343.217210848
344.066607977
344.886519139
345.677033975
346.438277718
347.170407377
347.873611495
348.548106494
349.19413608
349.81196767
350.401891402
350.964216588
351.499270328
352.007393967
352.488941351
352.944275292
353.373765532
353.777785258
354.156708861
354.510908564
354.840752078
355.14659941
355.428800534
355.687692444
355.923596922
356.136817845
356.327638957
356.496320964
356.643098054
356.768171489
356.871696931
356.953754238
357.014292746
357.052765308
357.068897222
273.441041973
273.523845024
273.693665889
273.953083355
274.30036268
274.733726905
275.251014981
275.849714998
276.527005586
277.27980073
278.104793435
278.998499598
279.95729827
280.977470326
282.055231919
283.186765761
284.368246681
285.595865317
286.865846288
288.17446532
289.518061379
290.893048747
292.295924676
293.723277903
295.171793217
296.638257613
298.119562789
299.612709757
301.114809919
302.6230886
304.13488504
305.647655017
307.158969962
308.666518845
310.168106348
311.661653955
313.145197263
314.616886359
316.074982344
317.517857019
318.943988716
320.351961396
321.740459909
323.108268624
324.454266289
325.777424318
327.076801434
328.351541749
329.600869366
330.824086401
332.020567688
333.18975888
334.331171392
335.444380666
336.52902147
337.584786379
338.611421494
339.608725154
340.576544089
341.514772347
342.423347833
343.302251398
344.15150369
344.971164306
345.761328859
346.522128085
347.253725018
347.956313946
348.630117594
349.275385842
349.892392832
350.481435407
351.042830088
351.576911216
352.084027799
352.564541371
353.018822738
353.447249611
353.850203306
354.228066233
354.581218623
354.910035964
355.214885834
355.49612537
355.754098266
355.989132298
356.201536443
356.391598277
356.559580707
356.705718207
356.830211172
356.933217773
357.014841019
357.075116474
357.113909726
357.132033301
273.094926402
273.17937367
273.352474178
273.616830359
273.970614069
274.411937505
274.938507603
275.547665793
276.236435852
277.00157403
277.839617947
278.746934061
279.719761451
280.754252144
281.846506369
282.992603794
284.188629559
285.430696759
286.71496433
288.037652358
289.395053692
290.783544022
292.199589143
293.639751583
295.10069507
296.579189038
298.072111371
299.576451609
301.089312575
302.607912684
304.129586713
305.651787249
307.17208474
308.688168363
310.19784514
311.69903989
313.189793546
314.66826238
316.132715527
317.581533478
319.013204899
320.426324491
321.819589241
323.191795783
324.541836238
325.868695238
327.171445527
328.449244815
329.701331313
330.927020579
332.125701149
333.296831513
334.439935979
335.554601898
336.640475861
337.697261242
338.724714785
339.722644497
340.690906628
341.629403891
342.538082791
343.416932101
344.265980456
345.085294978
345.874979024
346.635170829
347.366041292
348.067792519
348.740655527
349.384888592
350.000774785
350.588620064
351.148750594
351.681510566
352.187259295
352.666368777
353.119220618
353.54620338
353.947709401
354.324132016
354.675862357
355.003286539
355.306782523
355.58671735
355.843444123
356.077299315
356.288599843
356.47764032
356.644689932
356.789989184
356.913746005
357.016131734
357.097278057
357.15727939
357.196127733
357.214756873
272.656585374
272.743118262
272.920442225
273.191166322
273.553333403
274.004904678
274.543410481
275.16599781
275.869486283
276.650425518
277.505150622
278.429834714
279.420536804
280.473244563
281.583911216
282.748487003
283.962945047
285.223302604
286.525637809
287.866103079
289.240935289
290.646463881
292.079116846
293.535425639
295.012028768
296.505674967
298.0132255
299.531656408
301.058060063
302.589646789
304.123745816
305.657806134
307.189396919
308.716207979
310.236049167
311.746849844
313.246657565
314.733636772
316.206066656
317.662339074
319.100955673
320.520525145
321.919759748
323.297472043
324.652570988
325.984058336
327.291024481
328.572644702
329.82817495
331.056948112
332.258369907
333.431915334
334.577124821
335.693600978
336.781005116
337.83905438
338.867518701
339.866218344
340.83502129
341.77384117
342.682635032
343.561401576
344.410179204
345.229044435
346.0181101
346.777523802
347.507466106
348.208148907
348.879813487
349.522728674
350.137188675
350.723510952
351.282033781
351.813113819
352.317123392
352.794447781
353.245482272
353.670629232
354.070294999
354.444886836
354.794809765
355.12046349
355.422239273
355.700516924
355.955661786
356.188021844
356.397924834
356.585675452
356.751552545
356.895806373
357.01865607
357.120288023
357.200856073
357.260485563
357.299203706
357.317932896
272.123748569
272.212865095
272.395438531
272.674077972
273.046657231
273.510940209
274.064228369
274.703418682
275.425069997
276.225469999
277.100698979
278.046688853
279.059275857
280.134246263
281.2673748
282.454456178
283.691330182
284.973901244
286.298153234
287.660160501
289.056095836
290.482236257
291.93496708
293.410784954
294.906300076
296.418238057
297.943441423
299.478871057
301.021607402
302.568851649
304.117926617
305.666277319
307.211471497
308.751200008
310.283276167
311.805635081
313.316332385
314.8135427
316.295557503
317.760782752
319.207735977
320.635043182
322.041435312
323.425744602
324.786900601
326.123926172
327.435933266
328.722118781
329.981760291
331.21421195
332.418900369
333.595320738
334.743033004
335.861658363
336.950875851
338.0104193
339.04007441
340.039676197
341.00910656
341.948292181
342.857202515
343.735848065
344.584278664
345.402581975
346.190881913
346.949337205
347.678139776
348.377513206
349.047710931
349.689014462
350.3017313
350.886192824
351.442751868
351.971780257
352.473666044
352.948810729
353.397626208
353.820531744
354.21795073
354.590307507
354.938024059
355.261516795
355.561193282
355.837449108
356.090664744
356.321202566
356.529403929
356.715586413
356.880041192
357.023030725
357.144786851
357.24550987
357.325369385
357.384506367
357.422955417
357.441612331
271.493601707
271.585858283
271.774814568
272.063071895
272.448287775
272.927973273
273.499138578
274.158364759
274.901883824
275.725658033
276.625454042
277.596909915
278.635593374
279.737050724
280.896846508
282.110594596
283.373981664
284.682784305
286.03288092
287.42025965
288.841023311
290.29139231
291.767706207
293.26642456
294.784127406
296.317515701
297.863411839
299.418760329
300.98062858
302.546207756
304.112813574
305.677886706
307.238993409
308.793825986
310.340201969
311.876063428
313.399475698
314.908625656
316.401819509
317.877480175
319.334144209
320.770458424
322.185176131
323.577153179
324.945343734
326.288795951
327.606647509
328.898121152
330.162520196
331.399224152
332.607684413
333.787420152
334.938014368
336.059110211
337.150407527
338.211659713
339.242670837
340.243293065
341.213424353
342.153006408
343.062022879
343.940497738
344.788493819
345.606111452
346.393487157
347.150792328
347.878231883
348.576042803
349.244492555
349.883877331
350.494520125
351.076768569
351.630992604
352.157581891
352.65694308
353.129496843
353.575674797
353.995916251
354.390664896
354.760365389
355.105459941
355.426384872
355.723567236
355.997421475
356.248346197
356.476721053
356.682903782
356.867227425
357.029997813
357.171491356
357.29195337
357.391597319
357.470604842
357.529125642
357.5671962
357.5856905
270.762724123
270.85874772
271.055357125
271.355134154
271.755461421
272.253528987
272.845979609
273.528999147
274.298414475
275.149788631
276.078507847
277.079858096
278.149089561
279.281468709
280.472318548
281.717048325
283.011174231
284.350332837
285.73028894
287.146939329
288.596313799
290.074574458
291.578014212
293.103055
294.646246248
296.204263756
297.773909135
299.352109777
300.935919244
302.522517939
304.109213826
305.693442889
307.272769901
308.844889002
310.407622733
311.958921422
313.496861834
315.019645328
316.525595473
318.013155205
319.480883512
320.927451739
322.351639547
323.752330596
325.128508001
326.479249651
327.803723423
329.101182366
330.370959929
331.612465259
332.82517865
334.008647182
335.162480591
336.28634742
337.379971471
338.443128588
339.475643776
340.47738867
341.448279316
342.388274282
343.297373015
344.175614455
345.023075787
345.839871352
346.62615157
347.3821019
348.107941683
348.803922925
349.470328845
350.107472294
350.715693865
351.295359835
351.846859769
352.370603962
352.867020556
353.336552527
353.779654398
354.196788882
354.588423326
354.955026152
355.297063189
355.614994079
355.909268654
356.180323454
356.428578308
356.654433105
356.858264711
357.040424153
357.201234046
357.340986437
357.459941045
357.558324123
357.63632808
357.694109968
357.731708146
357.749980263
269.927013134
270.027518891
270.233226561
270.546678925
270.964910017
271.484703137
272.102239177
272.813211827
273.612948903
274.496527618
275.458877434
276.494867726
277.59937885
278.767356838
279.993853078
281.274051088
282.603282746
283.977036431
285.390959274
286.840855494
288.322682365
289.832545121
291.366691688
292.921507917
294.493513732
296.079360368
297.675828737
299.279828782
300.88839962
302.498710215
304.10806
305.713879928
307.313733353
308.905316466
310.486457676
312.055116911
313.609384244
315.147477888
316.667741643
318.168641767
319.648763373
321.106806383
322.541581113
323.952003566
325.337090486
326.695954272
328.027797788
329.331909173
330.607656679
331.854483642
333.071903601
334.259495668
335.416900154
336.54381454
337.639989797
338.705227094
339.739374915
340.74232657
341.714018113
342.654426604
343.563568714
344.441499573
345.288311862
346.104134986
346.889134359
347.643510624
348.36749883
349.061367405
349.725416975
350.359978873
350.965413425
351.542107867
352.090474026
352.610945628
353.103975392
353.570031797
354.009595699
354.423156688
354.811209384
355.174249566
355.512770331
355.82725819
356.118189277
356.386025592
356.631211434
356.85416996
357.055299999
357.234973084
357.393530828
357.5312826
357.64850364
357.745433779
357.822276233
357.879195227
357.916233639
357.934235978
268.981588698
269.087404567
269.303878503
269.633485039
270.072814443
270.618133833
271.265043232
272.008624176
272.843591571
273.764434466
274.765538042
275.841283848
276.986127336
278.194653897
279.461615974
280.78195456
282.150808595
283.563515576
285.015606314
286.502796204
288.020974937
289.566196009
291.134667069
292.722741723
294.326913173
295.943809783
297.570192479
299.202953703
300.839117558
302.475840756
304.110413363
305.740260707
307.362944528
308.976163336
310.577752204
312.165682084
313.738058338
315.293118631
316.829230096
318.344885933
319.838701417
321.309409452
322.755855715
324.176993476
325.571878196
326.939661947
328.279587776
329.59098404
330.873258832
332.125894524
333.348442538
334.540518361
335.701796917
336.832008292
337.930933911
338.998403155
340.034290468
341.038512942
342.011028367
342.95183372
343.860964034
344.738491601
345.584525386
346.39921064
347.182728523
347.935295751
348.657164063
349.34861956
350.00998171
350.641602116
351.243862846
351.817174489
352.361973746
352.878720749
353.367895941
353.82999676
354.265533946
354.675027736
355.059003806
355.417989195
355.752508092
356.063077717
356.350204191
356.614378575
356.856073019
357.075737157
357.273794698
357.450640339
357.606636951
357.742113173
357.857361312
357.952635636
358.028151132
358.084080777
358.120473426
358.138161762
267.920672029
268.032770515
268.261965098
268.610617214
269.074749285
269.649970227
270.331147437
271.112600164
271.988291346
272.952000418
273.997468093
275.11851018
276.309100543
277.563426047
278.875917882
280.241264384
281.654410291
283.110546961
284.605097193
286.13369759
287.692180534
289.276557338
290.883003514
292.507846796
294.147558148
295.798745757
297.458151715
299.122650935
300.789251716
302.455097328
304.117467342
305.773780423
307.421596264
309.058615812
310.68268158
312.291776978
313.884024828
315.457685039
317.011151516
318.542948363
320.051725468
321.536253566
322.99541885
324.428217266
325.833748537
327.211210054
328.559890673
329.879164549
331.168485039
332.427378787
333.655440045
334.852325318
336.017748379
337.151475754
338.25332269
339.323149675
340.360859536
341.366395094
342.339737407
343.280904504
344.189950619
345.06696577
345.912075667
346.725441754
347.507261367
348.257767778
348.977230165
349.665953238
350.324276629
350.952573791
351.551250574
352.120743239
352.661516127
353.174058788
353.658882802
354.116518144
354.547509324
354.952411184
355.331784606
355.686191999
356.016192827
356.322339072
356.605170838
356.865212034
357.102966295
357.318913081
357.513504095
357.687159967
357.840267312
357.973176087
358.086197344
358.179601502
358.253616518
358.308424915
358.344084059
358.361414927
266.737429422
266.856971004
267.101210109
267.47232921
267.965617617
268.575839578
269.296933922
270.122268149
271.044882384
272.057702195
273.15370982
274.326071634
275.568223933
276.873922555
278.237263524
279.652682246
281.114938262
282.619091327
284.160473456
285.734660152
287.337443178
288.964806281
290.61290481
292.278049648
293.956695637
295.645434225
297.34098992
299.040219719
300.740114699
302.437802813
304.130551304
305.815770652
307.491017674
309.153995637
310.802555142
312.434693591
314.048553574
315.642420356
317.214718389
318.764007099
320.288975916
321.788438768
323.261328074
324.706688396
326.123669834
327.511521261
328.869583517
330.197282615
331.494123087
332.759681499
333.993600289
335.195581925
336.365383559
337.502812159
338.607720272
339.680002402
340.719592091
341.726459678
342.700610741
343.642085176
344.550956827
345.427333597
346.27135788
347.083207235
347.863095086
348.6112714
349.328023098
350.013674214
350.668585553
351.29315396
351.887810945
352.453020872
352.989278483
353.497106018
353.97704972
354.429676041
354.85556735
355.255317475
355.629526898
355.978797945
356.303729799
356.604913645
356.882927815
357.138333181
357.371668694
357.58344725
357.774151817
357.944231937
358.094100553
358.224131267
358.334655903
358.42596241
358.498293279
358.551842547
358.586676951
358.603605204
265.423770316
265.552161157
265.814251035
266.211944544
266.739575458
267.390814945
268.15841785
269.034558981
270.011145114
271.080077069
272.233450521
273.463695309
274.763658898
276.126643779
277.54641005
279.017154194
280.533473453
282.090323281
283.682973172
285.306964506
286.95807253
288.632273773
290.325719482
292.034715382
293.755707662
295.485274811
297.220124522
298.957094536
300.693156139
302.425418871
304.151134796
305.867704011
307.572679063
309.263765045
310.938821242
312.595860604
314.233048068
315.848697676
317.441268686
319.009360762
320.551708392
322.067174673
323.554744585
325.0135179
326.442701826
327.841603527
329.209622579
330.546243516
331.851028477
333.12361013
334.363684882
335.571006532
336.745380426
337.886658228
338.994733379
340.069537324
341.111036563
342.119230516
343.094150233
344.03585785
344.944446765
345.820042333
346.662803032
347.472921819
348.250627623
348.996186651
349.709903512
350.392121831
351.043224437
351.663632831
352.253806109
352.814239096
353.345459927
353.848026888
354.32252479
354.769560716
355.189759457
355.583758486
355.952202797
356.295739493
356.615012404
356.910656672
357.183293517
357.433525154
357.661930018
357.869058257
358.055427623
358.221519706
358.367776611
358.494597973
358.602338405
358.691305509
358.761757774
358.813901515
358.84781506
358.864293857
263.970082872
264.109055571
264.392437961
264.821710341
265.389945744
266.089387661
266.911270655
267.846268794
268.884895877
270.017827082
271.236130808
272.531414658
273.89589736
275.322423028
276.804435015
278.335924869
279.911368973
281.525661868
283.174052288
284.852085264
286.555552052
288.280448505
290.022942105
291.779347557
293.546110794
295.319800714
297.097107683
298.874847026
300.649965768
302.419549954
304.180832248
305.931199502
307.668197555
309.389532567
311.093072936
312.776848901
314.439050569
316.078024672
317.692270049
319.280432174
320.841296785
322.373782851
323.876934986
325.349915499
326.791996182
328.202549988
329.581042699
330.927024661
332.240122716
333.520032367
334.766510338
335.979367565
337.158462811
338.303696945
339.415008071
340.492367528
341.535776896
342.545265995
343.52089189
344.462738844
345.370919103
346.245574399
347.086877927
347.895036658
348.670293679
349.412930437
350.123268547
350.801671166
351.448543577
352.064333138
352.649528278
353.20465681
353.730283296
354.227005799
354.69545181
355.136273709
355.550143591
355.937747828
356.299781212
356.636941071
356.949921199
357.239405969
357.506064497
357.750545148
357.973470278
358.175431423
358.356984841
358.518647538
358.6608937
358.78415163
358.888801049
358.975170772
359.043537006
359.094120342
359.127011208
359.142990513
262.364884458
262.516610062
262.825576335
263.292618084
263.909123446
264.665451636
265.550870758
266.55415874
267.664117185
268.869962783
270.161587935
271.529702424
272.965878166
274.462523666
276.012813821
277.610596695
279.250293191
280.926800253
282.635403413
284.371701375
286.131543047
287.91097669
289.70621052
291.51358446
293.329552695
295.150676491
296.97362579
298.795187312
300.61227634
302.421947666
304.221408694
306.008028802
307.77934381
309.533059782
311.267054685
312.979377922
314.668248069
316.332048986
317.96932458
319.578772457
321.159236624
322.709699473
324.229273186
325.717190789
327.172796956
328.595538756
329.984956395
331.34067411
332.662391222
333.949873518
335.202944985
336.421480085
337.605396663
338.754649675
339.869225842
340.9491394
341.994429011
343.005155898
343.981403224
344.923276607
345.830905722
346.704446704
347.544085255
348.350040018
349.122566118
349.861958382
350.568554206
351.242735593
351.88493048
352.495612952
353.075302597
353.624562703
354.143997626
354.634249128
355.095992028
355.529929023
355.936785056
356.317301092
356.672227709
357.002318381
357.308322836
357.590980395
357.85101362
358.08912219
358.305977235
358.502216074
358.678437471
358.835197382
358.973005232
359.092320638
359.193550641
359.277047581
359.343106884
359.391964067
359.4237238
359.439150923
260.594352249
260.761602153
261.101595116
261.614185374
262.288475742
263.112311569
264.072398244
265.155109557
266.347145253
267.636000204
269.010244189
270.459638548
271.975128336
273.548751916
275.17350555
276.843191848
278.552271874
280.295731889
282.06896967
283.867700708
285.687882677
287.525655799
289.377297473
291.239190479
293.10780486
294.979693172
296.851497532
298.719964955
300.581966881
302.434516453
304.2747869
306.1001239
307.908049916
309.696269353
311.462670129
313.205323095
314.922479118
316.612564403
318.274174243
319.906065629
321.507148832
323.076478214
324.613242458
326.116754459
327.586441023
329.021832545
330.422552776
331.788308728
333.118880835
334.414113368
335.673905296
336.898201641
338.086985591
339.240271479
340.358098893
341.440528035
342.487636509
343.499517595
344.476280042
345.418049305
346.324970083
347.197209945
348.034963715
348.838458324
349.607957674
350.343767282
351.046238193
351.715770102
352.352813252
352.957869256
353.531490508
354.07427853
354.586880985
355.069987787
355.524326103
355.950654686
356.34975738
356.722436258
357.069504237
357.391777669
357.69006873
357.965178115
358.217887846
358.448954621
358.65910354
358.849022461
359.019356885
359.170705471
359.303616101
359.418582561
359.516041692
359.596370955
359.659886748
359.706841504
359.737354464
359.752172692
258.641683776
258.828065465
259.206116483
259.774191959
260.518246866
261.422735059
262.470999026
263.646356984
264.932937824
266.31622895
267.783352337
269.323119585
270.925931107
272.583584329
274.289044141
276.036213344
277.819725411
279.634769702
281.476950488
283.342176251
285.226573531
287.126420193
289.038094723
290.958041113
292.882750412
294.808760286
296.73267057
298.651170171
300.561068091
302.459320382
304.343054821
306.209586006
308.056418881
309.88125445
311.681991269
313.456724401
315.203741705
316.92151788
318.608706978
320.264133746
321.886783873
323.475793409
325.030437622
326.550119545
328.034358406
329.482778159
330.895096148
332.27111202
333.610696835
334.913782496
336.180351515
337.410427353
338.604065485
339.761345498
340.882364437
341.967231675
343.016065478
344.028991407
345.006142601
345.947661852
346.853705358
347.72444778
348.560088354
349.360857446
350.127023273
350.858898081
351.556843619
352.221275271
352.85266493
353.451542164
354.018493982
354.554162943
355.059244038
355.534480152
355.980656585
356.398594453
356.789143482
357.153174037
357.491568907
357.805214733
358.094993562
358.361774482
358.606405708
358.829707122
359.032463474
359.215418224
359.379268113
359.524658413
359.652178878
359.762360274
359.855671518
359.93251757
359.993237234
360.03810038
360.067242944
360.081392261
256.486208505
256.696521806
257.121893949
257.758366719
258.587486224
259.589081909
260.742057373
262.025845788
263.421453836
264.912074232
266.483311864
268.123115329
269.82152072
271.570305913
273.362629291
275.192698988
277.055495607
278.946553502
280.861795599
282.797410786
284.749762134
286.715316115
288.690587421
290.672099601
292.656365746
294.639894108
296.619216956
298.590935457
300.551767864
302.498591866
304.428476671
306.338696992
308.22673608
310.090290086
311.927269181
313.735796348
315.514202255
317.261017504
318.974963558
320.654942611
322.300026296
323.909443451
325.482567336
327.018902653
328.518072519
329.979805743
331.403924373
332.790331524
334.138999469
335.449957895
336.723282502
337.959084033
339.157498118
340.318676177
341.442777814
342.529964971
343.580398168
344.594234987
345.571630906
346.512742405
347.417732163
348.286775995
349.120071023
349.917844542
350.680362893
351.407939799
352.100943489
352.759802362
353.385008641
353.97712024
354.536760489
355.064616241
355.56143416
356.028015705
356.465210706
356.873909972
357.255036868
357.609538389
357.938375559
358.242513857
358.522913392
358.780519619
359.016254295
359.231007316
359.425629177
359.600924381
359.75764564
359.896488923
360.018089275
360.123017383
360.211776747
360.284801324
360.342454009
360.385024003
360.412664141
360.426079882
254.102128595
254.342916377
254.828077098
255.55002843
256.484036442
257.603564877
258.881636257
260.292756554
261.814187615
263.426581177
265.114070385
266.863975923
268.666299333
270.513150415
272.398206951
274.316258922
276.262854112
278.234039777
280.22618288
282.235846876
284.25970352
286.294463266
288.336815756
290.383382758
292.430694218
294.475201872
296.513327935
298.541539038
300.55642099
302.554745115
304.533506891
306.489933347
308.421483177
310.325846475
312.200946638
314.044939425
315.856205861
317.633341472
319.375145232
321.080608045
322.748899654
324.37935437
325.971456432
327.524825143
329.039200243
330.514427852
331.95044687
333.34727583
334.704999889
336.023757916
337.303729656
338.545123255
339.74816348
340.913081143
342.040104166
343.129450791
344.181325286
345.195916443
346.173399021
347.113938063
348.017695936
348.884841536
349.715561204
350.51007038
351.268625405
351.991534358
352.679166502
353.33195946
353.950424114
354.535146786
355.086789173
355.606085926
356.093840507
356.550919193
356.978243834
357.376783139
357.747543183
358.091556917
358.409873354
358.703546336
358.97362349
359.221135439
359.447085759
359.65244176
359.838126321
360.005010746
360.153908674
360.285570957
360.400681452
360.499853573
360.583627578
360.652468683
360.706765114
360.746825731
360.772822288
360.785435945
251.456688427
251.737123473
252.299250455
253.129702462
254.194648448
255.458730277
256.88717491
258.448282527
260.114914228
261.865054979
263.681623069
265.551786576
267.466064097
269.417426496
271.400523493
273.411082865
275.445482268
277.500466812
279.572975815
281.660039296
283.758709373
285.865999745
287.978820201
290.093912273
292.207809762
294.316861474
296.417310144
298.505413647
300.577566196
302.630395394
304.660808196
306.665983306
308.643354533
310.590605003
312.50567278
314.386753178
316.232287811
318.040948071
319.811622172
321.543402745
323.235571737
324.887583582
326.499048214
328.069714151
329.599451819
331.088238227
332.536142362
333.943311149
335.309955563
336.636336398
337.922749866
339.16951316
340.376950673
341.545381411
342.67510834
343.766410225
344.819536555
345.83470591
346.812108047
347.751909679
348.654263744
349.51932156
350.347247136
351.138232567
351.892513405
352.610382919
353.292204164
353.938419304
354.549555494
355.126227682
355.66913811
356.179073495
356.656899875
357.103555719
357.52004336
357.907419049
358.266781794
358.599261458
358.90600601
359.188168811
359.446895566
359.683312174
359.898513109
360.093551299
360.269429092
360.427090694
360.567415798
360.691214371
360.799222501
360.892099134
360.97042358
361.034693527
361.085323958
361.122645024
361.146847432
361.158585373
248.507438151
248.840808251
249.504193185
250.474775906
251.705346334
253.148299401
254.758577152
256.496764585
258.3307195
260.235893927
262.194616267
264.194755552
266.228219162
268.289602546
270.375128672
272.481898026
274.607409248
276.749287951
278.90515734
281.072588771
283.249078209
285.432006968
287.618564749
289.805646051
291.989766511
294.167096763
296.33358654
298.48516758
300.617953267
302.728384147
304.813273877
306.869766438
308.895276509
310.887476918
312.844320193
314.764050933
316.645186243
318.486486786
320.286942785
322.045763665
323.762360133
325.436323571
327.067406616
328.655503382
330.200630454
331.702910374
333.1625563
334.579857563
335.955165104
337.288876046
338.581417322
339.833228838
341.044747018
342.216389603
343.348542617
344.441550356
345.495709097
346.511265135
347.488417502
348.427325452
349.328120522
350.190922375
351.015857582
351.803079737
352.552789654
353.265253801
353.940819961
354.579928789
355.18312111
355.751040659
356.284433177
356.784142377
357.251103807
357.686336567
358.090933446
358.466049196
358.812887802
359.132688438
359.426710997
359.696220965
359.942474503
360.166704052