/*--------------------------------*- C++ -*----------------------------------*\
| =========                 |                                                 |
| \\      /  F ield         | OpenFOAM: The Open Source CFD Toolbox           |
|  \\    /   O peration     | Version:  v1906                                 |
|   \\  /    A nd           | Web:      www.OpenFOAM.com                      |
|    \\/     M anipulation  |                                                 |
\*---------------------------------------------------------------------------*/
FoamFile
{
    version     2.0;
    format      ascii;
    class       volScalarField;
    location    "545";
    object      p;
}
// * * * * * * * * * * * * * * * * * * * * * * * * * * * * * * * * * * * * * //

dimensions      [0 2 -2 0 0 0 0];


internalField   nonuniform List<scalar> 
9216
(
273.608757836
273.688524564
273.853578171
274.105323521
274.442340426
274.86304201
275.365460357
275.947285431
276.605905207
277.338444291
278.141803061
279.012695235
279.947685384
280.943222963
281.995675653
283.101357699
284.256557734
285.457560616
286.700669614
287.982221981
289.298606226
290.646272277
292.021744933
293.421629666
294.842623385
296.281516857
297.735203723
299.200680312
300.675053593
302.155538927
303.639467474
305.124281696
306.607542415
308.086923805
309.560219712
311.025336442
312.480299233
313.923243913
315.352423106
316.766196671
318.163037745
319.541522106
320.900334116
322.238255175
323.554169619
324.847052456
326.115975282
327.360093491
328.578652271
329.770973481
330.936461771
332.074591315
333.184912086
334.267036597
335.32064634
336.34547868
337.34133343
338.308059995
339.245564047
340.15379498
341.032752614
341.882475007
342.70304509
343.494578854
344.257231815
344.991187584
345.696664055
346.373902364
347.023172705
347.644763685
348.238987696
348.806170689
349.346657045
349.860799812
350.348965038
350.811522523
351.248849616
351.661322544
352.049319671
352.41321349
352.753373358
353.070158241
353.363918938
353.634991673
353.883699857
354.110348619
354.315226206
354.498599652
354.660716137
354.801800556
354.92205861
355.02168024
355.100855278
355.159826219
355.199520132
355.215615396
273.529035525
273.609164577
273.774562151
274.027309557
274.365762344
274.788258763
275.292786277
275.876997511
276.538244499
277.273616439
278.079978814
278.954011813
279.892248072
280.891107611
281.946930966
283.056008337
284.214606698
285.418992439
286.665452394
287.95031035
289.269942787
290.620790236
291.999368869
293.402277857
294.826207952
296.267945884
297.72438088
299.192506882
300.669427668
302.152357411
303.638624744
305.125672276
306.611059936
308.092462634
309.567673229
311.034599634
312.491266926
313.935813342
315.366491915
316.78166559
318.179808386
319.559499735
320.919425262
322.258370471
323.575221239
324.868957002
326.138651067
327.383463455
328.602641133
329.795510667
330.961478467
332.100023388
333.210697071
334.293116607
335.346965015
336.371984078
337.367974977
338.334791346
339.27234007
340.180574586
341.0594958
341.909145642
342.729608048
343.521002747
344.283486233
345.017245752
345.722500205
346.399494293
347.048499283
347.669807301
348.263731904
348.83060252
349.370764796
349.884575199
350.372401133
350.834615735
351.271597775
351.683726691
352.071382297
352.434940123
352.774770966
353.091236594
353.384689184
353.655467463
353.903896082
354.130282255
354.334915135
354.518063023
354.679972783
354.820867561
354.940945726
355.040376971
355.119293999
355.177759447
355.215644164
355.231713757
273.363223759
273.444501159
273.611431617
273.866484054
274.20798213
274.634219218
275.143121552
275.732273899
276.398956815
277.14018677
277.952757152
278.833278498
279.778217478
280.783933027
281.846709943
282.962788618
284.128391914
285.339747975
286.593110515
287.884775341
289.211095043
290.568490418
291.953460869
293.362592012
294.792563014
296.240151498
297.702238787
299.175812913
300.65797242
302.145927985
303.637005153
305.128644906
306.618405569
308.103962235
309.583107934
311.05375229
312.513921903
313.961758132
315.395516802
316.81356523
318.21438133
319.596549963
320.95876154
322.299807823
323.618580137
324.914064763
326.185340881
327.431575696
328.652022243
329.846014383
331.012964586
332.152358922
333.263754912
334.346776628
335.401112683
336.426511506
337.422779524
338.389776647
339.32741465
340.23565289
341.114496856
341.963994098
342.784232908
343.575338421
344.337471353
345.070824238
345.775620162
346.452109073
347.100566462
347.721289716
348.3145967
348.880822134
349.420316064
349.933440262
350.42056659
350.882073454
351.318344082
351.729763066
352.116714596
352.479579148
352.818731717
353.134538703
353.427356194
353.697527117
353.945379608
354.171224472
354.375353681
354.558038135
354.719526198
354.860041504
354.979780826
355.078910289
355.157559148
355.215803323
355.253582914
355.271359193
273.10829445
273.190858933
273.360186976
273.618844094
273.965092707
274.397150489
274.912849801
275.509670485
276.184781797
276.935086625
277.757265837
278.647821439
279.603117687
280.619418931
281.692924079
282.81979696
283.996193035
285.218282081
286.482267665
287.784403157
289.121005312
290.48846512
291.883257059
293.301946274
294.741194871
296.197766634
297.66853137
299.150467992
300.640667549
302.136335139
303.634791973
305.133476268
306.629944531
308.12187171
309.607051551
311.083395852
312.548934115
314.001811997
315.440290221
316.862742296
318.267652765
319.653614276
321.019325276
322.363586563
323.685298545
324.983457408
326.257152088
327.505560191
328.727944819
329.923650382
331.0920994
332.232788341
333.345284501
334.429221971
335.484298675
336.51027254
337.506958745
338.474226118
339.411994622
340.320231982
341.198951377
342.048208276
342.868098287
343.658754151
344.420343683
345.15306686
345.857153793
346.532861846
347.180473578
347.800293853
348.39264771
348.957877441
349.496340378
350.008405936
350.494453325
350.954868585
351.390042253
351.800366432
352.186232455
352.548028038
352.886135002
353.20092656
353.492765149
353.761999909
354.008964667
354.233975648
354.43732962
354.619301826
354.7801442
354.920083301
355.039318195
355.138017775
355.216317585
355.274314479
355.311992947
355.330117928
272.763166471
272.847379909
273.019997633
273.283608871
273.636382648
274.076425839
274.601438735
275.208754584
275.895387662
276.65808315
277.493366303
278.397589653
279.366977134
280.397664131
281.485733155
282.627244788
283.818264215
285.054883396
286.333239521
287.649529987
289.000024644
290.381075516
291.789124757
293.220710891
294.672474028
296.141159954
297.623623673
299.116832164
300.617866858
302.123925463
303.632323643
305.140495918
306.645996676
308.146500596
309.639802602
311.123817322
312.596578422
314.056237257
315.501061438
316.929432732
318.339844927
319.730901086
321.101310824
322.449887033
323.775542712
325.077287307
326.354223249
327.605542062
328.830520744
330.0285178
331.198969609
332.3413865
333.455349228
334.540505201
335.596565148
336.623299575
337.620535676
338.588154055
339.526085893
340.434309929
341.312849867
342.16177157
342.981180653
343.771219836
344.532066637
345.26393081
345.967052075
346.641697559
347.288159497
347.906752629
348.497811827
349.06168942
349.598752734
350.109381346
350.593964547
351.052898558
351.486583948
351.895422852
352.279816406
352.640162017
352.97685087
353.290265318
353.580776511
353.848741963
354.09450335
354.31838429
354.520688333
354.701696948
354.861667666
355.000832189
355.119394575
355.217529522
355.295381066
355.353061192
355.390573782
355.40874562
272.326057012
272.412362218
272.589215914
272.859214417
273.22039765
273.67072159
274.207709903
274.82850145
275.52990627
276.308462879
277.160493836
278.082158187
279.069499477
280.118488461
281.225060185
282.385145404
283.59469669
284.849709657
286.146239978
287.480416784
288.848453142
290.246654153
291.671423276
293.11926723
294.586799946
296.070745729
297.567941949
299.075341266
300.590013592
302.109147694
303.630052566
305.150158249
306.667016698
308.178302334
309.681811718
311.175463091
312.657295543
314.125467683
315.578256005
317.014052782
318.431363695
319.828805054
321.205100806
322.559079219
323.889669422
325.195897704
326.476883757
327.73183675
328.960051432
330.160904141
331.333848919
332.478413592
333.594196026
334.680860391
335.738133646
336.765802075
337.763708061
338.731746914
339.669863954
340.578051631
341.456346874
342.304828458
343.123614552
343.912860257
344.672755267
345.403521479
346.105410686
346.778702172
347.423700356
348.040732319
348.630145346
349.19230435
349.727589307
350.23639257
350.719116217
351.176169296
351.607965114
352.014918472
352.39744296
352.755948233
353.090837384
353.402504329
353.691331312
353.957686463
354.201921491
354.424369453
354.625342667
354.805130717
354.963998595
355.102184948
355.219900502
355.317326861
355.394615841
355.451888688
355.489157278
355.507253944
271.794688721
271.883584857
272.065703192
272.343640251
272.715267043
273.178342274
273.730160802
274.367611491
275.087243584
275.885333601
276.757949118
277.701007768
278.710329991
279.781684759
280.910828114
282.093534741
283.325623205
284.60297561
285.921552566
287.277404332
288.666678981
290.085628294
291.530612056
292.998101204
294.484680287
295.987049452
297.502026196
299.026546933
300.557668466
302.092569291
303.628550728
305.163037667
306.693579391
308.217850122
309.733648563
311.238897446
312.731642599
314.210051559
315.67241179
317.117128472
318.542721944
319.947824768
321.331178531
322.691630342
324.02812915
325.339721852
326.625549309
327.884842239
329.116917112
330.321171997
331.497082492
332.644197687
333.76213626
334.850582678
335.909283573
336.938044256
337.936725434
338.90524008
339.843550499
340.751665535
341.629637951
342.47756191
343.295570585
344.083833816
344.842555845
345.571973045
346.272351664
346.943985519
347.587193673
348.202318014
348.789720803
349.349782115
349.882897235
350.389473964
350.869929896
351.324689625
351.754181949
352.15883704
352.539083651
352.895346321
353.228042647
353.537580609
353.824355977
354.088749811
354.331126073
354.551829351
354.751182723
354.929485745
355.0870126
355.224010418
355.340697817
355.43726385
355.513867416
355.570636144
355.607585985
355.625542488
271.166238822
271.25828363
271.446802335
271.734384344
272.118684323
272.597208301
273.166959936
273.82451227
274.566087713
275.3876373
276.284914816
277.253543791
278.289075781
279.387039331
280.542979712
281.752490101
283.011235185
284.314968387
285.659543924
287.040924872
288.455188275
289.898528219
291.367257576
292.857809023
294.366735708
295.890711879
297.426533596
298.971119597
300.52151229
302.074878812
303.628511843
305.179830585
306.726381471
308.265838594
309.796003352
311.314803926
312.820294277
314.31065267
315.78417975
317.239296182
318.674539879
320.08856288
321.48012789
322.848104558
324.191465523
325.509282286
326.800720959
328.065037933
329.30157552
330.509757605
331.68908536
332.839133042
333.959543932
335.050026424
336.110350292
337.140343165
338.1398872
339.10891597
340.047411555
340.955401824
341.83295789
342.680191706
343.497253783
344.284330982
345.041644363
345.769447035
346.468022002
347.137679954
347.778756998
348.391612299
348.976625638
349.534194858
350.064733236
350.56866675
351.046431287
351.498469786
351.925229346
352.327158315
352.704703384
353.058306703
353.388403047
353.695417042
353.979760485
354.241829749
354.482003321
354.700639462
354.898074008
355.074618334
355.230557481
355.36614849
355.481618952
355.577165969
355.652955395
355.709120281
355.745680182
355.763451934
270.437276819
270.533098293
270.729290169
271.028422628
271.427875672
271.924834459
272.51593541
273.197356478
273.964915004
274.814162771
275.740472991
276.739116831
277.805327896
278.93435435
280.121499259
281.362150388
282.65180104
283.986063632
285.360677701
286.77151383
288.214574826
289.685995213
291.182039882
292.699102521
294.233704256
295.782492724
297.34224172
298.909851349
300.482348631
302.056888374
303.630753831
305.201357911
306.766243972
308.323086145
309.869689095
311.403987475
312.924044869
314.428052205
315.914325683
317.381304214
318.82754643
320.251727285
321.652634337
323.029163718
324.380315882
325.705191178
327.002985298
328.272984653
329.514561741
330.727170542
331.910341991
333.063679575
334.186855083
335.279604554
336.341724441
337.373068007
338.373541976
339.343103427
340.281756941
341.189551959
342.066580351
342.91297415
343.728903419
344.514574199
345.270226516
345.99613238
346.692593761
347.359940491
347.998528081
348.608735416
349.19096234
349.7456271
350.273163683
350.774019035
351.248650185
351.697521303
352.121100694
352.519857778
352.894260064
353.244770141
353.571842728
353.87592178
354.157437698
354.416804638
354.654417948
354.870651751
355.065856681
355.240357791
355.394452639
355.528409596
355.642466358
355.736828815
355.811670158
355.867129025
355.903229183
355.920778632
269.603688797
269.704003317
269.909315636
270.222157764
270.639561191
271.158304633
271.774562889
272.484021978
273.282000315
274.163563881
275.123628989
276.157049922
277.25869
278.423476331
279.646439585
280.922740882
282.247688174
283.616744545
285.025530631
286.469823127
287.945550938
289.448790264
290.975759508
292.522814711
294.086445886
295.663274463
297.250051848
298.843658988
300.441106706
302.039536587
303.636221614
305.228567743
306.814115003
308.390537684
309.955644298
311.50737706
313.043810763
314.563151096
316.063732371
317.544014748
319.002580958
320.438132611
321.849486127
323.23556837
324.595412036
325.928150866
327.233014741
328.509324723
329.756488091
330.973993438
332.16140586
333.318362312
334.444567141
335.539787866
336.603851212
337.636639429
338.638086908
339.608177103
340.546939729
341.45444824
342.330817537
343.176201877
343.990792927
344.774817917
345.52853784
346.25224564
346.946264352
347.610945141
348.24666522
348.853825617
349.432848781
349.984176027
350.508264829
351.005585963
351.476620545
351.921856962
352.341787746
352.736906409
353.107704271
353.454667311
353.778273072
354.078987632
354.357262679
354.613532707
354.848212342
355.061693832
355.254344696
355.426505565
355.578488214
355.710573801
355.823011328
355.916016431
355.989770333
356.044417808
356.079987859
356.097279397
268.660582282
268.766218642
268.982321662
269.311355564
269.749908514
270.294243392
270.939954562
271.682116233
272.515434165
273.434386267
274.433344489
275.506674987
276.648815674
277.854332308
279.117955717
280.434603439
281.799389291
283.207624164
284.654810962
286.136636068
287.648959238
289.187803294
290.74934467
292.329905401
293.925946974
295.534066095
297.150992303
298.773587124
300.398844428
302.023891554
303.645990215
305.262538573
306.871072948
308.469267807
310.054936082
311.626028674
313.180633306
314.716972683
316.233402029
317.728406018
319.200595182
320.648701839
322.071575641
323.468178787
324.837580992
326.178954286
327.491567692
328.774781874
330.028043792
331.250881444
332.442898735
333.603770534
334.733237969
335.831103996
336.897229289
337.931528465
338.933966672
339.904556531
340.843355429
341.750463127
342.626019663
343.470203469
344.283229674
345.06534851
345.816843755
346.538031157
347.229256779
347.890895206
348.523347588
349.127039483
349.7024185
350.249951727
350.770122964
351.263429785
351.730380442
352.171490662
352.587280359
352.978270297
353.344978751
353.687918182
354.007591972
354.304491241
354.57909177
354.831851052
355.063205507
355.273567846
355.463324637
355.632834052
355.782423829
355.912389446
356.022992512
356.114459466
356.186980445
356.240707188
356.275674861
356.292672718
267.602164799
267.714096547
267.942946315
268.291066398
268.754477411
269.32878468
270.008850511
270.788987378
271.663149471
272.625105301
273.668582312
274.787380632
275.97545602
277.226974895
278.536345796
279.898232379
281.307552882
282.759470557
284.249378703
285.772883229
287.325784827
288.904062312
290.503858083
292.121466348
293.753324338
295.396006525
297.046221517
298.700811204
300.356751506
302.011154145
303.661268183
305.304482849
306.938330108
308.560484475
310.168763799
311.761128855
313.335682128
314.890665824
316.424459137
317.935574857
319.42265537
320.884468164
322.319900892
323.72795611
325.107745751
326.458485438
327.779488685
329.070161086
330.329994535
331.558561554
332.755509787
333.920556718
335.053484673
336.154136155
337.222409552
338.258255266
339.261672254
340.232705023
341.171441022
342.078008443
342.952574339
343.795343037
344.606554736
345.386484234
346.135439683
346.853761306
347.541819987
348.200015696
348.828775671
349.428552365
349.999821108
350.543077519
351.058834662
351.547619985
352.009972076
352.446437278
352.85756621
353.243910224
353.60601786
353.944431318
354.259683
354.552292136
354.822761536
355.071574488
355.299191824
355.506049161
355.692554356
355.859085161
356.0059871
356.133571569
356.242114154
356.331853279
356.402988982
356.455680768
356.48997097
356.506638318
266.421588004
266.540976111
266.784898167
267.155528236
267.64815464
268.257538808
268.97761538
269.801745859
270.722962256
271.734179573
272.828366839
273.998674449
275.238519967
276.541637839
277.902100226
279.314316431
280.773017905
282.273234591
283.810267201
285.379658668
286.97716712
288.598741786
290.240502805
291.898725363
293.569828335
295.250367172
296.937030596
298.626640259
300.316152552
302.002661458
303.683401341
305.355750978
307.017236878
308.665533225
310.298463219
311.913998726
313.510258999
315.085508468
316.6381537
318.166739581
319.669944855
321.146577092
322.595567208
324.015963623
325.406926174
326.767719853
328.097708475
329.396348329
330.663181902
331.897831734
333.09999448
334.269435223
335.405982147
336.509521578
337.579993498
338.617387535
339.62173948
340.593128324
341.531673805
342.437534421
343.310905862
344.152019756
344.961142671
345.738575228
346.484651256
347.199736866
347.884229361
348.538555902
349.163171885
349.758558978
350.325222826
350.863690411
351.37450711
351.858233476
352.315441806
352.746712531
353.152630499
353.533781189
353.890746919
354.224103085
354.534414466
354.822231646
355.088087564
355.332494232
355.555939641
355.758884867
355.941761395
356.104968677
356.248871917
356.373800099
356.480044241
356.567855963
356.637446246
356.688983282
356.722517415
356.738815816
265.110745743
265.238996997
265.500798359
265.898047618
266.425078331
267.075560098
267.842244776
268.717302342
269.692632373
270.760125709
271.911864976
273.140263747
274.438150027
275.798803797
277.215959856
278.683786908
280.196852268
281.750079625
283.338705154
284.958235587
286.604410397
288.27316938
289.960626274
291.663048715
293.376844452
295.098553459
296.824845106
298.552519283
300.278510151
301.999890366
303.713876823
305.41783586
307.109286512
308.785902054
310.445511362
312.086098688
313.705802253
315.302911767
316.875864962
318.423243286
319.943766851
321.436288786
322.899789088
324.333368126
325.73623988
327.107725043
328.447244054
329.754310168
331.028522593
332.269559821
333.477173173
334.651180667
335.79146127
336.897949624
337.970631299
339.009538638
340.014747227
340.986373007
341.924569996
342.829528598
343.701474397
344.540667362
345.347401323
346.1220036
346.864834642
347.576287556
348.256787402
348.90679017
349.526781369
350.117274185
350.678807199
351.211941692
351.717258554
352.19535487
352.646840233
353.072332871
353.472455626
353.847831887
354.199081504
354.526816745
354.831638345
355.114131678
355.374863088
355.614376404
355.833189667
356.031792078
356.2106412
356.370160392
356.510736512
356.632717864
356.736412393
356.822086218
356.889962331
356.940218447
356.972913862
356.98880297
263.660010134
263.798856968
264.081979842
264.510853426
265.078552063
265.777319253
266.59838836
267.53243024
268.569952842
269.701622232
270.91849407
272.212159398
273.574816612
274.999285963
276.478983763
278.007871791
279.580394349
281.191411993
282.83613788
284.510080118
286.208991868
287.928829855
289.665721546
291.415940933
293.175892773
294.942104658
296.711225827
298.480031011
300.245427429
302.004461508
303.754328269
305.492378228
307.216120713
308.923227073
310.611532095
312.279033807
313.923891885
315.544424759
317.139105635
318.706557548
320.245547623
321.754980664
323.233892244
324.681441413
326.096903187
327.479660904
328.829198562
330.145093205
331.427007443
332.674682142
333.887929413
335.06662593
336.210706716
337.320159456
338.395019457
339.435365299
340.441315265
341.413024523
342.350683092
343.254514496
344.124775047
344.9617536
345.765771654
346.537183613
347.276377045
347.983772773
348.659824654
349.305018927
349.919873056
350.504934014
351.060776014
351.587997704
352.087218889
352.559076848
353.004222338
353.423315368
353.817020844
354.18600413
354.530926634
354.85244144
355.151189058
355.427793314
355.682857434
355.916960333
356.130653146
356.324456008
356.498855109
356.654300021
356.791201299
356.909928366
357.010807651
357.09412107
357.160104719
357.208946763
357.240716266
357.256153526
262.057882176
262.209495419
262.518230217
262.984918012
263.600949934
264.356687596
265.241400308
266.243865124
267.35287969
268.557652863
269.848064791
271.21480837
272.6494341
274.144324911
275.692626515
277.288154781
278.925296005
280.598910597
282.304246017
284.036861578
285.792565625
287.567364741
289.357424433
291.159041029
292.968624506
294.782691692
296.597868303
298.410897449
300.218651639
302.018143896
303.806540893
305.58117269
307.339536078
309.079299104
310.798302628
312.494560059
314.166255381
315.811739722
317.429526675
319.018286594
320.576839996
322.104150261
323.599315793
325.061561831
326.490232043
327.884780069
329.244761058
330.569823328
331.859700157
333.114201805
334.333207817
335.51665973
336.664554277
337.776937221
338.85389793
339.895564807
340.902101634
341.873704869
342.810601886
343.713050088
344.581336784
345.415779658
346.216727651
346.984562031
347.719697425
348.422582622
349.093700941
349.733570039
350.342741044
350.921796984
351.471350488
351.992040838
352.484530409
352.949500649
353.387647677
353.799677633
354.186301887
354.548232192
354.886175861
355.200831038
355.492882099
355.762995238
356.011814264
356.239956645
356.448009823
356.636527811
356.806028103
356.956988872
357.089846496
357.204993361
357.302775964
357.383493376
357.4473959
357.494682985
357.525434388
357.540374842
260.290523173
260.457672832
260.797460504
261.309738995
261.983616922
262.806945143
263.766433728
264.848458826
266.039718939
267.327702902
268.700968963
270.149261155
271.663501682
273.235701124
274.858823808
276.526637176
278.233564645
279.974553043
281.744959318
283.540456972
285.356960555
287.190565967
289.03750504
290.894113815
292.756814707
294.622112296
296.486600977
298.34698092
300.200077702
302.042860072
303.872457979
305.686175018
307.48149179
309.256071415
311.007761083
312.734591512
314.434774409
316.106698236
317.74892267
319.360171943
320.939327246
322.485418336
323.997614623
325.475215902
326.917642956
328.324428153
329.695206145
331.029704703
332.327735751
333.589186601
334.814011515
336.002223655
337.153887609
338.269112612
339.348046659
340.390871619
341.39779948
342.369069765
343.304948118
344.205725983
345.071721239
345.903279566
346.700776334
347.464618678
348.195247533
348.893139311
349.558807012
350.19280058
350.795706389
351.368145792
351.910772783
352.424270786
352.909348758
353.366736681
353.797180659
354.201437729
354.580270556
354.934442078
355.264710237
355.571822818
355.856512473
356.119491952
356.361449598
356.583045115
356.784905645
356.96762218
357.131746302
357.27778728
357.40620949
357.517430181
357.611817541
357.689689131
357.751310566
357.796893494
357.826529173
357.840925211
258.341115713
258.527407446
258.905275165
259.47307588
260.21677374
261.120832615
262.168604397
263.343414274
264.629393686
266.012026549
267.478424281
269.017380562
270.619270979
272.275862171
273.980083529
275.725798901
277.507600477
279.320634827
281.16046243
283.022947111
284.904169771
286.800361323
288.70785174
290.623034822
292.54235009
294.462283074
296.379381902
298.290285142
300.191752298
302.08069267
303.954189181
305.809511102
307.64411882
309.455668882
311.24201531
313.001208637
314.731492453
316.431298074
318.099237881
319.734097575
321.334827349
322.900532236
324.43046187
325.923999988
327.380653861
328.800043891
330.181893374
331.526018516
332.832318611
334.100766459
335.331399039
336.524308592
337.67963429
338.797554712
339.878281332
340.922053233
341.929133196
342.899805243
343.83437364
344.733163293
345.596521325
346.424819612
347.218457916
347.977867289
348.703513339
349.395899031
350.055566716
350.683099157
351.279119403
351.844289479
352.379307895
352.884906111
353.361844109
353.810905287
354.232890876
354.628614106
354.998894245
355.344550687
355.666397137
355.965235993
356.241852929
356.497011761
356.731449584
356.945872254
357.140950205
357.317314658
357.475554199
357.616211756
357.739781954
357.846708829
357.93738388
358.012144528
358.071272792
358.114993332
358.143409819
358.157211
256.188976593
256.399206604
256.82441124
257.460637338
258.289445293
259.290680539
260.443262803
261.726638661
263.121822762
264.612007863
266.182789581
267.822097596
269.519940282
271.26806058
273.059576555
274.88865256
276.75022342
278.639776877
280.553188916
282.486601215
284.436328938
286.398789219
288.37044532
290.347766836
292.327210692
294.305227941
296.278294292
298.2429566
300.195880103
302.133893994
304.054021066
305.953487951
307.829731009
309.680398805
311.503353187
313.296667843
315.058623503
316.787700939
318.482572993
320.14209561
321.76529761
323.351369464
324.899651508
326.409621931
327.880884915
329.3131591
330.706266448
332.060121388
333.374720176
334.650130387
335.886480597
337.083950406
338.242761056
339.363166926
340.445448227
341.489905154
342.496853737
343.466623508
344.399557017
345.2960111
346.156359679
346.98099776
347.770346197
348.52485676
349.245017
349.931354463
350.584439856
351.204888889
351.793362602
352.350566143
352.877246044
353.374186172
353.842202596
354.282137652
354.694853513
355.081225503
355.442135403
355.778464841
356.091088907
356.380869997
356.648651952
356.895254489
357.121467981
357.328048599
357.515713871
357.685138657
357.836951575
357.971731865
358.090006681
358.192248788
358.27887463
358.3502428
358.406652789
358.448343124
358.47543069
358.488583527
253.808298572
254.049004971
254.534003889
255.255722971
256.189448916
257.308669858
258.586433721
259.997269101
261.518453474
263.130643612
264.817964971
266.567717574
268.369870914
270.216493875
272.101217368
274.018781211
275.96468188
277.934915604
279.925799229
281.933846812
283.955680567
285.987959856
288.027320275
290.070325537
292.113443729
294.15306271
296.185541962
298.207288857
300.214834418
302.204899274
304.174430727
306.120607235
308.040838331
309.932763693
311.794254557
313.623412407
315.418561878
317.178241178
318.901192612
320.586352568
322.232839627
323.839941427
325.407100937
326.933902643
328.420059138
329.865398481
331.269852158
332.633443486
333.956276174
335.238522859
336.480413633
337.682224779
338.844268037
339.966880842
341.05041793
342.095244738
343.101732874
344.07025789
345.001199402
345.894943458
346.751886881
347.572443148
348.357049256
349.106172932
349.820319546
350.500038119
351.145925918
351.758631282
352.33885445
352.887346377
353.404905605
353.892373481
354.35062802
354.780576875
355.183149773
355.559290817
355.909950859
356.23608015
356.538621294
356.81850255
357.076631474
357.313888901
357.531123322
357.729145672
357.908724582
358.070582131
358.215390109
358.343766775
358.456274122
358.553415577
358.635634114
358.703310799
358.756763605
358.796245673
358.821887958
358.834335745
251.166322133
251.446670138
252.008627021
252.838840862
253.903510125
255.167312274
256.595512842
258.156447762
259.823004926
261.57318135
263.389889489
265.260273656
267.174813637
269.126430701
271.109718495
273.120346211
275.154633212
277.209268581
279.28113845
281.367222095
283.464521721
285.569999488
287.680509365
289.792730491
291.903127374
294.007975563
296.103446693
298.185733688
300.251173529
302.296343648
304.318102978
306.313581563
308.280162602
310.215476272
312.117405067
313.984084824
315.813893234
317.605435479
319.357533581
321.069216154
322.73970458
324.368397259
325.954853533
327.498777506
329.000002876
330.458479182
331.8742591
333.247486308
334.578383432
335.867239588
337.114397588
338.320241026
339.485181821
340.609648756
341.694077644
342.738903637
343.744556145
344.711456645
345.640019521
346.530655793
347.383779434
348.199815677
348.979210596
349.722441104
350.430024499
351.102526763
351.740568951
352.344831203
352.916054129
353.455037547
353.962636732
354.43975653
354.887343857
355.306379142
355.69786733
356.062828858
356.402291002
356.717279654
357.008811633
357.277887413
357.525484265
357.752549763
357.959995714
358.148692551
358.31946426
358.473083881
358.610269605
358.731681471
358.837918605
358.929516989
359.006947655
359.070615343
359.120857444
359.157942434
359.182016079
359.19369872
248.220600982
248.553868546
249.217054772
250.187364579
251.417628243
252.860291575
254.470353659
256.208454485
258.042495008
259.947949467
261.907142352
263.90791325
265.942120081
268.004295745
270.090594257
272.198046149
274.324083022
276.466268709
278.622170649
280.789309578
282.965133461
285.14697415
287.33196562
289.516935768
291.698320734
293.872203258
296.034449976
298.180918998
300.307667367
302.411089632
304.487952547
306.535353546
308.550655734
310.531477187
312.475712072
314.381540607
316.247406709
318.071993685
319.854214171
321.593202649
323.288298738
324.939027599
326.545080903
328.106297488
329.622645958
331.094210158
332.52117618
333.903820227
335.242496276
336.537622686
337.789667761
338.999134754
340.166547076
341.292434585
342.377321753
343.421718474
344.426114124
345.390975309
346.316747519
347.203860575
348.052737459
348.863805778
349.637510886
350.374329517
351.074782749
351.739447252
352.368963909
352.964043281
353.525467574
354.054089143
354.550825754
355.016653136
355.45259551
355.859714997
356.239100668
356.591857947
356.919098706
357.221932197
357.501456712
357.758751811
357.994870954
358.210834513