/*--------------------------------*- C++ -*----------------------------------*\
| =========                 |                                                 |
| \\      /  F ield         | OpenFOAM: The Open Source CFD Toolbox           |
|  \\    /   O peration     | Version:  v1906                                 |
|   \\  /    A nd           | Web:      www.OpenFOAM.com                      |
|    \\/     M anipulation  |                                                 |
\*---------------------------------------------------------------------------*/
FoamFile
{
    version     2.0;
    format      ascii;
    class       volScalarField;
    location    "77";
    object      pa;
}
// * * * * * * * * * * * * * * * * * * * * * * * * * * * * * * * * * * * * * //

dimensions      [0 2 -2 0 0 0 0];


internalField   nonuniform List<scalar> 
9216
(
18847.2080948
18842.1015699
18831.6339307
18815.7936541
18794.6516889
18768.2960857
18736.8364725
18700.4018847
18659.139027
18613.2103253
18562.792044
18508.0722262
18449.2487835
18386.5274649
18320.1200655
18250.2425556
18177.1135186
18100.9525267
18021.9788678
17940.4102076
17856.461622
17770.3445485
17682.2661097
17592.4283298
17501.0277169
17408.2547068
17314.293461
17219.3214964
17123.5096542
17027.0218723
16930.0152817
16832.6400799
16735.0396982
16637.3506638
16539.7029343
16442.2208908
16345.0221608
16248.2182162
16151.9146939
16056.211469
15961.202997
15866.9783837
15773.6217283
15681.2121936
15589.8243434
15499.5282098
15410.3896214
15322.4702646
15235.8279995
15150.5169142
15066.5876271
14984.0873335
14903.0600924
14823.5468668
14745.585795
14669.2122236
14594.4589636
14521.3563183
14449.9323234
14380.2127697
14312.2214292
14245.9800731
14181.5086831
14118.8254669
14057.9470549
13998.8885128
13941.6635254
13886.2844068
13832.7622707
13781.1070397
13731.3276025
13683.431822
13637.4266799
13593.3182843
13551.1120021
13510.8124658
13472.4236938
13435.9490977
13401.3915897
13368.7535901
13338.0371231
13309.2438243
13282.3750243
13257.4317568
13234.4148302
13213.3248351
13194.162205
13176.9272228
13161.6200685
13148.2408234
13136.7894997
13127.2660281
13119.670226
13114.0016508
13110.2623402
13108.4230015
18852.4827891
18847.4556863
18837.0572829
18821.3091529
18800.2850967
18774.0731083
18742.7810507
18706.5354529
18665.4800154
18619.7738598
18569.5897161
18515.112001
18456.5349468
18394.0606978
18327.8975348
18258.2581214
18185.3579309
18109.4137243
18030.6422402
17949.2589434
17865.4769977
17779.5062895
17691.5526739
17601.8172544
17510.4958733
17417.7786143
17323.8495002
17228.8861801
17133.0597935
17036.534804
16939.4689943
16842.0134119
16744.3124714
16646.5040531
16548.7197419
16451.0840019
16353.715547
16256.7270184
16160.2252163
16064.3112319
15969.0806915
15874.6239019
15781.0261005
15688.3676029
15596.7240521
15506.1665637
15416.7619686
15328.5729529
15241.6582918
15156.0729814
15071.868462
14989.0927414
14907.790606
14828.0037357
14749.7709027
14673.1280774
14598.1086152
14524.743354
14453.0607894
14383.0871638
14314.8466305
14248.3613354
14183.65157
14120.7358469
14059.6310419
14000.3524629
13942.9139829
13887.328103
13833.606075
13781.7579602
13731.7927424
13683.7183817
13637.5419186
13593.2695237
13550.9065923
13510.4577908
13471.9271421
13435.3180678
13400.6334662
13367.8757498
13337.0469148
13308.1485754
13281.1820252
13256.148267
13233.0480666
13211.8819787
13192.6503922
13175.353553
13159.9916001
13146.5645855
13135.0725038
13125.5153132
13117.8929762
13112.2055738
13108.4581562
13106.6059348
18863.2103419
18858.2270743
18847.7246372
18831.8294616
18810.6100846
18784.1572614
18752.5819845
18716.0145
18674.6025683
18628.5096287
18577.9128603
18523.0011777
18463.9732441
18401.0355072
18334.4003323
18264.284217
18190.9061545
18114.4861097
18035.2436686
17953.3968107
17869.1608577
17782.7475391
17694.3642249
17604.213257
17512.4914323
17419.3895617
17325.0921611
17229.7771963
17133.6159385
17036.7728545
16939.4055893
16841.6649658
16743.6950721
16645.6334002
16547.6109482
16449.751961
16352.1745322
16254.9907283
16158.3067573
16062.2231333
15966.8348889
15872.231758
15778.4983955
15685.7145624
15593.9553429
15503.2913259
15413.7888158
15325.5100061
15238.5131816
15152.8528832
15068.580099
14985.7424194
14904.3842171
14824.5467919
14746.2685393
14669.5850851
14594.5294435
14521.1321413
14449.4213654
14379.4230783
14311.1611549
14244.6574896
14179.9321237
14117.0033438
14055.8878006
13996.6006003
13939.1554135
13883.5645608
13829.8391131
13777.9889704
13728.0229549
13679.9488831
13633.7736518
13589.5033038
13547.1431075
13506.6976162
13468.170741
13431.5658049
13396.8856082
13364.1324779
13333.3083259
13304.4146935
13277.4528026
13252.4235953
13229.3277783
13208.1658574
13188.9381755
13171.6449418
13156.2862637
13142.8621724
13131.3726511
13121.8176593
13114.197167
13108.5111874
13104.7654165
13102.8956405
18879.5350484
18874.6422065
18863.9902285
18847.8856169
18826.3890422
18799.5958644
18767.6217019
18730.6022324
18688.6910808
18642.0578302
18590.8859137
18535.3704699
18475.7162236
18412.1354218
18344.8458771
18274.0691274
18200.0287504
18122.9488253
18043.052567
17960.5611134
17875.6924825
17788.6606717
17699.6749111
17608.9390394
17516.6510107
17423.0025018
17328.1786259
17232.3577233
17135.7112367
17038.4036418
16940.5924441
16842.4282107
16744.0546544
16645.6087366
16547.2207483
16449.0147139
16351.108241
16253.6128299
16156.6340777
16060.2718793
15964.620638
15869.7694663
15775.8023978
15682.7985876
15590.8325198
15499.9742031
15410.2893706
15321.8396667
15234.6828383
15148.8729106
15064.4603683
14981.4923206
14900.0126711
14820.062272
14741.679083
14664.8983146
14589.7525764
14516.2720105
14444.4844287
14374.4154369
14306.0885626
14239.52537
14174.7455784
14111.7671688
14050.6064938
13991.2783766
13933.7962124
13878.1720598
13824.4167354
13772.5398975
13722.5501338
13674.4550383
13628.2612922
13583.9747345
13541.6004361
13501.1427643
13462.6054506
13425.9916494
13391.3039988
13358.5446741
13327.7154424
13298.8177101
13271.8525715
13246.8208505
13223.7231432
13202.5598545
13183.331234
13166.0374075
13150.6784073
13137.2541997
13125.7647112
13116.2098507
13108.5895349
13102.9036741
13099.1590819
13097.2679092
18901.5249621
18896.7604664
18885.9046796
18869.5151027
18847.6410856
18820.3845913
18787.8675664
18750.2331104
18707.6428609
18660.2747969
18608.3209002
18551.9848111
18491.4795313
18427.0252182
18358.8471109
18287.1736106
18212.2345361
18134.25956
18053.476831
17970.1117747
17884.386071
17796.5167914
17706.7156898
17615.1886285
17522.1351295
17427.7480341
17332.2132603
17235.7096433
17138.4088494
17040.4753506
16942.0664525
16843.3323626
16744.4163002
16645.4546664
16546.5771775
16447.9070216
16349.5609813
16251.6497195
16154.2779759
16057.5447788
15961.5436595
15866.3628643
15772.0855681
15678.7900829
15586.5500655
15495.4347184
15405.5089889
15316.8337605
15229.4660413
15143.4591439
15058.8628635
14975.723646
14894.0847542
14813.9864252
14735.4660249
14658.5581946
14583.294995
14509.7060419
14437.8186399
14367.6579091
14299.2469085
14232.6067535
14167.756731
14104.7144078
14043.4957375
13984.1151611
13926.5857056
13870.9190775
13817.1257543
13765.2150702
13715.195301
13667.0737434
13620.8567926
13576.5500155
13534.1582221
13493.6855322
13455.1354403
13418.5108767
13383.8142663
13351.0475836
13320.2124054
13291.3099602
13264.3411746
13239.3067175
13216.2070402
13195.0424148
13175.812969
13158.5187185
13143.1595967
13129.7354816
13118.2462212
13108.6916514
13101.0716187
13095.3859345
13091.6430536
13089.7244369
18929.2831152
18924.6860631
18913.5684737
18896.8138829
18874.4562675
18846.6065472
18813.3950184
18774.974532
18731.5172052
18683.2119557
18630.2618604
18572.8815467
18511.2946683
18445.731515
18376.4267958
18303.6176189
18227.5416834
18148.4356856
18066.5339378
17982.06719
17895.2616426
17806.3381345
17715.5114903
17622.990009
17528.9750797
17433.6609048
17337.2343196
17239.8746916
17141.7538881
17043.0363021
16943.878924
16844.4314495
16744.8364262
16645.2294865
16545.7394664
16446.4885995
16347.5926426
16249.1611948
16151.2979077
16054.1007113
15957.662037
15862.0690385
15767.4038116
15673.7436084
15581.1610483
15489.7243226
15399.4973953
15310.5401966
15222.9088109
15136.6556595
15051.8296761
14968.4764769
14886.6385247
14806.3552872
14727.6633896
14650.596761
14575.1867768
14501.4623948
14429.4502864
14359.1749634
14290.6588999
14223.9226497
14158.9849593
14095.8628768
14034.5718569
13975.1258616
13917.5374578
13861.8179104
13807.9772724
13756.0244715
13705.9673933
13657.812961
13611.5672119
13567.2353712
13524.821922
13484.3306727
13445.7648212
13409.1270161
13374.4194148
13341.6437392
13310.8013276
13281.8931842
13254.920026
13229.8823257
13206.7803532
13185.6142129
13166.3838792
13149.0892283
13133.7300676
13120.3061629
13108.8172621
13099.2631101
13091.6434748
13085.9580707
13082.2175171
13080.2648439
18962.9412528
18958.554111
18947.1120937
18929.9067967
18906.9520226
18878.370359
18844.3027525
18804.9144536
18760.3908393
18710.9346024
18656.7627223
18598.103524
18535.1938701
18468.2765462
18397.5978744
18323.4055792
18245.9469115
18165.4670292
18082.2076237
17996.4057762
17908.2930248
17818.0946203
17726.0289507
17632.3071111
17537.132601
17440.7011286
17343.2005076
17244.8106283
17145.7034932
17046.0433025
16945.986581
16845.682333
16745.272236
16644.8909489
16544.6662002
16444.7189975
16345.1638269
16246.1089756
16147.6567614
16049.9037715
15952.9410973
15856.8545647
15761.7249608
15667.6282543
15574.6358107
15482.8146004
15392.2274017
15302.9329955
15214.9863552
15128.4388288
15043.3383146
14959.7294313
14877.6536812
14797.1496076
14718.2529464
14640.9967719
14565.4116374
14491.5257106
14419.3649033
14348.9529976
14280.311766
14213.461088
14148.4190622
14085.2021139
14023.8250996
13964.3014062
13906.6430485
13850.860761
13796.9640877
13744.961468
13694.860319
13646.6671152
13600.3874644
13556.0261809
13513.5873555
13473.0744223
13434.4902228
13397.837067
13363.116791
13330.3308128
13299.4801841
13270.5656396
13243.5876436
13218.5464334
13195.4420604
13174.2744274
13155.0433235
13137.748457
13122.3894836
13108.9660335
13097.4777349
13087.9242262
13080.3051886
13074.6202304
13070.8826486
13068.8891105
19002.6619645
18998.5317946
18986.6967825
18968.9477153
18945.2725928
18915.8088843
18880.7108672
18840.1592691
18794.3559244
18743.5205271
18687.8871134
18627.7007075
18563.2141717
18494.6853253
18422.3743675
18346.5416184
18267.4455799
18185.341302
18100.4790351
18013.103143
17923.4512475
17831.7535771
17738.2324915
17643.1021551
17546.5683374
17448.828317
17350.0708708
17250.476334
17150.2167135
17049.4558465
16948.3495904
16847.0460327
16745.685741
16644.4021512
16543.3216293
16442.5636737
16342.241237
16242.4610301
16143.3237768
16044.9244664
15947.3526012
15850.6924367
15755.0232164
15660.4193981
15566.9508735
15474.6831805
15383.6777077
15293.9918911
15205.6794044
15118.7903413
15033.3713914
14949.4660089
14867.1145757
14786.3545571
14707.2206526
14629.7449399
14553.9570147
14479.8841238
14407.5512946
14336.9814588
14268.1955716
14201.2127272
14136.0502691
14072.7238974
14011.2477711
13951.6346073
13893.8957771
13838.0413969
13784.0804172
13732.0207079
13681.86914
13633.6316644
13587.313388
13542.9186457
13500.4510703
13459.9136592
13421.3088379
13384.6385209
13349.9041693
13317.1068461
13286.2472682
13257.3258554
13230.342777
13205.2979952
13182.1913056
13161.0223752
13141.7907771
13124.4960228
13109.1375906
13095.7149527
13084.227598
13074.6750434
13067.0568737
13061.3725714
13057.6386328
13055.5973524
19048.6417125
19044.82139
19032.517386
19014.1221779
18989.5913846
18959.0812442
18922.7625502
18880.83514
18833.5210377
18781.0606553
18723.7086664
18661.7301493
18595.3970311
18524.984902
18450.7702292
18373.027975
18292.0296064
18208.0414698
18121.3234974
18032.1282064
17940.699954
17847.2744086
17752.0782035
17655.3287409
17557.2341179
17457.9931509
17357.7954773
17256.8217165
17155.243677
17053.2245968
16950.9194067
16848.475003
16746.0305619
16643.7180063
16541.6620589
16439.9803909
16338.7841354
16238.1781441
16138.2612712
16039.1266404
15940.8619052
15843.5495003
15747.2668839
15652.0867704
15558.077355
15465.3025285
15373.8220844
15283.6919168
15194.964211
15107.6876256
15021.9074681
14937.6658628
14855.0019116
14773.9518499
14694.5491941
14616.8248857
14540.8074278
14466.5230177
14393.9956742
14323.2473593
14254.2980967
14187.1660852
14121.8678075
14058.4181365
13996.8304359
13937.116659
13879.2874425
13823.3521975
13769.3191974
13717.1956621
13666.9878391
13618.7010819
13572.3399249
13527.9081556
13485.4088838
13444.8446077
13406.2172775
13369.5283556
13334.7788745
13301.9694913
13271.10054
13242.1720803
13215.183944
13190.1357782
13167.0270865
13145.8572657
13126.6256416
13109.3315005
13093.974118
13080.5527857
13069.0668344
13059.5156428
13051.8986888
13046.2153037
13042.4857196
13040.3897952
19101.1144339
19097.6640091
19084.8057659
19065.6504147
19040.113503
19008.3748108
18970.6254972
18927.0888614
18878.0115272
18823.6589529
18764.3105518
18700.2552303
18631.7873611
18559.2032594
18482.7981817
18402.8638326
18319.686352
18233.5447329
18144.7096229
18053.4424522
17959.9948385
17864.6082198
17767.5136714
17668.9318713
17569.0731786
17468.137801
17366.3160268
17263.7885051
17160.7265577
17057.2925126
16953.6400488
16849.9145406
16746.2534477
16642.7868471
16539.6374962
16436.9208897
16334.7460327
16233.2156153
16132.4263298
16032.4691529
15933.4296194
15835.388084
15738.4199716
15642.5960164
15547.9824901
15454.64142
15362.6307977
15272.0047777
15182.8138683
15095.1051128
15008.9222641
14924.3059515
14841.2938398
14759.9207829
14680.2189701
14602.2180677
14525.9453536
14451.425848
14378.6824385
14307.7360002
14238.6055122
14171.3081688
14105.8594879
14042.2734143
13980.56242
13920.7376009
13862.8087698
13806.7845466
13752.6724443
13700.478953
13650.2096202
13601.8691281
13555.4613683
13510.989513
13468.4560841
13427.8630188
13389.2117326
13352.5031797
13317.7379103
13284.9161249
13254.0377268
13225.1023702
13198.109507
13173.05843
13149.9483134
13128.7782503
13109.5472877
13092.2544584
13076.89881
13063.479431
13051.9954747
13042.4461655
13034.8308622
13029.1487141
13025.4242464
13023.2667729
19160.3560095
19157.3443065
19143.8350602
19123.7910694
19097.0788077
19063.9075333
19024.4934947
18979.0887311
18927.9697345
18871.4320943
18809.7846928
18743.3445274
18672.4321491
18597.3677795
18518.4681022
18436.043693
18350.3970286
18261.8210044
18170.5978858
18076.9986213
17981.2824491
17883.6967377
17784.4770081
17683.8470942
17582.0194045
17479.1952562
17375.5652584
17271.3097258
17166.5991094
17061.5944328
16956.4477234
16851.3024393
16746.2939595
16641.5501488
16537.1913943
16433.3306545
16330.0744727
16227.5230545
16125.7706211
16024.9057068
15925.0114469
15826.1658486
15728.4420495
15631.9085617
15536.6295038
15442.6648212
15350.0704958
15258.8987447
15169.1982107
15081.0141425
14994.3885674
14909.3604561
14825.9658804
14744.2381635
14664.2080251
14585.9037194
14509.3511683
14434.5740893
14361.5941181
14290.430927
14221.102339
14153.6244374
14088.0116716
14024.2769594
13962.4317855
13902.4862965
13844.4493929
13788.3288176
13734.1312414
13681.8623457
13631.5269018
13583.1288478
13536.6713619
13492.1569341
13449.5874338
13408.9641755
13370.2879814
13333.5592412
13298.7779694
13265.9438595
13235.0563359
13206.1146026
13179.1176892
13154.0644944
13130.9538264
13109.7844405
13090.5550739
13073.2644775
13057.9114455
13044.4948407
13033.0136195
13023.4668348
13015.8537145
13010.1731922
13006.4546617
13004.2287409
19226.6898429
19224.1963904
19209.9249998
19188.8457934
19160.7656201
19125.9306893
19084.5882102
19037.0254376
18983.5550815
18924.5088759
18860.2306467
18791.0703021
18717.3786828
18639.5033168
18557.7850405
18472.5554104
18384.1348077
18292.8311324
18198.9389827
18102.7392238
18004.4988606
17904.4711426
17802.8958379
17699.9996286
17595.9965869
17491.0887025
17385.4664359
17279.3092819
17172.7863303
17066.0568129
16959.2706225
16852.5688326
16746.0844015
16639.9425049
16534.260629
16429.1489102
16324.7110487
16221.0444192
16118.2404439
16016.384906
15915.5582491
15815.8358583
15717.2883239
15619.9816902
15523.9776904
15429.3339683
15336.1042877
15244.3387314
15154.0838889
15065.3830363
14978.2763057
14892.8008483
14808.9909886
14726.8783725
14646.4921094
14567.8589071
14491.0032028
14415.9472876
14342.711427
14271.3139767
14201.7714942
14134.098846
14068.3093121
14004.4146855
13942.4253693
13882.3504702
13824.1978889
13767.9744073
13713.6857727
13661.3367796
13610.9313478
13562.4725987
13515.962928
13471.4040764
13428.7971969
13388.14292
13349.4414157
13312.6924536
13277.8954594
13245.0495689
13214.1536802
13185.2065017
13158.2065986
13133.1524361
13110.0424196
13088.8749324
13069.6483708
13052.3611757
13037.0118621
13023.5990447
13012.1214632
13002.5779822
12994.9676859
12989.2892549
12985.5775482
12983.2762978
19300.4938525
19298.6112465
19283.4485295
19261.1648926
19231.4951866
19194.7320864
19151.1611532
19101.1128783
19044.9438993
18983.0292385
18915.7540121
18843.506476
18766.6722563
18685.6297755
18600.746777
18512.3778165
18420.8625712
18326.5248176
18229.6719402
18130.5948459
18029.5681814
17926.850767
17822.6861766
17717.3034105
17610.9176202
17503.7308534
17395.9327977
17287.7015081
17179.204107
17070.5974485
16962.0287256
16853.6360999
16745.5497346
16637.8914998
16530.7754391
16424.3085988
16318.5914053
16213.7180335
16109.7767612
16006.8502988
15905.0160976
15804.3466381
15704.9096985
15606.7686071
15509.9824777
15414.6064321
15320.6918084
15228.2863581
15137.4344325
15048.1771584
14960.5526062
14874.5959481
14790.3396103
14707.8134172
14627.04473
14548.0585786
14470.877789
14395.5231052
14322.0133063
14250.3653198
14180.59433
14112.7138839
14046.7359919
13982.6712264
13920.5288165
13860.3167396
13802.0418105
13745.7097669
13691.3253525
13638.8923975
13588.4138959
13539.8920808
13493.3284961
13448.7240671
13406.0791667
13365.3936804
13326.667068
13289.8984231
13255.0865295
13222.2299153
13191.3269044
13162.375665
13135.3742554
13110.3206676
13087.2128677
13066.048833
13046.8265878
13029.5442344
13014.1999831
13000.7921779
12989.3193219
12979.7800737
12972.1733622
12966.4975747
12962.7936505
12960.410211
19382.2092811
19381.0461057
19364.8400778
19341.1542668
19309.6370213
19270.6397386
19224.4957425
19171.5887824
19112.328837
19047.1427218
18976.4641886
18900.725934
18820.3532242
18735.7590805
18647.3408393
18555.4778746
18460.5302656
18362.8382036
18262.7219579
18160.4822483
18056.4008987
17950.7416737
17843.7512237
17735.6600797
17626.6836604
17517.0232596
17406.8669978
17296.3907246
17185.7588665
17075.1252122
16964.6336224
16854.4187832
16744.6073453
16635.3174996
16526.6593784
16418.7363764
16311.6452623
16205.4766287
16100.315253
15996.2404409
15893.3263427
15791.6422468
15691.2528513
15592.2185177
15494.5955062
15398.4361968
15303.7892953
15210.7000279
15119.2103237
15029.3589877
14941.1818637
14854.7119897
14769.9797453
14687.0129923
14605.8372091
14526.475619
14448.9493137
14373.2773718
14299.4769726
14227.5635061
14157.5506789
14089.4506167
14023.2739632
13959.0299759
13896.726619
13836.3706529
13777.9677216
13721.5224368
13667.0384595
13614.5185793
13563.9647908
13515.3783676
13468.7599339
13424.1095334
13381.4266959
13340.7105013
13301.9596411
13265.1724777
13230.3471001
13197.4813784
13166.5730148
13137.6195923
13110.6186203
13085.5675781
13062.4639555
13041.30529
13022.0892024
13004.8134281
12989.475847
12976.0745096
12964.6076623
12955.0737409
12947.4715063
12941.7990086
12938.1039033
12935.6314463
19472.3518798
19472.0363484
19454.6059341
19429.2839481
19395.615276
19354.0260155
19304.9093658
19248.7149495
19185.917622
19117.0061138
19042.4712653
18962.7969609
18878.4532398
18789.8914149
18697.5408824
18601.8072991
18503.0718189
18401.6911184
18297.9979817
18192.3022619
18084.8920773
17976.0351322
17865.9800879
17754.9579249
17643.1832632
17530.855614
17418.1605522
17305.2708022
17192.3472363
17079.5397809
16966.9882378
16854.823179
16743.1670933
16632.1339503
16521.8293845
16412.3526629
16303.7964667
16196.247406
16089.7863886
15984.4889748
15880.425699
15777.6623661
15676.2603244
15576.2767176
15477.764719
15380.7737485
15285.3496758
15191.5350104
15099.3690794
15008.8881958
14920.1258169
14833.1126942
14747.8770167
14664.4445461
14582.8387471
14503.0809111
14425.1902757
14349.1841391
14275.0779703
14202.8855155
14132.6189011
14064.2887329
13997.9041924
13933.4731302
13871.0021562
13810.496728
13751.9612354
13695.3990835
13640.8127728
13588.2039769
13537.5736182
13488.9219407
13442.2485808
13397.5526358
13354.8327295
13314.087076
13275.3135409
13238.5096998
13203.6728946
13170.8002872
13139.8889107
13110.935718
13083.9376272
13058.8915656
13035.7945098
13014.6435234
12995.4357922
12978.1686563
12962.8396396
12949.4464759
12937.9871353
12928.4598125
12920.8630892
12915.1946318
12911.5094641
12908.9412006
19571.5262469
19572.2107758
19553.3373583
19526.0986336
19489.916289
19445.312212
19392.7552282
19332.7768086
19265.9308413
19192.7799681
19113.8817432
19029.7785626
18940.9904836
18848.0105814
18751.3023361
18651.2985808
18548.4015899
18442.9839613
18335.3900153
18225.9374978
18114.9194335
18002.6060177
17889.2464722
17775.070817
17660.2915296
17545.1050771
17429.6933173
17314.2247702
17198.8557645
17083.7314535
16968.9867499
16854.7474765
16741.1313695
16628.2472326
16516.1957962
16405.0716931
16294.9630648
16185.9521214
16078.1155208
15971.5247299
15866.2463486
15762.3424058
15659.8706298
15558.8846978
15459.4344646
15361.5661758
15265.3226646
15170.7435364
15077.865341
14986.7217342
14897.3436308
14809.7593489
14723.9947465
14640.0733526
14558.0164911
14477.8434005
14399.5713479
14323.2157399
14248.7902279
14176.3068112
14105.7759362
14037.2065927
13970.6064071
13905.9817329
13843.337739
13782.6784954
13724.007056
13667.3255403
13612.6352113
13559.9365527
13509.2293425
13460.5127259
13413.7852845
13369.0451041
13326.2898405
13285.516782
13246.7229107
13209.9049608
13175.0594742
13142.1828549
13111.2714193
13082.3214452
13055.3292174
13030.2910715
13007.2034339
12986.0628601
12966.8660697
12949.6099787
12934.291729
12920.9087151
12909.45861
12899.9393505
12892.3493268
12886.6857711
12883.011748
12880.3409376
19680.444438
19682.3114217
19661.7272777
19632.2307066
19593.0974562
19544.9733958
19488.423651
19424.0818566
19352.5982736
19274.6235502
19190.7927143
19101.7143703
19007.9636565
18910.0783312
18808.55722
18703.8603657
18596.4103325
18486.5942381
18374.7661907
18261.2499027
18146.3413207
18030.311171
17913.4073548
17795.857162
17677.8692871
17559.6356483
17441.3330165
17323.1244677
17205.1606657
17087.5809586
16970.5144766
16854.0820574
16738.3952524
16623.5567287
16509.6624134
16396.8015987
16285.0574021
16174.5071968
16065.2230031
15957.2718435
15850.7160641
15745.6136261
15642.0183709
15539.9802631
15439.5456129
15340.7572815
15243.654871
15148.274901
15054.6509737
14962.8139285
14872.7919875
14784.6108928
14698.2940372
14613.8625887
14531.3356085
14450.7301652
14372.0614439
14295.3428514
14220.5861183
14147.8013971
14076.9973578
14008.1812806
13941.3591463
13876.5357239
13813.714656
13752.8985425
13694.0890216
13637.286849
13582.491975
13529.7036198
13478.9203468
13430.140133
13383.3604389
13338.5782751
13295.790267
13254.9927178
13216.181669
13179.3529581
13144.5022751
13111.6252157
13080.7173324
13051.774183
13024.7913766
12999.7646174
12976.6897447
12955.5627715
12936.3799197
12919.1376524
12903.8327035
12890.4621049
12879.0232126
12869.5136871
12861.9317163
12856.2740447
12852.6124657
12849.8324264
19799.9504722
19803.219603
19780.591746
19748.4163668
19705.7975106
19653.5432149
19592.3422543
19522.9563052
19446.1531108
19362.6876234
19273.2840177
19178.624767
19079.3444862
18976.0275026
18869.2080431
18759.3721559
18646.960682
18532.3727785
18415.9696435
18298.078212
18178.9946792
18058.9877695
17938.3017128
17817.1589171
17695.7623462
17574.2976192
17452.9348574
17331.8303019
17211.1277194
17090.9596026
16971.4484628
16852.7087865
16734.845492
16617.9547213
16502.1265523
16387.4445238
16273.9862564
16161.8238618
16051.024336
15941.6499081
15833.7583543
15727.403281
15622.6343811
15519.4976672
15418.0356848
15318.2877077
15220.2899188
15124.0755774
15029.6751751
14937.1165818
14846.4251829
14757.624009
14670.7338591
14585.7734173
14502.7593654
14421.7064904
14342.6277878
14265.5345619
14190.4365223
14117.3418786
14046.2574311
13977.1886602
13910.1398135
13845.1139898
13782.1132229
13721.1385619
13662.1901506
13605.2673049
13550.3685881
13497.4918851
13446.634474
13397.7930964
13350.9640256
13306.1431332
13263.3259529
13222.5077435
13183.6835486
13146.8482548
13111.9966475
13079.1234642
13048.223446
13019.2913858
12992.3221746
12967.3108452
12944.2526128
12923.1429135
12903.9774396
12886.7521723
12871.4634116
12858.1078032
12846.6823659
12837.1844661
12829.6120783
12823.9614014
12820.3136636
12817.4177833
19931.0531637
19935.9906957
19910.8977964
19875.5156042
19828.7481501
19771.6180471
19704.9741085
19629.7389405
19546.8231384
19457.1043006
19361.4077816
19260.4968211
19155.0684848
19045.7538259
18933.1207325
18817.6783405
18699.8822063
18580.1396986
18458.8152655
18336.2353741
18212.6930216
18088.4517756
17963.7493472
17838.8007198
17713.800872
17588.9271359
17464.341236
17340.1910456
17216.6120799
17093.728796
16971.6561671
16850.5015191
16730.362092
16611.3268115
16493.4792947
16376.8968149
16261.6510192
16147.8083318
16035.4303422
15924.574143
15815.2926316
15707.6347807
15601.6458811
15497.367763
15394.8389958
15294.0950719
15195.1685759
15098.0893404
15002.8845914
14909.5790843
14818.1952316
14728.7532236
14641.271143
14555.7650744
14472.2492093
14390.7359463
14311.2359891
14233.7584407
14158.3108949
14084.8995255
14013.5291736
13944.2034326
13876.9247317
13811.6944174
13748.5128336
13687.3794001
13628.2926898
13571.2505038
13516.2499457
13463.2874938
13412.359072
13363.4601192
13316.5856564
13271.730353
13228.8885899
13188.0545223
13149.2221392
13112.3853216
13077.5378978
13044.6736974
13013.7866024
12984.8705957
12957.9198075
12932.9285594
12909.891405
12888.8031688
12869.6589817
12852.4543139
12837.1850051
12823.8472913
12812.4378336
12802.953686
12795.3925986
12789.750165
12786.117768
12783.099516
20074.9710065
20081.9013723
20053.7999571
20014.5368355
19962.7866221
19899.8593416
19826.8123744
19744.7707168
19654.8175985
19557.972964
19455.1746437
19347.2715768
19235.0237103
19119.1062974
19000.1165929
18878.581617
18754.966119
18629.6802193
18503.0864478
18375.5060524
18247.2245493
18118.4965436
17989.5498791
17860.5891892
17731.7989234
17603.3459215
17475.3816023
17348.0438138
17221.458346
17095.7404123
16970.997302
16847.3270759
16724.8179409
16603.5520691
16483.6056839
16365.0492372
16247.9479112
16132.3620202
16018.3473733
15905.9555944
15795.2344047
15686.2278753
15578.9766541
15473.5181692
15369.8868142
15268.1141173
15168.2288958
15070.2573993
14974.223443
14880.1485319
14788.0519776
14697.9510093
14609.8608791
14523.7949627
14439.7648564
14357.7804704
14277.8501198
14199.9806125
14124.1773353
14050.4443385
13978.7844178
13909.1991958
13841.6892015
13776.2539488
13712.8920137
13651.6011101
13592.3781647
13535.219391
13480.1203608
13427.0760763
13376.081039
13327.1293183
13280.2146186
13235.3303439
13192.4696618
13151.6255649
13112.790931
13075.9585805
13041.1213327
13008.272059
12977.4037344
12948.5094865
12921.5826423
12896.6167715
12873.6057289
12852.5436924
12833.4251992
12816.2451792
12800.998985
12787.6824197
12776.2917654
12766.8237461
12759.2758765
12753.6430802
12750.0276302
12746.8805712
20233.1949901
20242.5149967
20210.6885723
20166.6669512
20108.8681873
20038.9920866
19958.3690898
19868.3779333
19770.3080056
19665.3410128
19554.5358548
19438.8282607
19319.0373496
19195.876112
19069.9633924
18941.8359552
18811.9598251
18680.7405102
18548.5319702
18415.6443428
18282.3505179
18148.891687
18015.4820009
17882.3124688
17749.5542167
17617.3612104
17485.872534
17355.2142784
17225.5010852
17096.8378866
16969.3227125
16843.0433714
16718.0787632
16594.5031786
16472.3849656
16351.7872321
16232.7682392
16115.3817873
15999.6775491
15885.7013636
15773.4954945
15663.0988604
15554.5472392
15447.8734528
15343.1075332
15240.2768739
15139.4063688
15040.5185403
14943.6336582
14848.7698511
14755.9432117
14665.1678963
14576.4562198
14489.8187474
14405.2643828
14322.8004536
14242.4327953
14164.1658324
14088.0026591
14013.9451177
13941.9938767
13872.1485076
13804.4075605
13738.7686392
13675.2284759
13613.7830041
13554.4274314
13497.1563115
13441.9636147
13388.8427975
13337.7868719
13288.7884723
13241.8399218
13196.933297
13154.0604913
13113.2132762
13074.3833613
13037.5624521
13002.7423059
12969.9147858
12939.0719121
12910.2059114
12883.3092642
12858.3747483
12835.3954813
12814.3649594
12795.2770939
12778.1262445
12762.9072501
12749.6154568
12738.2467469
12728.7974956
12721.2649717
12715.6433623
12712.046577
12708.7643848
20407.5790122
20419.7741071
20383.2542387
20333.3070577
20268.0760203
20189.7957745
20100.1544261
20000.8459107
19893.4006567
19779.177973
19659.3604485
19534.9650611
19406.8600906
19275.7843033
19142.3658124
19007.1393701
18870.5615614
18733.0237993
18594.8632452
18456.3718817
18317.8039945
18179.3823176
18041.3030686
17903.740074
17766.8481507
17630.7658856
17495.6179185
17361.5167811
17228.5644835
17096.8548033
16966.4751778
16837.5017556
16710.0038315
16584.0468977
16459.690945
16336.9912428
16215.9987015
16096.7602292
15979.3190294
15863.7148628
15749.9842758
15638.1608025
15528.2751436
15420.3553278
15314.4268558
15210.512832
15108.6340848
15008.8092781
14911.0550142
14815.3859312
14721.8147952
14630.3525871
14541.0085876
14453.7904579
14368.7043189
14285.7548287
14204.9452581
14126.2775659
14049.7524724
13975.369533
13903.1272109
13833.0229495
13765.0532445
13699.2137153
13635.4991767
13573.9037092
13514.4207302
13457.0430632
13401.7630075
13348.5724067
13297.4627163
13248.4250703
13201.450347
13156.5292336
13113.6522885
13072.8100034
13033.9928631
12997.1914032
12962.3962666
12929.5982572
12898.7883923
12869.957952