/*--------------------------------*- C++ -*----------------------------------*\
| =========                 |                                                 |
| \\      /  F ield         | OpenFOAM: The Open Source CFD Toolbox           |
|  \\    /   O peration     | Version:  v1906                                 |
|   \\  /    A nd           | Web:      www.OpenFOAM.com                      |
|    \\/     M anipulation  |                                                 |
\*---------------------------------------------------------------------------*/
FoamFile
{
    version     2.0;
    format      ascii;
    class       volScalarField;
    location    "290";
    object      pa;
}
// * * * * * * * * * * * * * * * * * * * * * * * * * * * * * * * * * * * * * //

dimensions      [0 2 -2 0 0 0 0];


internalField   nonuniform List<scalar> 
9216
(
-193.035703231
-193.228748677
-193.640472015
-194.255930057
-195.074429403
-196.09197341
-197.303406158
-198.702516877
-200.282289353
-202.03490042
-203.951958886
-206.024460592
-208.243054044
-210.597954604
-213.079237263
-215.676703753
-218.380200328
-221.179433222
-224.064310323
-227.024703759
-230.050815751
-233.132889722
-236.261600847
-239.427719276
-242.622525686
-245.837431058
-249.06441633
-252.295613898
-255.52376915
-258.741788781
-261.94322187
-265.121779768
-268.27183221
-271.387904792
-274.465186026
-277.499007701
-280.485358762
-283.420353929
-286.300750096
-289.123408766
-291.885811088
-294.585519139
-297.220685732
-299.789519522
-302.290786245
-304.723281921
-307.086322294
-309.379228242
-311.601800727
-313.753821787
-315.835512466
-317.847052538
-319.78901941
-321.661929012
-323.466653817
-325.203987108
-326.875038705
-328.480824173
-330.022636993
-331.50166404
-332.919333365
-334.276956698
-335.576052155
-336.818014341
-338.004411708
-339.13668433
-340.216415893
-341.245059005
-342.224182288
-343.155222674
-344.039708415
-344.879037653
-345.67467877
-346.427974241
-347.140320225
-347.812994804
-348.447319404
-349.044510764
-349.605827508
-350.13244614
-350.625597467
-351.086469035
-351.516339486
-351.91651736
-352.288497581
-352.633981993
-352.95560153
-353.25420232
-353.50765315
-353.702165129
-353.845743823
-353.947303929
-354.015268496
-354.055922457
-354.076161922
-354.083266497
-192.843057275
-193.037225069
-193.445230372
-194.062489265
-194.884728751
-195.907315857
-197.124795248
-198.530812303
-200.11821248
-201.879085237
-203.804913612
-205.886619163
-208.114726192
-210.479389729
-212.970565419
-215.578012782
-218.291466392
-221.100610483
-223.995249779
-226.965254561
-230.000731495
-233.091940573
-236.229467384
-239.404114717
-242.607077821
-245.829813882
-249.064221287
-252.302490017
-255.53728525
-258.761581334
-261.968848729
-265.152874471
-268.307951669
-271.428688422
-274.510198631
-277.547901996
-280.537714875
-283.475843813
-286.358975259
-289.184065114
-291.948526209
-294.650016213
-297.286621849
-299.856647396
-302.358794714
-304.791954332
-307.15538044
-309.448486388
-311.671013905
-313.822834583
-315.90411266
-317.915113885
-319.856361308
-321.728452648
-323.532208595
-325.26849963
-326.938386424
-328.542956802
-330.083457872
-331.561143666
-332.977398704
-334.333596635
-335.631215008
-336.871705094
-338.056597764
-339.187384498
-340.265614373
-341.292786199
-342.2704368
-343.200044092
-344.083107052
-344.921059543
-345.715342636
-346.467329008
-347.178388617
-347.849823665
-348.482929086
-349.078938431
-349.639081231
-350.164540919
-350.65651205
-351.116172485
-351.544744254
-351.943482041
-352.313735701
-352.656936235
-352.974598743
-353.269196022
-353.522759696
-353.717395279
-353.859203024
-353.959078766
-354.025792767
-354.064651731
-354.083381949
-354.090691559
-192.429870295
-192.632132915
-193.044437815
-193.66792541
-194.498446176
-195.531305158
-196.760868964
-198.180598756
-199.783136336
-201.560381372
-203.503609914
-205.603559829
-207.850556081
-210.234587785
-212.745429301
-215.372700788
-218.105979835
-220.93484182
-223.848960287
-226.838126704
-229.892340351
-233.001809172
-236.157031284
-239.348779775
-242.568178269
-245.806672494
-249.056101771
-252.308659705
-255.556962696
-258.794001347
-262.01320649
-265.20839261
-268.373821204
-271.504137398
-274.594430675
-277.640165833
-280.637241117
-283.581914694
-286.470860225
-289.301090178
-292.07000897
-294.775334287
-297.415147879
-299.98781608
-302.492038385
-304.926768161
-307.291259062
-309.584986914
-311.807694085
-313.959313308
-316.040010046
-318.05010902
-319.990134641
-321.860740777
-323.662749261
-325.397083405
-327.06480459
-328.667049832
-330.205066392
-331.680153659
-333.09369573
-334.447107708
-335.741866155
-336.979459879
-338.161418229
-339.289266315
-340.364551121
-341.38880114
-342.36355037
-343.290302298
-344.170551949
-345.005754235
-345.797344399
-346.546710826
-347.255214438
-347.924166281
-348.554846782
-349.148488734
-349.706297781
-350.229442017
-350.719075661
-351.176337038
-351.602377291
-351.998366727
-352.365522657
-352.70510475
-353.018365993
-353.307836134
-353.55732693
-353.748356031
-353.886650282
-353.983901045
-354.046915382
-354.083369109
-354.102385707
-354.111196605
-191.806645382
-192.013761932
-192.432901244
-193.066302093
-193.909796375
-194.958565234
-196.206752352
-197.647557123
-199.273331269
-201.075678703
-203.045570368
-205.173450008
-207.449350194
-209.862990562
-212.403884421
-215.061421421
-217.824959332
-220.683887767
-223.627703742
-226.646056568
-229.72880862
-232.866063803
-236.0482165
-239.265966941
-242.510361457
-245.77279782
-249.045059209
-252.319311628
-255.588132843
-258.844503119
-262.081830032
-265.293933026
-268.475063879
-271.619886049
-274.723491236
-277.781374069
-280.789445161
-283.744001973
-286.641738868
-289.479715043
-292.255362097
-294.966449892
-297.611092134
-300.187710974
-302.695041036
-305.132093469
-307.498158832
-309.792771247
-312.015710486
-314.166966788
-316.246742481
-318.25541794
-320.193553006
-322.061854491
-323.861177588
-325.592495233
-327.256899639
-328.855573717
-330.389792805
-331.860898264
-333.270299411
-334.61944933
-335.909846973
-337.143015177
-338.320502881
-339.443865294
-340.514666192
-341.534460179
-342.504795062
-343.427196178
-344.303168902
-345.134185092
-345.921685899
-346.667070478
-347.371699442
-348.036886167
-348.663901467
-349.253968072
-349.808267459
-350.327938502
-350.814087834
-351.267794275
-351.690124641
-352.082145902
-352.444948118
-352.779663158
-353.087533727
-353.371120095
-353.611299086
-353.795099895
-353.930354357
-354.023099248
-354.08321327
-354.119303083
-354.139659944
-354.149338285
-190.967338554
-191.179632504
-191.608001377
-192.254991287
-193.116265945
-194.186778225
-195.460364289
-196.929865805
-198.587243214
-200.423693587
-202.429774575
-204.595524042
-206.910580403
-209.364292068
-211.945823918
-214.644248857
-217.448635249
-220.348117757
-223.331964953
-226.389630484
-229.510803279
-232.685442504
-235.903814382
-239.156515207
-242.434498795
-245.72909109
-249.032011044
-252.335378891
-255.631731749
-258.914026488
-262.175650791
-265.410420624
-268.612586386
-271.776825701
-274.89824517
-277.972368802
-280.995135934
-283.962886002
-286.872353302
-289.720648906
-292.50525298
-295.223994594
-297.875042233
-300.456882208
-302.968307935
-305.408397538
-307.776502396
-310.072224507
-312.295404745
-314.446100472
-316.524573896
-318.531270363
-320.466807161
-322.331952829
-324.12761665
-325.854829247
-327.514732951
-329.10856384
-330.637643049
-332.10336035
-333.507166428
-334.850557984
-336.135070943
-337.362267039
-338.533727875
-339.651042921
-340.715804335
-341.7295963
-342.69399056
-343.610537031
-344.480760033
-345.306150202
-346.088161485
-346.828204436
-347.527644172
-348.187795275
-348.809921051
-349.39523042
-349.944879049
-350.459968853
-350.941551919
-351.390633927
-351.808183203
-352.195142825
-352.55245798
-352.881124156
-353.182734139
-353.45576425
-353.686406379
-353.864047062
-353.992877115
-354.082315912
-354.141254628
-354.178099959
-354.200303532
-354.211092128
-189.906881266
-190.125336559
-190.565413984
-191.229811089
-192.113900035
-193.212292277
-194.518407561
-196.024616112
-197.722368828
-199.60233421
-201.654536131
-203.868488606
-206.233325075
-208.737918556
-211.37099208
-214.121216639
-216.977298073
-219.928050706
-222.962460943
-226.069738822
-229.239362136
-232.461110821
-235.725097142
-239.021788488
-242.342028732
-245.677053737
-249.018507088
-252.358450349
-255.689374256
-259.004204319
-262.296307709
-265.559493684
-268.788015452
-271.976565986
-275.120275298
-278.214701848
-281.255825818
-284.240036866
-287.164124193
-290.025261472
-292.820994496
-295.549224077
-298.208191963
-300.796462397
-303.312906887
-305.756685005
-308.127228551
-310.424222113
-312.647587089
-314.797462487
-316.874189246
-318.878291678
-320.810462452
-322.671545015
-324.462519526
-326.184486492
-327.838653835
-329.426321896
-330.948871715
-332.407751452
-333.80446589
-335.140564242
-336.417630817
-337.637274121
-338.801118593
-339.910794889
-340.967932561
-341.974151415
-342.931055022
-343.840223046
-344.703205519
-345.521516086
-346.296627018
-347.029963384
-347.722898856
-348.376750897
-348.99277747
-349.572173386
-350.116068097
-350.625523347
-351.101532205
-351.545018239
-351.956836266
-352.337773891
-352.688556619
-353.009847155
-353.302408192
-353.566520979
-353.788617163
-353.956022305
-354.079348082
-354.166850265
-354.225287854
-354.265557396
-354.290231592
-354.302310462
-188.619090628
-188.845002588
-189.299483491
-189.985374843
-190.897654218
-192.030475541
-193.37671836
-194.92814958
-196.675575243
-198.60899798
-200.717774258
-202.990765267
-205.416480097
-207.983206035
-210.679126642
-213.49242407
-216.41136791
-219.42438849
-222.520138057
-225.687538939
-228.915822708
-232.194560144
-235.513685889
-238.863517615
-242.234772783
-245.618582291
-249.006502968
-252.390527554
-255.76309364
-259.117089989
-262.445861289
-265.743209508
-269.00339348
-272.221125557
-275.391566336
-278.510316756
-281.573408673
-284.577293221
-287.518828155
-290.395263417
-293.204226145
-295.943704264
-298.612029906
-301.207861693
-303.730167183
-306.178204401
-308.55150383
-310.849849716
-313.073262092
-315.221978322
-317.296435609
-319.297253211
-321.225215809
-323.081256738
-324.866442507
-326.581957294
-328.229088795
-329.809214122
-331.323787054
-332.774325363
-334.162399449
-335.489621036
-336.757633089
-337.968099771
-339.122697497
-340.223105992
-341.271000328
-342.268042918
-343.215876364
-344.116116254
-344.970344662
-345.78010362
-346.546889175
-347.272145445
-347.957259147
-348.603554183
-349.212286574
-349.784639442
-350.321718187
-350.82454548
-351.294056053
-351.731090612
-352.136388583
-352.510578347
-352.854164033
-353.167503261
-353.450814625
-353.704773677
-353.915993951
-354.075857874
-354.195907237
-354.282376626
-354.343109497
-354.386190793
-354.413113199
-354.426254027
-187.096456627
-187.331326495
-187.803174439
-188.5150117
-189.461313053
-190.635649152
-192.030216461
-193.636026767
-195.443084521
-197.440571119
-199.617024695
-201.960512061
-204.458787192
-207.099434793
-209.869995856
-212.758075676
-215.751433334
-218.838054452
-222.006207958
-225.244489511
-228.54185363
-231.887637344
-235.271577894
-238.683826517
-242.114960332
-245.555992798
-248.998383849
-252.434048483
-255.855364959
-259.255180668
-262.626816378
-265.964066968
-269.261200424
-272.512953463
-275.714525344
-278.86156863
-281.950178636
-284.976880371
-287.938614718
-290.832722663
-293.65692921
-296.409325806
-299.08835276
-301.692780524
-304.221691199
-306.67445921
-309.050732416
-311.350412683
-313.573637084
-315.720758863
-317.792329199
-319.789078993
-321.711901611
-323.561835851
-325.340049969
-327.047826078
-328.68654564
-330.257675413
-331.762754473
-333.203381707
-334.581204314
-335.89790675
-337.155200574
-338.354814672
-339.498486279
-340.587952269
-341.624941141
-342.61116517
-343.548313126
-344.438043075
-345.281975626
-346.081687175
-346.838703479
-347.554493172
-348.230461463
-348.867943737
-349.46819914
-350.032403947
-350.561644575
-351.056909942
-351.519082597
-351.948927903
-352.347079874
-352.714021657
-353.050058593
-353.355282407
-353.629555589
-353.873214811
-354.073192929
-354.22841629
-354.346678888
-354.434153849
-354.498452753
-354.542604842
-354.571910637
-354.585965759
-185.32995047
-185.575472443
-186.067980328
-186.810677265
-187.797412783
-189.021026523
-190.472865245
-192.143006727
-194.020472331
-196.093442785
-198.349467783
-200.775661144
-203.358879459
-206.085878759
-208.943450226
-211.918532043
-214.998300338
-218.170238392
-221.422188308
-224.742386145
-228.11948541
-231.542571135
-235.001169039
-238.485251893
-241.985245731
-245.492036691
-248.996978732
-252.491901478
-255.969117732
-259.421429923
-262.84213344
-266.225017594
-269.564363319
-272.854938379
-276.091989302
-279.271231315
-282.388835632
-285.441415438
-288.426009934
-291.340067686
-294.181428625
-296.948305721
-299.639265717
-302.253209764
-304.789353423
-307.247206746
-309.626554034
-311.927433857
-314.150119067
-316.295097264
-318.363051559
-320.354841969
-322.271487361
-324.114148157
-325.884109787
-327.58276697
-329.211608841
-330.772204928
-332.266191994
-333.695261667
-335.061148908
-336.36562117
-337.610468294
-338.797492986
-339.928501911
-341.005297229
-342.029668619
-343.00338561
-343.928190245
-344.805789939
-345.637850494
-346.425989205
-347.171767949
-347.876686268
-348.542174221
-349.169585161
-349.760188003
-350.315159255
-350.835574105
-351.322396728
-351.776468577
-352.198494134
-352.589021559
-352.948415148
-353.276812999
-353.574059409
-353.83958017
-354.072684956
-354.264407077
-354.417461547
-354.535318816
-354.625310158
-354.691742282
-354.738057287
-354.769659212
-354.784408598
-183.308839053
-183.566928762
-184.08378956
-184.862837727
-185.897144468
-187.178641715
-188.697625063
-190.443026475
-192.402669617
-194.563527523
-196.911966204
-199.433969762
-202.115339998
-204.941869879
-207.899487809
-210.974374683
-214.153053172
-217.422452801
-220.769952399
-224.183404793
-227.651147298
-231.162003508
-234.70528064
-238.27076661
-241.848729497
-245.429920341
-249.005579349
-252.56744327
-256.107753796
-259.619264622
-263.095245135
-266.529480864
-269.916270956
-273.250421681
-276.527237352
-279.742507958
-282.892495075
-285.973915433
-288.983923633
-291.92009332
-294.780398062
-297.563191187
-300.26718558
-302.89143272
-305.435301827
-307.89845852
-310.280843745
-312.582652521
-314.804313177
-316.946466726
-319.009946942
-320.995760883
-322.905070296
-324.739173698
-326.49948947
-328.18753976
-329.80493545
-331.353361979
-332.834566187
-334.250343986
-335.602528958
-336.892981666
-338.123579773
-339.296208725
-340.412753094
-341.475088316
-342.485072936
-343.444541072
-344.355295224
-345.21909911
-346.037670687
-346.812675016
-347.545717114
-348.238334488
-348.891989443
-349.508060907
-350.087835771
-350.632499589
-351.143126357
-351.620667252
-352.065937465
-352.479600496
-352.862147539
-353.213868687
-353.534808555
-353.824692295
-354.082780829
-354.307704292
-354.495500704
-354.646664196
-354.765444668
-354.858288748
-354.92762011
-354.977530522
-355.009449935
-355.024647373
-181.020468631
-181.29330707
-181.838713389
-182.660321876
-183.750238232
-185.099265627
-186.696403892
-188.529182372
-190.583973336
-192.846298943
-195.301118765
-197.933087141
-200.726779081
-203.666879247
-206.73833703
-209.926485505
-213.21712904
-216.596599559
-220.051787608
-223.570150919
-227.139708218
-230.749023351
-234.387187491
-238.043804006
-241.708980095
-245.373325941
-249.027960225
-252.66451922
-256.27516688
-259.852604569
-263.390074734
-266.881362149
-270.320790045
-273.703212739
-277.024004039
-280.279043228
-283.464698042
-286.577806485
-289.615656823
-292.575967321
-295.456864877
-298.256863764
-300.974843559
-303.610027247
-306.161958711
-308.63048046
-311.015711056
-313.318022936
-315.538020304
-317.67651766
-319.734518751
-321.713196386
-323.613872988
-325.438002171
-327.187151273
-328.86298499
-330.467250067
-332.001761075
-333.468387227
-334.869040184
-336.205662802
-337.480218706
-338.694682661
-339.851031582
-340.951236165
-341.997252953
-342.991016845
-343.934433828
-344.829373954
-345.677664333
-346.481082144
-347.241347469
-347.960115874
-348.638970644
-349.279414452
-349.882860575
-350.450623195
-350.983907233
-351.483796894
-351.951243712
-352.387052763
-352.791867878
-353.166153587
-353.510173481
-353.823960827
-354.107278069
-354.359555899
-354.579845672
-354.766504622
-354.91861897
-355.040475353
-355.136321903
-355.210000539
-355.262151979
-355.293762285
-355.307791219
-178.450002349
-178.740104884
-179.318867761
-180.19014167
-181.344823216
-182.772311271
-184.460004615
-186.393718441
-188.558068293
-190.936841338
-193.513332931
-196.270643949
-199.191932321
-202.260620692
-205.460558838
-208.776145135
-212.192407556
-215.695049369
-219.270462308
-222.905714589
-226.588520436
-230.307201045
-234.050645746
-237.808281561
-241.570055857
-245.326432733
-249.068400602
-252.787485307
-256.475765302
-260.125884517
-263.731057955
-267.285072867
-270.782284418
-274.217605841
-277.586494918
-280.884936517
-284.109423188
-287.25693356
-290.324910303
-293.311237115
-296.214215937
-299.032543589
-301.76528863
-304.411867667
-306.972021811
-309.445792731
-311.833498988
-314.135712305
-316.353234389
-318.487074093
-320.538425428
-322.508646284
-324.399238253
-326.211827446
-327.948146569
-329.610018148
-331.199339046
-332.71806615
-334.168203262
-335.551789065
-336.870886126
-338.127570789
-339.323923919
-340.462022302
-341.543930687
-342.571694259
-343.547331531
-344.472827421
-345.350126546
-346.181126418
-346.967670652
-347.711541758
-348.414453723
-349.078043862
-349.703864203
-350.293371891
-350.847918886
-351.368740651
-351.856944005
-352.313494281
-352.739201863
-353.134708783
-353.50047546
-353.836768613
-354.143651486
-354.420979334
-354.668409147
-354.885456686
-355.07161017
-355.227064591
-355.353577383
-355.45335632
-355.530278005
-355.585173248
-355.618147363
-355.629979741
-175.580092312
-175.890390787
-176.508105396
-177.437270129
-178.66726411
-180.185726562
-181.978074662
-184.028024342
-186.318068551
-188.829923234
-191.544924784
-194.444368001
-197.509787421
-200.72317967
-204.067174171
-207.525151881
-211.081318738
-214.72073419
-218.429302277
-222.193729898
-226.001464401
-229.840621414
-233.69991804
-237.568622095
-241.436525057
-245.293938414
-249.131707083
-252.941232818
-256.714497226
-260.444080043
-264.123167575
-267.745554283
-271.305636392
-274.798399961
-278.219403452
-281.56475712
-284.83109923
-288.015571501
-291.11579346
-294.129837462
-297.056203412
-299.893794209
-302.641890712
-305.300127001
-307.868465043
-310.347169552
-312.736782561
-315.038098411
-317.252138953
-319.380129491
-321.423475436
-323.383740012
-325.262623073
-327.061941207
-328.783609216
-330.429622982
-332.002043785
-333.502983971
-334.934593976
-336.299050529
-337.598546024
-338.835278824
-340.011444488
-341.129227674
-342.19079471
-343.198286572
-344.153812294
-345.0594425
-345.917203136
-346.729069024
-347.496957339
-348.222720607
-348.908139279
-349.554913521
-350.164654181
-350.738872768
-351.278970219
-351.786224803
-352.261778677
-352.706624429
-353.12159098
-353.507331704
-353.864314445
-354.19281817
-354.492937862
-354.764605393
-355.007635373
-355.221817261
-355.407073788
-355.563819618
-355.693269632
-355.797047734
-355.877146807
-355.934701732
-355.970339169
-355.984155764
-172.390468436
-172.724431619
-173.387680738
-174.38437676
-175.701968554
-177.325879748
-179.239060631
-181.422653228
-183.856583975
-186.520104081
-189.392251667
-192.452236021
-195.679743616
-199.055175504
-202.559819805
-206.175967317
-209.886971167
-213.677255561
-217.532275663
-221.438437799
-225.382991393
-229.353911544
-233.33979225
-237.329769221
-241.313482673
-245.281078902
-249.22323828
-253.131216159
-256.996880417
-260.812737062
-264.571942599
-268.268304315
-271.896271741
-275.450920376
-278.927930326
-282.323560177
-285.634618882
-288.8584362
-291.992833997
-295.03609804
-297.986951259
-300.844527245
-303.608344293
-306.278278923
-308.854539365
-311.337638515
-313.728367049
-316.02776652
-318.237103058
-320.357841641
-322.391621405
-324.340232031
-326.205591528
-327.989725481
-329.694747905
-331.322843752
-332.876253044
-334.357256613
-335.768163309
-337.111298608
-338.388994406
-339.603579921
-340.757373488
-341.852675129
-342.891759745
-343.876870769
-344.810214179
-345.693952663
-346.530199904
-347.321014642
-348.068394618
-348.774269861
-349.440495554
-350.068843744
-350.660994275
-351.218524105
-351.742895524
-352.235442632
-352.697356753
-353.129670982
-353.533245037
-353.908752243
-354.256671202
-354.577286121
-354.870701131
-355.136874396
-355.37568129
-355.5870121
-355.770912451
-355.927771212
-356.058443011
-356.164109619
-356.246131672
-356.305602132
-356.343428293
-356.360854202
-168.857413749
-169.219195982
-169.935838221
-171.011503655
-172.431168918
-174.177439114
-176.230180316
-178.56736745
-181.165826748
-184.00188195
-187.051890435
-190.29266729
-193.701814082
-197.257961301
-200.94094084
-204.731891773
-208.613305834
-212.569009593
-216.584087365
-220.64474893
-224.738159772
-228.852257471
-232.975588297
-237.097193092
-241.20656121
-245.293647764
-249.348931142
-253.363484551
-257.329036612
-261.238007179
-265.083521761
-268.859409114
-272.56018748
-276.18104342
-279.717803924
-283.166904272
-286.525352873
-289.790696618
-292.960987403
-296.034751656
-299.01096149
-301.889007577
-304.668671815
-307.35009995
-309.933773224
-312.42047976
-314.811285552
-317.107505743
-319.310676322
-321.422526659
-323.444953144
-325.379994126
-327.229806502
-328.996643975
-330.682837298
-332.290776342
-333.822894184
-335.281652921
-336.669531287
-337.989013689
-339.242580698
-340.432700587
-341.561821943
-342.632366967
-343.64672551
-344.607249463
-345.516247599
-346.375980441
-347.188655312
-347.956421053
-348.681362611
-349.365494855
-350.010755868
-350.618998915
-351.191983345
-351.731363633
-352.238676715
-352.715327245
-353.162570803
-353.581495957
-353.973005518
-354.337800592
-354.676368648
-354.98898402
-355.275723491
-355.536507826
-355.77117293
-355.979572852
-356.161705246
-356.317841574
-356.448595284
-356.554855402
-356.637679225
-356.698090787
-356.736979989
-356.755607957
-164.953091585
-165.347753421
-166.127294705
-167.295682915
-168.834674409
-170.723260317
-172.937422453
-175.451231866
-178.237769956
-181.269899752
-184.520869777
-187.964772138
-191.576876849
-195.333871842
-199.214024625
-203.197278303
-207.265279222
-211.401333044
-215.590281399
-219.818303245
-224.072656966
-228.341401056
-232.613144438
-236.876880049
-241.121932797
-245.338013202
-249.515331346
-253.644720711
-257.717734064
-261.726689634
-265.664683644
-269.525579027
-273.303984006
-276.995223269
-280.595302935
-284.100869139
-287.509164616
-290.817986175
-294.025646776
-297.130942018
-300.133120937
-303.031858339
-305.827227475
-308.519671364
-311.109973026
-313.599224585
-315.98879611
-318.280304505
-320.475583046
-322.576651817
-324.585689436
-326.505006356
-328.337020003
-330.084232036
-331.749207791
-333.334558079
-334.842923154
-336.276958892
-337.639324812
-338.932673896
-340.159643791
-341.322849334
-342.424876002
-343.468274254
-344.455554422
-345.389182139
-346.271574014
-347.105093496
-347.892046743
-348.634678272
-349.335166339
-349.995617561
-350.618060898
-351.204440109
-351.756605033
-352.27630039
-352.765152629
-353.224653455
-353.656140839
-354.060776583
-354.439522583
-354.793117428
-355.122057323
-355.426588291
-355.706717959
-355.962257441
-356.192902237
-356.398347388
-356.578426655
-356.733234189
-356.863191687
-356.96902178
-357.051645764
-357.112037086
-357.15109643
-357.170033051
-160.644665219
-161.078464293
-161.932597478
-163.210473847
-164.889605991
-166.944293784
-169.34560136
-172.062774282
-175.064383767
-178.31922385
-181.796974023
-185.468662566
-189.306986162
-193.2865249
-197.383887088
-201.577791586
-205.849085054
-210.180673761
-214.557352471
-218.965519519
-223.392796493
-227.827602415
-232.258770029
-236.675297502
-241.06629936
-245.421135775
-249.729631828
-253.982291314
-258.170440828
-262.286283062
-266.322893675
-270.274190805
-274.134900825
-277.900521864
-281.567279471
-285.132073876
-288.592423667
-291.946413827
-295.192651595
-298.330231697
-301.358707725
-304.278066451
-307.088700945
-309.791381399
-312.387223247
-314.87765376
-317.264378039
-319.549345161
-321.734715177
-323.822827073
-325.816168379
-327.717346411
-329.529061908
-331.25408495
-332.895233756
-334.455356038
-335.937313189
-337.343966786
-338.678167456
-339.942745502
-341.140503258
-342.274208619
-343.346589725
-344.360330338
-345.318065948
-346.222380201
-347.075801746
-347.880801091
-348.639787607
-349.355106187
-350.029033754
-350.663774894
-351.261456887
-351.82412305
-352.353724751
-352.85211052
-353.321012587
-353.762029122
-354.176602103
-354.565990091
-354.931236721
-355.273136279
-355.592199428
-355.888630615
-356.162324149
-356.412902204
-356.63980447
-356.842437662
-357.020351706
-357.173407514
-357.301867048
-357.406363296
-357.487812519
-357.547271484
-357.585704273
-357.604357731
-155.893133085
-156.373967338
-157.317310502
-158.725426502
-160.570122046
-162.819546952
-165.438496287
-168.390251391
-171.637973089
-175.145720424
-178.879129169
-182.805838445
-186.895748749
-191.121186843
-195.457018562
-199.880725329
-204.372424248
-208.914795255
-213.492866589
-218.093627191
-222.70547107
-227.317545411
-231.919143371
-236.499321277
-241.046868408
-245.550590755
-249.999728028
-254.384316419
-258.695394674
-262.925048683
-267.066360088
-271.113335642
-275.060857278
-278.904640678
-282.641183034
-286.267693358
-289.782017708
-293.182572795
-296.468295732
-299.6386093
-302.69339828
-305.632988327
-308.458121721
-311.169927406
-313.769886505
-316.259795281
-318.641727534
-320.917997535
-323.091123934
-325.163795091
-327.138835962
-329.01917721
-330.807826751
-332.507844451
-334.122319912
-335.654353751
-337.107041899
-338.483462971
-339.786668
-341.01967244
-342.185449704
-343.286926219
-344.326977321
-345.308424114
-346.234030711
-347.106502066
-347.928481903
-348.702550939
-349.431224983
-350.116953011
-350.762114852
-351.369018318
-351.939895536
-352.476897774
-352.982088696
-353.457434723
-353.90479148
-354.325885556
-354.722290084
-355.09539201
-355.446350706
-355.776047509
-356.08502991
-356.373459527
-356.641078966
-356.887228757
-357.110949773
-357.311187442
-357.48705597
-357.638096286
-357.76442698
-357.86669956
-357.945959841
-358.003469826
-358.040442738
-358.05828324
-150.651747941
-151.189787988
-152.240995613
-153.805454758
-155.847176181
-158.326145744
-161.199135737
-164.422063741
-167.951658889
-171.74655009
-175.767889251
-179.97965275
-184.348773061
-188.845206176
-193.442002854
-198.11539229
-202.844843631
-207.613029298
-212.405597043
-217.210667731
-222.018034318
-226.81814691
-231.601120897
-236.356106471
-241.071313164
-245.734610528
-250.334309017
-254.859772203
-259.301695859
-263.652087553
-267.904098137
-272.051874318
-276.090497679
-280.015955147
-283.825083026
-287.515471905
-291.08536
-294.533546323
-297.859333134
-301.06249661
-304.143274699
-307.102356801
-309.940864121
-312.660318528
-315.262603491
-317.749921599
-320.124752373
-322.389811167
-324.548009965
-326.602419362
-328.556232708
-330.412732202
-332.175258384
-333.847182917
-335.431885719
-336.932735889
-338.353076771
-339.696214199
-340.965407848
-342.163864685
-343.294734378
-344.361105859
-345.366005003
-346.312392864
-347.203164525
-348.04114818
-348.829104555
-349.569726366
-350.265637928
-350.919394577
-351.533482013
-352.110315057
-352.652235881
-353.161510783
-353.640325904
-354.090778553
-354.514866284
-354.914469261
-355.291324878
-355.646989593
-355.982788035
-356.299742783
-356.598487641
-356.879168974
-357.14135565
-357.38400165
-357.605547486
-357.804230234
-357.978476771
-358.127387224
-358.250990786
-358.350056492
-358.425917391
-358.480303018
-358.51482335
-358.531127942
-144.863831061
-145.472524264
-146.65591892
-148.410156977
-150.688362465
-153.439586722
-156.610303438
-160.147393846
-164.000045988
-168.120812143
-172.466029063
-176.995859712
-181.674186192
-186.46852069
-191.350019851
-196.293612803
-201.278173014
-206.286607634
-211.30568871
-216.325453169
-221.338063326
-226.336205792
-231.311398949
-236.252876083
-241.147729113
-245.982174226
-250.74301113
-255.418647213
-259.999430268
-264.477429669
-268.846000723
-273.099498369
-277.233242957
-281.243550918
-285.127688735
-288.883729884
-292.510389787
-296.006907234
-299.372981057
-302.608755477
-305.714834024
-308.692289911
-311.542653862
-314.267878979
-316.870292775
-319.352546272
-321.717565454
-323.96850623
-326.10871155
-328.141670323
-330.070977734
-331.900298236
-333.633331832
-335.273785125
-336.8253472
-338.291670906
-339.676358629
-340.982952396
-342.214926975
-343.375685709
-344.468557842
-345.496797342
-346.463582264
-347.372014926
-348.225122165
-349.025856134
-349.777094975
-350.481643948
-351.142236327
-351.761534652
-352.34213164
-352.88655115
-353.397248617
-353.876610721
-354.326953097
-354.750516184
-355.149457873
-355.525838417
-355.881596768
-356.218511239
-356.538140942
-356.841735454
-357.130110027
-357.403478369
-357.661260403
-357.901911143
-358.122983729
-358.321651279
-358.495227648
-358.641961302
-358.7617588
-358.855838289
-358.926296974
-358.975610801
-359.006077957
-359.019766294
-138.459653756
-139.157286154
-140.505446107
-142.493125867
-145.057983484
-148.13431223
-151.655399464
-155.557157651
-159.7801419
-164.270359228
-168.97924717
-173.863228197
-178.883205995
-184.004229985
-189.195446789
-194.430335223
-199.687115568
-204.94912846
-210.204887105
-215.447465618
-220.672928363
-225.877771905
-231.055926342
-236.19658568
-241.284606323
-246.303205803
-251.236701267
-256.072187271
-260.799826429
-265.412123782
-269.902906184
-274.266798152
-278.499351827
-282.597263895
-286.558362705
-290.381358274
-294.065559157