/*--------------------------------*- C++ -*----------------------------------*\
| =========                 |                                                 |
| \\      /  F ield         | OpenFOAM: The Open Source CFD Toolbox           |
|  \\    /   O peration     | Version:  v1906                                 |
|   \\  /    A nd           | Web:      www.OpenFOAM.com                      |
|    \\/     M anipulation  |                                                 |
\*---------------------------------------------------------------------------*/
FoamFile
{
    version     2.0;
    format      ascii;
    class       surfaceScalarField;
    location    "69";
    object      phi;
}
// * * * * * * * * * * * * * * * * * * * * * * * * * * * * * * * * * * * * * //

dimensions      [0 3 -1 0 0 0 0];
oriented        oriented;


internalField   nonuniform List<scalar> 
18240
(
0.0119443645592
-0.0119443838951
0.0244851096509
-0.0125407714628
0.036976771158
-0.0124916800887
0.0493295023009
-0.0123527589454
0.0614906862323
-0.0121612004227
0.0734135727577
-0.011922915257
0.0850553619611
-0.0116418034015
0.0963768172519
-0.0113214846417
0.10734245032
-0.0109656449403
0.117920559893
-0.0105781392865
0.128083462601
-0.0101629122457
0.137807417409
-0.00972398467061
0.147072742827
-0.00926533269811
0.155863591995
-0.00879087898975
0.164167964012
-0.00830437710169
0.17197735997
-0.00780942558615
0.179286723467
-0.00730936651311
0.186094018652
-0.00680732448391
0.192400137299
-0.00630611968683
0.198208437311
-0.00580832887021
0.203524648129
-0.00531621002797
0.208356400358
-0.00483178054968
0.212713152496
-0.00435674961557
0.216605733133
-0.0038926083404
0.22004630325
-0.00344056601063
0.223047923953
-0.00300164771807
0.225624560976
-0.00257663142273
0.227790684313
-0.00216614960328
0.229561316631
-0.00177062536125
0.230951667875
-0.0013903767067
0.231977229836
-0.00102555372735
0.232653458954
-0.000676253752319
0.232995957642
-0.00034248931094
0.233020422985
-2.44891313218e-05
0.232742010296
0.000278423148865
0.232174925328
0.000567062090616
0.231333432022
0.000841504748365
0.230231476403
0.00110193373014
0.228882779193
0.00134870959425
0.22730055203
0.00158220633101
0.225497693264
0.00180287198939
0.223486544984
0.002011128567
0.22127910749
0.0022074515001
0.218886811332
0.00239227760818
0.216320738394
0.00256608761563
0.213591403853
0.00272931719834
0.210708979313
0.00288243982432
0.207683083032
0.00302588017406
0.204523002358
0.00316009645575
0.201237491398
0.00328549611572
0.197834990565
0.00340251704649
0.194323431299
0.00351154569787
0.190710451088
0.00361299674662
0.187003205113
0.0037072336959
0.183208575319
0.00379464658588
0.179332989078
0.00387557524846
0.175382621286
0.00395038473551
0.17136322023
0.00401939134843
0.1672803018
0.0040829354593
0.163138982871
0.00414131049412
0.158944166985
0.00419483290274
0.154700385586
0.00424377422197
0.150411974587
0.00428842794454
0.146082923815
0.00432904483416
0.141717044093
0.0043658965091
0.137317825247
0.00439921412968
0.132888593321
0.00442924850304
0.128432377509
0.00445621230091
0.123952057262
0.00448033654235
0.119450238486
0.00450181645362
0.114929390281
0.00452086417517
0.110391730723
0.00453765840536
0.105839353089
0.00455239321653
0.1012741215
0.00456523158311
0.0966977864624
0.00457635018515
0.0921118906267
0.0045858969397
0.0875178735655
0.00459403170473
0.0829169878367
0.0046008878894
0.078310392935
0.00460660897746
0.0736990817855
0.00461131429066
0.0690839639207
0.00461513128579
0.0644658024593
0.004618165494
0.0598452865963
0.00462052855153
0.0552229791376
0.00462231231272
0.0505993785098
0.0046236125396
0.0459748771153
0.00462450707397
0.0413498134434
0.00462507484022
0.0367244426136
0.00462537737153
0.032098981865
0.00462547118169
0.0274736015123
0.0046253876236
0.0228484864755
0.0046251245287
0.0182239085887
0.00462458558648
0.0136005119923
0.00462340497786
0.00897997148954
0.00462054854693
0.00437518204473
0.00460479729668
0.00437518581535
0.0126154328627
-0.02455983869
0.0260060440539
-0.0259314073909
0.0393024293558
-0.0257880881276
0.0524381587278
-0.0254885132279
0.0653649965265
-0.0250880599976
0.0780359507588
-0.0245938940684
0.0904063530721
-0.0240122263109
0.102434776891
-0.0233499324846
0.114083577431
-0.0226144647622
0.125319139355
-0.0218137245153
0.136112086974
-0.0209558777641
0.146437300218
-0.0200492203797
0.156273949588
-0.0191019985351
0.165605349169
-0.0181223001075
0.174418862653
-0.0171179056201
0.182705638209
-0.0160962216936
0.19046042958
-0.0150641714864
0.197681257972
-0.0140281724012
0.204369190446
-0.0129940643681
0.210527969229
-0.0119671261311
0.216163782454
-0.0109520340928
0.221284892403
-0.00995290791852
0.225901423929
-0.00897329066571
0.230025013117
-0.00801621388893
0.233668629064
-0.00708419020488
0.236846255344
-0.00617928930279
0.239572752673
-0.00530313577886
0.241863578332
-0.00445698951765
0.243734690911
-0.0036417437832
0.245202306593
-0.00285800560407
0.246282839006
-0.00210609085678
0.246992673373
-0.00138610031616
0.24734808101
-0.000697900588719
0.247364704383
-4.11237100357e-05
0.24705846839
0.000584656539
0.246445625484
0.00117989480246
0.24554178969
0.0017453389645
0.244361975073
0.00228173917582
0.242920770819
0.00278991326879
0.241232261254
0.00327070775888
0.239310104129
0.00372502951582
0.237167434773
0.00415379082557
0.234816945468
0.00455794214713
0.232270796434
0.00493842057821
0.229540701004
0.0052961852984
0.226637843994
0.00563216916963
0.223572970921
0.00594731601162
0.220356312285
0.00624253478002
0.216997674766
0.00651873791229
0.213506370141
0.00677679770042
0.209891306787
0.00701758510884
0.206160922334
0.00724192807362
0.20232327421
0.00745065030477
0.198385975429
0.00764453133671
0.194356283199
0.00782434491623
0.190241037522
0.00799082068728
0.18604674714
0.00814468183574
0.181779530768
0.00828660834831
0.177445199857
0.00841727364516
0.173049202419
0.00853730938606
0.168596702231
0.00864734086958
0.164092525299
0.00874795339404
0.159541235226
0.00883972624204
0.154947082424
0.00892320062039
0.150314075473
0.00899891208067
0.145645933213
0.009067360082
0.140946151959
0.00912903872285
0.136217960646
0.00918440797827
0.131464383819
0.00923392263806
0.126688199997
0.00927800528092
0.121892000373
0.0093170733281
0.117078150571
0.00935151381868
0.112248845035
0.0093817085015
0.107406072321
0.00940801047943
0.102551665156
0.00943076727063
0.0976872694165
0.00945029938645
0.0928143898507
0.00946692130532
0.0879343628681
0.00948092204334
0.0830483979316
0.00949258399231
0.07815755425
0.00950216552929
0.0732627778885
0.00950991768241
0.0683648824293
0.00951606880507
0.0634645818593
0.00952083902729
0.0585624752631
0.00952442698439
0.0536590755763
0.00952702196215
0.0487547983877
0.00952879256577
0.0438499865949
0.00952989623856
0.038944903197
0.00953046934295
0.0340397509241
0.00953063292616
0.029134665064
0.00953048221634
0.0242297131599
0.0095300854773
0.019324835991
0.00952947126477
0.0144196370486
0.00952861253744
0.00951302539108
0.00952716861074
0.0046076950282
0.00951013570703
0.00898288473857
0.0127556372146
-0.0373154983835
0.0262520541699
-0.0394278485847
0.0396678036213
-0.0392038612006
0.0529221207827
-0.0387428543858
0.0659629157179
-0.0381288778856
0.0787415805049
-0.0373725821959
0.0912125035966
-0.0364831714433
0.103333588019
-0.035471039419
0.11506668394
-0.0343475816773
0.126377853178
-0.0331249153023
0.137237545266
-0.0318155896906
0.147620637507
-0.0304323331125
0.157506420864
-0.0289878005185
0.166878471822
-0.0274943704351
0.175724499298
-0.0259639504681
0.184036099298
-0.0244078399087
0.191808513103
-0.0228366014057
0.199040313996
-0.0212599903354
0.205733122702
-0.0196868879265
0.211891268494
-0.0181252877898
0.217521498773
-0.0165822779871
0.222632646334
-0.0150640701783
0.227235358865
-0.0135760155891
0.231341793109
-0.0121226616829
0.234965379651
-0.0107077879542
0.238120555106
-0.00933447717364
0.240822569031
-0.00800515974638
0.243087257938
-0.00672168973054
0.244930894961
-0.00548538972199
0.246370004078
-0.00429712493648
0.247421248473
-0.00315734306302
0.248101279853
-0.00206614085054
0.248426663369
-0.00102329086434
0.248413825394
-2.82938603192e-05
0.248078890017
0.000919586208023
0.247437642361
0.00182113537504
0.246505565938
0.00267741070846
0.245297723563
0.00348957550121
0.243828749283
0.00425888389674
0.24211279967
0.00498665234914
0.240163567562
0.00567425897342
0.237994243276
0.00632311110657
0.235617536946
0.00693464681569
0.23304564806
0.00751030645659
0.230290294595
0.00805153805542
0.227362689035
0.00855977270025
0.224273572178
0.00903643309144
0.221033193837
0.00948291203935
0.217651349534
0.00990058332495
0.214137364434
0.0102907826386
0.210500131479
0.0106548200317
0.206748097518
0.0109939627565
0.202889301844
0.0113094487538
0.198931363784
0.0116024709662
0.194881520847
0.0118741913991
0.190746617297
0.0121257266107
0.186533141398
0.0123581619962
0.182247214663
0.0125725382184
0.177894627812
0.0127698654313
0.173480830542
0.0129511105035
0.169010965987
0.013117210976
0.164489860935
0.013269062962
0.15992205863
0.0134075346707
0.155311809459
0.013533454929
0.150663102028
0.0136476261546
0.145979654371
0.0137508134561
0.14126494326
0.0138437569584
0.136522196013
0.0139271614799
0.131754418066
0.0140017081456
0.126964385466
0.0140680446393
0.122154670709
0.0141267960488
0.117327636034
0.0141785557192
0.112485457564
0.014223895295
0.107630119504
0.0142633561933
0.102763436605
0.0142974588105
0.0978870493722
0.0143266946516
0.0930024448964
0.0143515346822
0.0881109531503
0.0143724221389
0.083213766228
0.014389780007
0.0783119358016
0.014404004543
0.0734063908141
0.014415471865
0.0684979361556
0.0144245321985
0.0635872688385
0.0144315155563
0.0586749779299
0.0144367267031
0.0537615592121
0.0144404498702
0.0488474162906
0.014442944378
0.043932873492
0.0144444482477
0.0390181775167
0.0144451743409
0.0341035069304
0.0144453127268
0.029188970513
0.0144450276543
0.0242746043942
0.0144444605841
0.019360349065
0.0144437352207
0.0144460071766
0.014442962909
0.00953146374931
0.0144417205539
0.00462410641223
0.0144175011693
0.0136069949744
0.0129134528527
-0.0502289738102
0.0265635894795
-0.0530780091347
0.0401329152371
-0.0527732107704
0.0535364000271
-0.0521463628451
0.0667193158072
-0.0513118168246
0.0796311898245
-0.0502844791649
0.0922250308595
-0.0490770347845
0.104457720014
-0.047703750641
0.116290383223
-0.0461802662031
0.127688643155
-0.044523196293
0.138622766187
-0.0427497329517
0.149067692033
-0.0408772789188
0.159002980431
-0.0389231079841
0.168412665176
-0.0369040739848
0.177285054641
-0.0348363578043
0.185612467497
-0.0327352703854
0.193390944273
-0.0306150948357
0.200619919791
-0.0284889822761
0.20730189646
-0.0263688800378
0.213442098767
-0.0242655053242
0.21904814716
-0.022188340614
0.224129726999
-0.0201456640615
0.228698288879
-0.0181445905174
0.232766751869
-0.016191137553
0.23634924452
-0.0142902924854
0.239460851939
-0.0124460963282
0.242117402861
-0.0106617214113
0.244335262686
-0.00893956016898
0.246131165928
-0.00728130258546
0.247522052558
-0.00568802107954
0.248524941775
-0.00416024081133
0.249156807697
-0.00269801520845
0.249434491278
-0.00130098191886
0.249374653017
3.153700644e-05
0.248993604717
0.00130062809133
0.248307283854
0.00250744990337
0.247331268031
0.00365342116418
0.246080710447
0.0047401277903
0.244570311093
0.00576927891245
0.242814285618
0.00674267355736
0.240826360014
0.00766218125833
0.23861975315
0.00852971471484
0.236207181558
0.00934721608076
0.233600850318
0.0101166354316
0.230812464627
0.0108399223907
0.227853226527
0.0115190094989
0.224733851072
0.0121558081298
0.221464567021
0.0127521957224
0.218055135891
0.013310014947
0.214514855188
0.0138310638745
0.21085257906
0.0143170975202
0.207076723027
0.0147698201853
0.20319528529
0.0151908886833
0.199215852213
0.0155819062631
0.195145619647
0.0159444269441
0.190991398667
0.0162799505897
0.186759636462
0.0165899279233
0.182456422014
0.0168757563991
0.178087506271
0.0171387855888
0.173658307594
0.0173803135984
0.169173931046
0.0176015925835
0.164639173528
0.0178038255371
0.160058542092
0.0179881717608
0.155436258766
0.0181557439019
0.150776277871
0.0183076132555
0.146082290548
0.0184448069726
0.141357741109
0.0185683131088
0.136605831331
0.0186790779583
0.131829535867
0.0187780107897
0.127031606392
0.0188659812842
0.122214586128
0.0189438239242
0.117380813919
0.0190123355306
0.112532437937
0.0190722792823
0.107671419765
0.0191243823602
0.102799547342
0.0191693395872
0.0979184391378
0.0192078111942
0.0930295563894
0.0192404260774
0.0881342074444
0.0192677797037
0.0832335593339
0.019290436987
0.0783286423477
0.0193089303514
0.0734203609906
0.0193237622278
0.0685094988336
0.0193354032894
0.0635967288775
0.0193442945673
0.0586826186925
0.0193508458615
0.0537676401581
0.0193554374714
0.0488521747662
0.01935841879
0.0439365224804
0.0193601096576
0.0390209066708
0.0193607992667
0.0341054810718
0.0193607474991
0.0291903326982
0.0193601851232
0.0242754846215
0.019359317558
0.0193608969661
0.0193583315326
0.0144464831387
0.0193573853487
0.00953240841932
0.0193558036663
0.00462672676576
0.0193231908407
0.0182337256255
0.0131208390677
-0.063349835406
0.0269844357888
-0.0669416297609
0.040763096993
-0.0665518956965
0.0543684614333
-0.0657517507993
0.0677431733383
-0.0646865518313
0.0808345212026
-0.0633758497859
0.0935937023566
-0.0618362382077
0.105976212501
-0.0600862826458
0.117942201569
-0.0581462765777
0.129456710402
-0.0560377259729
0.140489788452
-0.0537828312399
0.151016493634
-0.0514040038496
0.161016794526
-0.0489234279793
0.170475383632
-0.0463626816865
0.179381426337
-0.0437424184359
0.187728254458
-0.0410821159211
0.195513028435
-0.0383998855476
0.202736373926
-0.035712343991
0.209402013868
-0.0330345355177
0.215516397319
-0.0303799038114
0.221088342501
-0.0277603001477
0.226128690948
-0.0251860263672
0.230649986882
-0.022665899629
0.234666175152
-0.0202073385224
0.238192329348
-0.0178164587096
0.241244400848
-0.0154981793878
0.24383899878
-0.0132563302377
0.245993190023
-0.0110937618526
0.247724328363
-0.00901245071021
0.249049901002
-0.0070136030595
0.249987401385
-0.00509774988389
0.250554216556
-0.00326483864049
0.250767537189
-0.00151431018295
0.250644279804
0.000154787178837
0.250201000482
0.00174390085213
0.249453866348
0.00325457789951
0.248418615536
0.00468866646854
0.247110525703
0.00604821253268
0.245544388816
0.00733541133204
0.243734490345
0.00855256796712
0.241694600984
0.0097020671702
0.239437968384
0.0107863442638
0.236977318533
0.0118078634832
0.234324855337
0.0127690965636
0.231492268384
0.013672507865
0.228490737762
0.014520539017
0.225330945983
0.0153155993726
0.222023086186
0.0160600553436
0.218576876608
0.0167562248967
0.215001570796
0.0174063704049
0.211305973448
0.0180126961142
0.207498451642
0.0185773435661
0.203586951216
0.0191023911863
0.19957900835
0.0195898515193
0.195481765878
0.0200416722854
0.191301984767
0.0204597348604
0.187046060032
0.0208458562709
0.182720031808
0.0212017885091
0.178329600622
0.0215292210843
0.173880137935
0.0218297808467
0.16937670065
0.0221050348265
0.164824041041
0.0223564903348
0.160226620471
0.0225855978892
0.155588618706
0.0227937514371
0.150913946841
0.0229822912322
0.14620625605
0.0231525040714
0.141468949754
0.0233056260289
0.13670519187
0.0234428426459
0.13191791829
0.0235652914653
0.1271098447
0.0236740621372
0.122283477438
0.0237701987202
0.117441120963
0.0238546996917
0.112584888173
0.0239285200037
0.107716707606
0.0239925709954
0.102838333278
0.0240477222018
0.0979513516919
0.024094801182
0.0930571912674
0.0241345950868
0.0881571292254
0.0241678504187
0.0832523006605
0.0241952743661
0.0783437053573
0.0242175345203
0.0734322165505
0.0242352599907
0.0685185877212
0.0242490410865
0.0636034610632
0.0242594302368
0.0586873742614
0.0242669416612
0.0537707686494
0.0242720521142
0.0488539958779
0.0242752005974
0.0439373256103
0.0242767890208
0.0390209518499
0.0242771821593
0.0341049998596
0.0242767086306
0.0291895321392
0.0242756619229
0.0242745555541
0.024274303104
0.0193600314741
0.0242728642466
0.0144459030722
0.0242715221759
0.00953237031628
0.0242693448985
0.00462747024649
0.0242280989951
0.02286119966
0.0133832790778
-0.0767331369288
0.0275209326408
-0.0810793069616
0.0415675353064
-0.0805985220089
0.0554305759799
-0.0796148148133
0.0690495514753
-0.0783055503146
0.0823690161568
-0.0766953370637
0.0953379094516
-0.074805153655
0.10790998835
-0.0726583832486
0.120044190705
-0.0702805001282
0.13170485806
-0.0676984140266
0.142861819626
-0.0649398129474
0.153490347054
-0.0620325508861
0.163570999408
-0.0590040993529
0.173089376051
-0.0558810767964
0.182035800543
-0.0526888607899
0.190404953174
-0.0494512858501
0.198195473011
-0.0461904220698
0.205409542933
-0.0429264300328
0.212052473767
-0.0396774818594
0.21813229562
-0.0364597406093
0.223659367441
-0.0332873863039
0.228646007979
-0.0301726806852
0.233106154988
-0.027126059817
0.237055052095
-0.0241562482608
0.240508967242
-0.0212703858948
0.243484939666
-0.0184741633115
0.246000557548
-0.0157719590375
0.248073761924
-0.0131669766163
0.249722678089
-0.0106613766855
0.250965469515
-0.00825640377611
0.251820215254
-0.00595250434406
0.252304805673
-0.00374943726315
0.252436855411
-0.00164636757984
0.252233611936
0.000358023501038
0.251711937996
0.00226556820992
0.250888251339
0.00407825848638
0.249778485917
0.00579842637413
0.248398069583
0.0074286238502
0.246761905585
0.00897157085564
0.244884359499
0.010430110069
0.242779253706
0.0118071695114
0.240459865071
0.0131057299254
0.23793892804
0.0143287980607
0.235228639315
0.0154793833005
0.23234066659
0.0165604791084
0.229286157727
0.0175750468491
0.226075753021
0.0185260035374
0.22271959711
0.0194162111489
0.219227353263
0.0202484691098
0.215608216761
0.0210255076913
0.211870930139
0.0217499839721
0.208023797156
0.0224244781863
0.204074698256
0.0230514921543
0.200031104519
0.0236334477035
0.195900092876
0.0241726867834
0.191688359654
0.0246714712968
0.187402235215
0.0251319843081
0.183047696901
0.0255563307565
0.178630382934
0.0259465393432
0.174155604632
0.0263045637546
0.169628359502
0.026632284895
0.165053342704
0.0269315123622
0.160434959329
0.0272039867999
0.155777335131
0.0274513814401
0.151084328033
0.0276753044203
0.14635953817
0.0278773002703
0.141606318704
0.0280588520951
0.136827785249
0.0282213829293
0.13202682606
0.0283662577254
0.127206110946
0.0284947845349
0.122368100903
0.0286082162708
0.117515056597
0.0287077516992
0.11264904754
0.0287945369657
0.107771960217
0.0288696663983
0.102885506879
0.0289341837983
0.0979912333955
0.0289890830741
0.093090527731
0.0290353093088
0.0881846275936
0.0290737592317
0.0832746286509
0.0291052820948
0.0783614920306
0.029130680005
0.0734460523257
0.029150708624
0.0685290249834
0.0291660773914
0.0636110141289
0.0291774500753
0.0586925198598
0.0291854449194
0.0537739458894
0.0291906350882
0.0488556067069
0.0291935488047
0.0439377350068
0.0291946697926
0.0390204886977
0.0291944375806
0.0341039582312
0.0291932482308
0.0291881740272
0.0291914552101
0.0242731151238
0.0291893708566
0.0193587208596
0.0291872671365
0.0144449143556
0.0291853372694
0.00953185178013
0.0291824157941
0.0046274613063
0.0291324974135
0.0274886648303
0.0137053034353
-0.0904384626772
0.0281803552164
-0.095554382385
0.0425565944727
-0.0949747847237
0.0567361371618
-0.0937943807147
0.0706545508329
-0.0922239868169
0.0842530287219
-0.0902938373946
0.0974777520196
-0.088029898959
0.110280373913
-0.0854610266903
0.122618396888
-0.0826185441623
0.13445537751
-0.0795354151972
0.145760966015
-0.0762454214678
0.156510798552
-0.0727824028902
0.166686266302
-0.0691795860104
0.176274186778
-0.0654690156121
0.185266403864
-0.0616810956386
0.19365934021
-0.0578442393824
0.201453524209
-0.0539846226717
0.208653109031
-0.0501260308804
0.215265399108
-0.0462897873771
0.221300394527
-0.0424947508944
0.22677036222
-0.0387573682825
0.231689438495
-0.0350917706769
0.236073266851
-0.0315099013148
0.239938671519
-0.0280216655096
0.243303367451
-0.0246350938417
0.246185704791
-0.0213565121156
0.248604446818
-0.0181907119665
0.250578578202
-0.0151411183574
0.252127141913
-0.0122099502002
0.253269101267
-0.00939837239676
0.254023225376
-0.00670663716666
0.254407994384
-0.00413421445066
0.254441520645
-0.00167990148818
0.25414143295
0.000658104070833
0.253524957897
0.00288203669686
0.252608793369
0.00499441698047
0.251409093028
0.00699812122082
0.249941453116
0.00889625878646
0.248220900712
0.0106921188123
0.246261887681
0.0123891191604
0.244078290195
0.0139907635729
0.241683411875
0.0155006053169
0.23908999068
0.0169222168306
0.236310207964
0.0182591640721
0.233355700036
0.0195149855794
0.230237570825
0.0206931750706
0.226966406154
0.0217971676911
0.223552288394
0.0228303288415
0.220004812104
0.0237959457869
0.216333099543
0.0246972210708
0.21254581675
0.0255372680209
0.20865118915
0.0263191074526
0.204657017463
0.0270456659239
0.200570692919
0.0277197747217
0.196399212595
0.0283441699755
0.192149193954
0.0289214931737
0.187826889396
0.0294542924723
0.183438199959
0.0299450241461
0.178988688977
0.0303960546236
0.174483594895
0.0308096624555
0.169927844021
0.0311880407099
0.165326062454
0.0315332991677
0.160682587964
0.0318474668263
0.156001481095
0.0321324941194
0.151286536241
0.0323902553607
0.146541291997
0.0326225508527
0.141769041523
0.0328311091629
0.136972842238
0.0330175890408
0.132155525561
0.0331835814645
0.127319706053
0.0333306113215
0.122467790622
0.0334601391972
0.117601987215
0.0335735627989
0.112724313583
0.033672218489
0.107836605595
0.0337573824547
0.102940525656
0.0338302719798
0.0980375707313
0.0338920463924
0.0931290804845
0.0339438080946
0.0882162450718
0.0339866033023
0.0833001130671
0.0340214228653
0.0783815990898
0.0340492028266
0.0734614915582
0.034070825062
0.0685404601973
0.0340871176925
0.0636190636552
0.0340988555778
0.0586977569159
0.0341067606237
0.0537768988056
0.0341115021782
0.0488567593104
0.0341136972985
0.0439375270116
0.0341139111371
0.0390193164018
0.0341126572843
0.0341021754483
0.0341103982758
0.0291860935224
0.0341075461687
0.024271010187
0.0341044631168
0.0193568255285
0.0341014603821
0.0144434191842
0.0340987519624
0.00953088678921
0.0340949566126
0.00462706426474
0.0340363279684
0.0321157328434
0.0140916416685
-0.104530126547
0.0289717291191
-0.110434493166
0.0437434177864
-0.109746496747
0.058302082693
-0.108353068649
0.0725784286527
-0.106500355461
0.0865095520903
-0.104224983111
0.100038317049
-0.101558685765
0.113113891502
-0.0985366225344
0.125692135848
-0.0951968094091
0.137735778389
-0.091579078136
0.149214392673
-0.087724055617
0.160104203919
-0.0836722334632
0.170387757331
-0.0794631581906
0.180053482049
-0.075134758542
0.18909518376
-0.0707228149905
0.19751149531
-0.0662605680068
0.205305310894
-0.0617784547537
0.212483224097
-0.0573039600128
0.219054985822
-0.0528615644561
0.225032993209
-0.0484727730684
0.230431817325
-0.0441562066142
0.235267773702
-0.039927740707
0.239558537726
-0.0358006784281
0.243322804478
-0.0317859447949
0.246579991708
-0.0278922930473
0.249349983167
-0.024126515001
0.25165290947
-0.0204936491444
0.253508962814
-0.0169971820314
0.254938242368
-0.0136392395378
0.255960626687
-0.0104207659603
0.25659567033
-0.0073416895098
0.256862521222
-0.00440107349494
0.256779855735
-0.00159724363005
0.256365723553
0.00107222915635
0.255637762342
0.00360999136344
0.254612974143
0.00601919917913
0.253307749473
0.00830334042529
0.251737864228
0.0104661390948
0.249918475228
0.0125115033973
0.247864121457
0.0144434690323
0.245588729813
0.0162661518264
0.243105624098
0.0179837081425
0.240427536761
0.0196003017745
0.237566622527
0.0211200763999
0.234534473647
0.0225471330342
0.231342136074
0.02388551169
0.228000126471
0.0251391768048
0.224518449507
0.026312005771
0.220906615456
0.0274077802493
0.217173657666
0.0284301797106
0.213328149977
0.0293827769858
0.209378223759
0.0302690353646
0.20533158468
0.0310923071027
0.20119552894
0.0318558329578
0.196976959117
0.0325627426795
0.192682399408
0.0332160561377
0.188318010431
0.0338186850651
0.183889603392
0.0343734351519
0.179402653814
0.0348830085057
0.174862314641
0.0353500062584
0.170273428934
0.0357769313598
0.165640541972
0.0361661913759
0.160967912981
0.0365201013504
0.15625952634
0.0368408865751
0.151519102439
0.0371306853417
0.146750108087
0.0373915515435
0.141955766627
0.0376254572062
0.137139067654
0.0378342948368
0.132302776496
0.038019879673
0.127449443357
0.0381839517315
0.122581412275
0.0383281777586
0.117700829791
0.0384541529656
0.112809653488
0.0385634026643
0.107909660285
0.038657383712
0.103002454637
0.0387374858485
0.0980894765433
0.0388050328636
0.0931720094865
0.0388612836661
0.0882511882237
0.0389074332039
0.0833280065308
0.0389446132975
0.0784033248333
0.0389738933469
0.0734778778063
0.0389962809671
0.0685522818949
0.0390127225204
0.0636270428092
0.0390241035943
0.0587025629676
0.0390312494046
0.0537791489304
0.0390349251633
0.0488570187878
0.0390358364128
0.0439363095949
0.0390346293446
0.0390170848122
0.0390318911227
0.0340993419443
0.039028150221
0.0291830204421
0.0390238767
0.0242680100139
0.039019482325
0.0193541599441
0.0390153190199
0.014441294993
0.0390116254626
0.00952944650326
0.0390068133412
0.0046263746886
0.0389394076467
0.0367421113708
0.0145478569672
-0.119078005555
0.0299061647065
-0.125792824254
0.0451443251059
-0.124984680287
0.0601494333011
-0.123358199738
0.0748462553203
-0.121197199987
0.0891669483316
-0.118545698235
0.103050440742
-0.115442199855
0.116443020841
-0.111929223854
0.129298727595
-0.108052536901
0.141579477666
-0.103859848436
0.153254953562
-0.0993995512233
0.164302292566
-0.0947195916362
0.174705621051
-0.0898665053011
0.184455478916
-0.0848846344739
0.193548175607
-0.0798155291936
0.201985113829
-0.0746975231751
0.209772110535
-0.0695654678461
0.216918738114
-0.0644506034131
0.223437702345
-0.059380543947
0.229344268091
-0.0543793535116
0.234655739096
-0.0494676917585
0.239390994481
-0.0446630096741
0.243570081826
-0.0399797788015
0.247213864643
-0.0354297400902
0.250343720833
-0.0310221611669
0.252981287796
-0.026764093349
0.255148249631
-0.0226606218201
0.256866161632
-0.0187151043304
0.258156307583
-0.0149293952456
0.25903958556
-0.0113040531609
0.259536418871
-0.00783853149584
0.259666688333
-0.00453135108702
0.259449693441
-0.00138025633864
0.258903939259
0.00161797626869
0.258047504163
0.00446641994625
0.256897708313
0.00716898906066
0.255471188896
0.00972985441213
0.253783905393
0.012153417697
0.251851143191
0.0144442612235
0.249687522923
0.0166070854383
0.247307013413
0.0186466579856
0.24472294711
0.0205677715933
0.241948037448
0.0223752090814
0.238994397443
0.0240737145341
0.235873559194
0.0256679698938
0.232596493801
0.027162576162
0.229173631522
0.0285620386271
0.225614881827
0.0298707554614
0.221929653268
0.0310930092505
0.218126872928
0.0322329609253
0.21421500544
0.0332946457762
0.210202071394
0.034281971125
0.206095665189
0.0351987154304
0.201902972177
0.0360485284835
0.197630785205
0.0368349325508
0.193285520427
0.0375613241841
0.188873232505
0.0382309766182
0.184399629106
0.0388470425265
0.179870084822
0.0394125571043
0.175289654426
0.0399304412893
0.170663085609
0.0404035051262
0.165994831114
0.0408344511166
0.161289060414
0.0412258775871
0.156549670857
0.0415802819424
0.151780298422
0.0419000638562
0.146984328013
0.0421875282836
0.142164903435
0.0424448883639
0.137324936972
0.0426742681113
0.132467118715
0.0428777049715
0.127593925551
0.0430571521522
0.122707629964
0.0432144808134
0.117810308562
0.0433514820319
0.112903850454
0.0434698686302
0.107989965408
0.0435712767904
0.103070191916
0.043657267544
0.0981459050672
0.0437293280648
0.0932183243738
0.0437888728533
0.088288521444
0.0438372447453
0.0833574276263
0.0438757158308
0.0784258415462
0.0439054882203
0.073494436624
0.0439276947417
0.0685637685213
0.0439433995082
0.0636342825798
0.0439535984385
0.0587063212161
0.0439592196746
0.0537801313263
0.0439611239721
0.0488558716596
0.0439601050161
0.0439336202566
0.0439568897291
0.0390133818884
0.0439521385205
0.0340950956256
0.0439464455072
0.0291786426174
0.0439403386706
0.0242638540469
0.0439342797648
0.0193505192917
0.0439286622966
0.014438400707
0.0439237523056
0.00952746355627
0.0439177588524
0.00462539720323
0.0438414819673
0.041367512279
0.0150806684254
-0.134158695906
0.0309972468734
-0.141709425702
0.0467793243918
-0.140766780841
0.0623039359457
-0.138882833986
0.0774886604752
-0.136381946865
0.092259753901
-0.133316813597
0.106551528625
-0.129733996083
0.120306994192
-0.125684710468
0.133478234614
-0.121223797883
0.146026457442
-0.116408091324
0.157921753989
-0.111294867307
0.169142627323
-0.105940483979
0.179675348992
-0.100399245434
0.189513203116
-0.094722506518
0.198655670275
-0.0889580137186
0.207107594812
-0.0831494645286
0.214878369811
-0.0773362591042
0.221981164636
-0.0715534139467
0.228432211786
-0.0658316062508
0.234250162725
-0.0601973190538
0.239455516954
-0.0546730600397
0.244070124346
-0.0492776305726
0.248116757911
-0.0440264253264
0.251618752162
-0.0389317467585
0.254599701219
-0.0340031221013
0.257083210205
-0.0292476136731
0.259092693458
-0.0246701158725
0.260651213262
-0.0202736343971
0.261781353241
-0.0160595449513
0.262505120987
-0.0120278301014
0.262843875865
-0.00817729502839
0.262818274891
-0.00450575821383
0.262448295007
-0.00101028402747
0.261752946627
0.00231331761285
0.260750733601
0.0054686264904
0.259459298475
0.00846041825572
0.257895528879
0.0112936186148
0.25607556397
0.0139733777469
0.254014808716
0.0165050121403
0.251727952812
0.0188939375228
0.249228991767
0.0211456157173
0.246531249529
0.0232655110211
0.243647402037
0.025259054255
0.240589501251
0.0271316134891
0.237368999278
0.028888470512
0.233996772321
0.0305348022344
0.23048314423
0.032075666293
0.226837909485
0.0335159902351
0.223070355495
0.0348605637103
0.219189284126
0.0361140331982
0.215203032401
0.0372808988271
0.211119492335
0.0383655129321
0.206946129897
0.0393720800101
0.202690003101
0.0403046578157
0.198357779229
0.0411671593375
0.193955751225
0.0419633554736
0.189489853277
0.0426968782078
0.184965675626
0.0433712241668
0.180388478645