/*--------------------------------*- C++ -*----------------------------------*\
| =========                 |                                                 |
| \\      /  F ield         | OpenFOAM: The Open Source CFD Toolbox           |
|  \\    /   O peration     | Version:  v1906                                 |
|   \\  /    A nd           | Web:      www.OpenFOAM.com                      |
|    \\/     M anipulation  |                                                 |
\*---------------------------------------------------------------------------*/
FoamFile
{
    version     2.0;
    format      ascii;
    class       surfaceScalarField;
    location    "201";
    object      phia;
}
// * * * * * * * * * * * * * * * * * * * * * * * * * * * * * * * * * * * * * //

dimensions      [0 3 -1 0 0 0 0];
oriented        oriented;


internalField   nonuniform List<scalar> 
18240
(
0.00138121958086
-0.00137926976098
0.00289396390291
-0.00151032578555
0.00440584235766
-0.0015099275259
0.00589986639856
-0.00149151787277
0.00736706649337
-0.00146537280398
0.0088019658161
-0.00143232345421
0.0101972167848
-0.00139355184352
0.0115489178393
-0.00134906979502
0.0128505377748
-0.00130005405586
0.0140996079346
-0.00124639872718
0.0152904537762
-0.00118941974184
0.0164220599221
-0.00112890894612
0.0174896345686
-0.00106629047576
0.0184935699885
-0.00100122598176
0.0194299140198
-0.000935205047648
0.0203003572929
-0.000867733961979
0.0211016883529
-0.000800336205494
0.0218367377709
-0.000732351736549
0.0225029039131
-0.000665316396769
0.0231039822843
-0.000598402739725
0.0236378403963
-0.00053315033844
0.0241090591795
-0.000468575073359
0.0245158422751
-0.000406216982579
0.0248633942882
-0.000344949479104
0.0251501388041
-0.000286315813785
0.0253817565086
-0.000229065641958
0.0255567948088
-0.000174746091626
0.0256812862007
-0.00012199892182
0.0257538237295
-7.23768809836e-05
0.0257806785737
-2.4431355894e-05
0.0257604293581
2.02798852113e-05
0.0256994911226
6.3283600669e-05
0.0255963670462
0.000103030713313
0.0254575130302
0.000141111994477
0.0252813278931
0.000175970620521
0.0250742475123
0.000209242568391
0.0248345395912
0.000239379841401
0.0245685465209
0.000268051781592
0.024274388659
0.000293720993828
0.023958261644
0.000318076004747
0.0236181332317
0.000339592172771
0.0232600053462
0.000359962089238
0.0228816974059
0.00037767887961
0.0224889860114
0.000394427417642
0.0220795535842
0.000408721294581
0.021658924505
0.000422224729907
0.0212246621566
0.000433476813135
0.0207820252171
0.000444111501271
0.0203284805031
0.000452696010926
0.0198690106584
0.000460823478256
0.0194010127634
0.000467093986799
0.0189291941631
0.000473052516872
0.0184509113656
0.000477334592605
0.0179705982059
0.000481429036145
0.0174856017785
0.000484011542555
0.0170000920351
0.000486509916947
0.0165114374762
0.000487643063046
0.0160235519433
0.000488772523589
0.0155338551619
0.00048866562391
0.015046016594
0.00048861532808
0.0145575335952
0.000487441181448
0.0140718382225
0.000486364913438
0.0135865279871
0.00048426390544
0.0131048052552
0.000482288382254
0.0126243845683
0.000479377643632
0.0121482400843
0.000476609575857
0.0116742149728
0.000472990572052
0.01120505611
0.000469526964222
0.0107387409781
0.000465295562094
0.0102777845945
0.000461231055075
0.00982029991752
0.000456484323974
0.00936856574995
0.000451919234909
0.0089208275746
0.000446762346684
0.00847912052922
0.000441806519851
0.00804181753892
0.000436355484958
0.00761070464545
0.000431131337254
0.00718427589081
0.000425514618048
0.00676406244993
0.00042015596304
0.00634867400055
0.000414512129328
0.00593938478225
0.000409161636827
0.00553491655913
0.00040363536642
0.00513628694862
0.000398437913988
0.00474233086285
0.000393171399912
0.00435381699338
0.000388263073026
0.0039697036383
0.000383379540192
0.00359053529639
0.000378860625084
0.0032154343832
0.000374416473821
0.00284481164511
0.000370259497852
0.00247812170466
0.000366051053738
0.00211604516156
0.000361670832737
0.00175924927128
0.00035621919944
0.00141083069619
0.000347996201145
0.00107890777564
0.000331455399168
0.000785348833593
0.000293108332418
0.000451314039832
0.000333364139075
0.000450916742682
0.00152689123854
-0.00290400292317
0.00323188281829
-0.00321290957451
0.00492806366524
-0.00320384083789
0.00660105369219
-0.00316209374843
0.0082431287896
-0.00310522874015
0.00984794423467
-0.00303473116483
0.0114084339682
-0.0029518808502
0.0129192101721
-0.00285745525377
0.0143741722898
-0.0027529250194
0.0157692740083
-0.00263913893339
0.0170995841961
-0.00251771724276
0.0183624865992
-0.00238949021792
0.0195542522565
-0.00225613029897
0.0206736601599
-0.00211836306864
0.0217181186131
-0.00197783019738
0.0226876851691
-0.00183508849673
0.0235807747519
-0.00169169059063
0.0243985560598
-0.00154798728895
0.0251402847082
-0.00140541118959
0.0258080513706
-0.0012640962129
0.026401776944
-0.00112534701823
0.0269242865162
-0.000989089746251
0.0273760016235
-0.000856509930153
0.027760311258
-0.000727347590504
0.0280779935106
-0.000602685336766
0.0283328532422
-0.000482102283516
0.0285259043633
-0.000366595177092
0.0286612413639
-0.000255606075274
0.0287400126601
-0.000150059190883
0.0287664923842
-4.92794174497e-05
0.028741875239
4.58720697386e-05
0.0286705175986
0.00013617019052
0.0285536008649
0.000220806812982
0.0283954959955
0.00030063868014
0.0281973035219
0.000374906951982
0.0279633218997
0.000444535490444
0.027694525223
0.000508804841448
0.0273950868629
0.000568688355086
0.0270658231405
0.000623499647672
0.0267107378506
0.000674245215785
0.0263304683708
0.000720265423935
0.0259288152987
0.000762584697453
0.0255062267807
0.000800564351639
0.0250662779698
0.000835232705232
0.0246092263005
0.000865967475713
0.0241384082468
0.000893788516126
0.0236538972808
0.000918085932403
0.0231587871628
0.000939860025981
0.0226529804852
0.000958510298492
0.0221393310402
0.000975008019324
0.0216175894698
0.000988759602712
0.021090379269
0.00100069916001
0.0205573220418
0.00101023870103
0.0200208248396
0.0010182688749
0.0194804062858
0.00102420691123
0.0189382746898
0.00102889546629
0.0183938726111
0.00103175825667
0.0178492279586
0.00103358751339
0.0173037337272
0.00103381603745
0.0167592557874
0.00103318513924
0.0162151613176
0.00103114093766
0.0156731694879
0.00102837514716
0.0151326415836
0.00102435244168
0.0145951622825
0.00101971760576
0.0140601015407
0.00101395992131
0.0135289165968
0.00100768074308
0.0130009952045
0.00100039998295
0.0124776700941
0.000992679290344
0.0119583503014
0.000984074810009
0.0114442421913
0.000975111852253
0.0109347750288
0.000965387256643
0.0104310242653
0.000955392594405
0.00993243469611
0.000944768511821
0.00943994387273
0.000933974310401
0.00895300553875
0.000922695911057
0.00847241237081
0.000911360633308
0.007997619913
0.000899699557153
0.00752926940453
0.000888107036216
0.00706681219385
0.000876357637015
0.00661073414642
0.000864810570426
0.00616047881645
0.00085328072057
0.00571637572188
0.000842088305299
0.00527786118099
0.000831083208422
0.00484511303752
0.000820539899368
0.00441756738733
0.000810332855363
0.00399526449142
0.000800675127219
0.0035776599738
0.00079143821766
0.00316468824558
0.000782725742146
0.00275585192683
0.000774311205605
0.00235099119205
0.000766010517582
0.00194952755138
0.000757140992661
0.00155052485535
0.00074650244269
0.0011499408496
0.000731521109089
0.000735152742905
0.00070741434317
0.000332514476488
0.0007354775377
0.000783144313799
0.00155330724385
-0.00445511283536
0.00327942207993
-0.0049366631786
0.00499940069121
-0.00492147625424
0.00669598822399
-0.00485631651152
0.00836100473896
-0.0047679345089
0.00998745455637
-0.00465884007128
0.0115684729962
-0.00453063058807
0.0130981383717
-0.00438481566968
0.0145707162527
-0.00422328628171
0.0159816046181
-0.00404776996382
0.0173263737484
-0.00386033260098
0.0186018282342
-0.00366274519473
0.0198048651676
-0.00345708464136
0.0209336556969
-0.00324502075176
0.0219863417196
-0.00302851279703
0.0229623363957
-0.00280902424605
0.0238608763215
-0.0025883117378
0.0246824398312
-0.0023675720142
0.0254271736671
-0.00214831649504
0.0260964262045
-0.00193145510424
0.0266910634437
-0.001718249376
0.027213112711
-0.00150933501377
0.0276639833991
-0.00130574358134
0.028046213338
-0.00110786702771
0.028361604035
-0.000916539314688
0.0286130598658
-0.00073194507037
0.0288026490048
-0.000554751731802
0.0289335231734
-0.000384968303569
0.0290079118335
-0.000223121674891
0.0290291105663
-6.90712122607e-05
0.0289994206543
7.6778134808e-05
0.0289221937026
0.000214695735495
0.0287997261301
0.000344378705192
0.0286353484368
0.00046620333647
0.028431287754
0.000579957532722
0.0281907890502
0.000686107557875
0.0279159571994
0.000784512056129
0.0276098990807
0.000875704972177
0.0272745586935
0.000959600356871
0.0269128670208
0.00103678078373
0.0265265801066
0.00110719980425
0.0261184252301
0.00117147007141
0.0256899548308
0.00122957130182
0.0252436770067
0.00128213036467
0.0247809340298
0.00132914055801
0.0243040069051
0.00137122830215
0.0238140299876
0.00140839051657
0.0233130590927
0.0014412410617
0.0228020295577
0.00146977110305
0.0222827793215
0.0014945708461
0.0217560602092
0.00151561879435
0.0212235070835
0.00153347298183
0.0206857081434
0.00154809321806
0.0201441130269
0.00155999835566
0.0195991700675
0.00156912652295
0.0190521658663
0.00157595359167
0.0185034337925
0.00158039470924
0.0179541191764
0.00158288119132
0.0174044654031
0.0015833073874
0.0168554985898
0.00158206188882
0.0163073943717
0.00157902223269
0.0157610775559
0.00157453813123
0.0152166746804
0.00156847707776
0.0146750239952
0.00156115612235
0.0141362160562
0.0015524401301
0.0136010110118
0.00154262030375
0.0130694712576
0.00153156730333
0.0125422829922
0.0015195537688
0.0120194824762
0.00150646343724
0.0115016803528
0.00149255649209
0.0109888844706
0.00147773616208
0.0104816254624
0.0014622550585
0.00997987684634
0.00144603989941
0.00948408168475
0.00142933835447
0.00899417176736
0.00141210276884
0.00851049498042
0.00139457661274
0.00803293348134
0.00137673737358
0.00756173248493
0.00135882275327
0.00709671809441
0.00134083308875
0.00663802786685
0.00132299695407
0.00618542759918
0.00130533293704
0.00573894455824
0.00128805494857
0.00529828315227
0.00127119302528
0.00486336119892
0.00125493786206
0.00443382276544
0.00123931952887
0.00400947736765
0.0012244902467
0.00358990512022
0.00121045799201
0.00317478765527
0.00119730444953
0.00276357468772
0.00118496967989
0.00235563545042
0.00117340783433
0.00194978261446
0.00116244421423
0.00154376516886
0.00115199822835
0.00113235905021
0.00114243632759
0.000703494622699
0.00113575450245
0.0002908909551
0.00114757413422
0.00107380240892
0.0015762898892
-0.00602919123458
0.00332496992362
-0.00668295996859
0.00506771163625
-0.00666185379055
0.0067864008213
-0.00657263862766
0.0084724853623
-0.00645167931036
0.0101185457423
-0.0063025650937
0.0117176246409
-0.00612740696286
0.0132635076041
-0.00592840453212
0.0147505122499
-0.00570803768057
0.0161738132658
-0.00546882924201
0.0175291458253
-0.00521347161931
0.0188131431367
-0.00494456314994
0.0200229607782
-0.004664777923
0.0211566336428
-0.00437658521905
0.0222126333031
-0.00408246453029
0.0231902508653
-0.0037846113945
0.0240891003343
-0.00348519625504
0.0249095335124
-0.00318605859411
0.0256521009831
-0.00288900666351
0.0263180035697
-0.00259549958849
0.0269085214656
-0.00230698213007
0.0274255048861
-0.00202455289683
0.0278707783856
-0.00174932736602
0.0282466697122
-0.00148208895607
0.0285553935559
-0.00122367265193
0.0287996150046
-0.000974596839921
0.0289818140064
-0.000735462477622
0.0291048778648
-0.000506565681312
0.0291714477339
-0.000288309315693
0.0291845352597
-8.07990868964e-05
0.0291468533429
0.000115733262925
0.0290614520443
0.000301346604769
0.0289310369536
0.000475954558258
0.0287586213609
0.000639755383318
0.0285468367525
0.000792788560779
0.0282985978241
0.000935367991377
0.0280164078913
0.00106763252754
0.0277030332852
0.0011899852198
0.0273608084752
0.00130264011612
0.0269923151376
0.00140606435062
0.0265996906935
0.00150052454542
0.0261853080534
0.00158652915879
0.025751090855
0.00166437697223
0.0252991895642
0.00173459732154
0.0248313067534
0.00179750341311
0.0243493660198
0.00185362788794
0.0238548501606
0.00190328290141
0.0233494593311
0.00194698886737
0.0228344649131
0.00198504360634
0.0223113540595
0.00201794222381
0.0217812016212
0.00204595690679
0.0212452980894
0.00206954646382
0.020704541637
0.00208894870773
0.0201600470708
0.00210457821653
0.0196125596503
0.0021166326087
0.0190630424137
0.002125477475
0.01851211311
0.00213126809085
0.017960607791
0.00213432032687
0.0174090420116
0.00213474869111
0.0168581483803
0.0021328222693
0.0163083629783
0.0021286201352
0.0157603351959
0.00212237111217
0.015214440321
0.00211412709501
0.0146712599329
0.00210408557422
0.0141311215506
0.00209228149278
0.0135945485309
0.00207889139893
0.0130618277584
0.00206394411707
0.0125334281071
0.0020476055029
0.0120095970654
0.00202990836542
0.0114907474032
0.00201101696742
0.0109770837103
0.00199097634967
0.0104689570262
0.00196995591913
0.00996652202844
0.00194801853008
0.00947005979978
0.00192534272205
0.00897966641545
0.00190201168256
0.0084955440567
0.00187821395393
0.00801772135535
0.00185405252462
0.00754631326368
0.00182972397935
0.00708127352379
0.00180534781146
0.00662262357272
0.00178112409209
0.00617023701354
0.00175718305933
0.00572403784735
0.00173372142136
0.00528381663879
0.00171087208023
0.00484939780408
0.00168881905178
0.00442048582759
0.00166768704786
0.00399679980788
0.00164763497889
0.00357794480068
0.00162876536113
0.00316350416385
0.00161119846803
0.00275291490835
0.00159500573653
0.00234548355665
0.00158028557822
0.00194022484892
0.00156716894301
0.00153572240431
0.00155597756617
0.00113005124382
0.00154756597145
0.000721749534948
0.00154354790214
0.000326318834783
0.00154250417368
0.00139985816069
0.00160569680762
-0.00763265596888
0.00338560102643
-0.0084604883207
0.00515904525357
-0.00843290697855
0.00690726265903
-0.00831847968985
0.00862131567144
-0.00816337024775
0.0102933870449
-0.00797229063883
0.0119162837791
-0.00774798034841
0.0134835401081
-0.00749335797613
0.0149893887145
-0.00721161225267
0.0164288768033
-0.00690606895368
0.0177977844643
-0.00658016543236
0.0190927180344
-0.00623731300399
0.0203109815999
-0.00588089688653
0.0214506553874
-0.00551414839931
0.0225104320885
-0.00514017374869
0.0234896901509
-0.00476183883245
0.0243883057672
-0.0043818274736
0.0252067306622
-0.00400253833146
0.0259457904438
-0.0036261703234
0.0266067752795
-0.00325462914834
0.0271912326181
-0.00288963542394
0.0277010765483
-0.00253263515731
0.0281383804039
-0.00218492304883
0.0285055063218
-0.00184755024632
0.0288048981324
-0.00152145527334
0.0290392285939
-0.00120736316516
0.029211191121
-0.00090591850065
0.0293236601274
-0.000617574604208
0.0293794790037
-0.000342727638172
0.0293816299027
-8.15976781066e-05
0.0293330185416
0.000165635417595
0.0292366505734
0.000398955605434
0.0290954152484
0.000618367865187
0.028912267429
0.000824029819655
0.0286900112772
0.00101610715237
0.0284314889644
0.00119490058978
0.0281393651743
0.00136070210902
0.0278163204854
0.00151392304908
0.0274648392081
0.00165495010302
0.0270874059759
0.00178427412096
0.0266862969277
0.00190234667711
0.0262637782911
0.00200970962217
0.0258219018278
0.00210685318311
0.0253627040175
0.00219434547703
0.0248880055708
0.0022726923025
0.0243996102768
0.00234246634834
0.023899109545
0.00240416930339
0.0233880798089
0.00245835977831
0.0228678921189
0.00250551792872
0.0223399073271
0.0025461719048
0.0218052917381
0.00258076579765
0.021265208927
0.00260978391564
0.0207206414315
0.00263362251001
0.0201725782423
0.00265271186806
0.0196218432847
0.0026673927908
0.0190692772203
0.00267803586868
0.0185155724461
0.0026849232015
0.0179614480666
0.0026883647602
0.0174074918647
0.00268858599039
0.0168543271225
0.00268584052198
0.0163024611453
0.0026803037884
0.0157524430415
0.00267218169981
0.0152047192115
0.00266161048785
0.0146597811628
0.00264876046847
0.0141180277459
0.00263374178695
0.0135799026238
0.00261670289218
0.0130457638459
0.00259774203986
0.0125160107757
0.002576999478
0.011990961029
0.00255457452925
0.0114709669998
0.00253061120962
0.010956301016
0.00250522062841
0.0104472616736
0.00247855946707
0.00994406746574
0.00245075765532
0.00944695339334
0.00242198965933
0.00895607388218
0.00239240742683
0.00847158999132
0.00236220431197
0.00799358183055
0.00233155343835
0.00752212678612
0.00230066445965
0.00705722196566
0.00226972751404
0.00659885360159
0.00223896280655
0.0061469294427
0.00220857038018
0.00570133940969
0.00217877280534
0.0052618977354
0.00214977092032
0.00482839435067
0.00212177973508
0.00440054545814
0.00209499053739
0.00397803415798
0.00206960075543
0.00356046697834
0.00204578387925
0.00314739756175
0.0020237162845
0.00273828685076
0.00200356392692
0.00233250516426
0.00198551876557
0.00192929509869
0.00196982462605
0.00152785191254
0.00195689284786
0.00112755057111
0.00194737574596
0.000728813321536
0.001941743098
0.000339035843567
0.00193173764158
0.00173865085035
0.00164281836376
-0.00927322803749
0.00346309672258
-0.0102783477299
0.00527601026616
-0.0102434160003
0.00706206642885
-0.0101021362709
0.00881182879785
-0.00991075216699
0.0105170474779
-0.0096751446876
0.0121701973323
-0.00939878782065
0.0137645461747
-0.00908538680858
0.0152941745904
-0.00873894876636
0.0167540306167
-0.00836366093087
0.0181399024506
-0.00796380686384
0.0194484366578
-0.00754364936132
0.0206770706863
-0.00710737152723
0.0218240261777
-0.00665898078907
0.0228882135456
-0.00620228020339
0.0238692119946
-0.00574079575362
0.0247671586348
-0.00527777779018
0.0255827261865
-0.00481615129733
0.0263170079806
-0.00435854489714
0.0269715031559
-0.0039072608573
0.0275480073497
-0.00346432537632
0.02804861244
-0.00303147140475
0.0284756080394
-0.0026102005385
0.0288314975257
-0.00220176872276
0.0291189098392
-0.00180724901101
0.0293406283672
-0.00142751183812
0.0294995080668
-0.00106328247866
0.0295985116437
-0.000715113004421
0.0296406274814
-0.000383434458585
0.0296289096432
-6.85231678678e-05
0.0295663950703
0.000229448588432
0.0294561458337
0.000510449360468
0.0293011684953
0.00077452958794
0.0291044593539
0.00102186796476
0.0288689240534
0.00125271007627
0.0285974297699
0.00146740628371
0.0282927266605
0.00166635444855
0.027957504735
0.00185003784455
0.0275943184609
0.00201896717064
0.0272056473327
0.00217372008196
0.0267938238185
0.00231488372332
0.0263610965548
0.00244309563395
0.0259095614457
0.00255898743902
0.0254412263846
0.00266322659871
0.0249579455712
0.00275646181304
0.024461485047
0.00283936478996
0.0239534602975
0.00291257748038
0.0234354019641
0.00297675334813
0.0229086969409
0.00303250677378
0.0223746539597
0.00308045342489
0.0218344481961
0.00312116202765
0.021289186297
0.00315519391939
0.0207398544276
0.0031830576544
0.0201873822862
0.00320524792325
0.0196325942189
0.00322220321132
0.0190762715296
0.00323434441162
0.0185191062123
0.00324203586651
0.0179617608437
0.00324562381534
0.0174048242855
0.00324540075366
0.016848868341
0.00324164369066
0.0162944049325
0.00323458177945
0.015741938851
0.00322443402644
0.015191926048
0.00321137972469
0.0146448217954
0.00319559532404
0.0141010399285
0.00317722713538
0.0135609964212
0.00315642650876
0.0130250695487
0.00313332457397
0.0124936386685
0.00310806497402
0.0119670457367
0.00308078017622
0.0114456296177
0.00305162127063
0.0109296894403
0.00302073537997
0.0104195147941
0.00298829211663
0.00991535149183
0.00295446208718
0.00941742822341
0.00291943975187
0.00892592525999
0.00288342295844
0.00844099798195
0.0028466322583
0.00796274906517
0.00280929156365
0.00749124936123
0.00277164414504
0.00702651377308
0.0027339346955
0.00656851971759
0.00269642216252
0.00611718681859
0.00265936340851
0.0056723930316
0.00262302337144
0.00523395778753
0.00258766061438
0.00480165556732
0.00255353516683
0.00437520165831
0.00252089664943
0.00395426245541
0.00248999083909
0.00353844322011
0.00246105191409
0.00312729514963
0.00243431116565
0.00272030567705
0.00240999667344
0.00231691020202
0.00238835599122
0.00191652545218
0.00236967688402
0.00151859790514
0.00235429722735
0.00112279437839
0.00234263049827
0.000729520401487
0.00233450296832
0.000342573449503
0.00231817052876
0.00208095288522
0.001688477512
-0.0109594317008
0.0035586615917
-0.0121461146732
0.00542033817148
-0.0121026564333
0.00725303285535
-0.0119324129043
0.00904670021099
-0.0117020140952
0.0107925624051
-0.0114186212477
0.0124826864927
-0.0110865471903
0.0141100321657
-0.0107103925106
0.0156684934369
-0.0102950972048
0.0171529238303
-0.00984580916811
0.0185591243513
-0.00936775765665
0.019883823035
-0.00886613425604
0.0211246240081
-0.00834599537119
0.0222799557378
-0.00781217566393
0.023348996223
-0.00726922390294
0.0243316037969
-0.0067213500847
0.0252282313289
-0.00617239472612
0.0260398527032
-0.00562580803865
0.0267678782671
-0.0050846505814
0.0274140896939
-0.00455160003689
0.0279805671401
-0.00402897703181
0.0284696420175
-0.00351876948233
0.0288838414301
-0.00302267132973
0.0292258611397
-0.00254211001452
0.029498524595
-0.00207828393599
0.0297047703846
-0.00163218076613
0.0298476179752
-0.00120460506626
0.0299301611446
-0.000796184483668
0.0299555334945
-0.000407388969577
0.0299269028543
-3.85301150016e-05
0.0298474359284
0.000310222086343
0.0297202917297
0.000638842605129
0.0295485899387
0.000947422844708
0.0293354051091
0.00123618478317
0.0290837371569
0.0015054513459
0.0287965112657
0.00175564476715
0.0284765524937
0.00198726672656
0.028126588933
0.00220089359296
0.0277492314864
0.00239715788475
0.0273469798822
0.00257674402146
0.0269222064708
0.00274037151223
0.0264771646737
0.00288879210504
0.0260139757457
0.00302277464387
0.0255346393952
0.00314310366303
0.0250410224703
0.00325056528275
0.0245348716883
0.00334594727087
0.0240178038255
0.00343002546216
0.0234913206857
0.003503564991
0.0229568004715
0.00356730686365
0.0224155150257
0.00362197049974
0.0218686224542
0.00366824061803
0.0213171864415
0.00370677116417
0.0207621699047
0.00373817291663
0.0202044558992
0.00376301914724
0.0196448421551
0.00378183465066
0.0190840626799
0.00379510324125
0.0185227826729
0.00380325865035
0.0179616198316
0.00380669401663
0.0174011392124
0.00380575494797
0.0168418732044
0.00380075068773
0.0162843156613
0.00379194927752
0.0157289396466
0.00377959008074
0.0151761904618
0.00376388054068
0.0146265008388
0.00374500931272
0.014080282384
0.0037231441389
0.0135379378555
0.00369844487042
0.0129998511866
0.00367106173263
0.0124663969918
0.00364114748619
0.0119379294023
0.00360885516758
0.0114147892887
0.00357434907159
0.0108972922927
0.00353780148666
0.0103857344491
0.00349940183432
0.0098803799371
0.00345935226302
0.00938146574697
0.00341787486891
0.00888918990151
0.00337520596664
0.00840371566777
0.00333160159763
0.00792516063474
0.00328733060811
0.00745360102145
0.00324267860383
0.0069890621019
0.00319794029414
0.00653152276548
0.00315342216326
0.00608090734008
0.00310943443351
0.00563709049109
0.00306629291257
0.00519989040262
0.00302431106023
0.0047690738126
0.00298380144877
0.00434435021553
0.0029450687557
0.00392537709067
0.00290841180238
0.003511756017
0.00287411881398
0.00310303813125
0.00284247145361
0.00269873087782
0.00281374719219
0.00229831191448
0.0027882241937
0.00190124461371
0.00276618497739
0.00150706763947
0.00274794442302
0.0011154592352
0.00273375339402
0.000726408938502
0.00272300417988
0.000342311874842
0.00270171254162
0.00242302146034
0.00174343433511
-0.012700574425
0.0036737796138
-0.0140739903349
0.00559414902533
-0.0140205722538
0.00748288839039
-0.0138187040616
0.00932916851046
-0.0135458657699
0.0111235842129
-0.0132106259147
0.012857708172
-0.0128182830397
0.0145241493165
-0.0123744700217
0.0161165892614
-0.0118852025535
0.0176297978196
-0.0113567135329
0.0190596080806
-0.0107952986353
0.0204028803789
-0.0102071726289
0.0216574345579
-0.00959835544874
0.0228219824398
-0.00897456870725
0.0238960348635
-0.00834116501208
0.0248798177852
-0.00770306396791
0.0257741688584
-0.00706472294239
0.0265804507973
-0.00643011159738
0.0273004522245
-0.00580272154144
0.0279363125907
-0.00518557610621
0.0284904415716
-0.00458127087733
0.0289654671117
-0.00399200746826
0.029364180969
-0.0034196478376
0.0296895117785
-0.0028657525098
0.0299444924218
-0.00233162775468
0.0301322485989
-0.00181835076228
0.0302559748641
-0.00132679825405
0.0303189261111
-0.0008576551773
0.0303243916004
-0.000411429102247
0.030275683532
1.15486906469e-05
0.0301761083302
0.000411110481537
0.0300289526332
0.000787254852665
0.0298374551165
0.00114011689701
0.0296047965979
0.00146998159807
0.0293340730695
0.00177725143103
0.0290282923328
0.00206244282524
0.0286903510266
0.00232616256031
0.0283230367058
0.00256910291394
0.0279290091047
0.0027920176282
0.0275108064249
0.00299571977793
0.0270708301516
0.00318105891983
0.0266113541291
0.00334892151199
0.0261345122224
0.00350020991609
0.0256423090073
0.00363584451687
0.0251366098739
0.00375674470648
0.0246191527871
0.00386383155447
0.0240915408049
0.00395801055331
0.0235552547501
0.00404017405432
0.0230116482933
0.004111185756
0.0224619616874
0.00417188266144
0.0219073194415
0.00422306145673
0.0213487451701
0.00426548036431
0.0207871616144
0.00429984789566
0.0202234063807
0.00432682529622
0.0196582336909
0.00434701803379
0.0190923304318
0.00436097966294
0.01852631877
0.00436920627856
0.0179607717414
0.00437214232831
0.0173962157203
0.00437017792417
0.0168331445817
0.00436365679042
0.0162720210491
0.00435287615823
0.0157132888139
0.00433809628804
0.0151573721864
0.00431954218832
0.0146046852807
0.00429741439108
0.0140556296296
0.00427189161482
0.0135106003475
0.00424314161616
0.012969981758
0.00421132403517
0.0124341506873
0.00417660032819
0.0119034703892
0.00413913604
0.0113782914369
0.00409910903965
0.0108589446636
0.00405671062884
0.0103457403032
0.00401215136549
0.00983896073733
0.00396566091609
0.00933885855712
0.00391749136712
0.0088456498551
0.00386791557873
0.00835951195451
0.00381722821965
0.00788057778558
0.00376574295201
0.00740893381496
0.00371379139242
0.00694461588009
0.00366171961055
0.00648760761678
0.00360988552917
0.00603783791197
0.00355865503833
0.00559518004634
0.00350839845836
0.00515945056552
0.00345948683413
0.00473040923476
0.00341228802639
0.00430775926398
0.0033671638316
0.0038911485105
0.00332446654436
0.00348017211291
0.00328453778287
0.00307437785384
0.00324770691208
0.00267327300191
0.00321429003784
0.00227633937021
0.00318459445044
0.00188307161585
0.00315892020371
0.00149297042882
0.00313752106141
0.00110558702474
0.00312058004735
0.000720718149224
0.00310735961966
0.000340114467208
0.0030818024189
0.00276286137558
0.00180860924266
-0.0145068584841
0.00381024171428
-0.0160731525226
0.0058001008041
-0.0160079407581
0.00775502834981
-0.0157711603274
0.00966326019652
-0.0154516396897
0.0115146283126
-0.0150595570146
0.0133001309496
-0.0146013709166
0.0150119791949
-0.0140839298058
0.0166436323187
-0.01351449614
0.0181897926214
-0.0129005471017
0.0196463681727
-0.0122495819433
0.0210104089497
-0.0115689597889
0.0222800271937
-0.0108657589499
0.0234542989727
-0.0101466689933
0.0245331626166
-0.00941789932268
0.0255173021994
-0.0086851207474
0.0264080381739
-0.00795342057289
0.0272072081852
-0.0072272918533
0.0279170654689
-0.00651063515674
0.0285401759178
-0.00580679259543
0.029079341634
-0.00511858996186
0.0295375312609
-0.00444840082514
0.0299178385598
-0.00379820747157
0.0302234491753
-0.00316966645507
0.0304576264042
-0.00256415842281
0.030623699087
-0.00198282891999
0.0307250540708
-0.00142661077508
0.0307651251099
-0.00089623736007
0.0307473769267
-0.00039224636373
0.0306752864756
8.50176835977e-05
0.0305523208525
0.000535398018396
0.0303819158634
0.000958922943021
0.0301674476431
0.00135578948807
0.0299122183167
0.0017263538583
0.029619436874
0.00207111576342
0.0292922024162
0.00239069679401
0.0289334962729
0.00268582758573
0.0285461685899
0.00295732511825
0.0281329376851
0.00320608259948
0.0276963793894
0.00343304805501
0.0272389312996
0.00363921759992
0.0267628842984
0.0038256165084
0.0262703894307
0.00399329525444
0.0257634513194
0.00414331308714
0.025243936151
0.00427673537624
0.0247135673164
0.00439461922327
0.0241739338607
0.00449801089133
0.0236264889351
0.00458793302236
0.0230725586799
0.00466538138548
0.0225133440706
0.00473131374554
0.0219499304329
0.00478664621933
0.0213832927312
0.00483224412263
0.020814305837
0.00486891874712
0.0202437526671
0.00489742087576
0.0196723350091
0.00491843906956
0.0191006833845
0.00493259631498
0.018529367849
0.00494045070985
0.0179589081915
0.00494249541476
0.0173897838536
0.00493916228966
0.0168224430003
0.00493082489467
0.0162573110145
0.00491780462712
0.015694797199
0.00490037637863
0.0151353007554
0.0048787766906
0.0145792146672
0.00485321088098
0.0140269288066
0.00482386218071
0.0134788307569
0.00479089926362
0.0129353059397
0.0047544852253
0.0123967356708
0.0047147844432
0.011863494744
0.00467197003493
0.0113359475026
0.00462622940779
0.0108144433734
0.0045777695242
0.0102993118923
0.00452682029418
0.00979085720214
0.00447363714607
0.0092893529245
0.00441850255394
0.00879503634247
0.00436172571902
0.00830810402191
0.00430364231392
0.00782870636041
0.00424461180252
0.00735694447744
0.00418501574007
0.00689286563941
0.0041252533445
0.00643646174447
0.00406573886686
0.00598766580572
0.00400689600054
0.0055463520953
0.00394915493689
0.00511233382823
0.00389294619781
0.00468536501541
0.00383869795622
0.00426513937717
0.00378683002835
0.0038512944588
0.00373775203551
0.0034434132065
0.00369185817714
0.00304103031006
0.0036495259876
0.00264364407363
0.00361111455988
0.00225072645219
0.00357695802916
0.00186172406651
0.00354735706256
0.00147611398423
0.0035225975747
0.00109337954694
0.0035028326902
0.000713053682901
0.00348713180126
0.000336664456271
0.00345763193044
0.00309928441986
0.00188507597606
-0.0163895900036
0.0039703045268
-0.0181558534083
0.00604147445303
-0.0180765998053
0.00807365519224
-0.0178008360378
0.0100539245595
-0.0174294245624
0.0119712213812
-0.0169743879518
0.0138158782431
-0.0164435860053