/*--------------------------------*- C++ -*----------------------------------*\
| =========                 |                                                 |
| \\      /  F ield         | OpenFOAM: The Open Source CFD Toolbox           |
|  \\    /   O peration     | Version:  v1906                                 |
|   \\  /    A nd           | Web:      www.OpenFOAM.com                      |
|    \\/     M anipulation  |                                                 |
\*---------------------------------------------------------------------------*/
FoamFile
{
    version     2.0;
    format      ascii;
    class       volScalarField;
    location    "644";
    object      pa;
}
// * * * * * * * * * * * * * * * * * * * * * * * * * * * * * * * * * * * * * //

dimensions      [0 2 -2 0 0 0 0];


internalField   nonuniform List<scalar> 
9216
(
914.940995989
914.635579468
914.003744446
913.0400045
911.749764647
910.139088371
908.215514507
905.987956013
903.466538443
900.662499289
897.588019735
894.25612536
890.680508931
886.875438833
882.855582002
878.635928341
874.23162134
869.657904179
864.929962718
860.062895934
855.07157308
849.970628499
844.774332612
839.496609218
834.150918587
828.750294487
823.307237225
817.833767406
812.341326888
806.840846563
801.342653312
795.856551324
790.39173413
784.956871705
779.560028142
774.208759619
768.910034093
763.670334699
758.495582429
753.391244196
748.362257734
743.413142861
738.547928204
733.770264279
729.083351687
724.490054797
719.992831151
715.593844549
711.294895401
707.097532158
703.00298243
699.012261738
695.126105259
691.345073043
687.669482365
684.09950868
680.63511863
677.276166242
674.022326817
670.873188008
667.828184927
664.886685978
662.04792964
659.311105058
656.675291017
654.139531423
651.702777054
649.363956098
647.121919206
644.97550531
642.923490469
640.964649128
639.09770713
637.321398554
635.634423177
634.035498924
632.523323937
631.096624619
629.754122363
628.494577102
627.316758631
626.219485537
625.201600996
624.262006857
623.399643728
622.613519922
621.90269545
621.266305216
620.703545794
620.213690575
619.796073799
619.450085697
619.175120761
618.970423893
618.833225023
618.776176484
915.245395299
914.938250361
914.304767995
913.336671077
912.040227813
910.421783189
908.489048246
906.251075093
903.718135357
900.901605036
897.813817064
894.467936937
890.877808033
887.057830887
883.022812809
878.787860189
874.368240209
869.779292122
865.036305532
860.154453364
855.1486882
850.033696926
844.823814328
839.532997541
834.174754737
828.762136629
823.307677676
817.823401826
812.320773912
806.810717237
801.303573558
795.809129215
790.336582249
784.89457891
779.491184877
774.133926853
768.82976932
763.585161663
758.406018259
753.297769452
748.265344339
743.3132245
738.445428785
733.66556877
728.976834915
724.382052808
719.883670126
715.48381278
711.184272168
706.986560392
702.891897343
698.901264255
695.015390228
691.234803489
687.559817077
683.990577322
680.52704854
677.169058425
673.916281764
670.768282595
667.724497115
664.784272635
661.946849985
659.21139944
656.577003014
654.042687625
651.60740774
649.27007608
647.029547056
644.88464534
642.834150482
640.876823604
639.011393519
637.236581749
635.551090349
633.953625349
632.442886407
631.017588682
629.676454326
628.418232725
627.241693765
626.145646304
625.128933069
624.190447194
623.329128552
622.543978121
621.834055522
621.198490943
620.636483655
620.147311631
619.730332457
619.384996956
619.110873029
618.90774812
618.776029893
618.719080277
915.878641342
915.566768168
914.927525895
913.950727388
912.642741184
911.010047537
909.060553418
906.803529236
904.249486367
901.410047901
898.297804835
894.926176841
891.30926338
887.46170747
883.398553867
879.135125728
874.686897831
870.069392204
865.29807072
860.388252249
855.355025733
850.213188578
844.977178888
839.661032857
834.278333491
828.842183966
823.365169864
817.859345589
812.336207549
806.806691286
801.281153699
795.76937863
790.280566911
784.823349583
779.405783405
774.035370056
768.719056735
763.463260098
758.273870638
753.156280164
748.115389032
743.155636199
738.281008492
733.495072327
728.800984283
724.201523679
719.69910377
715.295804416
710.993383254
706.793307751
702.696765776
698.704696383
694.81779927
691.036563752
687.361276726
683.79204942
680.328823611
676.971395926
673.719422252
670.572439519
667.529868397
664.591032697
661.755160603
659.021401936
656.388828289
653.856448507
651.423208143
649.088003534
646.849680997
644.707049876
642.658881861
640.703923308
638.840894974
637.068503835
635.385443439
633.790405345
632.282080173
630.859168697
629.520383587
628.264460094
627.090158396
625.996273742
624.981639266
624.045135422
623.185693083
622.402302089
621.694014501
621.059952193
620.499310415
620.011365134
619.59547893
619.251112997
618.977845599
618.775422715
618.644043408
618.581981504
916.852161711
916.534844155
915.886601316
914.896209393
913.570232397
911.915381708
909.939859163
907.653272092
905.066500797
902.191555879
899.041427775
895.629935699
891.971574427
888.081367739
883.974724966
879.667309177
875.17491163
870.513340761
865.698318638
860.745392995
855.669856283
850.486679867
845.210453623
839.855339383
834.435027679
828.962706818
823.451033282
817.912113252
812.357483908
806.798105045
801.244349338
795.706002362
790.192260764
784.71173834
779.272470374
773.88192638
768.547018964
763.27412096
758.069078129
752.937229689
747.883423856
742.912040816
738.027010273
733.23183603
728.529614782
723.923061552
719.414529002
715.006033005
710.699271802
706.495651005
702.396301973
698.402105612
694.513709399
690.731549448
687.05586574
683.486722052
680.02401911
676.667512172
673.416821997
670.271450062
667.230787446
664.294127836
661.460674585
658.729551824
656.099810058
653.570435796
651.140356136
648.808447327
646.573538794
644.434421054
642.389849558
640.438552302
638.579233794
636.8105826
635.131275623
633.539985714
632.035386349
630.616159323
629.280999802
628.028624036
626.857774681
625.767228393
624.755801271
623.822356157
622.965808026
622.185130836
621.479362758
620.847612552
620.289064794
619.802986322
619.388732639
619.045756053
618.77361553
618.571993399
618.44095473
618.377886153
918.169989354
917.845669255
917.185123591
916.176115737
914.825509015
913.14035193
911.129256145
908.80229558
906.170859371
903.247493633
900.045738356
896.579963148
892.865204235
888.917007579
884.751279048
880.384145503
875.831826376
871.11051869
866.236293818
861.225008163
856.092224977
850.853148929
845.522569938
840.114817667
834.643722917
829.122587568
823.564159367
817.980613696
812.38353882
806.783927166
801.19216922
795.618052992
790.070765848
784.558898909
779.090455373
773.672862159
768.312982111
763.01712991
757.791088021
752.640125845
747.569018419
742.582067898
737.683124181
732.87560794
728.162532421
723.546527286
719.029860887
714.614464202
710.301952875
706.09365056
701.990610055
697.993635392
694.103301456
690.319974261
686.643828569
683.074865934
679.612930006
676.257722123
673.008814193
669.865661835
666.827614941
663.893928567
661.063771462
658.336235075
655.710340477
653.185045933
650.759252722
648.431811755
646.201528769
644.067170467
642.027469496
640.081130478
638.226835093
636.463248255
634.789023503
633.20280944
631.703255505
630.289018697
628.958769681
627.711199713
626.545026962
625.459003478
624.451921556
623.522620563
622.669993157
621.892991804
621.190634704
620.562011921
620.006291053
619.522723066
619.110647927
618.76950002
618.498812144
618.298220209
618.16773034
618.104582222
919.838770702
919.505591488
918.829287694
917.79639718
916.414193179
914.690178722
912.63350636
910.254861466
907.566296731
904.581054818
901.313387875
897.778377028
893.991755657
889.969740347
885.728871772
881.285868093
876.657491768
871.860431147
866.911196524
861.826030975
856.620834556
851.311101427
845.911867766
840.437669723
834.902509176
829.319826786
823.70248051
818.06272962
812.412222871
806.761991326
801.122444696
795.50337204
789.913945983
784.362727367
778.857676381
773.406164926
768.014990804
762.690394341
757.438076155
752.26321684
747.170497335
742.164120821
737.247834903
732.424954969
727.69838749
723.070654137
718.543915497
714.119995239
709.800403537
705.586360568
701.478818923
697.478485748
693.58584348
689.801170018
686.124557255
682.555928819
679.095056054
675.741573101
672.494990217
669.354706205
666.3200192
663.390136702
660.564184162
657.841213038
655.220207681
652.700091944
650.279734922
647.957956671
645.73353335
643.605202564
641.571668367
639.631606637
637.783670285
636.02649493
634.358704516
632.778917407
631.285752478
629.87783563
628.553806282
627.312324206
626.152076275
625.071783425
624.070207462
623.146157942
622.298498812
621.526155001
620.82811871
620.203455546
619.651310296
619.17091246
618.761581262
618.422729402
618.153865531
617.954597134
617.824904524
617.762060223
921.866944014
921.522847911
920.827091068
919.764704616
918.343489085
916.571531761
914.458674599
912.016377849
909.257531077
906.196251833
902.847682989
899.227792106
895.353177366
891.240883843
886.908232796
882.372666185
877.651607601
872.762340453
867.721903276
862.547001743
857.253936058
851.858542274
846.376145455
840.821522823
835.208874819
829.551802642
823.863290894
818.155694748
812.440731044
806.729473279
801.032350386
795.359149206
789.719020725
784.12048614
778.571450551
773.079216706
767.6505011
762.29145197
757.007668719
751.80422275
746.68567931
741.656120363
736.719168135
731.878009355
727.135419849
722.493789488
717.955147149
713.521185674
709.193286463
704.972543695
700.859787797
696.855608163
692.960374776
689.174258753
685.497251512
681.929182633
678.469736185
675.118465647
671.87480728
668.738092137
665.70755664
662.782351987
659.961552343
657.244162135
654.629122449
652.115316834
649.701576543
647.3866855
645.169385002
643.048378429
641.022335929
639.089899318
637.249687127
635.500299971
633.840326158
632.26834766
630.782946319
629.382710389
628.066241262
626.832160433
625.679116558
624.605792627
623.610913112
622.693251098
621.851635259
621.084956697
620.392175497
619.772327015
619.224527777
618.747980863
618.34198068
618.005916581
617.739274809
617.54164233
617.412985616
617.350656873
924.264896057
923.90762479
923.188413986
922.090470886
920.622255677
918.792588406
916.612171239
914.093426389
911.250277029
908.097915908
904.652575097
900.931300794
896.951738212
892.731930408
888.290133856
883.644652781
878.813693439
873.815238919
868.666944178
863.386050442
857.989317244
852.492969922
846.912659868
841.263434849
835.559716817
829.815285244
824.043264541
818.256114962
812.465626677
806.682917196
800.918432924
795.181952991
789.482597884
783.828838138
778.228509877
772.688830827
767.216418389
761.817309463
756.496981566
751.260375212
746.111917203
741.055544862
736.094730886
731.232508852
726.47149906
721.813934704
717.261688049
712.816296576
708.478988743
704.250709303
700.132143829
696.123742376
692.225741942
688.438187708
684.760952751
681.193756272
677.736180121
674.387683725
671.147617301
668.015233534
664.989697695
662.070096429
659.255445276
656.544695188
653.936738129
651.430412057
649.024505375
646.717761125
644.508881004
642.396529437
640.379337751
638.455908623
636.624820818
634.884634321
633.233895833
631.671144704
630.194919214
628.803763234
627.496233173
626.270905187
625.126382555
624.061303171
623.074347062
622.164243863
621.32978017
620.569806695
619.883245148
619.269094766
618.726438392
618.254448022
617.852389667
617.519626848
617.255623525
617.05994927
616.932556924
616.870893454
927.045141937
926.672203288
925.92515674
924.785034621
923.261112693
921.363118458
919.102814453
916.493802156
913.551264522
910.291697089
906.732643975
902.892443161
898.789986496
894.444498248
889.875334926
885.101808198
880.143031976
875.017794032
869.744451678
864.340850164
858.824261548
853.211340936
847.518096475
841.759869311
835.951320116
830.106419585
824.238441362
818.359956888
812.482832444
806.618228873
800.776605748
794.967727041
789.20067198
783.483846812
777.825002829
772.23125483
766.709101565
761.264447603
755.902626411
750.628424399
745.446105874
740.359438714
735.371720736
730.485806561
725.704134919
721.028756173
716.46135995
712.003302621
707.65563448
703.419126338
699.294295337
695.281429711
691.380612308
687.591742623
683.914557212
680.348648321
676.893480676
673.548406372
670.312677907
667.185459404
664.165836172
661.252822706
658.445369381
655.742367984
653.142656352
650.645022325
648.248207237
645.950909162
643.751786108
641.649459318
639.642516837
637.729517432
635.908994964
634.179463259
632.539421494
630.987360092
629.521767119
628.141135113
626.843968298
625.62879012
624.494150995
623.438636216
622.460873896
621.559542888
620.733380564
619.98119039
619.301849184
618.694313994
618.157628495
617.690928748
617.293448331
616.964522522
616.703591294
616.510205302
616.384302223
616.323432916
930.222534791
929.831151748
929.051415727
927.86179543
926.272570065
924.294584869
921.940901144
919.22655552
916.16825363
912.784054844
909.093067468
905.11515922
900.870688435
896.380259596
891.664505515
886.743897744
881.638586095
876.368267537
870.952083814
865.408546096
859.75548364
854.010012343
848.188518094
842.306649701
836.379316644
830.420688299
824.444192882
818.462516139
812.487600761
806.530647983
800.602123923
794.711767668
788.868603564
783.080957533
777.356477657
771.70215564
766.124349883
760.628809762
755.220700753
749.904630386
744.684674869
739.564406418
734.546921151
729.634867558
724.830475317
720.135584445
715.551674478
711.079893602
706.721087382
702.475826955
698.344436285
694.327018338
690.423479773
686.63355403
682.956822493
679.392733683
675.940620269
672.599713971
669.369158284
666.248019191
663.235293948
660.329918182
657.530771484
654.836681791
652.246428795
649.758746672
647.37232638
645.085817797
642.897831885
640.80694312
638.811692299
636.91058989
635.102119964
633.384744797
631.756910126
630.217051064
628.763598626
627.394986804
626.10966012
624.90608156
623.78274079
622.738162559
621.770915171
620.879618926
620.062954424
619.319670635
618.648592635
618.048628914
617.518778151
617.058135409
616.665897657
616.341368057
616.083960043
615.893203897
615.769017607
615.709064947
933.814520635
933.401563904
932.583700881
931.336402164
929.671181794
927.600260182
925.138285628
922.302034731
919.110044208
915.582238737
911.739577613
907.603724982
903.196748581
898.540849782
893.65812654
888.570370351
883.298897988
877.864418309
872.28693356
866.585673182
860.779056382
854.884677845
848.919309562
842.898911241
836.838642623
830.752873096
824.65518685
818.558384436
812.474483313
806.414720148
800.389558663
794.408700528
788.481098618
782.614979423
776.817866579
771.096605819
765.457391173
759.905791816
754.446779462
749.084756216
743.823583002
738.666608532
733.616698901
728.676267676
723.847306472
719.131415802
714.529836108
710.043478679
705.672956282
701.418613127
697.280553943
693.258671726
689.352673943
685.562106791
681.886377347
678.32477334
674.876480505
671.540597393
668.316147765
665.202090599
662.197327964
659.300710937
656.51104389
653.827087421
651.247560287
648.771140627
646.396466847
644.122138389
641.946716714
639.868726667
637.886658441
635.998970234
634.20409172
632.500428354
630.886366519
629.360279491
627.920534163
626.565498441
625.293549218
624.103080812
622.992513753
621.960303793
621.004950996
620.125008826
619.319093059
618.585890457
617.924167063
617.332776027
616.810664896
616.356882192
615.970583357
615.651035878
615.397623165
615.209851293
615.087616105
615.028703617
937.841452767
937.403354956
936.541202822
935.226981143
933.473728317
931.295360374
928.708465535
925.731927113
922.386477203
918.694255475
914.678399185
910.362668124
905.77110794
900.927752908
895.85636847
890.580233967
885.121966328
879.503385461
873.745421238
867.868060229
861.890327639
855.830297027
849.705117806
843.531049581
837.323493443
831.097013792
824.865348976
818.641413505
812.437296992
806.264265235
800.132768306
794.052454692
788.032185587
782.080065324
776.203468359
770.409068565
764.702868908
759.090231157
753.575905488
748.164060292
742.858312291
737.661757232
732.577001141
727.606192214
722.751053188
718.012914165
713.392745611
708.891191412
704.508601598
700.245064506
696.100437893
692.074378692
688.16637092
684.375751449
680.70173325
677.143425947
673.699853462
670.369968786
667.152665852
664.046788728
661.051138281
658.164476695
655.385530093
652.71298974
650.145512132
647.681718448
645.320193674
643.0594858
640.898105357
638.834525575
636.867183336
634.994481092
633.2147898
631.526452936
629.927791567
628.417110416
626.992704868
625.652868777
624.395902983
623.220124367
622.123875336
621.105533555
620.163521803
619.296317796
618.502463845
617.780576227
617.129354137
616.547588135
616.03416796
615.5880897
615.20846223
614.894512386
614.645589889
614.461174279
614.341134482
614.28338839
942.32698198
941.859626489
940.946119852
939.554410324
937.699429998
935.397195286
932.66667168
929.529294024
926.008422023
922.128816486
917.916164982
913.396657844
908.596614644
903.542159158
898.258940948
892.771903133
887.105097416
881.281548289
875.323167736
869.250719406
863.08382728
856.841018978
850.539789482
844.196668746
837.827278141
831.446366227
825.067822564
818.704675808
812.369086122
806.072341737
799.824866098
793.636233878
787.515190255
781.469690045
775.50692966
769.633381665
763.85482848
758.176394913
752.602579928
747.137288113
741.783861416
736.545111407
731.423352274
726.420434505
721.537779271
716.776413293
712.137004141
707.61989561
703.225142974
698.952547625
694.801690722
690.771965256
686.862606121
683.072717625
679.401298135
675.847261477
672.409455008
669.086674208
665.877673963
662.781176652
659.795877382
656.920446687
654.153531186
651.493752591
648.939705632
646.489955292
644.143033888
641.897438345
639.751628066
637.70402366
635.753006768
633.896921128
632.134074963
630.462744703
628.88118003
627.387610127
625.980251068
624.657314169
623.417015164
622.257584049
621.177275385
620.174378925
619.247230353
618.394222006
617.613813385
616.904541346
616.265029813
615.693998923
615.190273503
614.752790738
614.380607094
614.072904399
613.828994377
613.648325539
613.530737663
613.474289863
947.298543678
946.797119843
945.824057734
944.342647267
942.370193768
939.925333279
937.029956391
933.708592381
929.987742272
925.895258589
921.459800985
916.71036262
911.675861289
906.384788064
900.864908269
895.143013267
889.244725159
883.194358804
877.014845558
870.727720024
864.35316513
857.910102816
851.416309657
844.888531973
838.342576379
831.793360932
825.254926559
818.740421923
812.262080281
805.831207844
799.458184661
793.152484877
786.922708562
780.776627343
774.721225486
768.762740852
762.906702847
757.157967629
751.520751465
745.998663478
740.59473861
735.311471367
730.150850459
725.114394413
720.20318799
715.417919376
710.758917906
706.226192179
701.819468139
697.538226739
693.381740532
689.34910864
685.439289356
681.651129869
677.983392525
674.434777331
671.003940409
667.68950843
664.490089049
661.404277659
658.430660773
655.56781655
652.814312947
650.168704131
647.629525687
645.195289259
642.864477117
640.635537197
638.50687898
636.476870595
634.543837347
632.706061862
630.961785893
629.3092138
627.746517625
626.271843653
624.88332031
623.579067213
622.35720519
621.215867055
620.153208937
619.167421949
618.256744
617.419471548
616.653971128
615.958690475
615.332169121
614.773048329
614.280080245
613.852136274
613.488214564
613.187446096
612.949100311
612.772592105
612.657727155
612.602714956
952.787971545
952.24678071
951.204519824
949.619119402
947.510893655
944.901774583
941.817271031
938.285672018
934.337229239
930.003428239
925.316373201
920.308268817
915.010982497
909.455671389
903.672464147
897.690194827
891.536193246
885.236141059
878.814003785
872.292045205
865.690921507
859.029839287
852.326747227
845.59852111
838.8611023
832.129564729
825.418112365
818.740033663
812.107647775
805.532275415
799.024233381
792.592862324
786.246577624
779.992926062
773.8386394
767.789682987
761.851298032
756.028038553
750.323805348
744.741879077
739.284954016
733.955173005
728.754163791
723.683076562
718.742622605
713.933113882
709.254503523
704.706426924
700.288243208
695.999076392
691.837855639
687.803353675
683.894222608
680.109026278
676.446268581
672.904417208
669.481922622
666.177232153
662.98879941
659.915089287
656.954579086
654.105756279
651.367113648
648.737142451
646.214324395
643.797123082
641.483975629
639.273285002
637.16341362
635.152678547
633.239348593
631.421643451
629.697734936
628.065750268
626.523777312
625.06987158
623.702064825
622.418374983
621.216817224
620.095415889
619.05221703
618.085301347
617.19279724
616.372893802
615.623853492
614.944024363
614.331851633
613.785888514
613.304806181
612.887402728
612.532611209
612.239506709
612.007311475
611.835401807
611.72354708
611.670115651
958.832278969
958.244470282
957.121509959
955.415186126
953.149682599
950.351122444
947.049517552
943.277732887
939.070488722
934.463517471
929.492886916
924.194452718
918.603406154
912.753888921
906.678658262
900.408798908
893.973490654
887.399849212
880.71286118
873.935429565
867.088533011
860.191480338
853.262216334
846.317613607
839.373681605
832.445647946
825.547918408
818.69396918
811.896236402
805.166055271
798.513653278
791.948191232
785.477845953
779.109886644
772.85074442
766.706069891
760.680778792
754.779088778
749.004551855
743.360086476
737.848011321
732.470081363
727.227525911
722.121088288
717.151066748
712.317356671
707.619493934
703.056699454
698.627924479
694.331896062
690.167161696
686.132132095
682.225120918
678.444380467
674.788132453
671.254593311
667.841993681
664.548592087
661.372682953
658.312599455
655.366711738
652.533421328
649.811152481
647.198341446
644.693424442
642.294825308
640.000943534
637.810143463
635.720745173
633.731017534
631.839173701
630.0433692
628.341702629
626.732218863
625.212914606
623.781746045
622.436638356
621.17549677
619.996218916
618.896708144
617.874887548
616.92871438
616.056194594
615.255397252
614.52446856
613.861645322
613.265267645
612.733790749
612.265795759
611.859999477
611.515263041
611.230598978
611.005177504
610.838333493
610.729794698
610.678096416
965.47466877
964.831869542
963.614277897
961.766681167
959.318326499
956.300731907
952.74954964
948.703218734
944.201761824
939.285837302
933.996028592
928.372299211
922.453552605
916.277250781
909.879066209
903.292563628
896.548928314
889.676772475
882.702058628
875.648174794
868.536177926
861.385187934
854.212869022
847.035891573
839.870251477
832.731360145
825.633920062
818.591695569
811.617301426
804.7220928
797.916164139
791.208426777
784.606744185
778.118039578
771.748386161
765.503073732
759.386655057
753.402978276
747.555214207
741.845885238
736.276898551
730.849583333
725.564730957
720.422636989
715.423144564
710.565689121
705.849344882
701.272873106
696.834771945
692.533327046
688.366661723
684.332785136
680.429637005
676.655127407
673.007170647
669.483712385
666.082749744
662.802344295
659.640628329
656.595804883
653.6661424
650.849964881
648.145638649
645.551556743
643.066122117
640.687730631
638.414754859
636.245529514
634.178339232
632.211409152
630.342898678
628.570898484
626.893430766
625.308452543
623.813861743
622.407505773
621.087192209
619.850701285
618.695799802
617.620256159
616.62185611
615.698418965
614.847813858
614.067975829
613.356921399
612.712763453
612.133725187
611.618153016
611.164528327
610.771477917
610.437783253
610.162388559
609.944406537
609.783125156
609.678228229
609.628425215
972.765859933
972.057646357
970.72824597
968.714540075
966.052538754
962.78080028
958.942084694
954.581613289
949.745654481
944.480512373
938.831841601
932.844162771
926.560478652
920.021921237
913.267393972
906.333207693
899.252739603
892.056168817
884.770356458
877.418937371
870.02266768
862.600020694
855.167944651
847.742606741
840.339897658
832.975516605
825.664667485
818.42159735
811.259210661
804.18888578
797.22050225
790.362612922
783.62265911
777.007128833
770.52167041
764.17116537
757.959769462
751.89093278
745.967415513
740.191310884
734.564077625
729.0865793
723.759127484
718.581526714
713.553120221
708.672837092
703.939241677
699.35058594
694.904864571
690.599871991
686.433259445
682.402590149
678.505390271
674.739193984
671.101581088
667.5902064
664.202820419
660.937281417
657.791559313
654.763732185
651.851976366
649.054551379
646.369780955
643.796031543
641.331689615
638.975139093
636.724740041
634.578809687
632.535606547
630.593318261
628.750053464
627.003837763
625.352613697
623.794244391
622.326520494
620.947169993
619.653870446
618.444263217
617.315969329
616.266606505
615.293807034
614.395236043
613.568609832
612.811713862
612.122420145
611.4987037
610.938657936
610.440508738
610.002627176
609.623540849
609.301943776
609.036704416
608.826872586
608.671686275
608.570779611
608.523042943
980.765866679
979.978986441
978.516167816
976.305506941
973.392269586
969.824336868
965.653465862
960.933090818
955.71674382
950.057080365
944.005330737
937.610972019
930.921468573
923.981982551
916.835008136
909.519933563
902.072579396
894.524798772
886.904252016
879.234476932
871.535353391
863.823988957
856.11591963
848.426341321
840.770950403
833.165994786
825.62759467
818.17084043
810.809106839
803.55377334
796.414349764
789.398844453
782.51411676
775.766105164
769.159958626
762.70010712
756.390286165
750.233529757
744.232164002
738.387820959
732.701472315
727.173473332
721.80361116
716.591153509
711.53489647
706.633213235
701.88410603
697.285262585
692.834117526
688.527917362
684.363786612
680.338791913
676.450001168
672.694535162
669.069609923
665.572568697
662.200903219
658.952264377
655.824463027
652.815461915
649.923360091
647.146371273
644.482797845
641.931002077
639.489376314
637.156313618
634.930180386
632.809292099
630.791893258
628.876142115
627.060100582
625.341729286
623.718887539
622.189337701
620.750753415
619.400731086
618.136804076
616.956459116
615.857154456
614.836339355
613.891474411
613.020052321
612.219618584
611.48779177
610.822282928
610.220913891
609.681634182
609.202536424
608.781870118
608.418053696
608.109684994
607.855550312
607.654630584
607.506107899
607.40956427
607.364076695
989.546437798
988.663642024
987.039585485
984.592889138
981.381859528
977.466905282
972.911180783
967.777954377
962.12902373
956.023982918
949.519999206
942.671789927
935.531584504
928.148944112
920.5703846
912.838817453
904.99288416
897.066313011
889.087474337
881.079341568
873.060058694
865.044229209
857.044833867
849.075334064
841.151172299
833.289731674
825.508862166
817.825145171
810.252692977
802.802788424
795.484260079
788.304242855
781.268784724
774.38313729
767.651876074
761.078951534
754.667679978
748.420681792
742.339834905
736.426278304
730.680454049
725.102161772
719.690615861
714.444499181
709.362011532
704.440918064
699.678602329
695.072126742
690.618301368
686.31375936
682.155034997
678.138639757
674.261132003
670.519177029
666.909595158
663.429396794
660.075804053
656.84625945
653.738422549
650.750156063
647.879503036
645.124657086
642.483927653
639.955702364
637.538408476
635.230475364
633.03029978
630.936215418
628.946467952
627.059196347
625.272420777
623.584037031
621.991816918
620.493413925
619.086373302
617.768145766
616.536104162
615.387562488
614.319796833
613.33006772
612.415643388
611.573823449
610.801962428
610.097492615
609.457945858
608.880973894
608.364366991
607.906070737
607.504200862
607.157056202
606.863129751
606.621117486
606.429925691
606.288677342
606.196896247
606.153851305
999.194483419
998.192740481
996.370671534
993.637271723
990.069881705
985.745959018
980.742996747
975.135773925
968.995150026
962.387945507
955.377338875
948.023360787
940.383205567
932.511214346
924.458472817
916.272057127
907.994037143
899.66041819
891.300278983
882.935440841
874.581048855
866.247383181
857.942931595
849.678095505
841.468088325
833.332692946
825.293057681
817.368387574
809.573904087
801.920474022
794.415597901
787.064968073
779.873511235
772.845652729
765.985339008
759.296046732
752.780722769
746.441613391
740.280146307
734.296930119
728.491825321
722.864020193
717.412103127
712.134122827
707.027633523
702.089738663
697.317142533
692.70621377
688.253063288
683.953633777
679.803794153
675.799431722
671.936535772
668.211268225
664.62001874
661.159443128
657.826485026
654.618381593
651.532654685
648.567089379
645.719702096
642.988700662
640.372438842
637.86936777
635.477986803
633.196796057
631.024252863
628.958733925
626.998504726
625.141697052
623.386295033
621.73012936
620.170878846
618.706078177
617.333130624
616.049324669
614.851853681
613.737838089
612.704349542
611.748436652
610.86715171
610.057577827
609.316855737
608.64220975
608.030972204
607.480606134
606.988725765
606.553114775
606.171742252
605.842776281
605.564595452
605.335798581
605.155211003
605.021890438
604.935300079
604.894904969
1009.81700424
1008.66474778
1006.59457128
1003.50697416
999.508338073
994.699474334
989.175510009
983.024117338
976.325454398
969.153267503
961.576324921
953.659705928
945.465612752
937.053573293
928.479982013
919.797042136
911.051256549
902.281698242
893.518405281
884.7814036
876.08103377
867.420324174
858.799872864
850.224542103
841.709533486
833.279737992
824.962605134
816.781910489
808.754391061
800.889651328
793.192535504
785.666307492
778.314427383
771.14042432
764.147608538
757.339046329
750.717458996
744.284823447
738.042124544
731.989381582
726.125801071
720.449889698
714.959550152
709.652149542
704.524550898
699.573143419
694.793888137
690.182382576
685.733950303
681.443750617
677.30689622
673.318567608
669.474114898
665.769141794
662.199568874
658.761675528
655.452120897
652.267945236
649.206553691
646.265685125
643.443368746
640.737871595
638.147639815
635.671236775
633.307280941
631.054386389
628.911108559
626.875897614
624.947061241
623.122738087
621.400882197
619.779257832
618.255443305
616.826841983
615.49069871
614.244120143
613.084098101
612.007535331
611.011273422
610.092122431
609.246891721
608.472421156