/*--------------------------------*- C++ -*----------------------------------*\
| =========                 |                                                 |
| \\      /  F ield         | OpenFOAM: The Open Source CFD Toolbox           |
|  \\    /   O peration     | Version:  v1906                                 |
|   \\  /    A nd           | Web:      www.OpenFOAM.com                      |
|    \\/     M anipulation  |                                                 |
\*---------------------------------------------------------------------------*/
FoamFile
{
    version     2.0;
    format      ascii;
    class       surfaceScalarField;
    location    "195";
    object      phia;
}
// * * * * * * * * * * * * * * * * * * * * * * * * * * * * * * * * * * * * * //

dimensions      [0 3 -1 0 0 0 0];
oriented        oriented;


internalField   nonuniform List<scalar> 
18240
(
0.00138809370053
-0.00138605645567
0.00290839978476
-0.00151776642394
0.00442784491903
-0.00151740588792
0.00592944328646
-0.00149895588511
0.00740411793961
-0.00147276088092
0.00884648047303
-0.0014396280942
0.0102490403047
-0.00140077491153
0.0116080299629
-0.00135617149832
0.0129167260421
-0.00130704503599
0.0141728476709
-0.00125323047784
0.0153704707261
-0.00119611408843
0.0165088309247
-0.00113540780521
0.0175828229755
-0.00107262971058
0.0185931615575
-0.00100733782678
0.0195355121526
-0.000941141862086
0.0204119654941
-0.000873417886264
0.0212188556775
-0.000805837617562
0.0219594937511
-0.000737582514874
0.0226307501538
-0.000670365279697
0.0232369814497
-0.000603170512787
0.0237754542198
-0.000537743222281
0.0242513871733
-0.000472882280648
0.0246623124218
-0.000410360331749
0.0250141435303
-0.000348805693366
0.0253045661637
-0.000290019799623
0.025540032674
-0.000232481614927
0.0257182921579
-0.000178019374327
0.0258462031452
-0.000124981250393
0.0259215073896
-7.52216344006e-05
0.0259513469362
-2.69792076985e-05
0.0259334047774
1.78691442098e-05
0.0258750036454
6.11790776869e-05
0.025773715335
0.000101067548827
0.025636933037
0.000139465695952
0.025462097731
0.000174471201895
0.0252566062375
0.000208070166444
0.0250177495463
0.000238359586755
0.0247528492962
0.00026736562598
0.0244590367564
0.000293189085171
0.0241435018847
0.000317880596301
0.0238032155843
0.000339548580423
0.0234451853525
0.000360251503659
0.0230662290147
0.000378112301618
0.0226731379278
0.000395184942805
0.0222625898079
0.000409610434532
0.0218411298855
0.000423424357611
0.0214053146974
0.000434792018858
0.0209614281461
0.000445720685583
0.0205059287422
0.000454402983882
0.0200448256711
0.000462806292288
0.0195745073663
0.000469156298799
0.0191007070393
0.000475372559654
0.0186197738995
0.000479716872322
0.0181371633839
0.000484051562328
0.0176492193355
0.000486680561766
0.0171611262865
0.000489403033398
0.0166692570315
0.000490569028546
0.016178528492
0.0004919074433
0.0156853767226
0.000491821475039
0.0151944589872
0.000491965928501
0.0147023060432
0.000490802442041
0.0142133170286
0.000489906883991
0.0137241456059
0.000487807205633
0.0132389357762
0.00048599827125
0.0127544867937
0.00048308029614
0.0122746828705
0.000480463986044
0.0117964864918
0.000476829425907
0.0113235177381
0.000473502055552
0.0108529138058
0.000469247111237
0.010388019804
0.000465302437388
0.00992615449141
0.000460524382869
0.00947037845526
0.000456062232894
0.00901819424997
0.000450866809337
0.00857236478323
0.000445996707602
0.00813057615924
0.000440500645413
0.00769528367616
0.000435345274462
0.00726435483687
0.000429678213695
0.00683992694902
0.000424371962785
0.00642004715242
0.000418673838678
0.00600652929451
0.000413360420812
0.00559759965846
0.000407777510863
0.00519474574732
0.0004026028658
0.00479637675701
0.000397278648344
0.00440365963194
0.000392379446419
0.0040151991508
0.000387437124065
0.00363186628196
0.000382911726105
0.00325250634183
0.000378402556421
0.002877791948
0.000374211748323
0.00250698965242
0.000369906642989
0.0021410127892
0.000365412154462
0.00178049088536
0.000359714568842
0.00142886730592
0.000351035362718
0.00109477134353
0.000333443203446
0.000800094175221
0.000294042880019
0.000458816592895
0.000340329975363
0.000458255035078
0.00153447263435
-0.00291827228673
0.00324794702872
-0.00322872013805
0.00495260218532
-0.00321968538036
0.00663403601413
-0.00317785220944
0.00828447608297
-0.0031208675268
0.00989760379124
-0.00305021006043
0.0114662864326
-0.00296717253018
0.0129851779233
-0.00287251538293
0.0144480901599
-0.00276772970786
0.0158510395058
-0.00265363995659
0.0171889844267
-0.00253189721434
0.018459397158
-0.00240329866508
0.0196584138746
-0.00226956005423
0.0207849323497
-0.00213136325549
0.0218362005209
-0.00199040712667
0.0228124282399
-0.00184719231613
0.0237118438227
-0.0017033430542
0.0245358033992
-0.00155913979272
0.0252833492855
-0.00141610109497
0.0259567943775
-0.00127427518051
0.026555819278
-0.00113506637054
0.0270835039942
-0.000998299209736
0.0275400029129
-0.000865271734036
0.0279289891648
-0.000735606858865
0.0282509474579
-0.000610511469933
0.028509991706
-0.000489433167427
0.028706817707
-0.000373503811877
0.0288458495075
-0.000262021461197
0.028927895017
-0.000156055312906
0.0289575743289
-5.47760541048e-05
0.0289357224618
4.08011384537e-05
0.0288670554522
0.00013161284223
0.0287523806222
0.000216688586463
0.0285964392441
0.000297052529893
0.0283999469177
0.000371776574147
0.0281675821419
0.00044195547954
0.0278999276477
0.000506694830273
0.0276015453595
0.000567141377292
0.0272728571477
0.000622429458471
0.026918262983
0.00067374085889
0.0265380048887
0.000720233864959
0.0261362861437
0.00076310994472
0.0257131598325
0.000801546747619
0.0252726090789
0.000836751326143
0.0248144967544
0.000867917168096
0.0243425710821
0.000896244558011
0.0238565112738
0.000920939397178
0.0233598251431
0.000943183874982
0.0228520209323
0.00096219374511
0.0223363671765
0.000979123279132
0.0218122200043
0.000993195794274
0.021282616912
0.0010055288662
0.0207467851171
0.00101535232455
0.0202075433998
0.0010237400174
0.0196640170762
0.00102992816197
0.019118822552
0.00103494140654
0.0185710115641
0.001038024138
0.0180230149163
0.001040148425
0.017473839241
0.00104057003485
0.0169257465972
0.00104020691854
0.0163777244859
0.00103833134795
0.0158318797182
0.00103580748661
0.0152872030944
0.00103193032188
0.0147456565428
0.00102751186635
0.0142062512162
0.00102187702488
0.0136708090121
0.00101578819075
0.0131383730798
0.00100860734282
0.0126106260655
0.00100105001204
0.0120866489244
0.00099252203059
0.0115679807828
0.000983694531272
0.0110537415684
0.000974022714947
0.0105453201323
0.000964135055837
0.0100418726171
0.000953540223455
0.00954462830926
0.000942824715301
0.00905277475356
0.000931552963848
0.00856737275276
0.000920269058661
0.00808763559357
0.000908593770251
0.00761444711305
0.000897027175507
0.00714704164259
0.000885245204888
0.00668612065647
0.000873701201275
0.00623093697511
0.000862123422272
0.00578200739505
0.000850914059264
0.00533860472258
0.000839848420256
0.00490106497625
0.000829270142784
0.00446868880225
0.000818990666359
0.00404164553827
0.000809278022536
0.0036192852503
0.000799949982167
0.00320164578269
0.000791146751129
0.00278815782919
0.000782588215047
0.00237874937226
0.000774092235663
0.00197281952504
0.000764885478101
0.00156951351743
0.000753647548429
0.00116476332287
0.000737468091314
0.000746990147278
0.000711137308297
0.000339591260569
0.000746984098542
0.000797441750076
0.00156098137858
-0.00447695912952
0.00329563769259
-0.00496090623765
0.00502417150977
-0.00494576805654
0.00672927778948
-0.0048804777428
0.00840274841464
-0.00479191022369
0.0100375846116
-0.00468257674824
0.0116268890863
-0.004554077819
0.0131647405872
-0.00440791653718
0.014645364378
-0.00424599026433
0.0160641649384
-0.00407001878945
0.0174166648983
-0.00388207971754
0.018699684328
-0.00368393485209
0.0199100661545
-0.00347767917698
0.0210460085955
-0.00326497120502
0.0221055937595
-0.00304779473963
0.0230882755511
-0.00282759853867
0.0239932256699
-0.00260616970002
0.024820977627
-0.0023846854103
0.0255716081214
-0.00216469234529
0.0262465348527
-0.00194707453615
0.0268465479403
-0.00173313250566
0.0273737564509
-0.00152346883778
0.0278294870254
-0.00131915676108
0.0282163694237
-0.00112054750102
0.0285361143777
-0.000928518938258
0.0287917255339
-0.000743207961497
0.0289851715659
-0.00056532805182
0.0291197085614
-0.000394834584153
0.029197457698
-0.000232303202729
0.0292218221309
-7.75355802602e-05
0.0291949871011
6.9011292798e-05
0.0291204145266
0.000207666516829
0.0290002788297
0.00033807083304
0.0288380234988
0.000460661232739
0.0286357500702
0.000575165251588
0.0283968200945
0.000682109431913
0.0281232116914
0.000781288014078
0.027818152586
0.000873294659073
0.0274834608745
0.000957976015348
0.0271221933436
0.00103597433961
0.0267359820798
0.00110717386293
0.026327684804
0.00117224748949
0.0258987322956
0.00123110503031
0.025451767252
0.00128443494173
0.0249880121435
0.00133216086767
0.024509885393
0.00137497245613
0.024018402742
0.00141279793218
0.0235157591563
0.00144631617536
0.0230027716737
0.00147545074168
0.0224814176408
0.00150085824935
0.0219523303812
0.00152245078402
0.0214172835493
0.00154085376369
0.0208767463239
0.00155596148052
0.0203323054998
0.00156836036449
0.0197842901121
0.00157792388497
0.0192341219115
0.00158519509432
0.0186820151572
0.00159002512948
0.0181292477223
0.00159291134589
0.0175759449665
0.00159368491679
0.0170232628411
0.00159279888031
0.0164712609618
0.00159006854288
0.0159209907463
0.00158590595605
0.0153724658327
0.00158011782637
0.014826647656
0.00157308118834
0.014283517927
0.00156460193451
0.0137439558531
0.00155502857068
0.0132079199997
0.00154417524876
0.0126762110341
0.00153236908968
0.0121487670976
0.00151944021876
0.0116263078086
0.00150570022963
0.0111087492851
0.00149100221628
0.0105967250087
0.00147564699913
0.010090123569
0.00145951497653
0.00958948379862
0.0014428985929
0.00909465979528
0.00142570806985
0.00860608749159
0.00140822808211
0.00812357878256
0.00139039833934
0.00764745839895
0.0013724939384
0.00717748983881
0.00135448194636
0.00671388113782
0.00133662433074
0.00625634321884
0.00131891083298
0.00580496415033
0.00130158446778
0.00535940120844
0.00128465064263
0.00491962290311
0.00126832437127
0.00448523360446
0.00125261460756
0.00405608267512
0.00123769202593
0.00363171726142
0.00122354524408
0.00321184598513
0.00121026573109
0.00279588647172
0.00119777177322
0.00238320646251
0.00118601292519
0.00197253872681
0.00117478310863
0.00156146578647
0.00116398936809
0.00114423319953
0.00115401024093
0.000707516253669
0.00114711831282
0.000291946654743
0.00116184446697
0.00108906212466
0.00158401794433
-0.00605867325778
0.00334128122734
-0.00671568760667
0.00509262901696
-0.00669464735994
0.00681988620374
-0.00660525946916
0.00851448114414
-0.0064840512385
0.0101689802103
-0.00633461881287
0.0117764051421
-0.00615907110564
0.013330526881
-0.00595960537957
0.0148256384399
-0.0057387013733
0.0162569007441
-0.00549888120884
0.0176200220971
-0.00524284105129
0.0189116251826
-0.00497318082754
0.0201288382252
-0.00469258299073
0.0212696913994
-0.00440352022419
0.022332630078
-0.00410848467286
0.0233169483139
-0.00380967575564
0.0242222360068
-0.00350927961502
0.0250488564419
-0.00320913812689
0.0257973381904
-0.00291107661919
0.0264689016129
-0.00261655321038
0.0270648059719
-0.00232702943461
0.0275869275746
-0.00204359793846
0.028037069454
-0.00176738951036
0.028417589701
-0.00149917600657
0.0287306789261
-0.00123980582633
0.0289790344212
-0.000989780428396
0.0291651078561
-0.000749712761128
0.0292918185621
-0.000519877947697
0.0293617743117
-0.000300690613479
0.0293780175202
-9.22332921271e-05
0.0293432228872
0.000105249100035
0.0292604700693
0.000291838296925
0.0291324229436
0.000467431600098
0.0289621242007
0.000632248871349
0.0287521622251
0.000786309633958
0.0285054825658
0.000929946530358
0.0282245463146
0.00106327468264
0.0279121537147
0.00118671339212
0.0275705997224
0.00130045019352
0.0272025039529
0.00140496688406
0.0268099679139
0.00150050231542
0.0263954066591
0.00158757937125
0.0259607115092
0.0016664692862
0.0255080786381
0.00173771672711
0.02503918113
0.00180160870613
0.0245559908117
0.00185869493331
0.0240599627123
0.00190926329107
0.023552846439
0.00195385323079
0.0230358861472
0.00199274030057
0.0225106185113
0.00202644049479
0.0219780907933
0.00205520537363
0.0214396421657
0.00207951594266
0.0208961422719
0.00209959052383
0.0203487532286
0.00211586658548
0.0197981907243
0.00212852280456
0.0192454635308
0.00213794764033
0.0186911589902
0.00214427755462
0.0181361573593
0.00214785075629
0.0175809434737
0.00214876277078
0.0170262928034
0.00214730406736
0.016472610977
0.00214353454976
0.0159205891145
0.00213770330267
0.0153705729709
0.00212984299146
0.0148231848632
0.00212017017301
0.0142787242059
0.00210870079148
0.0137377541148
0.00209562936324
0.0132005352121
0.00208096630874
0.0126675750282
0.00206489442813
0.0121390968672
0.00204742907566
0.011615550794
0.00202875058368
0.0110971194201
0.00200888781663
0.0105841893861
0.00198802542599
0.0100768955944
0.00196621162989
0.00957555261697
0.00194363945805
0.00908023888783
0.00192037917057
0.0085911875713
0.00189663300141
0.00810841166326
0.00187249280324
0.00763205416371
0.00184816799172
0.00716205503657
0.00182376871378
0.00669846045821
0.00179950685955
0.00624113187972
0.00177550499456
0.00579001428854
0.00175197041563
0.00534488737518
0.00172902975557
0.00490559221592
0.00170687597287
0.00447182288185
0.00168562840241
0.00404330950763
0.00166545255701
0.00361964528647
0.00164644559451
0.00320041595138
0.00162873120342
0.00278503853924
0.0016123745549
0.00237279900781
0.0015974763697
0.00196266160706
0.00158417087692
0.00155311485861
0.00157280113295
0.00114206249685
0.00156430211378
0.000727957419121
0.00156050792787
0.000328410425347
0.00156068870639
0.00141710504033
0.00161348488957
-0.00766984184743
0.0034020340063
-0.00850176659491
0.00518414649792
-0.00847427386665
0.00694099759114
-0.00835963278393
0.0086636299701
-0.0082042148324
0.010344210979
-0.00801273860754
0.0119755276296
-0.00778794119461
0.0135510962324
-0.00753273709534
0.0150651263423
-0.00725031440928
0.0165126463095
-0.00694399785054
0.0178894118579
-0.00661722868687
0.0191920121302
-0.00627342140413
0.0204177282936
-0.00591597028832
0.0215646276737
-0.00554811389479
0.0226313839094
-0.00517297171341
0.0236173688358
-0.00479341940742
0.024522444929
-0.0044121562608
0.0253470643017
-0.00403159089136
0.0260920443072
-0.00365393726028
0.0267586818935
-0.00328110867879
0.0273485205229
-0.00291483803338
0.0278634855688
-0.00255657462012
0.0283056484868
-0.00220762100032
0.0286773846778
-0.00186902624528
0.0289811356092
-0.00154173190451
0.0292195865507
-0.00122645582079
0.0293954257433
-0.000923841547823
0.0295115373301
-0.000634331541442
0.0295707552468
-0.000358318857681
0.0295760675688
-9.6011424052e-05
0.029530366193
0.000152413551258
0.0294366595611
0.000386950445349
0.0292978199937
0.000607603777955
0.029116803489
0.000814538760042
0.0288963963865
0.00100791622632
0.0286394430021
0.00118803991438
0.0283485918032
0.00135519219327
0.0280265287308
0.00150978362735
0.0276757253643
0.00165218774002
0.0272986764038
0.0017828924924
0.0268976495453
0.00190233458322
0.0264749259879
0.00201105282369
0.0260325531062
0.00210952282623
0.0255725866003
0.00219831125212
0.0250968458189
0.00227791095711
0.0246071566047
0.00234889573861
0.0241051106864
0.00241175684256
0.0235923078824
0.00246705686852
0.0230701198973
0.00251526806788
0.0225399308575
0.00255692507644
0.0220029070537
0.00259246623472
0.0214602342725
0.00262238413973
0.0209128937505
0.00264707068305
0.0203618950392
0.00266696530003
0.0198080593432
0.00268240507959
0.0192522462075
0.0026937697959
0.0186951441023
0.00270133777342
0.0181374895253
0.00270542753248
0.0175798656083
0.00270626027368
0.0170229120214
0.00270409718268
0.0164671312357
0.0026991087821
0.0159130881325
0.00269150740294
0.0153612246522
0.00268142380092
0.0148120478853
0.00266903371958
0.0142659529952
0.00265444145435
0.0137233991846
0.0026378001349
0.0131847418156
0.00261920221218
0.0126503958762
0.00259879210989
0.012120677388
0.00257666367708
0.0115959542754
0.00255296493219
0.0110764982946
0.00252780219761
0.010562623315
0.00250133617736
0.0100545480962
0.00247369289698
0.00955252229868
0.0024450510452
0.00905670122143
0.00241555969686
0.00856725970168
0.00238541666332
0.0080842790456
0.00235479322752
0.00760784915706
0.00232390374129
0.00713796835227
0.00229293750794
0.00667463381039
0.00226211955658
0.00621775413497
0.00223164990941
0.00576722818119
0.00220175592813
0.00532287015076
0.00217263900995
0.00488447622555
0.00214451862982
0.00445176065181
0.00211758686492
0.00402440871357
0.0020920449843
0.0036020213484
0.002068067306
0.00318414746702
0.00204583351843
0.00277023567999
0.00202551220058
0.00235963994201
0.00200730218766
0.00195157402854
0.00199145860866
0.00154520591739
0.00197842758161
0.00113989433845
0.00196891999637
0.000736147637027
0.0019634920347
0.000342120008676
0.00195395429457
0.00175888389185
0.001650679217
-0.00931820005262
0.00347967654157
-0.0103282669903
0.00530133842807
-0.0102934449212
0.00709611007963
-0.0101519146967
0.00885453912776
-0.00996016492006
0.0105683575047
-0.00972408617435
0.0122300216459
-0.00944714617749
0.0138327774681
-0.00913304624759
0.0153706833443
-0.0087857895491
0.0168386631189
-0.00840956395905
0.0182324817013
-0.00800865471199
0.0195487624095
-0.00758733159166
0.0207849216733
-0.0071497858499
0.0219391623143
-0.00670003782036
0.0230103789443
-0.00624190407823
0.0239981389348
-0.00577892722168
0.0249025704965
-0.00531437381785
0.02572434254
-0.00485118584521
0.0264645464309
-0.00439200751512
0.0271246847549
-0.00393915502904
0.0277065565341
-0.00349466645005
0.0282122621495
-0.0030602828561
0.0286440971975
-0.00263751191355
0.0290045754524
-0.0022276105258
0.0292963311755
-0.00183165140778
0.0295221567895
-0.00145049904715
0.0296849089969
-0.00108487306336
0.0297875555478
-0.00073531464181
0.0298330811458
-0.000402246379552
0.0298245397116
-8.59319831016e-05
0.0297649589846
0.000213464055455
0.0296573964837
0.000495920430134
0.0295048456558
0.000761491475414
0.029310295742
0.00101036197733
0.0290766383909
0.00124277537483
0.02880673451
0.00145908162783
0.0285033226269
0.00165967041452
0.0281690900632
0.00184501916343
0.0278065844391
0.00201562613163
0.0274182877557
0.00217205985544
0.0270065313716
0.00231489350256
0.0265735718387
0.0024447549041
0.0261215092343
0.00256226277374
0.0256523637895
0.00266807650062
0.0251679977216
0.00276283477836
0.024670192214
0.00284720428694
0.0241605728129
0.00292182064129
0.0236406863415
0.00298733574931
0.0231119300456
0.00304436122309
0.0225756283851
0.0030935143183
0.0220329658562
0.0031353637584
0.0214850633673
0.00317047472121
0.0209329146216
0.0031993574271
0.0203774616741
0.00322251160301
0.0198195344428
0.00324037792795
0.0192599247318
0.00325338246298
0.0186993284148
0.0032618913465
0.0181384171515
0.0032662553655
0.017577782552
0.00326676782447
0.0170180046704
0.00326370919548
0.0164595976947
0.00325730825157
0.0159030744389
0.00324778630922
0.0153488932797
0.00323532113262
0.0147975177413
0.00322009056297
0.0142493645764
0.00320223861928
0.0137048585754
0.00318191738301
0.0131643817437
0.003159255357
0.0126283228739
0.00313439668309
0.0120970284497
0.003107471292
0.0115708472774
0.00307863097806
0.0110500836935
0.00304802078657
0.0105350374993
0.00301581148116
0.0100259601439
0.00298217233373
0.00952309049652
0.00294729962321
0.00902661460921
0.00291139075962
0.00853669760644
0.00287466885774
0.00805344774341
0.00283735830152
0.00757694485131
0.0027997056121
0.00710720888217
0.00276195687049
0.00664422503286
0.00272437486723
0.00618791703344
0.00268721858769
0.00573816895697
0.00265075721026
0.00529480281814
0.00261525200837
0.00485759683395
0.00258096739091
0.00442626640319
0.00254815610293
0.00400047804146
0.00251706836138
0.00357983330158
0.00248794199842
0.00316387890338
0.00246101356304
0.00275209378198
0.00243651650602
0.00234390350359
0.00241470872601
0.00193871914233
0.00239589399912
0.00153598234458
0.00238042793168
0.0011353709425
0.00236875980991
0.000737380679049
0.00236075730347
0.000346084427181
0.00234452760933
0.00210458893793
0.00169642088102
-0.0110122856969
0.0035754159729
-0.0122047741716
0.00544593289785
-0.0121614548382
0.007287442622
-0.0119909271839
0.00908988114398
-0.0117601121246
0.0108444543931
-0.0114761772073
0.0125432080968
-0.0111434285824
0.0141790798428
-0.0107664583316
0.0157459370792
-0.0103502027442
0.017238607963
-0.00989980718161
0.0186528651135
-0.00942050496877
0.0199854120543
-0.00891749354326
0.0212338272752
-0.00839584207406
0.0223965197835
-0.00786039914832
0.0234726487049
-0.00731573315534
0.0244620609844
-0.00676607332804
0.0253651997115
-0.00621528284998
0.0261830365048
-0.00566683229623
0.0269169811517
-0.00512380333666
0.027568821109
-0.00458889073978
0.028140643255
-0.0040644305465
0.0286347899559
-0.00355242099872
0.0290537988669
-0.00305456300308
0.0294003779583
-0.00257228575232
0.0296773609387
-0.00210678539202
0.0298876958023
-0.00165904311253
0.0300344082041
-0.00122985344578
0.0301205953357
-0.000819831706942
0.0301493904086
-0.000429433487157
0.0301239572049
-5.89563270002e-05
0.0300474552037
0.000291443689037
0.0299230332075
0.00062175177561
0.0297537985944
0.000932068743224
0.0295428120749
0.00122262094037
0.0292930602371
0.00149373225064
0.0290074554217
0.00174582073307
0.0286888122267
0.00197938085239
0.0283398506802
0.00219497782656
0.0279631769204
0.00239323108421
0.0275612895681
0.00257481023033
0.0271365628397
0.00274041934823
0.0266912561343
0.00289079540844
0.0262274983832
0.00302669291067
0.0257473009609
0.0031488845632
0.0252525423878
0.00325814552259
0.0247449845256
0.00335525625108
0.0242262576392
0.00344098609618
0.0236978798152
0.00351609769529
0.0231612426263
0.00358132991769
0.0226176333956
0.00363740376397
0.0220682220692
0.00368500526825
0.0215140857505
0.00372479271666
0.0209561969293
0.00375738028858
0.0203954495152
0.00378334681851
0.0198326484834
0.00380322120008
0.0192685362876
0.00381749268908
0.0187037834703
0.00382659863146
0.0181390143498
0.00383093651173
0.0175747981545
0.00383085435024
0.0170116729033
0.00382666413309
0.0164501362666
0.00381863483519
0.0158906666738
0.00380700698834
0.0153337134704
0.00379198765022
0.0147797151665
0.00377376529348
0.0142290882221
0.00375250634311
0.0136822419268
0.00372836962724
0.0131395660663
0.00370150369888
0.0126014425981
0.00367206007452
0.0120682324776
0.00364019021574
0.0115402846527
0.00360605743562
0.0110179223451
0.00356983307396
0.0105014501264
0.0035317061728
0.00999114019034
0.00349187884708
0.00948723813893
0.0034505737011
0.00898995010237
0.0034080280501
0.00849944768667
0.00336449945282
0.00801585622652
0.00332025884245
0.00753925957165
0.00327559430561
0.00706968998796
0.00323080364066
0.00660713293094
0.00318619670068
0.00615151848449
0.00314208761972
0.00570272631302
0.00309879632399
0.00526057851845
0.0030566408204
0.00482484461125
0.00301593836205
0.00439523527082
0.00297699865958
0.00397140763468
0.00294012581427
0.00355296105662
0.00290561378814
0.00313944260774
0.00287375051472
0.00273035581948
0.00284482169827
0.00232517509149
0.00281911478132
0.00192335964021
0.00279692319941
0.00152445872838
0.00277858329456
0.00112817029459
0.00276436116394
0.000734513906032
0.00275364007242
0.000346008871191
0.00273225441456
0.00245025583309
0.00175147284472
-0.0127614203359
0.00369072774899
-0.0141415136875
0.00562004655647
-0.0140882627832
0.00751771505274
-0.0138860855904
0.00937289084681
-0.0136127865034
0.011176149532
-0.0132769422601
0.0129190434383
-0.0128838380465
0.014594154527
-0.0124390970562
0.0161951368091
-0.0119487260413
0.0177167281172
-0.0114189565011
0.0191547315158
-0.0108560852926
0.0205059758927
-0.0102663372684
0.0217682544215
-0.00965574500136
0.0229402537404
-0.00903005086579
0.0240214662706
-0.0083946293132
0.0250121031215
-0.00775442739085
0.0259129944769
-0.0071139286751
0.0267255000131
-0.00647713119362
0.0274514117766
-0.00584755129239
0.0280928766635
-0.00522823573209
0.028652316059
-0.00462179808884
0.0291323722561
-0.00403045389936
0.0295358525997
-0.0034560728724
0.0298657020051
-0.00290021761425
0.0301249676673
-0.0023641909091
0.0303167883432
-0.00184906059867
0.0304443668537
-0.00135569040618
0.030510963714
-0.000884747669387
0.0305198672511
-0.000436721731792
0.030474385732
-1.19234197905e-05
0.0303778152361
0.000389496565774
0.0302334307995
0.000767552178924
0.0300444533388
0.00112239044291
0.0298140471358
0.0014543035087
0.0295452894747
0.00176369339839
0.029241172657
0.0020510728411
0.0289045786351
0.00231703745704
0.0285382852967
0.00256226630621
0.0281449455549
0.00278749490516
0.027727096212
0.00299351795613
0.0272871408836
0.00318116482484
0.0268273601011
0.00335130329478
0.0263498975668
0.00350481804293
0.0258567706911
0.00364261415676
0.0253498598168
0.00376559864379
0.0248309191656
0.00387468268847
0.024301568938
0.00397076564687
0.0237633069337
0.00405473582165
0.0232175035597
0.00412745650504
0.02266541463
0.00418976568586
0.0221081791599
0.00424246387801
0.0215468336183
0.00428631370524
0.0209823121352
0.00432202981957
0.0204154620633
0.00435027943297
0.0198470458782
0.00437167458406
0.019277757452
0.00438677467883
0.0187082246799
0.00439608135253
0.0181390256644
0.00440004359589
0.0175706909815
0.00439905514448
0.0170037186734
0.00439346237028
0.0164385750549
0.00438356407363
0.0158757080035
0.00436962126706
0.0153155458132
0.00435185856538
0.01475850756
0.00433047576566
0.0142049996568
0.00430564991313
0.013655423307
0.00427754718882
0.0131101688439
0.00424632499006
0.0125696204358
0.00421214304192
0.0120341484332
0.00417516473763
0.0115041117902
0.00413556670697
0.0109798492547
0.00409353879234
0.0104616801258
0.00404929119081
0.00994989517069
0.00400305313304
0.00944475628781
0.00395507757877
0.00894648796779
0.00390563814326
0.00845527661605
0.00385503166912
0.00797126314416
0.0038035738435
0.00749454241397
0.0037515996763
0.0070251574064
0.00369945845894
0.00656309897186
0.00364751262718
0.00610830183244
0.00359613233373
0.00566064481784
0.00354569329724
0.0052199484492
0.00349657173144
0.00478597570874
0.00344914158737
0.00435843118377
0.00340377062857
0.00393696291468
0.00336081786471
0.00352116438481
0.00332063179446
0.00311058127127
0.00328354957931
0.00270471777585
0.00324989508138
0.00230305396954
0.00321998586424
0.00190509131684
0.00319413486309
0.00151033375156
0.00317260060381
0.00111833442619
0.00315557645465
0.00072892146328
0.00314232720109
0.000343895122961
0.00311655663035
0.00279376688647
0.00181674821417
-0.0145758171152
0.00382740445285
-0.0161496649169
0.00582632931406
-0.0160846631912
0.00779031693658
-0.0158475567251
0.0097075864593
-0.0155275441916
0.0115679537415
-0.0151348044833
0.0133623920279
-0.0146757805263
0.0150830846658
-0.0141573030618
0.0167234558838
-0.0135866246749
0.0182781734931
-0.012971215831
0.0197431067496
-0.0123185798161
0.0211152716839
-0.011636084131
0.0223927458431
-0.0109308264148
0.0235745790414
-0.0102095187883
0.0246606856474
-0.00947840178206
0.0256517361017
-0.00874317785681
0.0265490412417
-0.00800897052916
0.0273544392569
-0.00728030627815
0.0280701880874
-0.00656111915672
0.0286988664434
-0.0058547790438
0.0292432921639
-0.00516413561605
0.0297064543197
-0.00449157879839
0.030091467856
-0.00383910066402
0.0304015402196
-0.00320835976555
0.0306399547868
-0.00260073117771
0.0308100570685
-0.00201734849102
0.0309152467002
-0.00145912579803
0.0309589636618
-0.000926774389382
0.0309446739225
-0.000420805680109
0.0308758476789
5.84610384511e-05
0.0307559406007
0.000510894807464
0.0305883703473
0.000936541918552
0.0303764933879
0.00133561769379
0.0301235872467
0.00170848576661
0.0298328389309
0.00205564795925
0.0295073247419
0.00237771818238
0.0291500092194
0.00267541480935
0.0287637279466
0.00294953512267
0.0283511921759
0.00320095048859
0.0279149745505
0.00343058371837
0.0274575161713
0.00363940622467
0.0269811156339
0.0038284191377
0.0264879360707
0.00399865107381
0.0259799978696
0.00415114283402
0.0254591845548
0.00428694424223
0.0249272395774
0.00440710171407
0.0243857711185
0.00451265353558
0.0238362530115
0.0046046194548
0.0232800294197
0.00468399427583
0.0227183198322
0.00475173912564
0.022152224568
0.00480877441457
0.0215827332826
0.00485597275223
0.0210107319896
0.0048941526013
0.0204370140585
0.00492407346036
0.0198622887395
0.00494643162233
0.0192871933367
0.00496185807797
0.0187123025812
0.00497091740722
0.0181381405534
0.00497410860757
0.0175651897957
0.00497186776325
0.0169939015027
0.0049645716005
0.0164247039037
0.00495254311941
0.0158580094602
0.00493605772317
0.0152942209123
0.00491535136952
0.0147337353395
0.00489062787692
0.0141769474928
0.00486206845636
0.0136242504831
0.00482983912476
0.0130760361892
0.00479410044562
0.0125326928892
0.00475501395211
0.0119946032901
0.00471275047198
0.0114621399578
0.00466749508829
0.010935661339
0.0046194534996
0.0104155059352
0.00456885437779
0.00990198755649
0.00451595318239
0.00939538906599
0.00446103259674
0.00889595750813
0.0044044034029
0.00840389842643
0.00434640299952
0.00791937155283
0.00428739399551
0.00744248622006
0.00422776112966
0.00697329808535
0.00416790819281
0.0065118060676
0.00410825395774
0.00605795012405
0.00404922789601
0.00561160984913
0.00399126590747
0.00517260336378
0.00393480525128
0.00474068776734
0.00388028080259
0.00431555893492
0.00382811988828
0.00389685475163
0.00377873975248
0.00348415749946
0.00373254283652
0.00307699967349
0.00368991497814
0.00267487893818
0.00365122495457
0.00227726766
0.00361681549751
0.00188361090841
0.00358699443793
0.00149339559013
0.00356206305523
0.00110610988386
0.00354217762427
0.000721274450525
0.00352638080813
0.000340463346106
0.00349658184622
0.00313389003392
0.00189332335094
-0.0164667919266
0.00398768756681
-0.0182415040708
0.00606805381037
-0.0181625051478
0.008109437301
-0.0178864158055
0.010098907691
-0.0175144955942
0.0120253835611
-0.0170587671795
0.0138791733038