/*--------------------------------*- C++ -*----------------------------------*\
| =========                 |                                                 |
| \\      /  F ield         | OpenFOAM: The Open Source CFD Toolbox           |
|  \\    /   O peration     | Version:  v1906                                 |
|   \\  /    A nd           | Web:      www.OpenFOAM.com                      |
|    \\/     M anipulation  |                                                 |
\*---------------------------------------------------------------------------*/
FoamFile
{
    version     2.0;
    format      ascii;
    class       volScalarField;
    location    "1000";
    object      k;
}
// * * * * * * * * * * * * * * * * * * * * * * * * * * * * * * * * * * * * * //

dimensions      [0 2 -2 0 0 0 0];


internalField   nonuniform List<scalar> 
24444
(
0.0408376271294
0.0022706254428
0.000395600349426
0.000390050792186
0.000384832386687
0.000348855583905
0.000340369708169
0.0511059713826
0.00527650970718
0.00256371696855
0.000404282876785
0.00114578807665
0.00119707706796
0.00287797711221
0.00111865983054
0.0312791019599
0.00692812903526
0.000865478273042
0.000150914966712
0.000285120027502
0.000164876518086
0.0386508154177
0.0485777144772
0.00157912456972
0.00171385144688
0.00398023946728
0.0044306246693
0.00465991279733
0.00516919529599
0.000397788023555
0.000465332608455
0.0018155042548
0.000346313977629
0.000636801668589
0.000114541736288
0.000419671208459
0.00113998115313
0.000320557952655
0.000327181349429
0.00043512525663
0.000338125980546
0.000467147547949
0.000286288523188
0.000289806379471
0.000434010815201
0.000293219611172
0.000312598250904
0.000355614107887
0.000319618354206
0.000453649327009
0.000439903445229
0.000287383415423
0.000371743320701
0.000300534541018
0.000326140409968
0.000277414705954
0.000476188737977
0.00030573823647
0.000698273319195
0.000345116659715
0.0013536737661
0.00151063039298
0.000345594259104
0.000382443832288
0.0003469748944
0.000403803532567
0.00040204969771
0.000312968708415
0.000282914997739
0.000308221985294
0.00034044089068
0.000436454816978
0.000430749509857
0.000318873633179
0.000307872713398
0.0009337688051
0.00339435191419
0.000385577218466
0.00172648102824
0.000416317640697
0.000311416587065
0.238238019367
0.00579695692204
0.00407564744001
0.000779220660865
0.0132223353071
0.10540138333
0.00310736820262
0.00967149621586
0.000295775058465
0.00280846934661
0.00129067167227
0.0286755773982
0.00683264283686
0.000465424019179
0.00213581330834
0.00927583204414
0.000264615986458
0.000314926563462
0.000390629019985
0.000368670787942
0.000321202520047
0.000318111087061
0.0038812135189
0.000375379234946
0.00342554417841
0.0028383396527
0.000930436861301
0.00106391275255
0.000406889371545
0.000726124327983
0.000343523535201
0.000261025759997
0.000341019951145
0.00239686348166
0.0139572014994
0.000268227847017
0.0237254812616
0.0175939633525
0.00281954541274
0.00237833734567
0.00212542799782
0.00181236403996
0.00161380256947
0.00188091384884
0.000369210324144
0.000662172614303
0.000312073277329
0.00095254083392
0.00185875899107
0.000334244801015
0.00164182668495
0.000316369528894
0.000288691125161
0.000284448093135
0.000281979015675
0.000283938058428
0.000318670119716
0.000334537884997
0.00035261268529
0.00540991911795
0.00069895380184
0.00132512259011
0.000258240674575
0.000338794379493
0.000652784722092
0.00031548214995
0.000453580075494
0.000299681756755
0.000317729195543
0.000418784007308
0.00320246309331
0.00380958176843
0.000378507220434
0.000325079375553
0.00318363234017
0.00276123514931
0.000405290309979
0.000406920437624
0.000181480521369
0.000177446004019
0.000415605288088
0.000309031404634
0.000310525810763
0.000317758204103
0.000346344245537
0.000355963405688
0.00036996899353
0.000372321596453
0.00127697872975
0.000322208573906
0.00039895715794
0.000400902245455
0.000374428108975
0.000371390327113
0.000380506734956
0.000381925717911
0.000303528510489
0.000300282577906
0.000306427184515
0.000310427903596
0.000234755891468
0.000353800947463
0.000289078268699
0.000321421527657
0.000403207651257
0.000496072601395
0.000538068601561
0.000214714132998
0.00035329276233
0.000356855026499
0.000335587282319
0.000355190981569
0.000287662566959
0.000414248112387
0.00131164053758
0.000290068601875
0.000421310907155
0.000679897761331
0.00258448794074
0.0016668819738
0.000306261365833
0.000482556728383
0.0739031044372
0.00547080216251
0.000217266788874
0.000214932887766
0.000301633602376
0.000299858685529
0.00070758169815
0.000333916991104
0.000496397289393
0.000103999589955
0.000338162891177
0.000155100918142
0.000767325298393
0.00179731233905
0.00109994790322
0.0627408963633
0.00618791411525
0.00251299240956
0.000709034604627
0.000573385486101
0.000426709998327
0.000549121416589
0.000515637847866
0.000437982761262
0.000324606098141
0.000233554214426
0.000229286523513
0.000283217880463
0.000285760964491
0.000918635985473
0.000972633605456
0.00100800187924
0.00339245080036
0.0026200108154
0.000350720055842
0.000389059880889
0.00042108745866
0.000411728635442
0.000382092990644
0.00269635330154
0.00942273114027
0.0004882248772
0.00036344905806
0.000368359586226
0.000305140736265
0.000413793057633
0.000261273980269
0.000315044184713
0.000335374309379
0.000414592102115
0.00040093864779
0.000599609596017
0.000807981023104
0.00088723909345
0.000325333341833
0.00038940060873
0.000416386750738
0.00010275878679
0.000349557873286
0.00159262061702
0.000410190451373
0.000648149734154
0.000101254607548
0.00109367660157
0.00135828943636
0.000404386627323
0.00243818104992
0.00274609068658
0.00359607010042
0.000452568455554
0.00045857906949
0.000327789170485
0.00031486131266
0.000345740188765
0.00034078984666
0.000382313816744
0.000386067990219
0.00105576956
0.00101647105515
0.00357771256937
0.000538002670726
0.00154879548102
0.000623270902166
0.00155652126507
0.000222988796171
0.00112409762687
0.000380912259059
0.000383096276707
0.000234719763225
0.0002175153275
0.000539629694717
0.000302546304025
0.000438524264659
0.000418907666951
0.00104905317752
0.00104640258764
0.000750309299405
0.000565224718216
0.0009684215575
0.000651278537408
0.000503276048938
0.000365288758312
0.000940583934644
0.00108111393468
0.000364766341198
0.000404952256807
0.000348194069396
0.00180246779745
0.000324104397806
0.000369351246673
0.000284663798155
0.000356151170345
0.00286370896009
0.0013993106189
0.000612114066647
0.00216949245681
0.000363705920966
0.00163145723237
0.00646441672495
0.000762310168096
0.00149385252711
0.000415554694802
0.00149110683291
0.000496201132158
0.000392475046495
0.00039498220664
0.000335323138892
0.000340817722943
0.000398496504326
0.000569972318467
0.000345775554798
0.000340997258961
0.000327062212181
0.000363290978076
0.000379785246576
0.000286949077938
0.000285057270671
0.000418416672144
0.000324353173182
0.000152559104692
0.000332388486933
0.000415104263545
0.000415956089087
0.000416989137909
0.000513322933496
0.00030066984613
0.000292829093543
0.000281715449017
0.000423723578638
0.000215495458051
0.000324887236079
0.000378159429758
0.000105334888099
0.000320575075842
0.00761818314983
0.00121151189048
0.000401873926655
0.000285636010559
0.000290543069212
0.000334006879254
0.00164984345248
0.00157273476709
0.00149542102783
0.00151984862925
0.000312101899413
0.000369990389446
0.000329689382282
0.000327980978904
0.000409844851455
0.000332623805754
0.000285316546451
0.000318818588177
0.000347450483156
0.00116342011151
0.000355444166326
0.000358196678504
0.000362335074588
0.000365607734854
0.00036686108051
0.0104124180413
0.0275407743141
0.000354449790524
0.00085939465405
0.00049595151139
0.000414841156473
0.000415176977477
0.000420163983961
0.000368481288922
0.000414447928047
0.00152928861369
0.000375571493786
0.000379810083531
0.00035187344502
0.000343245860586
0.00187136641313
0.000596839423561
0.000605053230749
0.00107552362158
0.000345520220576
0.000344249405322
0.000414308546369
0.000158088117284
0.000268166509709
0.000401479251526
0.000574280500315
0.000602564304367
0.000279363068786
0.00028082767453
0.000354980759043
0.00209553596482
0.000286208493257
0.000278254062515
0.00109487657573
0.000380358430891
0.00036675360976
0.000250419877746
0.000177614432348
0.00042509988008
0.000374927607425
0.00063756679398
0.000329824946167
0.000371799217606
0.0003741766676
0.000212422525731
0.00031809409902
0.000351310192887
0.000339026393456
0.000373636159141
0.000358106892424
0.000327727435362
0.000113251547449
0.000116425739039
0.000875285246623
0.000273243816471
0.000276678133694
0.00948089222396
0.0256794468875
0.0014757690761
0.000482562897261
0.000359134751144
0.000447808201322
0.000428300607067
0.000357139459284
0.000338770083848
0.000284419823976
0.000279448022814
0.0013772324895
0.00198193651477
0.000418586214271
0.000272513159293
0.00292913128706
0.0028557841754
0.217136150364
0.210616121138
0.0121441222776
0.011184458965
0.00823790277038
0.00861360057048
0.000330906493503
0.000274041086428
0.000400580931868
0.00162692533966
0.000221523920991
0.000290804352111
0.000307080754999
0.000389141236252
0.000343992525867
0.00156553142311
0.000168299865486
0.00018087509475
0.000508102609415
0.000447072223356
0.000853588917951
0.00104633267286
0.00359323219982
0.0028716988787
0.000292614045299
0.000417077157317
0.000372811950885
0.000331801090164
0.00033139917338
0.000396949913143
0.0260723293433
0.000391511115868
0.000390845460165
0.000403079964191
0.000403033057182
0.000369024286252
0.000229912566497
0.000335590662522
0.000307520651284
0.000306933654124
0.00032286871459
0.000323375760595
0.00213326653571
0.000664836214228
0.000365180571817
0.000311710256931
0.00433865661731
0.00106652877797
0.000371438389844
0.0003679252865
0.000288700896545
0.000117810707607
0.000416226401789
0.000312924104639
0.000144950154049
0.000311176777504
0.000390563362909
0.00632103213073
0.00373378269354
0.00688172870603
0.00411525770928
0.00149508190128
0.00158493415727
0.000296789739711
0.00030169011198
0.000270994536677
0.000274104865215
0.000281836379303
0.000280468029757
0.000340337301375
0.000325379123033
0.00030973326456
0.000328757241492
0.000315242885525
0.000331793670098
0.000236474852721
0.000317129661417
0.00401451172295
0.000418598431703
0.000101927273127
0.000938969028487
0.00303766958632
0.00241201484272
0.00040345864322
0.000356590671564
0.000398565413389
0.000338939532052
0.000413656770196
0.000313693504423
0.000380322511312
0.000311156448162
0.0256672808586
0.00207876343466
0.0028598688009
0.0018606806578
0.0054982645466
0.0109675857946
0.00167389858146
0.00212233014239
0.00033338550759
0.000309703636441
0.0242708544585
0.000362361106361
0.000399334925463
0.000330496619452
0.000359957442018
0.000414422416661
0.00130794294212
0.00100680782396
0.00151924807976
0.00115330893999
0.000301109734824
0.000272721617357
0.0314595393686
0.00224211461547
0.00312658148809
0.00198994937242
0.000417814417592
0.000425665793912
0.00029910629088
0.000299262296818
0.000159281036551
0.000361812477666
0.000340086228615
0.00032906313984
0.230985914296
0.00645427470945
0.00419061010478
0.000489399902697
0.000158376472354
0.000418869421126
0.000315061474497
0.000372116882386
0.000327195736671
0.0018133353886
0.000702628340872
0.000215655100533
0.000371194035763
0.000356225473312
0.00033174057019
0.000330668917301
0.000338701412045
0.000424354990022
0.0014593623831
0.00162711059517
0.000354254423334
0.00095162316069
0.000418675048322
0.000259799633282
0.000264929664162
0.000189518926586
0.000768775834098
0.000316876327726
0.000352904815364
0.0003518804869
0.00135932627152
0.000601529795881
0.000398463479485
0.000145605239883
0.00012687057779
0.000345396514142
0.000803048701062
0.000412858791356
0.000654135376667
0.00465995866953
0.00121168053536
0.000376153889155
0.0129497866805
0.000544438687588
0.00100771230235
0.000969007623747
0.000325813297678
0.000357622796356
0.000359676751233
0.000296082541609
0.00104309831247
0.000420103655865
0.000326176621603
0.00860806621692
0.00745156295246
0.00152924467514
0.000328500053705
0.000283737965921
0.000299968802678
0.000271032222968
0.000350643902231
0.000350102315758
0.00029742105308
0.00103701858526
0.000878594053901
0.000515653224908
0.000566680162902
0.000393335480062
0.000339373194549
0.000312918252595
0.000274811315017
0.000323464997367
0.00174714116666
0.0034286134952
0.00077680353208
0.000481511285632
0.000351737860692
0.000265482563394
0.000460499887983
0.000320878644622
0.000397353757058
0.000623409591089
0.000244198519839
0.000255167864085
0.000253718765392
0.00127511817242
0.00111591325682
0.000788461532502
0.000882987272613
0.00773987904894
0.000406329938091
0.0136186363264
0.000424641172741
0.000360409692159
0.000865937878602
0.000388905760801
0.0002405525812
0.00026681077086
0.000266192650141
0.00139003662227
0.00036512982115
0.000335764348509
0.00174194736506
0.000357162627005
0.000234857379163
0.000399047499236
0.000331758735357
0.000324736858758
0.000370765077335
0.00163284796741
0.00031073700381
0.0153657128837
0.00066520818087
0.00234246815236
0.00211950647808
0.000351736688502
0.00159864357148
0.000182420737128
0.000385336276049
0.000377644364163
0.000233715830737
0.000312436049458
0.00121208801194
0.000541465644906
0.000382505498273
0.000383082763296
0.00070243465481
0.000291865539298
0.00031206795045
0.000293836945988
0.000312310480847
0.00033779062787
0.00127216894821
0.000527133376566
0.000358801870571
0.000355992522552
0.000633788603614
0.00213617245404
0.00199363195637
0.00024817349491
0.000354143707952
0.000372610492738
0.00910399604698
0.00134458695688
0.000103621534201
0.000723583263881
0.00208882558568
0.00255461222321
0.000745714045346
0.000842444559864
0.000362791779389
0.00036947671634
0.00301773222108
0.00273705474594
0.000773543402689
0.000755937133708
0.0146166064044
0.000380201651719
0.000317526057143
0.000344038397652
0.000347273992465
0.000341085976093
0.000343642839062
0.000396243224623
0.00018246923422
0.00281649963095
0.000285534758336
0.00034490042164
0.00106882165678
0.000503996781101
0.00036731186561
0.000247289158362
0.000351000920548
0.000978132796384
0.000338594613105
0.000345502224647
0.00314285383808
0.00053974503721
0.000118566626959
0.00113992561775
0.000390981958489
0.000220120210613
0.00259059303131
0.00477999548532
0.0029425215274
0.00125350454994
0.000571172771637
0.000319718175597
0.000419226105222
0.000385698956256
0.00038685623291
0.000252065826404
0.000404097949285
0.000287485512684
0.00161021114891
0.000213133487898
0.000189761689012
0.00037717914673
0.000414816433964
0.000407637321861
0.000340058059706
0.000421653747399
0.000265828245826
0.00038418206884
0.00140776904344
0.000639370780433
0.000410549634112
0.00037619025302
0.000276633533885
0.000285180191545
0.000331533874269
0.000278810417575
0.000332548575826
0.00107527306564
0.000977237907772
0.00174360707512
0.0003702414725
0.00169934707862
0.000444345226412
0.000373965437254
0.000341926437145
0.0003437018881
0.000414525307904
0.000179161083738
0.000646036803464
0.000402114355348
0.000318132721338
0.000373890009658
0.000391156405416
0.000388921382385
0.000776922931512
0.000704164426113
0.000330525352436
0.000779581607787
0.000319749148327
0.000317823652552
0.00125592834956
0.00016561783372
0.00360456987879
0.00063205863621
0.00121448591843
0.000291205787991
0.00028924941644
0.000296025535984
0.000295013560151
0.000572657168415
0.000577322695793
0.000417404542675
0.00031339157044
0.0041821620929
0.000541872741072
0.000423967350698
0.000274290549355
0.000293707030666
0.000343799642623
0.000462298141279
0.000304763292869
0.000385799961972
0.000300975146702
0.00174495022309
0.000337859081606
0.000407897734205
0.000386800186732
0.000374955855879
0.000345956852324
0.000343734183674
0.000334271951618
0.00045900176213
0.000468922014552
0.00119457204977
0.000405456627851
0.00040488064276
0.000509919186454
0.000307227006143
0.000331563128028
0.000292847280258
0.000285211067715
0.000313778450039
0.000355647088528
0.000340396515655
0.000788406117138
0.000959723728286
0.00314121737275
0.00253886266633
0.000344131703942
0.000288862286559
0.000287922034387
0.000325625851333
0.000327047576265
0.000198676613396
0.000414452275233
0.000310219316621
0.00186831522373
0.000350411183615
0.000332540095218
0.000368109804974
0.000374870019441
0.000367820604163
0.00031860499756
0.000408866537607
0.000421839960315
0.000497576836353
0.000338508396453
0.000732269624813
0.000796371337651
0.000399940866561
0.000422146351932
0.000110992572216
0.000110473824629
0.000132302343069
0.000477881917481
0.000505281553266
0.0203243715
0.00332558604249
0.00052788495905
0.00503051798641
0.000212269326389
0.000193633694368
0.00053497436508
0.000459528117485
0.000263423162511
0.0153217607502
0.018034711637
0.00299433421891
0.00093268313319
0.000544650288267
0.000332155547529
0.000221456232457
0.000384213660144
0.000410733968163
0.00338663973543
0.00237058785908
0.000180111880559
0.00103230462578
0.00156877932299
0.000515233960333
0.000327834980938
0.00040256451879
0.000328247653173
0.000272338604752
0.000416731070711
0.000356249169171
0.000434040419951
0.000375483557985
0.000337030043231
0.0038786202729
0.000646920543772
0.00124677686771
0.000559143444666
0.000378134592838
0.000334763290738
0.000269087867197
0.000335886108274
0.00017469985904
0.000336353058893
9.98501111188e-05
0.000795710095028
0.00366788491677
0.00028152739161
0.00612851244534
0.00120518918316
0.000319660266765
0.000391839584279
0.000323066006933
0.000332140378523
0.00061704230924
0.00045961312011
0.000244992063254
0.000248574856237
0.00624213551582
0.000263622465968
0.191569409812
0.00767513680975
0.00415675395822
0.000382383994631
0.000331618260601
0.000310454580935
0.00158337069618
0.000290969714478
0.000504566094598
0.000300133844634
0.000321281128655
0.0963341876916
0.00626590135775
0.000294979532059
0.000264411599048
0.000245425477486
0.000246276056835
0.000306713528143
0.000310811750054
0.000308844633739
0.000317487762102
0.000676551105968
0.00193037583158
0.000413431747613
0.00289537419098
0.000256736277793
0.000307160473336
0.000335556666409
0.389647074613
0.00423467601012
0.0225080476251
0.0145056883583
0.00149564537917
0.0026362967039
0.000258462797805
0.000236105844183
0.000234488238229
0.000472982290335
0.000190027856139
0.00018305174851
0.00170742627592
0.000415590141237
0.000302922584269
0.000317014274429
0.00039391205821
0.000184334723577
0.000356903969461
0.000339656020215
0.000316547856999
0.000316166827349
0.000401121929029
0.000391610870783
0.00397236337046
0.388432297751
0.0204884514773
0.0131463879815
0.000404446580543
0.000399266797456
0.000419745254409
0.000297159059675
0.000406998227094
0.000360109607423
0.000487427099969
0.000404650061366
0.000406706147556
0.000316464616375
0.000299838656976
0.00025431685671
0.000342765690551
0.000325525904028
0.000320655441995
0.000357727801378
0.000361561036392
0.00024800729703
0.000394523781274
0.000289746350524
0.00185805207083
0.000272430750799
0.00052800543767
0.00055041041844
0.000343368872231
0.000327317983186
0.000396837667646
0.000334511651664
0.000292198053916
0.000403509371778
0.00038142975532
0.000394508951661
0.000379747437784
0.00167111775894
0.001368942021
0.000386410738854
0.000934929198254
0.00101774919277
0.000957213827522
0.000478295966078
0.000310542959884
0.000316542182936
0.000315121681164
0.0003215966056
0.000320520603245
0.00032058581225
0.00139847859045
0.000476007998553
0.00013195833768
0.000374475642399
0.000522368058325
0.00409001064102
0.00682256997554
0.00129550342092
0.000359756342518
0.000613627270026
0.000314875144232
9.98715694239e-05
0.000326386001609
0.000321736216655
0.000370172516121
0.00399337547297
0.000316796704844
0.000410594304413
0.00036601430617
0.000341795331183
0.000370532397529
0.000313486877401
0.00190945701985
0.00359442471276
0.00290543588367
0.000293417511201
0.000334155845275
0.000314158198039
0.000362106609786
0.00037987483624
0.000378242648677
0.000237158827229
0.000366822920043
0.0003890914351
0.000338894537677
0.000337697946852
0.000386791968854
0.000391948494549
0.000485423978667
0.000256758810277
0.000263343405412
0.000253265526988
0.000256064603242
0.00308662036191
0.000344898517746
0.000370141411165
0.000558869259203
0.000520573215113
0.000369945836394
0.000298895192473
0.00040182416696
0.000611154199273
0.000734348629684
0.000343392390769
0.000644879225535
0.000384055853851
0.000295626360572
0.000749691957173
0.00115186604534
0.000318148009399
0.000185172317143
0.000901333933003
0.000972288090606
0.000696108062204
0.00074324762266
0.000269813576084
0.000288070050276
0.000287071765549
0.000295720925777
0.0248404026924
0.00459771804744
0.000264269238971
0.00270446933607
0.000239369722202
0.000422522585831
0.000347410329399
0.000577547905191
0.000363496553834
0.000300955694
0.000419871543191
0.000271022832543
0.000377302503266
0.000372187469883
0.000320163286603
0.000356226073055
0.000492259387326
0.00026207722936
0.00347039087738
0.000297843017391
0.00040774551967
0.000320698875856
0.000285688467459
0.000628700151382
0.000386397608659
0.00104195709485
0.000328207955184
0.000329537248788
0.000330649006163
0.000329781698073
0.000670567808178
0.000299116264305
0.000331445478769
0.000343533819551
0.00029783853655
0.000469042778514
0.000432949853686
0.00027944148064
0.000278099720018
0.000366415271145
0.00103931827242
0.00849479392069
0.000865505796901
0.00173801340378
0.000329704073414
0.0015447695878
0.000500667245968
0.000358757866054
0.00051379207428
0.000294895946773
0.000262179061854
0.000426538916705
0.000314332097983
0.000365489282057
0.000365121000742
0.00905748217965
0.00459322245732
0.001473288061
0.00185037556834
0.00086471361969
0.00525629704528
0.000688510715551
0.00128002327305
0.000939407084119
0.000725038541513
0.000749277924421
0.000685688229224
0.00138745168781
0.000354360615224
0.00301339782158
0.000948007767551
0.000548003106925
0.000245285708354
0.000245831861883
0.000325426731034
0.000611662348448
0.000237706135127
0.000836462166265
0.000589575221654
0.000347662142666
0.000332196833448
0.000149997773117
0.000366080742271
0.000337331360003
0.000307730808338
0.000310332724541
0.00200678085609
0.000475394970269
0.000804935267355
0.000925303200201
0.00034014122782
0.0040664806306
0.00520768147164
0.000529317927155
0.000306092986661
0.000326292149954
0.000327559720609
0.000305908154354
0.000294996285288
0.00401934293771
0.0029676521609
0.000299520147188
0.000994597519495
0.000444138699309
0.000426718658428
0.000391543397818
0.00039087664956
0.000280985064291
0.00366379573233
0.0013158261123
0.00034312512963
0.000426206147616
0.000402012305668
0.000410566415837
0.000380508995166
0.000409731274739
0.000497693740025
0.000524286852934
0.000116657143679
0.000286243449696
0.00191798463449
0.00231359346442
0.000473394232181
0.000369700187909
0.00029035573498
0.00033049081067
0.000603008714294
0.000412939478039
0.000375229800305
0.000376665039639
0.000330644325153
0.000877621408724
0.00110810683079
0.000985623202269
0.00154003015155
0.00147949245167
0.000371401253323
0.00113657367228
0.0012570260583
0.000365029770488
0.000255454252761
0.00157577947393
0.000280658314585
0.000321478372781
0.000278812589809
0.000309363209969
0.000310701516704
0.0014179749792
0.00025108944967
0.00195890554571
0.000347580195453
0.000410756520934
0.000366542693378
0.000348672420641
0.000345093668979
0.000356914902517
0.000354712910487
0.000302815937098
0.000308448292702
0.000391913417649
0.000383531028627
0.000320856397857
0.00103441928172
0.000305283898771
0.000455575886246
0.000389064656508
0.00119745803316
0.000403459648913
0.000518404159984
0.00029915207224
0.000187731353794
0.00595592205954
0.00039532121247
0.00034149709573
0.000266933346219
0.000412130580954
0.00034528505244
0.000332222148351
0.000364091627189
0.00036755350397
0.000152228419612
0.000805832435201
0.000778810014881
0.000400936853238
0.000143583388638
0.000499285789241
0.00029090341318
0.000323277160517
0.000323563125772
0.000402792921324
0.000206423411008
0.000202011043703
0.000865636382935
0.000417008316961
0.000959368731479
0.000327280570448
0.000538488008847
0.000386254559763
0.000384215294076
0.00108874522581
0.000967760826862
0.000284862251058
0.00026087570363
0.00249593305808
0.00353285277446
0.00425342469584
0.000320659989156
0.000521471669021
0.000359751182512
0.000368201035975
0.000334049914923
0.000324643412424
0.000301075720496
0.000302917390067
0.000119347640704
0.000676246740458
0.00211390111824
0.00033140775356
0.000411021817522
0.00137062089913
0.00990782363641
0.00526279256579
0.00157887094595
0.00198349762664
0.000169721827686
0.000321369603843
0.000326052817926
0.000463232503651
0.00036524398834
0.000184379664869
0.000322242673653
0.000299449174242
0.000315831553899
0.000315941901764
0.00265395896181
0.000603998985339
0.000333357916681
0.000406831799
0.000350508428289
0.000368683250816
0.000694379486483
0.000381696242421
0.000334014605075
0.000460409205786
0.000372117386283
0.00258304142886
0.00202089894924
0.000845887816803
0.020252678112
0.00348861084886
0.000409510105151
0.000411655595178
0.000542752521272
0.000505784808227
0.000368439501486
0.000707143152422
0.0026141492874
0.0028639230768
0.000444096030531
0.000422509553907
0.000332119166634
0.0830426423835
0.00808045438468
0.0170259248652
0.000347859277838
0.000408265769152
0.0004039182029
0.000237068978735
0.00041186979809
0.00041399535111
0.00103052974284
0.000324140975089
0.000618103011256
0.000311138527229
0.0066736454888
0.034894227625
0.000710640982099
0.000303028164491
0.00124034625763
0.000355569429117
0.00190054898102
0.00153375112986
0.000692241586785
0.000727368173151
0.000426588984966
0.000360599852771
0.000427243580561
0.000351637108772
0.000337442342422
0.000335725160018
0.00034308136816
0.000526503262311
0.000410291921165
0.000410876540899
0.000298077178959
0.000587350982808
0.000395361019066
0.00287723004721
0.000376445773813
0.00165407183458
0.000104564535925
0.000313717703425
0.00011458820609
0.0023836340723
0.00310030808981
0.00236090435716
0.00211351496685
0.00785472674281
0.000325784596951
0.000342940097557
0.00417220395865
0.00061752194106
0.000377521083432
0.0295166379763
0.00281338598115
0.00366774680344
0.00248719433576
0.000268075357896
0.000313623596751
0.000425892559286
0.000332574289504
0.000299336564004
0.00198530776452
0.000162944625211
0.010308045882
0.000494502882654
0.00070888980921
0.00585406604118
0.000723542909384
0.0013792884785
0.000289325166442
0.0015332091322
0.000325103126557
0.00036505121178
0.000192796076857
0.00034864353361
0.000305888586261
0.000995974442388
0.000579150476608
0.000370803235261
0.000322027408023
0.0337424246258
0.00183425177042
0.000741440364891
0.000452748917269
0.000344386937582
0.00029257762488
0.000290895865611
0.000347216645636
0.00035739654463
0.000353884384151
0.000700087950038
0.000523056747102
0.000271287743702
0.000403060060051
0.000409172807689
0.000410886376168
0.000288346312162
0.000289084393185
0.000320773061861
0.000317535197552
0.000287382122309
0.000874428937598
0.000458594076901
0.000316795779698
0.000988936939664
0.000850148304324
0.000299179380822
0.000297200414491
0.000207407973313
0.00108229223854
0.000509052838745
0.000826694532736
0.00172367953789
0.000218012173644
0.000293092239048
0.000375152951683
0.000399299967865
0.000366216214309
0.000280670445
0.000393496770033
0.000331716717897
0.000351042091669
0.000302131831887
0.00030158433802
0.000331948457686
0.000332141533197
0.000335695829812
0.00033240204757
0.000295141111483
0.000414418870397
0.00100148081526
0.00112234307299
0.000922031419974
0.000989260314428
0.000473445204701
0.000505677658291
0.000368380580101
0.000276858614607
0.000360421742272
0.00282481102311
0.00213893886731
0.000410615917971
0.000301567572702
0.000345551106837
0.000337509486914
0.000276252365435
0.000312186403864
0.000390303724696
0.000372140094313
0.000872764757578
0.000334761045575
0.000286256900983
0.000132085210792
0.000350111342037
0.00035307459291
0.000375255923302
0.000304165596187
0.000303592835324
0.000421505755616
0.00198645847287
0.00076989117385
0.000465980968898
0.00027061951578
0.000268107207321
0.000445910463863
0.000373411843279
0.000960126155953
0.000386262147166
0.000382986959412
0.000252248843173
0.000300245451556
0.000402141897165
0.0004914708174
0.000420529749226
0.000413042988133
0.000316768370051
0.000868155507988
0.000996260779746
0.000441970049872
0.000694117253955
0.000261506871715
0.000379454798833
0.000305014937484
0.000647096655929
0.000523343487761
0.000384550330767
0.0034020185261
0.0620621994575
0.00523844877147
0.000297981285981
0.000309641649611
0.000220694065367
0.000351429396812
0.000312462502871
0.000352330249999
0.000224867960238
0.000336494785657
0.000256810039636
0.00158938504635
0.000700104233564
0.000434247889302
0.00106742059279
0.000491332460892
0.000206673630283
0.000206481327466
0.00327253367762
0.000313337266521
0.000263633690855
0.000195373075568
0.000413424945683
0.00139278857733
0.000334897731471
0.000385520165788
0.00184064358546
0.00178349530853
0.00034889931142
0.000240463836343
0.000241534471709
0.000158242236278
0.000398841416028
0.000374565263887
0.000402138265551
0.000250011485059
0.000423546716383
0.164370650083
0.00618663379167
0.000441855213447
0.00400305942701
0.000296210160653
0.00463469527711
0.00039993408612
0.000273688908886
0.00040191611199
0.000779169135355
0.000333619334037
0.000243685080736
0.00039727277841
0.000308420109016
0.000304895996164
0.0107682498587
0.0026979515753
0.000231537634195
0.000391689903482
0.000451002036433
0.000312942701111
0.000414896135755
0.00039742856843
0.000990679848317
0.000286695892288
0.000309966188076
0.000313990286463
0.00043322621077
0.000330886879329
0.000285918050652
0.000229984519748
0.00045014394097
0.000614508957535
0.000557238197716
0.00035467980172
0.000318513208849
0.000315491237489
0.00027389274171
0.000269337546348
0.00022147115081
0.00056144285407
0.00057758814449
0.000351534714456
0.000508249202525
0.00167142192246
0.000318099844644
0.000316115619425
0.00115858790577
0.00125679127293