/*--------------------------------*- C++ -*----------------------------------*\
| =========                 |                                                 |
| \\      /  F ield         | OpenFOAM: The Open Source CFD Toolbox           |
|  \\    /   O peration     | Version:  v1906                                 |
|   \\  /    A nd           | Web:      www.OpenFOAM.com                      |
|    \\/     M anipulation  |                                                 |
\*---------------------------------------------------------------------------*/
FoamFile
{
    version     2.0;
    format      ascii;
    class       volScalarField;
    location    "1000";
    object      pa;
}
// * * * * * * * * * * * * * * * * * * * * * * * * * * * * * * * * * * * * * //

dimensions      [0 2 -2 0 0 0 0];


internalField   nonuniform List<scalar> 
24444
(
-1.18015309891
-0.434151856247
-0.607580251856
-1.35603484255
-0.804432312687
-0.606751081859
-0.917803955718
-4.65340252078
-0.828036276195
-6.0614061181
-1.69692118864
-0.0990402220792
-0.0417561220412
-0.508855832929
0.0237294156557
-16.8081148202
-0.773860353068
-0.656242564303
-6.15921704613
-0.154042787084
-1.51079288972
-9.39493225004
-9.75597982071
-0.458885488
-0.461938596073
-0.821229680056
-0.812346367696
0.00659489168566
0.0200983186858
-0.582255588154
-2.85323308023
-0.800082048795
-0.605068580663
-3.43923709009
-4.08647329741
-1.63281458833
-0.38184766241
-0.414214414709
-1.61803247461
-5.72577277153
-1.56029659163
-5.86815108628
-0.63914013401
-0.638335402652
-2.78920134553
-0.393759712825
-0.276794311336
-1.64955258667
-0.91532444004
-0.645449314128
-12.605171708
-0.158358913042
-0.643828480579
-0.0874046215682
-0.614092225355
-1.68038121528
-0.253340634772
-1.66852239442
-3.26039924237
-0.576403820775
-0.575130064519
-0.575968588881
-0.635557960845
-0.630104856493
-1.74260537212
-1.70314331073
-0.551857012175
-0.65881043231
-0.389589964738
-0.669850476585
-0.666683146776
-2.66061771969
-2.04239755636
-0.368628167479
-0.646638963862
-0.512898567048
-0.719639444954
-0.630658265266
-0.186595338009
-1.62584493465
-0.671497342651
-27.6687883771
-0.69383106606
-0.599245425373
-0.0336316430264
0.100908232965
-1.48997030328
-0.445202576285
-0.832883319214
-0.449786743837
-0.505998486139
0.0239635087177
-14.8946958987
-0.775176071033
-0.157862029317
-0.575158663921
-17.6276743233
-0.0393846913826
-0.489657124285
-0.570549351767
-0.451419093116
-0.296884701159
-0.297313533828
-0.718714168437
-1.68199915483
-0.902365006277
-0.911559729313
-0.637034449653
-0.636775846435
-0.559401439772
-0.607020551827
-0.413334729274
-10.8698236772
-0.474001680774
-0.576117109768
-19.3913921284
-0.0373475812589
-2.48248653784
-2.65424659983
-0.31295183933
-0.313968678197
-0.657348949383
-0.657262839567
-0.628606416167
-0.628501526965
-0.639027847122
-1.11889410979
-0.280136764061
-0.656021829598
-0.763062683393
-1.86802903718
-0.658038991479
-0.683475231546
-5.77319323568
-5.88076422499
-1.60895999283
-1.58073290346
-0.924643667388
-0.649128782335
-0.359180843326
-12.1178909082
-0.449097584552
-0.898084238365
-3.85905797343
-0.665408294945
-0.491783945296
-0.681701487183
-9.92851131282
-0.645030333993
-0.541069760068
-1.63988197736
-14.0891919572
-14.7674700892
-0.680986774649
-0.664851901703
-0.710392041473
-0.70991375654
-1.48578147736
-1.44240073415
-5.07895300327
-5.38332629687
-0.886330341362
-0.669826028315
-0.706982394714
-0.545397618896
-0.822666784346
-0.832786642771
-0.691424167531
-0.682940766419
-0.632264168199
-1.1580583314
-1.27271093939
-1.27312200037
-2.31793673903
-2.28148423018
-3.07663779085
-3.11895964386
-0.64969158814
-0.648701821594
-0.364016230334
-0.36087650901
-1.85350719335
-0.659887543217
-0.925624718997
-0.516306107307
-1.07000505884
-0.643902709929
-0.644240741566
-3.66262357574
-1.10914134419
-1.14239359861
-0.648542709827
-0.360778923826
-1.99899457522
-0.910714984701
-0.618600362077
-0.436751700764
-1.19915996538
-0.552347063074
-0.289365075144
-0.625175902381
-0.199375153908
-0.538844119757
-8.70310687982
-0.817636312227
-4.23616938008
-4.46676915271
-1.58946330392
-1.56722583018
-0.342286861032
-2.16777259229
-0.670552095499
-5.86469513395
-0.908236737023
-4.2189023873
-0.608163663688
-0.152503176873
-0.703047906203
-3.45350146139
-0.82785651433
-4.53531128047
-0.664674762961
-1.59038055018
-1.25666086099
-0.644760059772
-0.645010164039
-1.5018357457
-0.557894709881
-5.16211602375
-5.16539003827
-1.61711911282
-1.60143425307
-0.153261807212
-0.178548467834
-0.372723914009
-1.0663898137
0.175109710735
-0.610888161043
-0.511602725188
-1.61924291588
-4.83679347574
-0.65013366343
-0.409791539239
-0.873350605324
-0.645964890367
-1.7007038949
-0.446310860106
-0.654073135239
-0.851364906177
-3.77752766086
-0.453844520458
-0.902174191623
-0.625521264719
-0.581755754904
-0.490503679269
-0.646515497064
-0.646601269656
-0.849014303532
-0.643888372737
-1.10653149174
-5.60679741244
-2.10319379299
-9.25638615964
-0.457378590887
-1.01947893042
-6.6808519824
-0.155690484358
-0.608682065517
-0.644402264505
-0.633050769483
-0.651123155464
-0.342489789434
-2.4839782564
-2.08779656277
-0.366496769906
-0.647153144352
-0.323938310544
-2.4696687508
-1.69114888767
-1.69641598931
-3.16617628407
-3.28468247128
-0.823179628734
-0.641706346254
-1.00401077971
-0.379253748231
0.17114829042
-10.9940627765
-0.63964496678
-1.6886006914
-1.68866352757
-1.80799692338
-1.71866914421
-6.7184477393
-0.633868427661
-0.298759512842
-1.59347256588
-0.231614892426
-0.23970066381
-0.465664688162
-0.457709018199
-0.944578217164
-5.43883212379
-5.81939667739
-1.70478947987
-0.677378875209
-0.677833624712
-0.819792649537
-1.40345082585
-0.876363269232
-0.966944221043
-0.372224439807
-1.30780298984
-1.606249223
-1.67971089391
-0.615687763028
-0.448789825189
-0.636953885892
-0.706841162042
-2.0012776759
-0.112396971459
-11.8445884669
-0.447878486172
-0.896214315618
-0.657197826439
-0.618716731284
-0.542059113015
-0.432576900661
-0.453819606293
-2.23210622653
-2.19663617925
-1.65117318931
-0.615112135589
-0.838279610875
-1.98736608232
-2.03793934142
-3.89258528453
-3.77000070106
-0.644834525109
-0.645193305313
-0.934233581143
-0.847302935058
-5.25413101368
-0.537443829604
-0.951710078618
-0.691130157135
-0.711506551946
-0.585763125799
-0.653709936059
-0.654434369444
-0.391574639416
-0.999226856474
-1.82253987245
-0.671877056075
-1.92485248903
-5.58954938265
-1.27878586363
-2.26834562185
-0.653895419713
-0.62509166355
-1.74668242327
-1.7241707829
-0.243036596892
0.00277710225365
-0.496702480366
0.00281654401517
-0.493891264935
-0.61913728929
-0.643691685046
-0.330876258094
-0.325324340996
-1.69137856493
-0.653454456449
-0.419397494076
-0.51615564237
-0.596029062502
-0.632066786552
-1.62934399949
-1.65814827748
-0.529727027483
-0.529108036132
-1.91760262661
0.152111285649
-0.00933224039946
-1.6439574923
-10.6017948109
-1.05832462072
-1.57352235772
-1.54931423984
-0.799435345356
-0.78144076356
-0.735287791336
-0.587213562563
-1.94755926766
-1.92501489357
-2.42511089744
-2.14802188003
-3.86266929582
-0.66035239272
-0.457381596744
-0.927246718739
-0.418830832128
-0.42344493364
-12.5858954486
-4.21062340402
-1.82875363143
-0.604251366885
-0.582927209688
-0.581263887738
-0.3753802491
-0.372635252733
-2.07428868551
-4.45889659861
-1.58807239926
-1.58127023151
-0.639850989805
-0.610897693817
-0.549160205821
-3.5806689872
-1.5269535601
-1.51509136582
-1.88909932865
-0.953753796653
-2.41998651173
-1.69511083863
-1.69571969788
-1.70709282147
-1.60406532055
-0.656668685511
-1.44152713325
-0.56435806064
-0.865404592147
-2.49811518823
-7.7391415322
-8.14153212777
-0.510920061077
-1.8439979697
-1.81836460532
0.14149896939
-0.0250431307163
-1.04290448405
-0.394846173775
-1.67004926988
-0.532634053665
-0.529506997907
-1.98128922217
-5.16560724086
-1.85587380753
-0.64131944058
-0.422555107165
-0.708401215333
-0.887379114346
-0.120662116116
-0.464345213955
-0.46739458975
-8.3355669051
-6.75246803979
0.0776710991639
0.0775434314355
-0.810798493079
-0.811803054711
-0.385971763114
-0.0831419922762
-1.64164876595
-0.350679022722
-5.19302251829
-1.5360999679
-0.668450530559
-0.563705084596
-1.64193596874
-0.365649388226
-2.27026912716
-2.33896927338
-0.62884356789
-0.119080008744
-0.643015021311
-0.374607056754
-1.07181372664
0.178116538772
-0.438782642608
-0.710284873079
-0.608743680031
-0.70125447806
-0.703585830608
-0.53621042066
-1.36940504279
-0.779324213733
-0.791065978653
-1.35574013772
-1.32003519007
-0.647212761258
-3.22604238329
-0.64491503597
-0.194519318506
-0.198969383331
-0.583390973711
-0.585527453015
-0.764907429949
-0.55027878905
-1.69876742111
-0.41314777131
0.0184213298239
-0.701055582131
-0.648005284828
-0.766550762484
-0.431780188337
-4.1648771895
-1.68384768648
-0.445539930594
-7.16318903685
-0.644832651964
-1.48866081862
-1.27421694886
0.121080209893
-1.22331278441
0.140190569656
-0.357794904991
-0.359499019715
-4.26196751642
-4.36459426299
-2.18594865858
-2.13717328905
-0.647998352471
-0.646815068933
-0.593592522824
-0.578016318107
-0.673237880602
-0.613428359034
-0.257844306835
-0.566461566717
-3.08625804559
-1.65454152907
-0.000691931607271
-0.935374776222
-6.56624864687
-0.373651162665
-1.07006692142
0.167637742307
-0.606801371762
-0.634460936369
-0.539269798686
-1.62865585481
-1.26494036721
-0.613523814758
-0.463685621257
-1.59893633491
-2.99088167739
-0.659173691814
-0.302477165037
-0.627036639762
0.123569755571
-1.37833889398
-0.64932823779
-0.350428780343
-0.342454442149
-0.194876949415
-1.44824907893
-0.624413007108
-0.601568385479
-0.64792737812
-1.68189384731
-1.52300541173
-0.705819211569
-0.589183924396
-0.706108251021
-0.588700937736
-5.0284038781
-1.7525001658
-3.15854790244
-0.660029260802
-0.296790053151
-0.626306009414
-1.59479108248
-1.28166567004
-0.463645479442
-0.386632080074
-5.30955064998
-0.643412490647
-0.662678628826
-0.661566194374
-30.26232066
-0.700237611448
-0.593606442552
-0.0279818109936
-3.28156953547
-0.833316705733
-0.392267087253
-0.693743838008
-0.670457134851
-11.8957357709
-0.994202843971
-3.82941805718
-1.34420913721
-0.635042364702
-0.344981634312
-0.693543063113
-2.10316318967
-1.41285489772
-14.2174731586
-0.807794071055
-0.558204066767
-0.548376968157
-1.40768693121
-1.66881523347
-1.65247752352
-4.01180700215
-0.605758429647
-7.88657917301
-0.755381716137
-0.742341983636
-8.70382681202
-1.12251787688
-0.424603168842
-8.63727829695
-8.28037682286
-1.6787804663
-0.504759767879
-0.460713920771
-0.447796955442
-11.9434034395
-0.912845813938
-1.71689957202
-18.7650175674
-0.628364613288
-0.770937210675
-0.749824976197
-0.869828660374
-1.66768633792
-1.6603357047
-0.843488705062
-0.381633910335
-0.796793382372
-0.764784630826
-14.894091045
-14.7010502927
-0.740964180015
-0.81588969518
-0.417766144106
-0.0772226658933
-1.68839177879
-0.326063157308
-0.321682041444
-0.441420208593
-11.5508732652
-10.9744321416
-1.02269186156
-1.00726278651
-1.64570114278
-0.423504232396
-4.525060954
-1.74279024754
-0.393436079885
-0.659135078323
-3.42082449614
-0.657283238547
-0.40519508739
-0.559840974386
-1.83289390691
-0.720224934402
-0.372531485457
-0.963374918257
-1.07523285968
-1.82018528731
-0.063708992492
-0.058656527346
-0.731248385954
-0.732321614417
-0.561139192635
-0.562639411367
-15.2890582511
-0.544649619167
-18.9663882159
-1.35615625997
-0.689690495071
-0.825687255052
-1.63397685042
-3.48584231767
-4.79793113104
-1.77905230939
-0.109678954923
-2.01204771065
-0.418778507351
-0.562335601404
-1.96303186249
-2.12506148078
-0.550148254123
-0.803460222001
-1.18025464761
-0.648103101774
-0.660842977019
-0.277623684261
-1.71114308915
-0.642125533024
-1.02646244722
0.186605738788
-1.01496077392
-0.56362081542
-4.58598569995
-0.648083047635
-1.91263728474
-2.08235130041
-0.349743185059
-9.50785601225
-1.16368622152
-0.438653129695
-0.638611912632
-1.08190627006
-1.20606421611
-0.515722078657
-1.40116605542
-0.511934545896
-2.16500096859
-3.71602140582
-0.662488524384
-0.570503590474
-0.573274538015
-0.641944908122
-1.02368427672
0.182926772514
-3.53281697657
-0.874462150983
-0.599907036144
-2.08939128307
-0.653595334922
-5.33758604921
-0.609158400918
-10.6719310813
-11.1023478113
-1.01162259112
-1.00885210485
-1.69290386085
-0.548264631257
-4.84262438968
-4.77743633072
-0.665868720395
-0.667356902668
-2.2262339604
-0.607347694396
-1.61932859409
-1.10972203167
-1.11132850185
-0.547588146865
-0.549067108478
-1.72558869558
-4.28512187015
-0.616551442761
-4.14827890684
-1.67223486475
-8.85933957598
-1.18652591206
-0.438679716684
-2.41533604416
-1.89753816278
-0.54585236359
-0.589748500839
-1.80596037366
-11.9239247735
-0.608958470869
-4.45999931952
-0.827588363255
-2.64253432959
-2.57020747603
-13.9403413259
-1.27296672006
0.105003668997
-0.358440645424
-0.592904071805
-3.25772753049
-0.858796865295
-0.559255360607
-0.655849875388
-0.0244506961177
-1.70218222138
-2.28282102248
-0.306162095768
-3.65513194259
-5.08163887625
-1.86983128264
-0.263975427611
-1.68566638929
-1.63046435014
-0.833161713521
-2.99100314152
-7.65679470962
-7.58797925194
-1.14143731922
-0.418409690684
-0.562845350905
-1.81008489559
-1.96229746134
-4.85733919158
-0.642944951176
-0.717258111349
-0.572863418915
-0.571781787304
-0.617055340962
-0.601795428998
-0.618009772494
-0.519085509149
-1.80334488573
-0.611092045198
-0.613463078238
-0.89763263494
-1.55539295494
-0.343687187937
-0.48231887069
-1.67905074581
-0.72233116303
-0.717159462915
-0.701825370002
-3.00441475734
-2.77999168943
-0.0622780346183
-0.3806386908
-0.610308898101
-0.61153462636
-13.9493677559
-3.97356153235
-6.88063875611
-0.425313933984
-0.936829216807
-1.57844903009
-1.57884999999
-0.988355347053
-0.916571590888
-0.642719682837
-0.643049222571
-0.709232373114
-0.510499487473
-3.15195653994
-0.529355605018
-1.17940295524
-2.43832604009
-0.651651694734
-0.931415925315
-1.24014605491
-0.62546891776
-0.769207716254
-1.65440299244
-0.964994484553
-0.428486529335
-1.61235327231
-0.557995143682
-1.85998270066
-0.459816803692
-0.5960304126
-0.567806478104
-0.641779860824
-0.642116073952
-0.418025238511
-0.8440770989
-0.819748478609
-10.0096497649
-5.9043238731
-6.20542295864
-1.54681061947
-1.60552934547
-0.513643569478
-3.30995653706
-3.5176112645
-0.643014485241
-0.37463574701
-1.06146298812
0.175407200531
-0.633451712222
-0.807896215291
-0.77840659613
-0.522898736832
-0.519729749464
-1.52547141704
-0.664657111267
-0.348248368935
-0.781394448909
-0.613081209404
-0.772591253577
-1.66922068311
-1.94423577012
-0.600358569446
-0.676835892641
-0.655069098436
-1.24641667266
-0.59220291335
-2.13604978492
-1.08358131455
-1.03951028703
-0.63742275165
-0.636964582713
-4.49410044293
-4.45302460925
-2.74448926284
-0.553054043954
-0.605190001797
-5.87317749217
-0.861564641962
-1.81555216754
-2.99582110407
-1.63250041631
-1.56485556274
-10.500003866
-1.00755160234
-3.04773870105
-3.013793181
-3.33330326124
-11.3138176939
-0.987105765087
-0.443326607494
-0.652556014348
-8.35610241962
-1.68519951949
-0.748289959527
-1.16828248441
0.123094165947
-1.55925598106
-0.413028002925
-0.659867120974
-0.47236952863
-0.648692143113
-0.677949182035
-0.801414130663
-0.136842048027
-0.551424958206
-0.657019946417
-1.44068096917
-0.600684013694
-0.693752843
-7.50999655679
-0.42783609731
-0.943431272767
-0.531438595765
-0.334515981115
-0.349765614411
-6.77789889339
-0.133682201061
-1.53916297459
-1.62656392913
-6.48410653827
-0.97303073442
-0.916175424465
-2.61763765107
0.162008371086
-0.390808254286
-1.68828266148
-0.449300606201
-0.559808467402
-0.644551273733
-0.789357024239
-0.517184895366
-2.70405484064
-2.60091380584
0.0423752667726
-0.0203053741676
-34.0124255249
-0.720257449061
-0.574310268337
-0.461310988063
-0.586632646948
-1.20467258158
-0.588790954424
-1.67950245424
-6.58779312256
-0.633591320634
-0.403147089326
-6.80938189926
-0.821256291349
-2.41853027152
-2.96748319844
-6.81078207904
-7.00315473408
-1.30695168379
-1.29184301586
-0.643476433265
-0.546936479477
-0.582035370965
-0.46206970674
-0.119607514391
-0.571028306335
-0.0286553067886
-1.27606957106
-1.45832798078
-1.07357386792
-0.456404240918
0.0914776020033
-0.818020217374
-0.306961617592
-0.572077781347
-0.0315136818231
-3.41607244008
-3.52427940553
-0.295785325317
-1.50531970939
-1.48374393841
-0.925614993217
-0.709325695103
-0.68096176283
-0.542279757767
-0.603606670731
-1.49965558209
-0.972746926223
-0.586998012241
-0.608514761543
-0.610635980758
-0.655132554787
-0.45276599609
-0.458897448624
-2.00622800972
0.094388906025
-0.818586206032
-0.950727264752
-1.74084686991
-1.61082644415
-0.355919942325
-1.69542666578
-0.553476156802
-0.640558958177
-1.75621790838
-1.7514507854
-0.632928704372
-0.443065145485
-0.0621225703052
-0.456180598194
-0.776317132335
-1.31434231804
-1.65202835276
-1.66479381732
-1.93954753131
-1.79707899001
-0.435566003478
-4.38924421482
-10.7513670645
-1.60669713642
-1.7368566154
-0.374879958367
-1.65542445524
-0.537786699828
-0.623970170933
-1.78732337883
-1.48885570234
-0.615628503706
-0.500619417652
-0.520665049968
-0.689527068612
-0.603061166494
-0.86984283025
-0.698035397649
-1.16802576233
-0.135178773917
-0.375371559597
-0.202750573865
-0.220849376342
-0.225823702521
-0.582836805165
-0.58210865572
-0.58402135188
-0.543474268936
-0.390681256794
-3.68577368295
-0.649548463883
-0.4059724189
-0.919945000858
0.159437074619
-0.390378093596
-1.68647367652
-1.47860603024
-0.624177466481
-6.35713659391
-1.53146088162
-0.336324600504
-1.66828733423
-0.00502998421576
-0.487078145013
-0.964489752428
-0.411692169224
-1.66518413448
-0.4569247142
-0.622891560923
-0.0869318487685
-0.684032987491
-0.60749149819
-2.55050392633
-0.386772096489
-2.1084294873
-1.9404793411
-0.512273155763
-0.516440973863
-2.94505216995
-1.52682848737
-1.27093210474
-1.00444656533
-0.993001343866
-0.801496133388
-0.492339574542
-0.606906699321
-4.63451155928
-4.55111009209
-1.91808266119
-1.89679399448
-0.819493583613
-1.64864532861
-0.617380094935
-2.41964542036
-0.678843498055
-6.12908504515
-1.5323318545
-1.03627919848
-0.144856094126
-0.503490675499
-0.705197348069
-7.49594033909
-1.34191937475
-0.632112008173
-0.468601081423
-13.599902226
-0.630866732077
-2.61326774775
-0.718521891944
-0.71881303179
-0.578755750859
-0.57744863915
-2.37272326129
-0.641699932997
-0.640730296655
-0.654534336641
-21.8885128554
-0.720009082806
-0.0327526064097
-0.57470184885
-3.4397325505
-1.55765280175
-1.16731303049
-2.74217951759
-1.0061480296
-0.65563581078
-0.55420750457
-0.126994358232
-0.645930770181
-1.7041431984
-1.6073851115
-1.67472728851
-3.53549632062
-2.20325873827
-13.3504628914
-0.0571008116416
-1.59127323945
-0.637221421121
-1.65482436857
-0.664636888377
-0.677244306949
-0.201615439107
-0.828105751025
-0.810977531596
-0.47360880043
-1.01070531554
-0.971442483489
-0.654617165677
-1.03844645754
-0.326628729039
-2.53284908057
-10.1354181131
-1.01355637394
-1.75976497141
-1.74572308932
-0.791083090121
-0.622684899493
-13.2598961066
-0.457497416101
-0.863298577401
-0.389596699872
-0.560240662208
-0.391993006728
-1.53621499388
-5.84976297265
-0.63788023121
-1.64512016026
-1.24156849531
-0.612950731983
-0.651545325677
-1.54422514309
-1.43267168984
0.104361713175
-0.649798682617
-0.348600820552
-0.714640248534
-13.0362784713
-0.454694855339
-0.919365756273
-0.71542413852
-0.580885750898
-0.38066491292
-0.181583674425
-14.270537538
-2.01533990142
-10.9101945649
-0.969819768389
-0.439914735151
-2.01058169021
-1.98710170197
-0.78064735356
-0.665606017318
-5.77527879877
-0.643602749225
-0.669714442491
-0.614323319012
-0.364782304532
-3.14375044388
-8.06872936327
-1.24343683033
-0.481309682452
-0.480567103736
-7.798008537
-0.422011697494
-1.0478118257
-0.217677786293
-0.274705203272
-14.7273076427
-15.1731660296
-2.68452118919
-0.481721055295
-0.583063308684
-0.580673327628
-0.483219109458
-0.158606931032
-0.69213674294
-0.600887774393
-0.17778949949
-0.696832417689
-0.699240643661
-0.697882842619
-0.608282248355
-0.64008294274
-1.67467504474
-0.723900539865
-0.674607802615
-1.67040849364
-1.19776240579
-5.34272068783
-0.607486784447
-1.83914302127
-1.40301142116
-2.28963569728
-0.680301817289
-7.89629367172
-0.179577170773
-0.159551691925
-0.110096695952
-0.167617839143
-0.692732984832
-0.148253526627
-0.259797035421
-0.760451265951
-1.5271674283
-0.374968643464
-0.379128025976
-1.66561414456
-0.735423813231
-13.6642839485
-13.3264377491
-0.765674202576
-0.773393012316
-1.81365145423
-0.623090631535
-0.409245766112
-0.338696994335
-0.0626916561092
-0.743187621518
-1.97667935925
-4.81353426036
-0.643700567772
-0.251901197447
-0.251875270977
0.02119624925
-4.11984308646
-0.454707286589
-0.5824518012
-0.586818374238
-0.611673245908
-1.65512605648
-1.70176098027
-0.526739762825
-0.524334926508
-0.357578809881
-0.356916523706
-1.4668539098
-0.654437005851
-0.623649917156
-3.33082427453
-0.653213906607
-0.724474845405
-1.68956779784
-6.82080569133
-0.509224081759
-6.54083335854
-0.634740214651
-4.38227553842
-13.5553637839
-0.622915918637
-1.73383047239
-3.67488060801
-1.17706469573
-0.311490417006
-1.85060824281
-0.438145267424
-0.435408126104
-3.65706524914
-0.19557765293
-0.205962107766
-1.62774285106
-3.21333389932
-0.593751906085
-0.416260729527
-0.578406272422
-0.57630073184
-0.944345043095
-4.14818705833
-4.30171908141
-0.835153047636
-1.68211360297
-0.782590836947
-0.474491185218
-0.587304294751
-0.611513494368
-0.610161581977
-0.467102555585
-0.468144718622
-2.35089340509
-1.64640330362
0.14199834843
-1.1258567221
-0.723898157741
-0.638757860842
-13.333967192
-0.415032781266
-0.53118240431
-1.32551702387
-0.676055882859
-0.661814951794
-0.661847634569
-5.80071884525
-0.383059128031
0.170138848572
-0.628731829515
-0.616979553175
-11.1364034206
-1.3050376074
0.13397061979
-0.648518868575
-0.353869805029
-1.52015872739
-1.67490916894
-0.575488372332
-0.725886428903
-0.618121668589
-1.54535539935
-0.431727071766
-0.46031512739
-0.53607284967
-0.533706123315
-0.194328849487
-0.685671568757
-0.393268137275
-1.39265560594
-1.65846480795
-1.58749703989
-0.485489603189
-1.68541750494
-0.374151184632
-0.670445267883
-1.84712360648
-1.10078345472
0.14198199462
-0.372116809016
-4.83380313213
-0.854746353806
-0.721698121054
-1.58046123579
-0.668876645774
-0.669246276411
-0.412403451429
-0.641188632336
-0.987387038519
0.193564814763
-0.397698399373
-0.396166706257
-3.08901191636
-1.91211936146
-0.829567931183
-3.92456395478
-0.578451017257
-1.15052231013
-0.495300206447
-3.11250289954
-0.779262367251
-1.49095685778
-0.639564404488
-1.61254044325
-0.112180046089
-0.674488797692
0.0444926383765
-19.2649541221
-0.0558316083154
-0.45193022403
-0.812602039096
-1.60230689314
-0.689833536455
-0.602914055012
-0.689993131831
-0.688335491338
-1.3388105242
-0.454472495206
-0.64192401835
-0.601741638336
-0.329757615536
-0.310334556879
-1.04384385826
-0.607441080654
-0.595626377122
-0.607550186254
-0.658114933076
-0.615839105887
-1.40290708817
-0.013619594228
-1.94281482724
-0.341140723565
-6.27474702131
-0.657217106667
-4.18418501204
-0.650497262494
-0.345112118643
-0.408179656796
-0.633600364045
-0.876474219608
-0.642927032521
-0.678324848002
-0.012383187611
-7.11582391547
-1.38872569469
-1.5517441856
-0.651909668258
-0.338316906952
-0.632518745042
-2.96932204046
-0.631808175875
-1.31038645452
-0.339632840889
-1.11787766721
-4.62860791998
-5.27983484947
-15.231528117
-0.151937678993
-0.252080893555
-12.6791762343
-0.45256097284
-0.917757314875
-0.649738465751
-0.92943301042
-1.73539159471
-1.49873762272
-1.5122015861
-0.624589025417
-0.624846300486
-11.7606131462
-0.972571691526
-0.563060463018
-2.27547668406
-23.3441449954
-8.56680888036
-1.05095688506
-0.42426431767
-0.69026912595
-0.649959927745
-0.634722536627
-1.7968221092
-0.566624639277
-0.566115480507
-11.2325693374
-0.963049321702
-3.73478751923
-0.554374860763
-0.559952868711
-0.574700689352
-0.787411766825
-0.883567334637
-0.524250314451
-0.522799911385
-0.175361930995
-1.0166363709
-0.635021631423
-1.66636115125
-12.5968946982
-0.602792543959
-0.660606713995
-0.658860574537
-7.69173601238
-0.0136656025382
-0.376873772498
-0.215214027066
-3.16797097237
-5.17633638739
-1.51156645319
-0.632182044781
-0.631706872926
-0.452120265032
-0.391076103728
-0.580198177378
-0.470976061572
-2.10643087474
-0.641392635643
-0.642737490953
-0.667051203008
-0.668588833388
-0.511149053455
-0.51371275512
-0.652559386278
-1.30679215253
-1.22252149191
-1.21754246825
-0.197254570826
-0.145895130005
-0.374125317351
-0.372606588944
-0.534838865101
-0.381414840245
-0.755974393815
-0.560637911908
-0.833000275133
-1.58629984524
-1.17893701684
-0.240401309191
-1.3418845234
-7.17748541318
-1.32138331812
-0.623900273734
-1.96950044145
-0.786643133652
-1.4726971793
-0.417763567668
-4.02730228881
-0.639290613397
-0.641151313006
-1.6770962153
-0.349854869986
-0.345906870952
-0.875305972246
-9.01978450528
-1.03006009016
-0.426916039716
-2.89029580977
-2.94724404695
-12.8423656749
-1.00912618714
-0.602824914337
-1.27444918976
-1.25757351802
-0.0235344407011
-2.41114225878
-1.77939978273
-0.546909634998
-0.826053259737
-0.625522857835
-0.674772065757
-1.053220121
-0.15462843154
-0.381213464834
-0.667590447964
-1.56693319945
-0.610706626442
-0.645443053355
-11.2592348415
-0.947017016095
-0.0369424412387
-0.58917027869
-24.6599025969
-0.705055880179
-0.658941263611
-1.67213890146
-2.64688157831
-0.901269894415
-0.616039502141
-1.66938949989
-1.61462836035
-1.5482627069
-2.11042622599
-7.15215518148
-1.10828432352
-0.418090887025
-3.50086947973
-0.662307621053
-8.59124269536
-8.28668538771
-6.27539238332
-0.23524792352
-1.73010855528
-5.52994234434
-0.65279023542
-0.475332127654
-0.488769507252
-1.69774389584
-0.674538953848
-0.675946840711
-1.6676620937
-2.13110361964
-2.10767514188
-2.43080189798
-1.81651695819
-9.61191097993
-1.01541313208
-1.72480923858
-1.18412489086
-29.9200845643
-0.701992364031
-0.0324172772728
-0.591976671731
-0.358078445173
-13.2557705154
-0.636336035546
-1.84775199746
-1.53498803754
-0.64333786854
-0.625487186265
-11.3252193067
-0.615732873074
-0.643802354933
-0.64416856476
0.0845604346377
-0.446360753302
-11.1105550453
-0.526240352936
-0.828196633826
-0.637003458167
-1.3765456235
-0.553613604904
-0.640052190095
-1.69057903626
-0.620104221068
-0.635698281064
-5.3970091934
-1.65829468365
-0.639755112265
-6.15255203859
-0.382197592507
-0.606123968871
-0.606171219152
-2.05856529286
-1.51591004536
-1.41832648443
-3.15424238379
-3.13525143553
-3.3960168327
-1.57661860532
-1.46778045311
-0.374784470979
-0.443959500427
-0.455703326665
-0.627830665708
-0.629534966657
-1.63788835971
-1.24569288834
-0.616316886141
-0.611363068482
-4.0861170334
0.0906775919568
-0.428536766143
-0.726077561116
-0.291862419182
-0.331767882586
-0.631250910044
-1.59106593326
-0.617709010614
-12.3015618087
-0.59857523663
-0.599639662289
-0.696644191089
-1.99564634841
-0.452953229118
-0.671697799717
-0.642645799343
-0.454722349727
-0.668514474532
-0.564684717738
-0.567941058673
-1.4184756293
-1.56246525586
-1.57276827477
-2.48777811707
-1.7117103252
-0.887311812123
-0.288888604864
-0.642800749343
-21.4464229663
-0.0450080857923
-0.592465863354
-0.701535632794
-0.436198530345
-0.629160716643
-0.555830666423
-0.515693898634
-2.59759013236
-2.67224553914
-1.76824433469
-1.75110013194
-0.615706041111
-24.6900994423
-0.718917114541
-0.0299434143813
-0.575748263343
-0.267329507403
-0.697086900589
-0.695804501569
-0.691042684393
-0.641003289619
-0.980362031789
0.1953361358
-0.737048082613
-0.491063617111
-2.24394473666
-0.472370782522
-0.477077324967
-12.3987854028
-4.87964359555
0.0168177164906
-1.99892648942
-0.2551068879
-11.7689675717
0.170389160174
-1.37095151868
-8.87616366524
-0.591827648864
-0.703454507798
-1.07443389519
-1.96044999245
-10.261009657
-1.11855313494
-0.0889106402074
-4.03234962229
-1.54331572046
-0.645591481655
-2.94900899759
-1.03274580844
-0.383883019735
0.155272781184
-1.65330055543
-0.609674773595
-0.159748076131
-0.605734242237
-1.83348448007
-7.91608013194
-5.85694658295
-0.8274007373
-0.825329659892
-1.68495603817
-0.463782814216
-0.870208648686
-0.876917610325
-8.9019143384
-0.641121213297
-0.641555839269
-0.985163822353
-1.00378787415
-0.379333892283
-0.380904179007
0.191777013598
0.195238876971
-4.71480947096
-1.79314998194
-0.712433858194
-3.90468798099
-0.643413963035
-2.70016186483
0.0881892838753
-0.700074878335
-0.42605580387
-0.857719669934
-1.13823260787
-0.506980769696
-0.677346895958
-0.710896798515
-0.411683257973
-1.55350745382
-0.336428322345
-0.652360190131
-0.632107255956
-0.5657998301
-13.3853182317
-0.777375739684
-1.41045894968
-0.468308629426
-0.383754498006
0.1607565438
-0.368967000524
-1.15422926902
0.120443414214
-0.653304494904
-14.1867252323
-2.92513355723
-0.132090437991
-0.426987632833
-0.425151308383
-0.418759276571
-1.65759749257
0.192099747987
-1.00400467527
-0.641611426482
-0.380969292484
-0.379261248721
-0.721813779164
0.013939726282
-1.92732262989
-0.198002640133
-1.67275344003
-0.62529656931
-0.388068789207
-2.31627645099
-2.3016244526
-0.462587501455
-0.457126217151
-14.9923709733
-0.685367151429
-0.0734838198927
-0.606404286385
-5.08930630748
-0.663220101602
-0.460416860596
-0.492760721856
-1.13239632827
-0.572514398633
-0.396660858128
-0.892348225928
-0.369769286315
-1.16245436972
0.10891656091
0.167505459462
-1.19376087003
-0.363786659787
0.171981381278
-0.645894083398
-0.39461616029
-0.905263020749
-0.637217951924
-0.647622736955
-1.7374598013
-0.558771031655
-2.42753460747
-0.388898202615
-0.390660947861
-0.647357605482
-0.831454869414
-0.77075596203
-3.39660440552
-0.32728901723
-0.0616333978307
-3.25848730005
-10.6328139075
-1.06534981813
-0.644059683161
0.175314287756
-1.116416865
-1.88742281489
-0.548799695085
-1.18649378922
-1.64853430186
-1.65517052833
-1.49881987126
-1.62744044016
-3.59094277533
-0.83247663429
-0.403053452677
-1.75146293983
-0.673510547951
-0.0251959765303
-28.7220077991
-0.720548522922
-0.573951849378
-0.768235163276
-9.57932113914
-0.988655513841
-4.35484749279
-4.5429836896
-0.620019826003
-0.621389084346
-0.353629070681
-11.3267833592