/*--------------------------------*- C++ -*----------------------------------*\
| =========                 |                                                 |
| \\      /  F ield         | OpenFOAM: The Open Source CFD Toolbox           |
|  \\    /   O peration     | Version:  v1906                                 |
|   \\  /    A nd           | Web:      www.OpenFOAM.com                      |
|    \\/     M anipulation  |                                                 |
\*---------------------------------------------------------------------------*/
FoamFile
{
    version     2.0;
    format      ascii;
    class       volVectorField;
    location    "159";
    object      Ua;
}
// * * * * * * * * * * * * * * * * * * * * * * * * * * * * * * * * * * * * * //

dimensions      [0 1 -1 0 0 0 0];


internalField   nonuniform List<vector> 
9216
(
(-0.095594446112 0.0959806387111 0)
(-0.0969370644632 0.298597197252 4.53142054222e-26)
(-0.0922416726905 0.503628997251 -6.02645187337e-30)
(-0.0849251779954 0.707441077956 0)
(-0.0752699144363 0.908106918125 0)
(-0.0634594301852 1.1048261628 0)
(-0.0496978205772 1.29679389316 0)
(-0.0342060063134 1.48328656617 0)
(-0.0172202422525 1.66365748898 0)
(0.00101261927179 1.83733979109 0)
(0.0202406303525 2.00384797118 0)
(0.0402121394837 2.16277802251 0)
(0.0606807636185 2.31380595139 0)
(0.081409687484 2.45668483168 0)
(0.102175268552 2.59124065838 0)
(0.122769843512 2.71736726427 0)
(0.1430038256 2.83502059176 0)
(0.162707058722 2.94421256305 0)
(0.181729576982 3.0450047879 0)
(0.199941766122 3.13750228728 0)
(0.217234100637 3.22184739728 0)
(0.233516455992 3.29821396008 0)
(0.248717170362 3.36680189583 0)
(0.262781842119 3.42783220194 0)
(0.27567202499 3.481542419 0)
(0.287363786241 3.52818256776 0)
(0.297846271978 3.56801156105 0)
(0.307120221774 3.60129407378 0)
(0.315196554347 3.62829786379 0)
(0.322094933347 3.64929153669 0)
(0.327842383984 3.66454279999 0)
(0.332471707709 3.6743174314 0)
(0.336018834077 3.67887916525 0)
(0.338514113419 3.67848787354 0)
(0.339947952539 3.67340153231 0)
(0.340441249849 3.66382761503 0)
(0.340053198266 3.65000800995 0)
(0.338836574929 3.63216913927 0)
(0.336844304729 3.61052958418 0)
(0.334129300462 3.58529957246 0)
(0.330744100769 3.55668111522 0)
(0.326740522572 3.52486804327 0)
(0.322169407535 3.4900460944 0)
(0.317080370082 3.45239303455 0)
(0.31152163231 3.41207881011 0)
(0.305539852936 3.36926572684 0)
(0.299180033401 3.32410864714 0)
(0.292485410194 3.27675520306 0)
(0.28549741534 3.22734601725 0)
(0.278255616718 3.17601493145 0)
(0.270797718924 3.12288923565 0)
(0.263159539136 3.06808989926 0)
(0.255375037204 3.01173179815 0)
(0.247476317268 2.95392394037 0)
(0.239493678357 2.8947696847 0)
(0.231455634206 2.83436695598 0)
(0.223388977688 2.77280845166 0)
(0.215318813078 2.71018184429 0)
(0.207268629229 2.64656997446 0)
(0.199260339958 2.58205103962 0)
(0.19131436218 2.51669877306 0)
(0.183449661184 2.45058261931 0)
(0.175683830878 2.38376789984 0)
(0.168033141596 2.31631597582 0)
(0.160512620361 2.24828440167 0)
(0.153136099492 2.17972707651 0)
(0.145916295335 2.11069438696 0)
(0.138864856417 2.04123334862 0)
(0.131992439527 1.97138773971 0)
(0.125308756516 1.90119823418 0)
(0.118822646899 1.83070252755 0)
(0.112542122657 1.75993546311 0)
(0.106474436769 1.68892915153 0)
(0.10062612556 1.61771309142 0)
(0.0950030727225 1.54631428394 0)
(0.0896105488905 1.47475734907 0)
(0.0844532708371 1.40306463637 0)
(0.079535438044 1.33125633798 0)
(0.0748607868324 1.2593505966 0)
(0.0704326237649 1.18736361617 0)
(0.0662538745076 1.11530976802 0)
(0.0623271139037 1.04320170019 0)
(0.0586546093208 0.971050442836 0)
(0.0552383470948 0.898865517481 0)
(0.0520800697561 0.82665504358 0)
(0.0491812976723 0.754425851203 0)
(0.0465433574246 0.682183595329 0)
(0.0441673921205 0.609932886277 0)
(0.0420543640715 0.537677445149 0)
(0.0402050085819 0.465420333322 0)
(0.038619683178 0.393164381994 0)
(0.0372978890368 0.320913139593 0)
(0.03623648369 0.248673209709 0)
(0.0354304698655 0.176423732653 0)
(0.0348015354344 0.104680244914 0)
(0.0336030966906 0.0335634417381 0)
(-0.29811056868 0.100607423437 0)
(-0.317293786492 0.314539523119 0)
(-0.316643915857 0.532020713545 -4.58748266546e-26)
(-0.314841129641 0.747579364387 0)
(-0.312355873949 0.959725000756 0)
(-0.30927436119 1.16769039651 0)
(-0.305645807713 1.37066493519 0)
(-0.301518097935 1.56790161453 0)
(-0.296938280458 1.75872749823 0)
(-0.291952932046 1.94255010465 0)
(-0.286607423773 2.11886026768 0)
(-0.280945115211 2.28723267652 0)
(-0.275006596234 2.44732452184 0)
(-0.268829165149 2.59887257273 0)
(-0.262446473014 2.74168900325 0)
(-0.255888421784 2.87565626222 0)
(-0.249181186546 3.00072127885 0)
(-0.242347432357 3.11688925676 0)
(-0.235406578522 3.22421729005 0)
(-0.228375186657 3.32280798593 0)
(-0.2212673264 3.41280325356 0)
(-0.214095009258 3.49437837158 0)
(-0.20686855033 3.56773642552 0)
(-0.199596964763 3.63310316682 0)
(-0.192288265401 3.69072233116 0)
(-0.184949782165 3.74085142427 0)
(-0.177588375881 3.78375797583 0)
(-0.170210679679 3.81971624029 0)
(-0.162823251156 3.84900431707 0)
(-0.155432790464 3.87190163791 0)
(-0.148046326613 3.88868673951 0)
(-0.140671489111 3.89963505975 0)
(-0.133316137509 3.90501610619 0)
(-0.125980529841 3.90509089286 0)
(-0.118587118757 3.90010902778 0)
(-0.111228472424 3.89035341817 0)
(-0.103921352119 3.87606606466 0)
(-0.0966726665585 3.8574864299 0)
(-0.0894894911764 3.83484563005 0)
(-0.0823789195739 3.80836652845 0)
(-0.0753479095171 3.77826357315 0)
(-0.0684032426138 3.74474278149 0)
(-0.0615514460382 3.70800177964 0)
(-0.0547987922581 3.66822989554 0)
(-0.048151239399 3.62560829134 0)
(-0.0416144416021 3.58031012807 0)
(-0.0351936984915 3.53250075343 0)
(-0.0288939722407 3.48233790796 0)
(-0.0227198445918 3.42997194285 0)
(-0.0166755396672 3.37554604676 0)
(-0.0107648879209 3.31919647621 0)
(-0.0049913539262 3.26105278873 0)
(0.00064199338191 3.20123807432 0)
(0.00613244875551 3.1398691856 0)
(0.011477694805 3.07705696301 0)
(0.0166757667403 3.01290645624 0)
(0.0217250716826 2.94751713884 0)
(0.0266243509211 2.88098311795 0)
(0.0313726950501 2.81339333617 0)
(0.0359695045215 2.74483176814 0)
(0.0404145012445 2.67537760915 0)
(0.0447076881322 2.60510545851 0)
(0.0488493577249 2.53408549514 0)
(0.0528400513654 2.46238364843 0)
(0.0566805653489 2.39006176177 0)
(0.0603719102784 2.31717775201 0)
(0.0639153151737 2.24378576228 0)
(0.0673121875025 2.16993631145 0)
(0.0705641156297 2.09567643758 0)
(0.0736728299526 2.02104983891 0)
(0.0766402040134 1.94609700949 0)
(0.0794682171226 1.87085537305 0)
(0.082158954416 1.79535941227 0)
(0.0847145712946 1.71964079692 0)
(0.0871372926617 1.64372850806 0)
(0.0894293794658 1.56764896168 0)
(0.0915931273137 1.49142612901 0)
(0.0936308353514 1.41508165679 0)
(0.0955448043894 1.33863498468 0)
(0.0973373082905 1.2621034631 0)
(0.099010591658 1.18550246871 0)
(0.100566843747 1.10884552074 0)
(0.10200819551 1.03214439534 0)
(0.103336695595 0.955409241366 0)
(0.104554305632 0.878648694695 0)
(0.105662875993 0.80186999459 0)
(0.106664134136 0.72507909905 0)
(0.107559648668 0.648280801383 0)
(0.108350784369 0.571478839322 0)
(0.109038592138 0.494675976882 0)
(0.109623577787 0.417874010473 0)
(0.110105151042 0.341073345092 0)
(0.110479900057 0.264271087699 0)
(0.110732419605 0.187400379578 0)
(0.110616442984 0.111230724008 0)
(0.104820529219 0.0344455907672 0)
(-0.503247225572 0.105815865993 0)
(-0.53466148128 0.31680164116 0)
(-0.530572229341 0.538038240706 -4.55839820393e-26)
(-0.523526659979 0.755853467858 0)
(-0.51415971954 0.970267159515 0)
(-0.502648051469 1.18036695228 0)
(-0.489149105 1.38532405704 0)
(-0.473846244837 1.58437199399 0)
(-0.45693776101 1.77682503207 0)
(-0.438631698653 1.96208233802 0)
(-0.419140408154 2.1396308633 0)
(-0.398675647838 2.30904556789 0)
(-0.377444242425 2.46998762202 0)
(-0.355644450885 2.62220093272 0)
(-0.333463050868 2.76550736709 0)
(-0.311073180112 2.89980101605 0)
(-0.288632850779 3.02504181934 0)
(-0.266284113434 3.14124883226 0)
(-0.24415274022 3.24849337741 0)
(-0.222348383517 3.34689227727 0)
(-0.200965069187 3.43660132412 0)
(-0.180081988103 3.51780910131 0)
(-0.159764456488 3.59073123674 0)
(-0.140065028875 3.6556051372 0)
(-0.121024653818 3.71268522868 0)
(-0.102673879422 3.76223870602 0)
(-0.0850340183465 3.80454178087 0)
(-0.0681182992194 3.83987640239 0)
(-0.0519329279934 3.86852741528 0)
(-0.0364780944584 3.89078010789 0)
(-0.0217488422826 3.90691807923 0)
(-0.00773584482046 3.9172212289 0)
(0.00557379057937 3.92196379752 0)
(0.0181933642057 3.92141514536 0)
(0.030108673067 3.91584549127 0)
(0.0413719645853 3.90551268965 0)
(0.0520084561189 3.89066290137 0)
(0.0620403142798 3.87153545799 0)
(0.0714903466105 3.84836199353 0)
(0.0803816383006 3.8213658007 0)
(0.0887373555237 3.79076162152 0)
(0.0965805482995 3.75675561117 0)
(0.103934017468 3.71954539462 0)
(0.110820183043 3.67932018046 0)
(0.117261003802 3.63626091468 0)
(0.123277891771 3.59054046423 0)
(0.128891670927 3.54232382178 0)
(0.134122525482 3.4917683261 0)
(0.138989986543 3.43902389246 0)
(0.143512904282 3.38423324944 0)
(0.147709453751 3.32753217837 0)
(0.151597123295 3.26904975324 0)
(0.155192732826 3.20890857837 0)
(0.158512432788 3.14722502292 0)
(0.161571729983 3.08410945019 0)
(0.16438549292 3.01966644157 0)
(0.166967981648 2.95399501382 0)
(0.169332856563 2.88718882988 0)
(0.171493209732 2.81933640237 0)
(0.173461575127 2.75052129036 0)
(0.175249959738 2.68082228878 0)
(0.176869853871 2.61031361137 0)
(0.178332260918 2.53906506653 0)
(0.179647706863 2.46714222737 0)
(0.18082626801 2.39460659514 0)
(0.181877579195 2.32151575764 0)
(0.182810859078 2.24792354174 0)
(0.183634916817 2.17388016158 0)
(0.184358174751 2.09943236175 0)
(0.184988673475 2.02462355686 0)
(0.185534091886 1.94949396691 0)
(0.186001750719 1.87408074974 0)
(0.186398630032 1.79841813002 0)
(0.186731371344 1.7225375261 0)
(0.187006292687 1.64646767388 0)
(0.187229389531 1.57023474929 0)
(0.187406347569 1.49386248831 0)
(0.187542542618 1.4173723061 0)
(0.187643051296 1.34078341428 0)
(0.18771265006 1.2641129376 0)
(0.187755823859 1.18737602927 0)
(0.187776764341 1.11058598604 0)
(0.187779376354 1.03375436221 0)
(0.187767274949 0.956891083616 0)
(0.187743788862 0.880004560444 0)
(0.187711954663 0.803101799635 0)
(0.187674514092 0.726188514398 0)
(0.187633899906 0.649269228743 0)
(0.187592218455 0.572347367474 0)
(0.187551217112 0.495425311158 0)
(0.187512253694 0.418504412151 0)
(0.187476333395 0.341584712149 0)
(0.18744393187 0.264664731207 0)
(0.187407086358 0.18767189787 0)
(0.187018874437 0.111673792354 0)
(0.176976207539 0.0340147949439 0)
(-0.712208255965 0.113320493713 0)
(-0.757075767578 0.318788265323 0)
(-0.75129767559 0.545256739955 4.52404494363e-26)
(-0.741387254961 0.765682267835 0)
(-0.728232138947 0.982730265054 0)
(-0.712099267706 1.19527276924 0)
(-0.693215809052 1.40246602578 0)
(-0.671845394261 1.60351909543 0)
(-0.64827164893 1.79773239843 0)
(-0.622790484451 1.98449790997 0)
(-0.595702002904 2.16330173031 0)
(-0.567303419621 2.33372349834 0)
(-0.537882977463 2.49543374087 0)
(-0.507714980023 2.64818948177 0)
(-0.477055951596 2.7918285433 0)
(-0.446141899817 2.92626293129 0)
(-0.415186578704 3.05147166061 0)
(-0.384380646725 3.167493326 0)
(-0.353891566316 3.27441867196 0)
(-0.32386411761 3.37238336077 0)
(-0.294421371576 3.46156108903 0)
(-0.265666011684 3.5421571574 0)
(-0.23768187511 3.61440256118 0)
(-0.210535635326 3.67854863647 0)
(-0.184278531066 3.73486227279 0)
(-0.158948097699 3.78362168266 0)
(-0.134569836851 3.82511270548 0)
(-0.111158807697 3.85962561251 0)
(-0.088721097138 3.88745237489 0)
(-0.0672551658206 3.90888435802 0)
(-0.0467530257535 3.92421041 0)
(-0.0272012147543 3.93371531025 0)
(-0.00858140717423 3.93767871078 0)
(0.00912972474689 3.9363750726 0)
(0.0259633739233 3.93007145067 0)
(0.0419347614943 3.91901944747 0)
(0.0570698546288 3.90347167195 0)
(0.0713964549 3.88366939558 0)
(0.0849433597482 3.85984513952 0)
(0.0977397969984 3.83222250612 0)
(0.109815105841 3.80101626847 0)
(0.121198490539 3.76643242182 0)
(0.131918840132 3.72866828956 0)
(0.142004580089 3.68791266944 0)
(0.151483565265 3.64434601291 0)
(0.16038299119 3.59814062943 0)
(0.168729336238 3.54946090874 0)
(0.176548313973 3.4984635555 0)
(0.183864849172 3.4452978316 0)
(0.190703058182 3.39010580248 0)
(0.197086247566 3.33302258443 0)
(0.203036912855 3.27417659053 0)
(0.208576751608 3.2136897732 0)
(0.213726673571 3.15167786216 0)
(0.218506822195 3.08825059657 0)
(0.22293659125 3.0235119507 0)
(0.227034650634 2.95756035249 0)
(0.230818965957 2.89048889491 0)
(0.234306825779 2.82238553981 0)
(0.237514861831 2.7533333144 0)
(0.240459075779 2.68341050036 0)
(0.243154858572 2.612690816 0)
(0.245617015523 2.54124359152 0)
(0.247859783876 2.46913393786 0)
(0.249896855513 2.39642290944 0)
(0.251741392241 2.32316766118 0)
(0.253406045786 2.24942160025 0)
(0.254902970622 2.1752345329 0)
(0.256243841147 2.10065280681 0)
(0.257439862069 2.02571944939 0)
(0.258501782845 1.95047430233 0)
(0.259439905762 1.87495415289 0)
(0.260264097821 1.79919286217 0)
(0.260983796739 1.72322149088 0)
(0.261608020521 1.64706842262 0)
(0.262145371644 1.57075948536 0)
(0.262604044578 1.49431807101 0)
(0.262991828428 1.41776525369 0)
(0.263316112656 1.34111990652 0)
(0.263583888407 1.26439881762 0)
(0.263801752617 1.18761680494 0)
(0.263975908173 1.11078683059 0)
(0.264112166424 1.03392011426 0)
(0.264215946067 0.957026246077 0)
(0.264292273771 0.880113298333 0)
(0.264345781279 0.803187935844 0)
(0.264380703516 0.726255523246 0)
(0.264400873834 0.64932022697 0)
(0.264409722167 0.572385106261 0)
(0.264410279888 0.495452182962 0)
(0.264405214037 0.418522533861 0)
(0.264396955343 0.341596131195 0)
(0.264387279721 0.26467262918 0)
(0.264364123878 0.187665751676 0)
(0.263832000998 0.111996237308 0)
(0.24956121135 0.0332355511073 0)
(-0.924311068809 0.123485959329 0)
(-0.982698399734 0.321354429696 0)
(-0.97506852557 0.555006916143 0)
(-0.962050548592 0.778951048848 0)
(-0.944766796121 0.999554596821 0)
(-0.923582499029 1.21538642994 0)
(-0.898801394458 1.42558827182 0)
(-0.870775021085 1.62933619561 0)
(-0.839880518112 1.82591196689 0)
(-0.806510513412 2.01469793643 0)
(-0.771062238632 2.1951793199 0)
(-0.733928066624 2.36694245052 0)
(-0.695487458407 2.52967090798 0)
(-0.656100470543 2.6831398322 0)
(-0.616102823198 2.82720894283 0)
(-0.57580245766 2.96181471824 0)
(-0.535477439937 3.0869621355 0)
(-0.495375037565 3.2027163049 0)
(-0.455711768741 3.3091942645 0)
(-0.416674230896 3.40655713389 0)
(-0.378420515901 3.495002768 0)
(-0.341082047522 3.57475900096 0)
(-0.304765688754 3.64607752849 0)
(-0.269556001467 3.70922844474 0)
(-0.235517553926 3.76449542467 0)
(-0.202697204617 3.81217152512 0)
(-0.17112629955 3.85255556586 0)
(-0.140822747774 3.88594904428 0)
(-0.111792942639 3.91265353413 0)
(-0.0840335183098 3.93296852231 0)
(-0.0575329250587 3.94718963842 0)
(-0.0322728317864 3.95560715323 0)
(-0.00822951444497 3.9585046536 0)
(0.0146245383975 3.95615998379 0)
(0.0363202762916 3.94884394868 0)
(0.0568927718572 3.93681196543 0)
(0.0763782849112 3.92031667505 0)
(0.094814171763 3.89960008941 0)
(0.112238564245 3.87489529594 0)
(0.128689989107 3.84642615353 0)
(0.14420702272 3.81440740065 0)
(0.158828002948 3.77904475862 0)
(0.172590800797 3.74053508693 0)
(0.185532638269 3.69906657078 0)
(0.197689949926 3.65481893514 0)
(0.209098276232 3.60796367783 0)
(0.219792188123 3.55866431573 0)
(0.229805232803 3.50707663928 0)
(0.239169901647 3.45334897112 0)
(0.2479176116 3.39762242571 0)
(0.256078701958 3.34003116732 0)
(0.263682439014 3.28070266444 0)
(0.270757031186 3.21975793898 0)
(0.277329647939 3.15731180922 0)
(0.283426445686 3.0934731257 0)
(0.289072594633 3.02834499944 0)
(0.294292310098 2.96202502219 0)
(0.299108882867 2.89460547871 0)
(0.303544712276 2.8261735509 0)
(0.307621337076 2.75681151406 0)
(0.311359467859 2.68659692549 0)
(0.314779016501 2.61560280562 0)
(0.31789912641 2.54389781225 0)
(0.320738199371 2.47154640801 0)
(0.323313922738 2.39860902168 0)
(0.325643293063 2.32514220374 0)
(0.327742639812 2.25119877652 0)
(0.329627645529 2.17682797952 0)
(0.331313365981 2.10207561015 0)
(0.332814246877 2.02698416055 0)
(0.334144140548 1.95159295068 0)
(0.335316319421 1.87593825817 0)
(0.336343489481 1.80005344528 0)
(0.337237800791 1.72396908334 0)
(0.338010858069 1.64771307495 0)
(0.338673728602 1.57131077426 0)
(0.339236950301 1.49478510555 0)
(0.339710537379 1.41815668053 0)
(0.340103986231 1.34144391427 0)
(0.340426279233 1.26466314032 0)
(0.340685888761 1.18782872487 0)
(0.3408907794 1.11095318018 0)
(0.341048410363 1.0340472774 0)
(0.341165736348 0.957120158585 0)
(0.341249208629 0.880179447828 0)
(0.341304775032 0.803231361075 0)
(0.341337880772 0.726280813828 0)
(0.341353470205 0.649331525719 0)
(0.34135599383 0.572386120187 0)
(0.341349426368 0.495446216666 0)
(0.341337308884 0.418512592711 0)
(0.341322851427 0.341585025131 0)
(0.341308124243 0.26466378434 0)
(0.34127621245 0.187641236711 0)
(0.340582885276 0.112394419556 0)
(0.322135180599 0.0321744737351 0)
(-1.14060458968 0.136493456767 0)
(-1.21279130056 0.324595733466 0)
(-1.20315511515 0.567494227355 0)
(-1.18682857226 0.795928405089 0)
(-1.16515290707 1.02107477523 0)
(-1.13860549282 1.24109494777 0)
(-1.10757854862 1.45511669633 0)
(-1.0725244854 1.66227448347 0)
(-1.03392641398 1.86182739549 0)
(-0.992285195721 2.05314687789 0)
(-0.948105366621 2.23571870137 0)
(-0.901883032826 2.40913960247 0)
(-0.854095708736 2.57311171977 0)
(-0.805194273375 2.72743513035 0)
(-0.755597013546 2.87199913783 0)
(-0.705685619353 3.00677284769 0)
(-0.655802916862 3.1317954876 0)
(-0.606252082617 3.24716683774 0)
(-0.557297066133 3.35303804616 0)
(-0.509163954991 3.44960302285 0)
(-0.462043034054 3.53709053587 0)
(-0.416091322141 3.61575707605 0)
(-0.371435399278 3.68588051184 0)
(-0.328174374519 3.74775452264 0)
(-0.286382873128 3.80168377564 0)
(-0.24611395414 3.84797979587 0)
(-0.20740189109 3.88695747024 0)
(-0.170264772921 3.91893212226 0)
(-0.134706895883 3.94421709428 0)
(-0.10072093323 3.96312178421 0)
(-0.0682898684204 3.97595008314 0)
(-0.0373886930746 3.98299899489 0)
(-0.0079860229042 3.98455728996 0)
(0.0199546361981 3.98090819566 0)
(0.0464744643925 3.97232377387 0)
(0.0716153362672 3.95906252297 0)
(0.0954224262214 3.9413790486 0)
(0.117942420561 3.91951650335 0)
(0.139222817825 3.89370859611 0)
(0.159311449799 3.86417938673 0)
(0.17825607541 3.83114346846 0)
(0.19610405171 3.79480613682 0)
(0.21290207114 3.7553636024 0)
(0.228695954813 3.71300322748 0)
(0.243530494555 3.66790378155 0)
(0.257449334535 3.62023570894 0)
(0.270494887238 3.57016140401 0)
(0.28270827652 3.5178354893 0)
(0.294129304211 3.46340509378 0)
(0.304796434552 3.40701012816 0)
(0.314746794244 3.3487835556 0)
(0.324016183609 3.28885165602 0)
(0.33263909761 3.22733428305 0)
(0.34064875317 3.16434511281 0)
(0.348077122264 3.0999918839 0)
(0.354954967914 3.03437662858 0)
(0.361311883117 2.96759589476 0)
(0.367176330362 2.89974095917 0)
(0.372575682144 2.83089803163 0)
(0.377536260535 2.76114845086 0)
(0.382083376495 2.69056887218 0)
(0.386241367286 2.61923144742 0)
(0.390033632837 2.54720399754 0)
(0.393482669678 2.47455017846 0)
(0.396610103399 2.40132964046 0)
(0.39943671841 2.3275981818 0)
(0.401982486047 2.25340789688 0)
(0.40426658994 2.17880731959 0)
(0.406307449689 2.10384156209 0)
(0.408122741902 2.0285524497 0)
(0.409729419627 1.95297865216 0)
(0.411143729323 1.8771558117 0)
(0.412381226382 1.80111666835 0)
(0.413456788423 1.72489118279 0)
(0.414384627328 1.64850665707 0)
(0.41517829931 1.5719878535 0)
(0.415850713925 1.49535711205 0)
(0.416414141386 1.41863446636 0)
(0.41688021902 1.34183775874 0)
(0.417259956293 1.26498275422 0)
(0.417563739158 1.18808325388 0)
(0.417801333237 1.1111512075 0)
(0.417981886521 1.03419682569 0)
(0.418113931212 0.957228691359 0)
(0.418205385419 0.880253870648 0)
(0.418263554631 0.80327802296 0)
(0.418295134068 0.72630551008 0)
(0.418306212817 0.649339504307 0)
(0.41830228238 0.572382095883 0)
(0.418288252877 0.49543439935 0)
(0.418268479408 0.41849675988 0)
(0.418246816361 0.341568485558 0)
(0.418225451875 0.264650060218 0)
(0.418182878483 0.187605294622 0)
(0.417326637818 0.112882884763 0)
(0.394716431326 0.0308371624772 0)
(-1.36214299002 0.152563229834 0)
(-1.44852236478 0.328565277268 0)
(-1.43668378978 0.582921308678 4.44494214426e-26)
(-1.41679218093 0.816873164979 0)
(-1.39039030753 1.04761145398 0)
(-1.35808457014 1.27276807635 0)
(-1.32036903981 1.49145805916 0)
(-1.27781190312 1.70276509365 0)
(-1.23101669795 1.90592217238 0)
(-1.18060591805 2.10028964086 0)
(-1.12720321455 2.28535669995 0)
(-1.07141834766 2.46073582228 0)
(-1.01383478526 2.62615489506 0)
(-0.955000124161 2.78144739103 0)
(-0.895419233704 2.92654139592 0)
(-0.835549890941 3.06144812977 0)
(-0.775800586286 3.18625048515 0)
(-0.7165301372 3.30109197725 0)
(-0.658048740167 3.40616638363 0)
(-0.600620111106 3.50170825072 0)
(-0.544464398749 3.58798436134 0)
(-0.489761600242 3.66528619388 0)
(-0.436655254132 3.73392335676 0)
(-0.385256232297 3.79421794942 0)
(-0.335646493275 3.84649978066 0)
(-0.287882696979 3.89110236399 0)
(-0.241999610738 3.92835960533 0)
(-0.198013262758 3.95860309872 0)
(-0.155923818383 3.98215995009 0)
(-0.115718169992 3.99935106717 0)
(-0.0773722321442 4.0104898481 0)
(-0.0408529492865 4.01588093696 0)
(-0.00612016222795 4.01581895937 0)
(0.0268723617407 4.01059373618 0)
(0.0581745065876 4.00047798689 0)
(0.087838816497 3.98573454087 0)
(0.11592039221 3.96661957934 0)
(0.142475936278 3.94337743441 0)
(0.16756285116 3.91624236049 0)
(0.191238726159 3.88543849308 0)
(0.213560881407 3.85118010725 0)
(0.234586006027 3.81367186511 0)
(0.254369870121 3.77310909424 0)
(0.27296710086 3.72967808083 0)
(0.2904310129 3.68355637266 0)
(0.306813483997 3.63491308667 0)
(0.32216486854 3.58390921708 0)
(0.336533941997 3.5306979408 0)
(0.349967870951 3.47542491779 0)
(0.362512203491 3.4182285843 0)
(0.374210876181 3.35924043776 0)
(0.385106233715 3.29858531225 0)
(0.395239058671 3.23638164396 0)
(0.404648608503 3.17274172627 0)
(0.413372658019 3.10777195425 0)
(0.421447545324 3.04157305882 0)
(0.428908220054 2.97424033046 0)
(0.435788292472 2.90586383305 0)
(0.442120082763 2.83652860804 0)
(0.44793466945 2.76631486947 0)
(0.453261936667 2.69529819035 0)
(0.45813061948 2.62354968091 0)
(0.462568347254 2.55113615916 0)
(0.466601684469 2.47812031455 0)
(0.470256169152 2.40456086502 0)
(0.473556348501 2.33051270818 0)
(0.476525811951 2.25602706706 0)
(0.479187221404 2.18115163091 0)
(0.481562338931 2.10593069167 0)
(0.483672051744 2.03040527649 0)
(0.485536394791 1.95461327672 0)
(0.487174570836 1.87858957386 0)
(0.488604968392 1.80236616284 0)
(0.489845177391 1.72597227294 0)
(0.490912002983 1.64943448676 0)
(0.491821477373 1.57277685747 0)
(0.492588870057 1.49602102468 0)
(0.493228696403 1.41918632907 0)
(0.493754724918 1.34228992618 0)
(0.494179983147 1.26534689928 0)
(0.494516762552 1.18837037177 0)
(0.494776622323 1.11137161895 0)
(0.494970392463 1.03436017948 0)
(0.495108176191 0.957343966406 0)
(0.495199352055 0.880329377936 0)
(0.49525257601 0.8033214079 0)
(0.495275784127 0.726323756128 0)
(0.495276196658 0.649338939224 0)
(0.49526032467 0.5723684024 0)
(0.495233980056 0.495412631243 0)
(0.495202285454 0.418471387872 0)
(0.495169697474 0.341543270027 0)
(0.495138553006 0.26462884821 0)
(0.495083163556 0.187556451701 0)
(0.49406301432 0.113465059055 0)
(0.467295618178 0.0292277516258 0)
(-1.59006594252 0.171967015111 0)
(-1.69112868654 0.333321997996 0)
(-1.67684019339 0.601545700039 -4.40855694483e-26)
(-1.65305662632 0.84211524821 0)
(-1.62150387805 1.07957117877 0)
(-1.58294020613 1.31087178429 0)
(-1.53797920833 1.53512185352 0)
(-1.48732423224 1.75134454453 0)
(-1.43171787657 1.95874418718 0)
(-1.37192137337 2.15667132929 0)
(-1.30869237964 2.3446234566 0)
(-1.24276661639 2.52223633847 0)
(-1.17484309837 2.68927309153 0)
(-1.1055730871 2.84561124987 0)
(-1.03555254223 2.99122889755 0)
(-0.965317694224 3.12619061947 0)
(-0.895343266252 3.25063386246 0)
(-0.826042841499 3.36475612315 0)
(-0.757770884129 3.46880322911 0)
(-0.690825963685 3.56305885615 0)
(-0.625454790372 3.64783532944 0)
(-0.561856733639 3.72346568692 0)
(-0.500188560844 3.79029693616 0)
(-0.440569193112 3.84868440733 0)
(-0.383084328267 3.89898708952 0)
(-0.327790825964 3.94156383309 0)
(-0.274720786577 3.97677030284 0)
(-0.223885284908 4.00495657304 0)
(-0.175277741954 4.02646526593 0)
(-0.128876933392 4.0416301618 0)
(-0.0846496354885 4.05077519716 0)
(-0.0425529220236 4.05421340324 0)
(-0.00253618496588 4.05224585972 0)
(0.0354584736709 4.04516995972 0)
(0.0714899716 4.03325768754 0)
(0.10562262877 4.01677751078 0)
(0.137922245723 3.99598681621 0)
(0.16845621035 3.97113105756 0)
(0.197292378834 3.94244485669 0)
(0.224498547423 3.91015221106 0)
(0.250141959206 3.87446682777 0)
(0.274288921237 3.83559246159 0)
(0.297004502459 3.79372326661 0)
(0.318352302427 3.74904415223 0)
(0.338394279203 3.70173113887 0)
(0.357190626564 3.65195170947 0)
(0.374799692047 3.5998651539 0)
(0.391277928383 3.54562290413 0)
(0.40667987214 3.48936885865 0)
(0.421058144086 3.43123969506 0)
(0.434463466845 3.37136517016 0)
(0.446944695887 3.30986840719 0)
(0.45854886072 3.24686617022 0)
(0.469321213476 3.18246912569 0)
(0.479305282743 3.11678209139 0)
(0.48854293066 3.04990427335 0)
(0.497074411853 2.98192949108 0)
(0.504938432865 2.91294639164 0)
(0.512172211154 2.84303865331 0)
(0.518811532788 2.77228517926 0)
(0.52489080828 2.70076028219 0)
(0.530443126007 2.62853386023 0)
(0.535500302954 2.55567156504 0)
(0.540092932427 2.48223496267 0)
(0.544250428691 2.40828168772 0)
(0.54800106833 2.33386559158 0)
(0.551372028414 2.25903688516 0)
(0.554389421391 2.18384227681 0)
(0.557078326865 2.10832510589 0)
(0.559462820267 2.03252547245 0)
(0.561565998618 1.95648036366 0)
(0.563410003456 1.88022377713 0)
(0.565016041141 1.80378684185 0)
(0.566404400651 1.72719793688 0)
(0.567594469091 1.65048280819 0)
(0.568604745031 1.57366468407 0)
(0.569452849921 1.49676438918 0)
(0.570155537685 1.41980045762 0)
(0.570728702732 1.34278924527 0)
(0.571187386508 1.26574504144 0)
(0.571545782807 1.18868018007 0)
(0.571817241973 1.11160515065 0)
(0.572014274233 1.0345287089 0)
(0.572148552323 0.957457987321 0)
(0.57223091369 0.880398605727 0)
(0.572271362554 0.803354781953 0)
(0.5722790722 0.726329442922 0)
(0.572262387908 0.649324336733 0)
(0.572228830829 0.572340146112 0)
(0.572185102329 0.495376600145 0)
(0.572137082918 0.418432736318 0)
(0.572089842123 0.34150624656 0)
(0.5720459326 0.264597835847 0)
(0.571975772689 0.187493293477 0)
(0.570790448713 0.11414175611 0)
(0.539868062057 0.027347729007 0)
(-1.82562316444 0.195041632037 0)
(-1.94196167762 0.338937902479 0)
(-1.92491445924 0.623690274873 0)
(-1.8968296185 0.872069188013 0)
(-1.85959560367 1.11746309171 0)
(-1.81415270882 1.35598698713 0)
(-1.76125727339 1.58674005062 0)
(-1.7017727831 1.80867472941 0)
(-1.63660451251 2.02096550463 0)
(-1.56667373964 2.22295660624 0)
(-1.49289030762 2.41416140789 0)
(-1.41613056235 2.59424953819 0)
(-1.33722014253 2.76303183376 0)
(-1.25692164303 2.92044338629 0)
(-1.1759267208 3.06652602047 0)
(-1.09485204846 3.20141108778 0)
(-1.01423843338 3.32530322954 0)
(-0.934552413809 3.43846552863 0)
(-0.856189688067 3.54120627927 0)
(-0.779479809279 3.63386745737 0)
(-0.704691667816 3.71681486742 0)
(-0.632039376314 3.79042987033 0)
(-0.561688259035 3.8551025534 0)
(-0.493760724764 3.91122618231 0)
(-0.428341867846 3.95919276862 0)
(-0.365484695579 3.99938959127 0)
(-0.305214922379 4.03219652141 0)
(-0.247535303617 4.0579840141 0)
(-0.192429505675 4.07711164865 0)
(-0.139865523352 4.08992713353 0)
(-0.0897986639349 4.09676566984 0)
(-0.0421741385329 4.09794913447 0)
(0.00307083140781 4.09378549462 0)
(0.0460078536907 4.08458050398 0)
(0.0867050779454 4.07060363782 0)
(0.125240287389 4.05213038149 0)
(0.161690845791 4.02941865932 0)
(0.196135553283 4.00271486754 0)
(0.228653320404 3.97225370064 0)
(0.259322639137 3.93825870532 0)
(0.288221066855 3.90094268485 0)
(0.315424836006 3.86050813897 0)
(0.341008550674 3.81714769511 0)
(0.365044959171 3.77104453251 0)
(0.387604789397 3.72237279458 0)
(0.408756636198 3.67129798731 0)
(0.428566891397 3.6179773622 0)
(0.447099708542 3.56256028278 0)
(0.46441699561 3.50518857426 0)
(0.480578429912 3.44599685603 0)
(0.495641490371 3.38511285745 0)
(0.509661503072 3.32265771695 0)
(0.522691696686 3.25874626524 0)
(0.534783264897 3.19348729304 0)
(0.545985433504 3.12698380418 0)
(0.556345530203 3.0593332548 0)
(0.56590905552 2.99062777944 0)
(0.574719753559 2.92095440489 0)
(0.582819681564 2.85039525259 0)
(0.590249277477 2.77902773049 0)
(0.597047424873 2.70692471505 0)
(0.60325151479 2.63415472436 0)
(0.608897504144 2.56078208301 0)
(0.614019970473 2.48686707954 0)
(0.618652162895 2.41246611715 0)
(0.622826049215 2.33763185831 0)
(0.626572359193 2.26241336404 0)
(0.629920624015 2.18685622834 0)
(0.632899212078 2.11100270833 0)
(0.635535361213 2.03489185077 0)
(0.637855207511 1.95855961528 0)
(0.639883810904 1.88203899484 0)
(0.641645177722 1.80536013389 0)
(0.643162280402 1.72855044447 0)
(0.644457074564 1.65163472069 0)
(0.645550513659 1.57463525193 0)
(0.646462561398 1.49757193491 0)
(0.647212202164 1.42046238496 0)
(0.647817449624 1.34332204671 0)
(0.648295353724 1.26616430433 0)
(0.648662006283 1.18900059152 0)
(0.648932545377 1.11184050135 0)
(0.649121158719 1.03469189609 0)
(0.64924108624 0.957561017194 0)
(0.649304622105 0.880452595426 0)
(0.649323116376 0.803369961477 0)
(0.649306976546 0.726315157193 0)
(0.649265669092 0.649289047941 0)
(0.649207720964 0.572291435975 0)
(0.649140720147 0.49532116963 0)
(0.649071308645 0.418376434101 0)
(0.649005189558 0.341453850855 0)
(0.648945180209 0.264554406168 0)
(0.648857993091 0.187413999058 0)
(0.647505754788 0.114912640652 0)
(0.612429547085 0.0251978394231 0)
(-2.07019809362 0.222202478177 0)
(-2.2025166728 0.345503343052 0)
(-2.18232643912 0.649756551275 0)
(-2.14943123683 0.907250357802 0)