/*--------------------------------*- C++ -*----------------------------------*\
| =========                 |                                                 |
| \\      /  F ield         | OpenFOAM: The Open Source CFD Toolbox           |
|  \\    /   O peration     | Version:  v1906                                 |
|   \\  /    A nd           | Web:      www.OpenFOAM.com                      |
|    \\/     M anipulation  |                                                 |
\*---------------------------------------------------------------------------*/
FoamFile
{
    version     2.0;
    format      ascii;
    class       volScalarField;
    location    "244";
    object      pa;
}
// * * * * * * * * * * * * * * * * * * * * * * * * * * * * * * * * * * * * * //

dimensions      [0 2 -2 0 0 0 0];


internalField   nonuniform List<scalar> 
9216
(
1025.63668702
1025.26221051
1024.47788896
1023.29847599
1021.72391795
1019.75803726
1017.4053895
1014.67218469
1011.56492196
1008.09172351
1004.26071494
1000.08168769
995.564166924
990.719396612
985.558087195
980.092729015
974.335019201
968.298509421
961.995717406
955.441108315
948.6478981
941.63136299
934.405347392
926.985886182
919.387431707
911.62676755
903.718975802
895.681610355
887.530428417
879.283785978
870.958166031
862.572747263
854.144761933
845.694189712
837.238987309
828.799844524
820.395330322
812.046650991
803.772763181
795.595069884
787.532552657
779.606346418
771.834947429
764.23861133
756.834692142
749.641820273
742.675428458
735.951678926
729.483229676
723.282902647
717.359745831
711.722456276
706.375792583
701.323786039
696.566550834
692.103313012
687.929638673
684.04028878
680.426848974
677.080390114
673.98945259
671.142480458
668.526095852
666.127271666
663.931824151
661.926304517
660.096652732
658.429816205
656.912529829
655.532692958
654.278255311
653.13839041
652.102472794
651.161085068
650.305077001
649.526438184
648.817433135
648.171365548
647.581784248
647.043153718
646.550108685
646.098002393
645.681654601
645.298989245
644.961630514
644.675300557
644.433270266
644.234431053
644.078975196
643.962666478
643.879678024
643.822294592
643.783373131
643.759451097
643.747290334
643.743036299
1026.01010117
1025.63451694
1024.85538323
1023.67462374
1022.09664454
1020.12586641
1017.76730914
1015.02712368
1011.91210793
1008.43020842
1004.58987598
1000.40066998
995.872488124
991.016289611
985.843203796
980.365379339
974.594975486
968.545142219
962.228898437
955.660245427
948.852936955
941.821724712
934.581025238
927.146291595
919.532582323
911.756049233
903.83241394
895.778557293
887.610910145
879.347126373
871.004395525
862.601176904
854.155444442
845.686457599
837.212947329
828.754896767
820.331681011
811.963828791
803.671130609
795.474353555
787.393334937
779.448625668
771.659589636
764.045955251
756.625943312
749.417713187
742.437544774
735.701174858
729.222063134
723.012629047
717.08264054
711.44037989
706.091203339
701.038679196
696.2833657
691.823958632
687.656310873
683.774596169
680.170554967
676.834647185
673.755479898
670.920907261
668.317581785
665.931951392
663.74987058
661.757456374
659.940716392
658.286256663
656.780911695
655.412320636
654.168558905
653.038605421
652.011978645
651.079116869
650.231023377
649.45957991
648.757206924
648.117127881
647.533051719
646.999405854
646.511056924
646.063559607
645.652992849
645.27639771
644.940223123
644.654552734
644.416388934
644.222057555
644.067922824
643.951954516
643.870955259
643.81509196
643.776532749
643.753802198
643.742871275
643.738403915
1026.79429332
1026.40941701
1025.62637994
1024.43995005
1022.85436583
1020.87396306
1018.50392514
1015.75042599
1012.62045662
1009.12196637
1005.26361953
1001.05495938
996.506117202
991.628012407
986.43202182
980.930222741
975.13502775
969.059476233
962.716839718
956.120965061
949.285853877
942.226058668
934.956238933
927.49160769
919.847464678
912.039688507
904.084246651
895.997725018
887.796813203
879.498862158
871.121343969
862.682424042
854.200393009
845.694242946
837.183068598
828.686631102
820.224727088
811.817725262
803.4859031
795.249942121
787.130233921
779.147324089
771.321193137
763.671642087
756.217556708
748.977233462
741.967639422
735.204682899
728.702487356
722.473623926
716.528430811
710.875243829
705.519810317
700.46557283
695.713234478
691.26114354
687.105041423
683.238556045
679.653113616
676.338503117
673.282903902
670.47347184
667.896424208
665.537583937
663.382450743
661.416650517
659.625953818
657.996618577
656.515355411
655.169579473
653.947335138
652.837476135
651.82955976
650.913971907
650.081801669
649.324926623
648.63587929
648.00790713
647.434842893
646.911157111
646.431855548
645.992572281
645.589558827
645.219411731
644.889426803
644.610626647
644.383211815
644.197445355
644.045739055
643.932032264
643.854766404
643.80026839
643.763840729
643.742776827
643.731496924
643.725812993
1027.97870574
1027.5888692
1026.79958533
1025.60410135
1024.0065788
1022.0113282
1019.62364351
1016.84979148
1013.69693243
1010.17313019
1006.28724219
1002.04892937
997.468526796
992.557061711
987.326111792
981.78783857
975.954839509
969.840202653
963.457357703
956.820156385
949.942726361
942.839579347
935.52546914
928.015526653
920.325121122
912.470018352
904.466241979
896.330249233
888.078788225
879.729084246
871.298688973
862.805666901
854.268430082
845.70591881
837.137413895
828.582698498
820.061841611
811.59532981
803.203815452
794.90820865
786.72938658
778.688239401
770.805340728
763.100945028
755.594622964
748.305211178
741.250418857
734.446734783
727.909017165
721.650373548
715.681761967
710.011883514
704.646851548
699.590166865
694.842530082
690.401968281
686.263835067
682.42109804
678.864499667
675.582949913
672.563787584
669.79322711
667.256659421
664.939070472
662.825289529
660.900307818
659.149432231
657.558497581
656.113940022
654.802930102
653.613390273
652.534069535
651.554518675
650.665120364
649.857035259
649.122202309
648.453269135
647.843575707
647.287081087
646.778344055
646.312461655
645.885077971
645.492148203
645.131194542
644.813024429
644.548088591
644.332457229
644.154669575
644.012491851
643.905219842
643.828503518
643.776305466
643.74235022
643.721756796
643.710137737
643.704385095
1029.56935183
1029.17456123
1028.3769369
1027.16913918
1025.55536903
1023.53998778
1021.12841427
1018.32706226
1015.14328242
1011.58532698
1007.66227494
1003.38399154
998.761042944
993.804655859
988.52662853
982.939297205
977.055450287
970.888308257
964.45144724
957.758797538
950.824580862
943.663330242
936.289842403
928.719218334
920.966828899
913.048372542
904.979850054
896.777633813
888.458446274
880.039434722
871.538148751
862.972610361
854.361282404
845.723130313
837.077571531
828.444515415
819.844284741
811.29762277
802.82557757
794.449466619
786.190717528
778.07078489
770.110945559
762.33216652
754.754856097
747.398683995
740.282290685
733.423060901
726.836795686
720.537449177
714.536785437
708.844120388
703.466028908
698.406185343
693.665228262
689.240801465
685.127645233
681.317854196
677.801147683
674.565249393
671.596259068
668.879111426
666.397993661
664.136773477
662.079323715
660.209816793
658.512910863
656.973916618
655.578887465
654.314707184
653.169123943
652.130784762
651.189223452
650.334853672
649.558924927
648.853489476
648.211341967
647.625972148
647.091498116
646.602613408
646.154515373
645.742849917
645.362981866
645.015782047
644.715125741
644.466896507
644.264954054
644.098836964
643.963913363
643.862689883
643.791163991
643.741750932
643.708903731
643.688792539
643.677144877
643.671312256
1031.57089669
1031.1704116
1030.36237569
1029.1390033
1027.50462093
1025.46370902
1023.0218547
1020.18567145
1016.96274562
1013.36158076
1009.39153029
1005.06273459
1000.38604597
995.372963161
990.03555515
984.386400342
978.438516865
972.205314109
965.700536579
958.938234322
951.93272555
944.69858941
937.25064881
929.603984977
921.773938015
913.776138994
905.626522914
897.341372394
888.937337007
880.431482615
871.841312081
863.184810054
854.480456927
845.747266349
837.00478062
828.273086409
819.572780897
810.924953024
802.351108434
793.873105375
785.513030271
777.293082359
769.235397483
761.361880858
753.693980565
746.252468654
739.057163115
732.126652337
725.477959819
719.126208706
713.084240196
707.362254866
701.967462697
696.903824675
692.171894358
687.768824536
683.688509576
679.921884979
676.457287697
673.280867865
670.377047199
667.72905443
665.319464374
663.130688746
661.145364939
659.346643925
657.718379529
656.245255478
654.912863203
653.707757257
652.617484443
651.63059325
650.736614758
649.926029455
649.190215171
648.521391386
647.912552012
647.357398384
646.850265976
646.386052533
645.960143409
645.568332507
645.206039348
644.878270952
644.598872569
644.368791141
644.178276885
644.021209937
643.897628172
643.807945337
643.740734164
643.693558307
643.662709059
643.641465817
643.629324578
643.623155184
1033.98886192
1033.58163927
1032.76101985
1031.51871558
1029.85923243
1027.78722481
1025.3084975
1022.42992054
1019.15937142
1015.50567129
1011.47851148
1007.08838086
1002.34648442
997.264666829
991.855330298
986.131362322
980.106061704
973.793079314
967.20636122
960.360110381
953.268753438
945.946927748
938.409473775
930.671446556
922.748130276
914.65506872
906.408095399
898.023375926
889.517446822
880.907264098
872.21024612
863.444318076
854.627951296
845.780201794
836.920732796
828.069830869
819.24839884
810.477934099
801.780477047
793.178538066
784.694991105
776.352942706
768.175568416
760.185925009
752.406732515
744.860130859
737.567403635
730.548665844
723.822508112
717.4055904
711.312192858
705.553735867
700.138319513
695.070340567
690.350264909
685.974611183
681.936141805
678.224278947
674.825565836
671.724117483
668.902149148
666.340655713
664.020113811
661.921095659
660.024710666
658.312897812
656.7685744
655.375717558
654.119400575
652.985819637
651.962310734
651.037341714
650.200473881
649.442305196
648.754398048
648.129205165
647.559986774
647.040728459
646.56605441
646.131139565
645.731620062
645.363334705
645.022557716
644.719194214
644.462619881
644.249570407
644.072784433
643.929462311
643.818994347
643.736029364
643.67305585
643.628272837
643.599205049
643.57794366
643.565603121
643.559445532
1036.82980514
1036.41465611
1035.57916284
1034.31442733
1032.62517961
1030.51629398
1027.99384693
1025.06502381
1021.73805895
1018.02216114
1013.9274351
1009.46479564
1004.64587998
999.482956644
993.988836599
988.176786213
982.06044744
975.653765728
968.97093014
962.026326503
954.834505914
947.410168985
939.7681651
931.923506495
923.891393467
915.687250822
907.326770162
898.825959938
890.201197057
881.469285105
872.647511425
863.753703816
854.80628705
845.824337329
836.827623188
827.836639112
818.872615068
809.957510014
801.113970849
792.365268541
783.735193196
775.247924878
766.927863602
758.799439137
750.88688384
743.213986849
735.803805856
728.678344199
721.858159335
715.361899847
709.205748983
703.402801574
697.962413914
692.889638733
688.18486851
683.843796936
679.857671935
676.213945718
672.896916123
669.888116814
667.166892933
664.711318402
662.499176759
660.508751168
658.719337548
657.111495944
655.667126741
654.36945639
653.203013862
652.153623073
651.208416707
650.35581777
649.585475677
648.88817465
648.255738053
647.680932485
647.157367771
646.679399503
646.242030723
645.840812229
645.471754756
645.13093658
644.816650041
644.539826411
644.306886487
644.112226511
643.951540025
643.822591366
643.72281613
643.645129943
643.58826264
643.54568917
643.516609386
643.497993476
643.485286161
643.479362199
1040.10144444
1039.67708107
1038.82429157
1037.53345118
1035.80955249
1033.65773753
1031.08440902
1028.09713378
1024.70457389
1020.91640642
1016.74323219
1012.19648172
1007.2883124
1002.03150739
996.439370508
990.525628531
984.304336074
977.789794503
970.996480859
963.938996624
956.632032104
949.090352945
941.328803276
933.362327969
925.206007519
916.875105378
908.385122216
899.751856769
890.991470311
882.120556398
873.156213401
864.116115283
855.018589184
845.882688051
836.72825661
827.575984369
818.447440343
809.365081516
800.352231253
791.433020007
782.632289673
773.975456681
765.488342582
757.196970325
749.12733867
741.305168217
733.755624104
726.502985965
719.570247679
712.978592559
706.74672746
700.890046905
695.419705922
690.341758873
685.656548143
681.358704545
677.437348766
673.877381844
670.660411105
667.764775342
665.166064732
662.838492112
660.756373646
658.895195995
657.232171621
655.746398335
654.418754529
653.231741133
652.169346815
651.21701869
650.361704109
649.591841818
648.897258581
648.269020154
647.699307621
647.181300229
646.709054839
646.277394507
645.881800185
645.518295556
645.183348379
644.873260327
644.588569506
644.341209695
644.132998252
643.957620425
643.813575385
643.698550985
643.608318194
643.538514493
643.485312432
643.446276616
643.41806831
643.401598661
643.388421214
643.382891428
1043.81274261
1043.37778198
1042.50513326
1041.18430613
1039.42060411
1037.21948254
1034.58773275
1031.53337262
1028.06557425
1024.19457022
1019.93155461
1015.28857209
1010.2784045
1004.91445033
999.210606937
993.18115244
986.840637849
980.203788012
973.28542154
966.100388661
958.663534587
950.98968549
943.093659947
934.990300075
926.69452062
918.221369315
909.586095558
900.804223836
891.891630829
882.86462873
873.740051982
864.535346709
855.268669445
845.958986105
836.626164129
827.291056348
817.975561166
808.702658837
799.496405769
790.381891488
781.385141928
772.532983275
763.852856696
755.372608893
747.120253301
739.123729769
731.410638948
724.00795067
716.941617988
710.236033283
703.913243685
697.991835352
692.4856164
687.402145771
682.741829315
678.497860416
674.656203789
671.198339962
668.103013299
665.344759756
662.894111087
660.720038556
658.79235228
657.083166956
655.567446277
654.222877387
653.029477862
651.969136388
651.025337459
650.183136463
649.429294844
648.752370338
648.142502601
647.591169608
647.091026514
646.63578413
646.220058266
645.839249555
645.489429138
645.167212596
644.869654638
644.593457093
644.341641129
644.124596015
643.939960782
643.784272168
643.658143069
643.558108631
643.478839447
643.416326265
643.366084467
643.328694017
643.303649981
643.287868205
643.275371712
643.269864989
1047.97399085
1047.5269548
1046.6317159
1045.27678092
1043.46780658
1041.21061697
1038.51245567
1035.38187251
1031.82863796
1027.86364241
1023.49877961
1018.74682496
1013.62130085
1008.13634179
1002.30655244
996.146872605
989.672444825
982.898499625
975.840256269
968.512852485
960.931300589
953.110478075
945.065146233
936.809997339
928.35972
919.729078591
910.932997751
901.986650324
892.90554647
883.705629785
874.4033785
865.015914047
855.561125797
846.057799596
836.525745903
826.985919081
817.460516051
807.973042896
798.548338091
789.212541266
779.993004172
770.918139954
762.017223624
753.320154104
744.857209969
736.658810212
728.755299962
721.176734112
713.952580355
707.111248643
700.679189423
694.679544974
689.130016438
684.040690971
679.411975651
675.235509207
671.491721753
668.157346486
665.209150712
662.617411972
660.345471497
658.354823846
656.609335374
655.077191293
653.731133869
652.547828852
651.506823776
650.589672186
649.779407099
649.060568924
648.41969479
647.845605724
647.32900772
646.861952488
646.437697033
646.050631516
645.696049973
645.370045721
645.069408028
644.791477181
644.534055882
644.294660924
644.077506009
643.890296901
643.729670259
643.596120048
643.488530926
643.401707672
643.33137598
643.275311697
643.230690146
643.196073135
643.171886608
643.156771933
643.146108274
643.140469906
1052.59689376
1052.13618663
1051.21544865
1049.82200381
1047.96192339
1045.64145236
1042.86836258
1039.65182116
1036.00230075
1031.93146077
1027.45202049
1022.57761518
1017.3226467
1011.70212204
1005.73149169
999.426484177
992.802951179
985.876723507
978.663493882
971.178728195
963.437618094
955.455072344
947.245750863
938.82413052
930.204596772
921.401545812
912.429490401
903.303161396
894.037607802
884.648302217
875.1512544
865.563139717
855.901452723
846.184672931
836.432436185
826.665702776
816.90690263
807.180048215
797.510790107
787.926410613
778.455733181
769.128958153
759.977421918
751.033322557
742.329434006
733.898878492
725.774975669
717.991171987
710.580989178
703.577706728
697.013676286
690.918434717
685.315948891
680.220187565
675.631734328
671.541150785
667.917838118
664.730921125
661.959798078
659.570587821
657.515146997
655.743676224
654.212129582
652.884357301
651.731490936
650.7300359
649.859962363
649.10297642
648.441629804
647.859630119
647.342980501
646.881111854
646.465760765
646.089751247
645.747037478
645.432880685
645.143370442
644.875409242
644.626633094
644.395221649
644.17982468
643.978820505
643.796970665
643.640085889
643.505446529
643.394691904
643.303375312
643.2279619
643.166257216
643.117329619
643.07819023
643.048463401
643.025604335
643.010280753
643.002150125
642.996982607
1057.69467005
1057.21857601
1056.26920932
1054.83253664
1052.91509023
1050.52360307
1047.6664516
1044.35352111
1040.59609817
1036.40674238
1031.79913688
1026.78793028
1021.38856006
1015.61707087
1009.48991903
1003.02377929
996.23535114
989.141184946
981.75753124
974.100233939
966.184670269
958.025749838
949.637965112
941.035489926
932.232304608
923.242333662
914.079575102
904.758217365
895.292742927
885.698037949
875.989511015
866.183241644
856.296165348
846.346285343
836.352899071
826.336828636
816.320630215
806.328766418
796.387713174
786.52598177
776.774034418
767.164086724
757.72981125
748.505971604
739.528067586
730.832072396
722.454358165
714.431893838
706.802527133
699.605367546
692.880276041
686.666360397
680.997362474
675.894443952
671.356770306
667.379770279
663.906049866
660.890136549
658.330875152
656.19066697
654.400191474
652.89142403
651.609953597
650.515751525
649.579855239
648.780573139
648.099837031
647.520355179
647.024045263
646.592725938
646.211106445
645.869885217
645.562962698
645.284053202
645.027697868
644.790374197
644.569057416
644.361527972
644.16645022
643.982954553
643.810660002
643.649088801
643.503517569
643.376504673
643.268121964
643.177076555
643.101008096
643.038060001
642.986945273
642.945682173
642.911945346
642.88603495
642.866558199
642.851447805
642.845923079
642.841214222
1063.28215971
1062.78880563
1061.80745659
1060.32247127
1058.34091784
1055.87007559
1052.91901862
1049.49845671
1045.62062231
1041.29911824
1036.54875464
1031.38536391
1025.82560574
1019.88675167
1013.58646074
1006.94254101
999.972715852
992.69439962
985.12450933
977.279322658
969.174406812
960.82462059
952.244196127
943.446880081
934.446115142
925.2552242
915.887574863
906.35670527
896.67642354
886.860904265
876.924804271
866.88342442
856.752932956
846.55063151
836.295254313
826.007278669
815.709220359
805.425889849
795.184569934
785.015086922
774.949733349
765.023033325
755.27134032
745.732328349
736.444465465
727.446633631
718.778120187
710.479071718
702.591592894
695.16093243
688.236639498
681.871457674
676.116288967
671.005169832
666.529080059
662.714208226
659.430127374
656.595829788
654.287277031
652.460553185
651.000498339
649.808209336
648.817457841
647.986402661
647.290047043
646.711520331
646.237835701
645.853928038
645.540537359
645.275026605
645.038436525
644.82438262
644.632013777
644.455527026
644.289247192
644.131758992
643.980853766
643.835144888
643.694647455
643.559484453
643.430431532
643.308184684
643.198273906
643.100408333
643.015766537
642.944123107
642.883788562
642.834975711
642.795058411
642.761496052
642.733809442
642.712175611
642.695309768
642.682698186
642.67828916
642.674233044
1069.37595093
1068.86331091
1067.84634492
1066.30755996
1064.25460424
1061.69538072
1058.63975223
1055.0993801
1051.08758559
1046.61918297
1041.71028827
1036.37811789
1030.64076364
1024.51695253
1018.02577827
1011.18641813
1004.01783611
996.538499645
988.7661274
980.717503903
972.408380978
963.853490741
955.066665305
946.061051402
936.849372004
927.444189022
917.85810987
908.103920859
898.194655169
888.143654643
877.964656496
867.671966229
857.280719516
846.807222562
836.26934034
825.686915377
815.082174995
804.480105054
793.908731941
783.399273018
772.986088624
762.706395897
752.59972491
742.707152642
733.070453898
723.731431452
714.731758042
706.113855851
697.922787606
690.209427522
683.034152355
676.469540518
670.597568285
665.478705265
661.060527519
657.51127448
654.483026172
651.78801095
649.78088464
648.374589057
647.339417867
646.530007677
645.871598715
645.329737158
644.889244094
644.544532351
644.291318316
644.120181822
644.008953714
643.925969836
643.842468678
643.757397171
643.684824678
643.616116054
643.542129537
643.466454145
643.387294228
643.303528174
643.217444005
643.129892125
643.042980249
642.958482569
642.881636378
642.811653144
642.750410257
642.698907604
642.655987224
642.621599381
642.591529583
642.565150966
642.54436255
642.527796037
642.514963321
642.505190276
642.499851199
642.497372248
1075.99451265
1075.4603559
1074.4038729
1072.80534385
1070.67307787
1068.01565959
1064.84385369
1061.1704086
1057.00990481
1052.37855187
1047.29397909
1041.77500647
1035.84140404
1029.51361706
1022.8124601
1015.75876873
1008.37303036
1000.67500877
992.683408437
984.415612499
975.88754777
967.113699886
958.107297552
948.880631773
939.445455739
929.813364373
919.996072407
910.005534188
899.853944776
889.553710055
879.117475499
868.558290473
857.889926227
847.127306059
836.287017903
825.387865088
814.45142632
803.502585935
792.569975896
781.686258128
770.888146613
760.216088853
749.713526957
739.425742016
729.398435058
719.67636782
710.302775333
701.320359076
692.774227104
684.717393353
677.219621713
670.379406398
664.341437525
659.235925081
654.800844669
651.781319346
649.094773508
646.025227034
644.247848813
643.462619168
643.039209034
642.730285992
642.474833036
642.266139675
642.116364172
642.040841309
642.056673688
642.167816821
642.347473796
642.535159268
642.644295822
642.682983049
642.734824306
642.780437219
642.797392448
642.804312445
642.797925855
642.774358949
642.741584615
642.699714447
642.653067387
642.604252442
642.55684156
642.513651718
642.476384845
642.444384536
642.41969518
642.39744627
642.376110289
642.359049726
642.346253302
642.335183576
642.326432298
642.319272991
642.314070376
642.313006708
1083.15834275
1082.60025573
1081.50002734
1079.83533001
1077.61515337
1074.84884193
1071.54817202
1067.72714703
1063.40179613
1058.58993938
1053.31094267
1047.58547799
1041.43526458
1034.88277731
1027.9508932
1020.66247555
1013.03989969
1005.10455777
996.876389786
988.373510922
979.612002046
970.60592721
961.367599684
951.908076141
942.23777176
932.367049279
922.306600889
912.067536544
901.661226106
891.099096139
880.392528597
869.553011375
858.592523345
847.524103741
836.362516863
825.124977396
813.831893977
802.507621247
791.181131474
779.886521296
768.66318907
757.555548154
746.612075647
735.883624958
725.421026052
715.272493237
705.481731871
696.08864599
687.132865842
678.66107379
670.742636357
663.497580424
657.195016028
652.115665781
646.583366763
645.063609606
643.787400812
643.045972692
642.784124229
642.7229023
642.684806499
642.612614941
642.502673738
642.375787494
642.25987009
642.172714379
642.118726497
642.069246183
641.952930764
641.700730212
641.439957471
641.474765376
641.707043757
641.94150814
642.063834514
642.155614314
642.224658701
642.255112165
642.274328025
642.274544512
642.265404677
642.248494142
642.229419509
642.212282841
642.197543573
642.185236558
642.176069794
642.164858555
642.155491187
642.148651893
642.142978349
642.137362571
642.131866634
642.127954195
642.123930482
642.123848976
1090.89011446
1090.30544035
1089.1569734
1087.4191651
1085.10173561
1082.2148279
1078.77137432
1074.78682608
1070.27889596
1065.26725175
1059.77324334
1053.81965301
1047.43044931
1040.63048814
1033.44512689
1025.89972212
1018.0190255
1009.8265118
1001.34371885
992.589689819
983.580640662
974.329949497
964.848543435
955.145652624
945.229800616
935.109746942
924.795068794
914.296152097
903.623725054
892.788299825
881.799851295
870.667926848
859.402163661
848.013055129
836.512830635
824.916370454
813.242181892
801.51342948
789.758950928
778.014119465
766.321345793
754.729962914
743.295172879
732.075682278
721.129897363
710.511086457
700.262540007
690.41764623
681.002558014
672.040763503
663.564905777
655.590962882
648.21174133
644.404053621
643.973355013
644.09880043
644.03526641
643.887658509
643.764976342
643.682428522
643.600161181
643.490851725
643.343192105
643.169848917
642.986832782
642.805462975
642.634487218
642.463056166
642.26987
642.063420803
641.90964065
641.850007382
641.773891216
641.519390955
641.298906919
641.468794589
641.672424495
641.749776802
641.824142493
641.859711839
641.885076105
641.896257908
641.905429266
641.912423809
641.9189609
641.92507442
641.929931037
641.931322673
641.934188257
641.935740295
641.936050036
641.935664759
641.934364701
641.933229184
641.931170428
641.931996403
1099.21482
1098.600729
1097.39923521
1095.58088812
1093.15605414
1090.13572361
1086.53414038
1082.36847051
1077.65839532
1072.42570845
1066.69399315
1060.48840184
1053.83545569
1046.76278616
1039.29872935
1031.47173478
1023.30958636
1014.83848648
1006.08210395
997.060726459
987.79070066
978.284341792
968.550458081
958.595517843
948.425261161
938.046305858
927.467095328
916.697702655
905.748712235
894.630005978
883.350040489
871.915939288
860.334250376
848.612061218
836.758144411
824.784076635
812.705442625
800.543227298
788.325306583
776.087882436
763.876540186
751.746670052
739.762552763
727.99450455
716.51311938
705.380792748
694.640596738
684.316998365
674.416975918
664.924676089
655.731916687
646.100910221
645.273285786
645.098152863
645.111376931
645.271609748
645.338733895
645.329343903
645.257353166
645.15725675
645.040166301
644.897926242
644.724417847
644.522090137
644.295505528
644.053114735
643.79825306
643.518718352
643.197818485
642.84863625
642.525474355
642.2656981
642.043947144
641.85614483
641.74511402
641.631071141
641.338547678
641.202336942
641.383871681
641.456795326
641.517120993
641.553755136
641.58928843
641.616953438
641.643048247
641.665679312
641.6824608
641.696504217
641.709135315
641.718721458
641.725909541
641.731256594
641.735344934
641.736693859
641.737482199
641.73870026
1108.15988573
1107.51335468
1106.25394626
1104.34719898
1101.80399169
1098.63612678
1094.85940434
1090.4930784
1085.5591922
1080.08197845
1074.0874918
1067.60346825
1060.65925998
1053.28568676
1045.51465704
1037.378483
1028.9088791
1020.13570006
1011.08555923
1001.78051491
992.237111672
982.466071667
972.472959324
962.259947325
951.828506299
941.182236427
930.328613134
919.27837354
908.043076275
896.632620716
885.05388496
873.310859931
861.405949802
849.34169671
837.122289391
824.75477349
812.250439483
799.626621813
786.90887134
774.133192113
761.348092095
748.615997423
736.013329842
723.627748293
711.550201371
699.861496471
688.605668337
677.798842297
667.43394439
657.421872729
647.043605013
645.759262505
646.248504729
646.540164532
646.710231227
646.84970595
646.946917915
646.990503781
646.969128787
646.89606253
646.779933332
646.61967598
646.417607238
646.17538933
645.896069139
645.588273403
645.255118017
644.890079394
644.485094191
644.050936478
643.621092389
643.216739944
642.825813755
642.452426395
642.133754152
641.880065165
641.698226306
641.560029756
641.305121778
641.037505841
641.14930607
641.220703751
641.284250285
641.327311185
641.370839238
641.405771927
641.434068447
641.459754856
641.481198867
641.498875919
641.513445035
641.525163234
641.534443228
641.539491898
641.542853588
641.544355304
1117.75518065
1117.07325867
1115.75108156
1113.74787289
1111.07450291
1107.7435084
1103.77262014
1099.18380186
1094.0020254
1088.25432796
1081.96940488
1075.17767141
1067.91148971
1060.20526267
1052.09516108
1043.61835243
1034.81171601
1025.71010556
1016.34433763
1006.73914796
996.911526776
986.869922692
976.614925243
966.141873021
955.445342801
944.524383486
933.38601768
922.043810007
910.512556584
898.803462059
886.921738617
874.867080236
862.636122337
850.225379397
837.633165669
824.860572518
811.912794222
798.801401905
785.547421031
772.184731803
758.76344207
745.353292102
732.045991555
718.9545365
706.204127251
693.914651875
682.127644422
670.845469049
659.994529901
648.905445097
647.508700347
647.831678096
648.205705279
648.340343584
648.496398667
648.654502661
648.787246243
648.867275626
648.878109906
648.81988114
648.695414818
648.506926409
648.262328828
647.966596699
647.624415217
647.245351185
646.834154267
646.390263924
645.91322781
645.412662113
644.908015144
644.411480443
643.919443012
643.432817291
642.966594405
642.529353253
642.137278827
641.815382814
641.581124763
641.405189205
641.150100213
640.882688636
640.98142842
641.042244088
641.106964426
641.147929499
641.188242394
641.224826176
641.253289697
641.278551841
641.300478311
641.318295039
641.332530188
641.342325617
641.347575861
641.349825388
1128.03288949
1127.31300446
1125.92377516
1123.8162715
1121.00024944
1117.48870427
1113.30205113
1108.46606558
1103.00954464
1096.96274312
1090.35699259
1083.22521811
1075.60274658
1067.52786759
1059.04179105
1050.18781555
1041.00968705
1031.54922583
1021.84341451
1011.92124053
1001.80082269
991.487581659
980.974548675
970.245955048
959.284696997
948.082253745
936.646467219
924.99834504
913.160379095
901.147369447
888.962544695
876.599099686
864.045213943
851.289443675
838.323057918
825.139753119
811.736374692
798.115718546
784.290971836
770.290494961
756.16290814
741.983301373
727.860194653
713.941626442
700.40932292
687.473984024
675.149120277
663.343498701
651.393844766
649.941663719
650.282825717
650.443387835
650.43842458
650.459253655
650.575310845
650.717980865
650.84204225
650.912200814
650.908466352
650.824300633
650.659666869
650.418816777
650.112834603
649.750010946
649.337643446
648.886661584
648.403505769
647.89102048
647.352010756
646.7938877
646.227729034
645.661204552
645.096081923
644.535407068
643.985651175
643.449112104
642.929513609
642.440176254
642.001455583
641.638412024
641.382628078
641.207913044
640.970673472