/*--------------------------------*- C++ -*----------------------------------*\
| =========                 |                                                 |
| \\      /  F ield         | OpenFOAM: The Open Source CFD Toolbox           |
|  \\    /   O peration     | Version:  v1906                                 |
|   \\  /    A nd           | Web:      www.OpenFOAM.com                      |
|    \\/     M anipulation  |                                                 |
\*---------------------------------------------------------------------------*/
FoamFile
{
    version     2.0;
    format      ascii;
    class       volScalarField;
    location    "2";
    object      p;
}
// * * * * * * * * * * * * * * * * * * * * * * * * * * * * * * * * * * * * * //

dimensions      [0 2 -2 0 0 0 0];


internalField   nonuniform List<scalar> 
24444
(
6.26853546242
-1.32824778618
-2.32565595881
-0.896009749676
-0.892309547551
-2.29788824271
-3.53163133604
7.94201009967
-5.45059787397
-10.7278920218
-2.50784094135
2.94930304912
2.94253192767
-1.65596340421
0.0818802586998
4.75077841691
-4.6647124898
-3.00791394143
-0.482297359274
-0.374123549668
-5.31108308105
8.27335345238
8.88109899248
-1.42847525002
-1.43861348573
-5.33785675396
-5.3082954685
0.819500309753
0.770127398707
-2.03393402661
-7.50204255669
-4.79166559651
-2.2861485701
-8.46905749215
-4.38229328931
-2.01667657502
-1.05967780611
-1.22580865954
-6.25256882267
2.46030873397
-6.21591153506
2.53176011724
-2.71635363326
-2.70631600823
-7.43947097992
-1.12178317784
-0.734813565667
-3.02512588981
-3.87950763837
-2.85064957383
1.74405570223
-0.384707358579
-2.82166451575
0.0352331839595
-2.38208666586
-1.51459044087
-0.605808977698
-4.16463129448
-8.61149434655
-2.06463076761
-2.04004550551
-2.04652522753
-2.5550893026
-2.59288836502
-1.92290978129
-2.47953310757
-1.80740529346
-2.8650358373
-1.10559011073
-3.03665518854
-3.05467141353
1.99003316862
-7.07955899526
-0.989310749566
-2.84326731807
-1.67068905067
-3.78044840924
-2.59909916606
0.669959247669
-2.39155518536
-3.06093306665
-11.5279632184
-3.47451897723
-2.22851903409
-0.0248365115908
1.07419010811
7.61477416439
-1.37160434704
-5.56194601079
-1.36617674928
-1.64219561177
0.0945662060048
5.38139724073
-4.70255640242
-0.367831098114
-2.0427466756
-4.09090755341
-0.0710397384102
-1.54559672819
-2.00464777246
-1.38178700668
-0.798052232954
-0.79646936234
-3.77084564803
-3.012887069
-6.56550283167
-6.58051994593
-2.6918868844
-2.68866841802
-1.3628952248
-2.30819357841
-1.22337899942
0.910026612854
-1.47307127529
-2.04841425375
-4.28492383004
-0.0658242705927
-9.88787091627
-9.81387991151
-0.714339315425
-0.717593627523
-3.03214503439
-3.02981405066
-2.55760687205
-2.55685745653
-2.72960405563
-6.68351584638
-0.74211300079
-3.00849269254
-4.37242455152
-1.29641896545
-3.03800296129
-3.12204148233
1.78594482955
1.74974156054
-5.25936168088
-5.20377226709
-3.88112778437
-2.88159023765
-0.942626124546
5.25990117231
-1.3874971184
-5.43662373658
1.22838118898
-3.04285152403
-1.56531070444
-3.1073737878
-3.05920533497
-0.172971178534
-1.82503653994
-2.03779170494
-1.53850484364
-1.27530412426
-3.2047149995
-0.382574844127
-3.66212062434
-3.65303427474
-1.16938645056
-1.19522976513
-0.175822356122
-0.120374123073
-2.40368109202
-3.04451150977
-0.250969659654
-1.85317566296
-3.36924110754
-4.00943540957
-3.2783366579
-3.2160251286
-2.61375297857
-3.90505131033
-2.93689038916
-2.90448053614
-7.01576039129
-6.98640815724
1.74223906399
1.79376650516
-2.86971095476
-2.85961207977
-0.974890582175
-0.964925145543
-6.86861485524
-2.77088751915
0.0915159432768
-1.68360758179
-1.09075590931
-2.83295829373
-2.83831257323
-0.216890096338
-3.49477232978
-3.48100795019
-2.87492448755
-0.948240074993
-0.503647743848
-2.48052595453
-2.43698123457
-1.322232628
-1.57315481832
-1.89469889223
-0.646382532533
-2.51594745095
-0.49495672223
-1.81148064904
9.73081401413
-5.30439316293
0.546112433087
0.599055757629
-4.51064448046
-4.53494649077
-0.840849625273
-0.580661470446
-3.13805992649
-2.88136787835
-3.53132924778
-1.86054474564
-2.31891770026
0.630281877884
-3.54352109659
7.93894024481
-5.47489010926
-9.47881276786
-3.09483421926
1.6314844578
-1.93583557429
-2.84478706292
-2.84713875405
0.830675127865
-1.93975628148
1.21448778875
1.14025649384
-4.91006217461
-4.84947767045
0.401896949478
0.438026861745
-0.976851553376
-7.61989333886
2.50665003326
-2.32873671016
-1.6637229374
-2.02518529252
-7.78500832088
-2.60951246549
-1.22146726031
-6.22359156747
-2.85875393043
-3.48729810653
-1.36165010578
-2.91490873324
-1.35830414341
1.20177718723
-1.39688477545
-3.55112832576
-2.52786548065
-2.10199853812
-1.56029155187
-2.87678609824
-2.8797092335
-3.64460140815
-2.82518916932
-2.51890472129
-3.91829871545
0.869147020193
3.80437498055
-1.41643508549
-5.2663666404
-3.25863588549
-0.325755074488
-2.32404066208
-2.83302842316
-2.62586984009
-2.94907425412
-0.824561763096
1.96644481602
-7.13857783087
-0.979866437852
-2.8510916771
-0.90827736233
-7.02076816348
-2.64243750383
-2.60194460375
-8.24264233067
-8.2769711961
-5.24420608627
-2.79221246656
-7.25500683818
-1.03043983041
2.80891163009
0.439547640736
-2.74021176987
-2.70230977588
-2.72955333259
-6.68026742763
-6.53980724349
2.68190205212
-2.6379196934
-0.730773402339
-2.34606996028
-0.514169884998
-0.53086034689
-1.45149814401
-1.41792822283
-5.29738649149
-8.29306661992
-7.92381745047
-3.49077737002
-3.24491963648
-3.25330870487
-4.03668616487
-2.87601683591
-3.3978754337
-7.02937582879
-1.05075987729
-0.652984894196
-4.05405324182
-3.36304074758
-2.40213155612
1.007802294
0.578665824613
-3.60898777307
-0.935733691752
-0.214908080194
5.43477209949
-1.38155775263
-5.46723256674
-1.61044818376
-2.43623065516
-1.82815324195
-1.25385003928
-1.26136375406
-0.442374343131
-0.482519278054
-1.08964798441
-2.40055720731
-3.39138883647
-6.73672919504
-6.7217185318
2.00207679307
2.0580725763
-2.80716847816
-2.8117764455
-2.36370544524
-3.66226872672
-5.82732427137
-1.80635863563
-2.47533491745
-1.58586764791
-1.57705951436
-2.12488547465
-2.90840606632
-2.90097002653
-1.11192442651
-1.89595496295
-5.93090082647
-2.95589512006
-1.11290806552
-3.02181910145
-0.244380119398
-9.08550707062
-2.98375186541
-2.52322884976
-4.56495735872
-4.50591993166
-0.611817477891
0.296954175456
-1.59415321928
0.267152343374
-1.58194809908
-2.45031575662
-2.6233299705
-0.921088295846
-0.903515782427
-2.40184083651
-2.92698496228
-1.24820620511
-1.6885379421
-2.21495747564
-2.6112025671
-0.497306952065
-0.52271216098
-1.76886157477
-1.76699050621
-1.24031865995
1.86734120403
4.50533825705
-2.97756114961
3.04567664945
-5.04301021627
-2.55351856647
-2.55931519372
-1.67406792153
-3.11212881065
-1.42270476645
-2.13690532661
-0.915329768048
-0.950307516098
-6.99930499373
-0.653709205916
-8.88709047288
-3.04067782867
-1.41678424894
-5.30550259737
-1.24439442023
-1.26050069187
1.58146962323
-1.7515553143
-5.00745769099
-2.06899586459
-2.10443409193
-2.09364966234
-1.03164987185
-1.02225844609
-0.762763390775
-9.47317393798
-3.10586365407
-3.10653862441
-2.74395690916
-2.29790120884
-1.88251715113
0.996473774725
-5.42719468337
-1.96004457035
-1.32086841284
-4.95671194461
-6.93262575254
-3.20540844498
-3.21830620588
-6.715726694
-3.36300061269
-2.78900391307
-3.86885535882
-1.96976266871
-4.12808945097
-6.99466320295
-1.24016847703
-1.09710677528
-1.66136821229
-5.01593720184
-4.96033662368
1.83514417418
4.58395243765
3.31535911238
-1.13380236426
-3.29454887925
-1.77187820042
-1.75593251442
-1.05714754992
2.09528706611
-6.22870684944
-2.74468229852
0.946564799987
-3.62081031954
-1.50917073214
-0.259092376403
-1.45313994505
-1.46365348361
12.5913534537
11.821535173
0.659191980327
0.602766677631
-5.24669643585
-5.28129625127
-1.1081792432
-0.184958233436
-2.98257205213
1.03349197659
0.969980189035
-4.72235745089
-3.02073420106
-1.98916462573
-3.19396093371
0.919978057121
-6.20869652396
-6.38912158968
-2.57221356092
-0.265617777798
-2.82556120631
-0.986828395633
-7.56066393259
2.56703356461
-1.33121079529
-1.84284198239
-2.27759693371
-3.22558577812
-3.247216414
-1.14904972979
-8.76853048409
-2.82740410778
-2.85066077921
-2.89524017607
-2.8830324626
-2.64815620833
-0.10572994101
-2.66541585568
-0.49337556395
-0.504063886872
-2.11881801774
-2.13369474329
-4.38649824639
-1.88166109387
-3.43637655487
-1.21898805033
1.44276378694
-3.52182078079
-2.65917530924
-3.09829800761
-1.29717045363
-5.03812137924
-2.0445876801
-1.34160825336
-4.71621975823
-2.71235263884
-3.19818226643
-8.21506092977
2.0949767574
-8.17188085397
2.12728169356
-0.89292144711
-0.898973532912
1.67462107225
1.73219126488
-6.51287115508
-6.48506328172
-2.82942362674
-2.81966443782
-0.531451215477
-2.077478976
-3.05485504079
-2.37367069221
-0.690111328299
-1.99851177549
0.151254745213
-4.28122501086
1.4047931414
-1.50093694134
-3.44118675961
-0.982469470864
-7.58073462399
2.53630973798
-2.06168766728
-2.64812306452
-1.76759168408
-3.22749181205
-1.33076556977
-2.38551434195
-1.44024212183
-3.38289876913
-10.2122410392
-3.05016830709
-0.683389981834
-2.53868839895
1.97346202994
-8.4794049412
-2.92235550798
-0.861930020018
-0.565884287402
-0.479817439164
-8.837947903
-0.713386385821
-2.12149656686
-2.7095523732
-3.65849480304
-2.59660545101
-3.58447397874
-2.1521734297
-3.59270520404
-2.14954779535
1.94300211708
-5.61334670344
-10.4109370106
-3.05818649863
-0.669369057223
-2.53131087185
-2.3788556636
-1.73803828793
0.109044423325
0.0985435066095
-0.732502098206
-2.81484999442
-3.01640129094
-3.00246319089
-8.48819829232
-3.54317408949
-2.18539122153
-0.0214458903932
-6.09580887258
-2.16248273253
-1.11454879613
-2.90695698327
-2.95760983627
3.95342970458
-5.24736046285
0.0225226729758
-0.668466331221
-2.65636536023
-0.972069254342
-3.18542344034
-0.698677986276
-1.68367074923
3.46881149794
-4.76396739422
-1.94604138932
-1.87402551665
-1.48759533365
-4.7023021347
-4.6032427981
-0.845587882739
-2.29753645947
-6.07988282147
-3.20197366878
-3.18934974457
3.6215877643
-5.78624264069
-1.27891349921
-2.89769966501
-2.84877376083
-3.6265850789
-1.62910022623
-1.42823981065
-1.38188609495
5.04996887944
-5.44910001051
-2.16745230849
-3.10253411445
-2.56527357326
1.16864374744
1.11519932068
-3.65457918003
-3.23891958846
-3.18605045684
-0.0927695243677
-1.05764796717
-1.6973862409
-3.57915188468
6.69771775092
6.3484707797
-4.10312100542
-3.84379735719
-1.24148790799
0.0315225443602
-1.45117126647
-0.829127668164
-0.817464410607
-1.33309730351
3.22509424262
3.06501801255
-5.00187673983
-5.00111233809
-3.11403884597
-1.26249165792
1.99719753107
-5.66350616682
-1.12085094911
-3.04777465962
-9.04996868124
-3.01656084831
-1.19106494134
-1.95602580562
-6.99691606971
-3.71853802702
-1.05126105007
-2.86661736682
0.881784955487
-1.43315089955
-0.0925374576635
-0.0909160975351
-3.93240585426
-3.94427444613
-1.94665674089
-1.95398245617
6.47371723584
-1.37207425938
-3.45474486375
-1.69437408855
-3.2599289944
1.64603148703
-3.19606545502
1.06556507412
1.67531945308
-5.46668965455
-0.213276324425
-0.875229495499
-1.24526608237
-1.95303649862
-1.09395094013
-6.26789692274
-1.85117688838
-3.80796080385
-3.88526546098
-2.87961986278
-3.06463917559
-0.733111929784
5.47389081746
-2.80527995773
-7.3772191199
2.72351695277
-4.43755515073
-1.96008538518
-0.541714879513
-2.88131108561
-1.14130702561
-6.28006229956
-0.921642576255
3.51480080942
-5.51167821889
-1.33724328231
-2.72305092746
-6.65013072159
0.0365398566602
-1.68101308902
0.0381174231811
-1.66471465973
-0.594791154764
-8.68957218554
-3.05793461793
-2.0198887077
-2.03995232427
-2.8008602933
-7.33920971865
2.75699409112
1.00018140344
-4.15183611412
-2.22045117852
-9.08441479063
-2.98102535402
-3.84530679371
-2.32984547246
4.1122929832
4.32891008904
-5.47901493203
-5.46909826843
-3.44198533894
-1.87773619317
-9.71378111841
-9.70666427036
-3.10933394841
-3.1222894755
5.53879944172
-2.32346023623
-3.48727075166
-0.459708034363
-0.482620948186
-1.8741868226
-1.88266081311
-2.11472216807
-0.816605099504
-2.4112231926
1.56236679295
-3.56092045644
3.38377480842
-5.49692161681
-1.33675758316
0.502788112341
-1.23897534544
-1.85944280769
-2.16792622353
-1.57459196822
-9.37456106632
-2.32933592109
-5.13396510976
-4.81225386237
-7.39245694093
-1.35808108846
-1.05317047131
-8.15642522482
2.10917372485
-0.89918050401
0.547637004895
1.40418155482
-1.54495417245
-1.93932233208
-2.9703412613
-0.0286957045261
0.852736794552
-0.150959532763
0.868405785874
-0.28307888595
0.0580295295421
-1.37223316406
-0.645951908678
-2.51314780323
-3.38170415137
-1.81038702413
0.496758205854
-6.34496623541
3.62891060935
-5.92403658591
-1.2509210399
-1.96090311378
-7.08780737547
-6.35766355372
2.02575222402
-2.76903090814
-3.48808775693
-2.02296511491
-2.01636071519
-2.41690939872
-2.23642526812
-2.42596957646
-1.70039253647
-1.64651149086
-2.3410134203
-2.35533605267
-1.37250957205
-5.71866183101
-0.848796218755
-1.37220621329
-4.00530270323
-0.783986494364
-2.74525941003
-2.76310015239
-8.61977014113
-8.57606726607
-0.132308739687
-1.0445714146
-2.35144621667
-2.36286672853
3.35850482571
-1.71460983331
4.44558506658
-1.28468424309
-5.8435231267
-3.67602310762
-3.63471217864
-0.064101237459
-0.0651843024833
-2.81560639582
-2.82044769056
-1.86861872445
-1.65516627913
-9.09333358433
-1.7546542393
-2.24146309221
0.0728340724959
-2.87919662777
-3.50109362028
0.74621293952
-2.51156264839
-0.910677243936
-4.22614730434
-7.06145913517
-1.27675861504
-2.79888441571
-1.92247436196
-1.44350653989
-1.4086306986
-0.555544093599
-2.0073633919
-2.79216582328
-2.79852566635
-1.25607319774
-2.66085409631
-2.65276519461
-2.85510444087
1.89537306978
1.99115175327
-5.32501906148
-5.3178970803
-1.67526999582
1.69284057127
1.71139699742
-2.82454236582
-0.98784457225
-7.54980689837
2.56953793441
-2.54048792156
0.0741026027137
0.0455366494356
-1.71579361609
-1.70048907625
-4.54583682547
-1.88156316161
-0.917519865725
-4.70068381894
-2.34487757842
-3.42737933059
-2.78778011758
-1.06117214371
-2.23381654774
-3.10411120945
-2.16204489782
-1.5942116765
-2.18216708644
-0.665411636754
-6.51182576165
-6.48035443074
-2.70093244113
-2.69458493766
-4.64280079903
-4.41325970148
-4.98765129872
0.436561926954
0.46905791209
6.4619905197
-5.56843132624
1.61060731303
-9.18154927946
-6.64355132289
-6.45029528575
2.35380850367
-4.78459353317
0.519521693326
-9.90771908118
-10.0901947869
4.47783228523
-5.49920364604
-1.36034357924
-2.91919059028
0.888695686568
-3.21781432128
-2.38902253227
-7.84851652378
2.3009331631
-5.89547407018
-1.2344507604
-3.05415156043
-1.48136918367
-2.72181333741
-3.192258859
-3.81912006784
-0.113180190374
-1.89041058663
-2.76432308686
0.780511805825
-2.22574925032
-3.28155912982
4.54101590493
-1.29482884037
-5.80167094406
-1.76522219172
-0.850530165012
-0.987437243308
-6.44383459673
-0.318190964787
-5.56428505024
-3.36988478938
-2.99210672153
1.62405309078
-6.71936392175
0.718869977216
3.5006797724
-1.12237438342
-4.0309728263
-1.36897121564
-1.95275177114
-2.67047655457
-4.24964172719
-1.6893703658
0.347865389526
0.286340559275
0.754930882607
-0.0180204275561
-3.49138549609
-3.79485367436
-2.03548588962
-0.99828505442
-2.13672087785
-4.38930713214
-2.14807871493
-4.32630854702
2.62078686088
-2.63289959787
-1.17718028134
9.78861782944
-5.32995188478
-6.78759276928
0.47425004942
1.29151146937
1.29624565557
-4.72631029507
-4.70692561018
-0.251054468669
-1.86212177159
-2.09504006214
-1.44005826983
-0.268896635458
-2.01342833574
-0.0407474962013
-4.37205321955
-3.91078957831
10.0595515763
-1.41967273775
0.830169980625
-5.39226740671
0.834668948826
-2.02102319655
-0.0492456744112
0.908097834832
0.885701730759
-0.719453457913
-4.00727212301
-3.96057189057
-6.44389522847
-2.05447916989
-0.197225976646
-1.83072784117
-2.21150200177
-4.65816012195
-3.39841859616
-2.15064953408
-2.34054867109
-2.35587130012
-2.41387137977
-1.38656766518
-1.43011945527
10.719573765
0.775319806764
-5.35760065115
-2.74003214838
-2.01149143105
-2.20195387368
-0.954838846695
-2.48869828034
-0.70806159355
-2.76380676701
-1.31857509314
-1.35232761831
-2.57417716637
-1.33777621978
-0.113001822648
-1.39399974245
-3.59944151209
-0.235848103067
-2.79109986728
-2.76868288513
-5.52356016792
-1.62692354034
-1.31074509706
-9.60767615626
1.04003741035
-7.09051424251
2.35393330113
-1.01607366667
-2.41453055289
-1.78164916632
-2.5088165493
-4.65383306962
-1.13465551298
-2.35068037276
-1.14003951621
-1.72395075073
-3.40938045466
-2.26645121349
-0.898797243567
-3.47840529108
-7.36020607197
2.55445358657
-1.00464313074
-0.497943932603
-0.517352719215
-0.523483112707
-2.11323187783
-2.10747752159
-2.12103711467
3.21902168359
-1.11307127279
-5.56495221496
-2.64358618169
-1.19707751601
-6.73355895411
3.48902949726
-1.12029112053
-3.39670807593
1.59535523953
-2.4867830051
-3.15650844878
-0.263147850902
-0.933883038253
-2.73253203216
1.11869506892
-1.53487219266
-2.61363019976
-1.22226914387
-3.57602951175
-1.41750758499
-2.47713007969
-0.145965998398
-3.35590399725
-2.30960237895
0.00837914606758
-1.1135313247
-0.533643414826
-0.597341499566
-1.68834347624
-1.70645705055
-0.150146356202
-3.52271691867
0.611641885786
-4.3557896208
-4.31415296602
0.416468283099
-1.5636472833
-2.31457695114
1.58505882799
1.64328739074
-5.69812760068
-5.69870092302
-5.2570221183
-2.73567434395
-2.43410039895
-8.28918244413
-3.22802208614
2.19045572461
-5.5028683481
-1.07118631345
0.293107968234
-1.62304705174
-3.1315199622
2.84441398639
-5.67717092491
-2.60558146338
-1.46332746776
3.3733541566
-2.60103041683
-6.44949257855
-3.70370589069
-3.72209123107
-2.07223880667
-2.06227594295
0.109399290123
-2.71579406978
-2.70867173992
-2.87036129784
-3.99831426443
-3.7869037061
-0.0530316297246
-2.04015407549
1.07595810182
-2.17547118453
-3.61356677553
-8.08179045067
-4.45519856972
-2.92536621191
-1.90533171302
-0.130969932174
-2.64223887516
-3.3893990099
-3.40818051017
-3.4141844028
-8.13057220783
0.113126892161
-5.4435588622
-0.119047007457
-2.81916753471
-2.62092205205
-4.35683557935
-3.09023027525
-3.17940903391
2.89838977777
-3.58512887016
-3.55856392288
-1.46919964182
-3.70210726212
0.856150831775
-2.91433578003
-3.70116299124
-0.914542057684
-0.0375879580254
2.19169720676
-4.75960191378
-1.09728356156
-1.13827533112
-3.13711600696
-2.48785194273
5.95707528029
-1.42270595292
-5.32685525785
-1.12179073706
3.27449035755
-1.11963232821
-6.22616567998
2.61835448749
-2.70158044866
-1.70874301754
-1.83744872427
-2.38002832903
-2.69242167528
-3.55262588685
-8.51873991441
1.93974021142
-2.92837487321
-0.854293281241
-3.65860143178
5.29540033016
-1.40976613183
-5.34816786393
-3.6755657074
-2.08736446831
-1.04482551333
-0.408859270939
3.6300046266
-0.938227309606
4.48405449166
-5.54781121275
-1.34937422041
-5.77810613784
-5.7118819735
-3.62295857527
-3.09762432056
-6.56660081948
-2.83309886505
-3.14030594419
-2.40244327733
-1.03253193822
-5.95287863963
1.98889177763
-4.93785338803
-1.50742402885
-1.50365328221
3.91187143917
-1.26665658384
-5.88035453294
-0.48561986932
-0.683772996595
5.24777170408
5.6647530753
-7.94722193636
-1.50973804419
-2.11282495396
-2.09769661097
-1.51600832279
0.0352399738974
-3.45349130675
-2.24223243936
0.0529964969431
-3.47060250484
-3.39414389824
-3.3726780885
-1.03013573701
-1.01107327917
-1.69630966094
-3.83669163905
-3.22603748534
-3.62870470555
-1.82675520352
-7.72897983777
-1.86873066185
-0.852551925442
-6.17960665117
-8.15866749534
-3.24147189371
-2.96250759787
-0.286290294663
0.70316017071
0.706806943001
-0.387199947978
-2.90701165971
-0.361349828396
-0.650579195871
-4.13529022141
-1.34776293479
-1.03461847679
-1.02582342913
-2.36356244574
-3.98346034625
2.73587535569
2.45684374808
-4.53391659989
-4.49577371027
-1.60465600443
-2.49263316573
0.83695849482
-0.976485216245
-0.118404125866
-4.13453653377
-6.36602991914
1.96021874265
-2.77772753639
-0.65912046559
-0.663074832908
3.03735126758
1.46516018054
-1.41513917551
-2.10910463939
-1.43343492217
-2.30882172741
-0.439624062906
-0.412710941187
-1.75194813373
-1.74023507342
-0.95341823805
-0.949030583893
-3.17142731998
-2.62686874009
-0.362270690464
-8.95754412367
-2.9095428897
-3.77142276429
-3.08215624349
3.47114722283
-1.30829463424
2.65246053913
-2.64863417658
-0.542967702615
5.5242897024
-2.49882143366
-1.92827345558
1.21467613697
-1.28970749653
-0.682862554002
-1.33622424691
-1.32460022856
-1.31691447307
-2.58381637728
-0.436546104528
-0.459841519362
-2.99196985211
-3.36474186058
-2.19505218441
-1.23578318882
-2.08310580372
-2.06823769242
-2.7552074
-0.0360070387486
-0.0601209258793
1.10329196658
-2.01356558633
-4.43672236061
-1.47281901298
-2.1346385471
-2.28674074949
-2.30151810011
-1.46279096255
-1.46380764156
-6.8774780104
-1.78361409033
2.32977496626
-7.81854943887
-3.84012301512
-2.63497510286
1.77357887486
-0.742525739925
-1.77881865854
-0.336456693411
-3.03322092088
-2.96720934638
-2.97493145845
-1.8891386084
-1.0669952701
3.05112828524
-2.51274710311
-1.84782024484
-3.83084770413
-8.36874727565
2.02824106041
-2.91240491791
-0.87549900009
-5.24851152421
-2.25557341276
-2.05990304967
-3.79818536141
-2.35341929937
-5.43634800345
-1.29361913266
-1.40792880369
-1.79769981878
-1.78757182918
-0.389084926817
-3.30994555663
-1.12067134707
-2.83534738219
-3.79921652913
-3.52874140278
-1.53968388337
-2.54308563991
-0.555041522128
-3.13340997328
-1.45802381615
-7.62564623175
2.47138700442
-0.973876092267
6.35014836026
-5.60503044684
-2.39038255454
-2.68552614768
-3.1283153215
-3.12749526574
-1.2261583491
-2.7780298257
-7.17873032574
2.94406685151
-1.14528257516
-1.13831840245
1.40093067962
7.67679342234
-5.54270698329
-10.3783149036
-2.077848409
-1.20320842878
-1.37743648315
0.457376097931
-2.42828960005
-1.36500616615
-2.73849855589
-3.28161481616
0.271232351174
-3.07025477432
0.870528064549
-10.9761817382
-0.0898823878263
-1.38544481876
-4.79410533804
-3.71676517507
-3.41476995288
-2.26319996122
-3.36705453716
-3.35672836743
-1.99067827774
-1.40860859251
-2.79366486738
-2.25925504398
-0.595777309047
-0.607462028567
-4.4544837523
-2.31554692398
-1.76237695105
-1.78506149447
-2.91442693038
-2.40849155721
-0.966641466839
0.565094741107
-1.04000010081
-0.826546421958
-2.47826149246
-2.84954816185
-4.78614820241
-2.94133287673
-0.835411464623
-1.21380957692
-2.63295773985
-6.26211455495
-2.79937292463
-3.15920445846
1.16013873533
2.81442429876
-5.72339591049
-8.98799473295
-2.9595330799
-0.8102127326
-2.61653359301
0.682835253129
-2.61212090638
-1.7507487719
-0.95608596477
-0.0702416241687
-9.77625267787
-0.655919070383
6.905020993
-0.350420195124
-0.578164749034
5.38724239901
-1.40222805806
-5.3822645429
-2.85791827534
-6.47667683547
-1.80807477777
-3.52977455228
-4.64775279555
-2.45007522129
-2.50706158145
3.22031817369
-4.96082053281
-1.96391531088
-0.397157263244
-1.60813393036
3.85278511114
-5.83059656236
-1.275157177
-3.06842759088
-2.86326946747
-2.63611954994
-1.63369922962
-1.99761409425
-1.99552913227
2.72609934183
-4.83057911715
1.25193241712
-1.79144265581
-1.66284138947
-1.66095219344
0.0225768605482
0.0215984635706
-1.72243668458
-1.71568209268
-0.301305544345
-6.26875984834
-2.65916613438
-2.28804027621
0.4423087443
-2.27155257088
-2.95266641819
-2.93755043984
0.810805188368
2.64087848052
-1.01362558453
-0.481414076576
3.63770334365
0.904531101313
-4.67726128203
-2.61758537498
-2.61078422554
-1.38505620606
-1.10528023077
-2.04860025687
-1.46261432641
-0.672384813997
-2.69272709223
-2.70531474175
-3.05310714136
-3.06460282865
-1.66007334594
-1.67033846509
-2.88876014774
-1.35243466542
-7.39453670429
-7.46189706797
2.50319934678
2.45668169381
-0.997620496235
-0.987656232928
-1.79646344566
-1.05740298603
-3.79848089085
-1.94230302218
-5.183887803
-2.72394880943
-0.0772982607769
-0.601963932148
-0.362518589665
1.53196065839
-4.81598691649
-2.50855599179
-0.899336652966
-4.41697463193
-0.331669119111
-1.24213531619
-5.57850464438
-2.57520030142
-2.58219366888
-2.96356771608
-0.963130977254
-0.950213801662
-1.99947772364
3.92639756436
-5.78920983333
-1.28529612392
0.369385060857
0.416060261989
1.5769770747
-3.23162769034
0.880101334569
-3.18500866359
-3.21420087403
-0.0274288060317
-6.79785221536
-1.61161234647
-1.85776765611
-2.00761767091
-1.67825780918
-3.09081470963
-7.09815298079
2.8404329323
-1.04891366473
-3.12391449246
-3.10222490638
-2.33811120795
-2.72920805031
2.61547677857
-4.78899349177
-0.0580492300333
-2.15349484505
-6.88802126824
-3.59636516383
-2.92810978044
-4.14417563132
-1.27978511198
-3.37907364259
-2.41682597375
-3.38925011472
-6.75792455576
-0.339411125603
0.163613421537
3.71019760036
-5.94361774903
-1.24959663403
-8.52229615642
-3.05183320469
0.737490862425
0.752610444151
-10.9762681536
-0.475393663013
-0.755198528304
0.400274715416
-1.89322729735
-1.49529171749
-1.54411935285
-2.93488287777
-3.23210450804
-3.24570916303
-3.44490581284
-6.0883524804
-6.05739180432
-6.04137690275
-1.37013894281
1.85863080008
-4.68492529605
-4.9939182474
-2.27573618799
-7.52462084328
-3.56193285524
-0.0340921599927
-2.17390250499
-0.961501775083
5.23974151291
-2.34627657952
-4.99398726399
-1.11121823392
-2.82867107161
-2.47676016306
0.472518516453
-2.41149785714
-2.70468002811
-2.71432423646
1.0537280506
-1.37617276949
-0.213615139834
-1.75708788088
-4.24717610691
-2.62538703715
-6.23277109165
-1.8693084738
-2.74754179518
-1.71585269411
-2.45974550462
-2.61056572344
2.43547426731
-6.31108745814
-2.72572753629
-6.40102827071
-1.05723007146
-2.30235429226
-2.30462086833
-0.778048838349
-0.197632528179
-0.177228115548
0.899629630867
0.859253767991
-0.239684955061
-7.12909391239
2.3720912933
-1.01466568857
-1.36329095064
-1.417630649
-2.52463838931
-2.54236012995
3.19992682781
3.22838363977
-2.42189932142
-2.36634954257
1.51675436927
1.41633833932
-1.30657211708
5.83857927118
-0.734117718299
-0.788667499265
-2.59984136332
-3.4729563583
-2.43661042409
3.36524332553
-2.23817234844
-2.24597353874
-3.11341888915
1.63806103913
-1.39567715269
-3.14171324416
-2.7992106959
-1.39946039919
-2.4309594078
-1.98828966818
-2.00979649368
-1.65516211752
-3.96144446036
-3.96740815309
-7.27728260812
-4.90766650271
-3.09753133158
0.336733390526
-2.80148004268
-8.01496994433
-0.075884474497
-2.17693389603
-3.55466146308
-1.30704404808
-1.65797103326
-1.20467839461
-1.20537865678
-3.38185850174
0.255121043999
-1.65696985794
-1.67158889623
-2.41535327501
-4.17157160656
-3.77928712679
-0.0432324575959
-2.04378594135
-0.665993957349
-3.4191818131
-3.40279992
-3.44035507549
-2.76952548936
-7.11822463824
3.01604523801
0.436315477678
-1.55948152322
-2.7244150195
-1.48375075486
-1.5067959514
4.69043360836
-5.04476699072
0.866771146302
-0.43474479369
-0.697794564733
-4.04455512853
2.85575483588
-0.998776755082
-4.53151421578
-2.17617490137
-3.52865462423
-1.85236845836
-5.73795472813
-3.26445784941
-1.83988865878
-0.19867077764
0.367856094107
-4.4092538103
-2.63697488877
-1.16478949951
-1.48196452618
-1.07301309644
3.07728388461
-1.70599238041
-2.33448380017
-0.332563911343
-0.978192918908
-4.98828133338
8.11464621095
8.39811831873
-5.37954218728
-5.39956894387
-2.51567265735
-1.44566266895
-5.24432260793
-2.42512371914
0.85512100384
-2.7732644703
-2.7933496745
-7.14625912143
-7.30156356833
-1.0264485736
-1.0505884319
2.82497403209
2.98515046074
1.72813411488
-5.52384303868
-3.46115332692
-7.44321277993
-2.80614988145
0.49362010225
1.45791705354
5.6399123696
-1.29724120238
-5.87692646399
-3.05940085838
0.885911392573
-3.03949562416
-2.99010603448
-1.21729404622
-9.050209765
-0.804820636562
-2.96365147236
-2.61275100754
-1.7655636968
2.22819256068
-4.47391083838
-2.43731373575
-1.44883185514
-1.07212344571
3.08247516318
-0.955351451771
-7.75799056407
2.37040833966
-2.84470850812
7.00370329018
0.446283660282
-0.320989952985
-1.2819674119
-1.27449075227
-1.24617314472
-2.68591043833
2.82156065035
-7.30463152758
-2.79376132579
-1.05088781536
-1.02598910512
-3.49217680556
0.559243047782
-0.811227455649
-0.485918363208
-2.29469996533
-2.51259610079
-1.09248834902
-0.311781958102
-0.351200629792
-1.43476514483
-1.41477711867
-14.1905222215
-3.3700559144
-0.120248340968
-2.29996356857
-10.7574075662
-3.09366901252
-1.43001169523
-1.33611148652
-4.44077087925
-1.37270932888
-1.13300162715
1.20113947725
-0.961152498082
-7.71466640325
2.39138233503
2.24525266954
-8.03614020752
-0.920226940473
3.72690286356
-2.87781853813
-1.1442318919
-6.61223405847
-2.69363486893
-2.89092738782
-1.07351679678
-1.78457585798
0.630788787192
-1.10336008864
-1.11159087499
-2.79534692753
-0.73037417268
-0.730926515154
-4.20775592066
-0.899712997926
-0.0609238133441
1.36445120716
3.19420464812
-5.0987571907
-2.84827998507
2.4162859773
-7.77325900776
-1.27356715389
-1.80690088236
-1.17723372395
-3.14014155468
-3.1363408769
1.14563202943
-3.22777166568
-10.1622537798
-5.21603071242
-1.18483601806
-4.58930611735
-3.21354709439
-0.0303775114728
-3.39555772304
-3.79720965683
-2.03349076916
-3.83006625889
1.76419638395
-4.64996060279
-0.440029229226
-0.338994395713
-2.46340928551
-2.47834899245
0.337847439622
-0.289317385417
2.25970984739
-5.4838834858
-11.762730903
-2.46430816845
-2.35476923291
3.71726368447
-6.07287040976
-1.22435604296
0.0440122513147
-0.827462365121
-4.28932607652
0.499261890845
-2.45296104588
-2.87018143205
-3.61230209454
4.02755863251
-5.51814259947
-3.12698598384
-3.18104349798
-2.33709335139
-2.33286702197
-3.23349356024
-1.59826732884
0.65899475132
0.653497498927
-5.92670971639
-1.25555447192
3.82881772316
-2.13097822611
-2.22512082175
-2.59513258984
-3.0405497126
-3.05778670874
-1.22917773265
-0.402479126993
-1.7362248489
-0.560485413168
-2.14265389389
-0.305156904279
-4.41291417514
-4.03374093094
-3.63518954254
4.92222431206
-4.15753106817
-3.2572993519
4.10836915886
-2.60827842482
-7.18852514263
4.33001290671
-5.57117458699
-1.34001821059
-3.04669625913
-1.22153751922
-3.22857619043
-1.32736057279
-1.33714775595
-3.32091768897
-0.785491726077
-2.59609300301
-2.39472241442
-4.38478825537
-0.676311917279
-4.64012388527
-4.0517606013
-2.43454520556
-6.54362246347
-6.87321653372
4.02831454031
-7.4013238311
-7.36480238638
2.44281609772