/*--------------------------------*- C++ -*----------------------------------*\
| =========                 |                                                 |
| \\      /  F ield         | OpenFOAM: The Open Source CFD Toolbox           |
|  \\    /   O peration     | Version:  v1906                                 |
|   \\  /    A nd           | Web:      www.OpenFOAM.com                      |
|    \\/     M anipulation  |                                                 |
\*---------------------------------------------------------------------------*/
FoamFile
{
    version     2.0;
    format      ascii;
    class       volScalarField;
    location    "2";
    object      pa;
}
// * * * * * * * * * * * * * * * * * * * * * * * * * * * * * * * * * * * * * //

dimensions      [0 2 -2 0 0 0 0];


internalField   nonuniform List<scalar> 
9216
(
5242.77119019
5242.50164383
5241.65272965
5240.10191257
5237.7950351
5234.69416661
5230.76262953
5225.98159476
5220.33191463
5213.81406884
5206.42490592
5198.18157234
5189.09408413
5179.19306506
5168.49869675
5157.05187469
5144.88002358
5132.03126832
5118.53760405
5104.45164709
5089.80760641
5074.66020911
5059.04391249
5043.01358196
5026.60232726
5009.86355966
4992.8278266
4975.54587093
4958.04477334
4940.37175095
4922.54998743
4904.62264951
4886.60810345
4868.5424375
4850.4289674
4832.28785926
4814.12171845
4795.95633054
4777.79894747
4759.68072659
4741.61321631
4723.62969102
4705.74286895
4687.98576135
4670.37068763
4652.9292173
4635.67249619
4618.63001304
4601.8113333
4585.24351581
4568.93437506
4552.90839136
4537.17158881
4521.74583453
4506.6354204
4491.85965495
4477.42120055
4463.33690413
4449.60794028
4436.24883015
4423.25940944
4410.65201914
4398.4253174
4386.58962501
4375.14257516
4364.09262298
4353.43652966
4343.18104109
4333.32218423
4323.86513977
4314.80533285
4306.14651827
4297.88363426
4290.01913443
4282.54757683
4275.47023192
4268.78136713
4262.48117559
4256.56371599
4251.02820616
4245.86856674
4241.08313852
4236.66577937
4232.61405941
4228.92186121
4225.58610517
4222.60081245
4219.96240027
4217.66517254
4215.70526403
4214.07749418
4212.7780644
4211.80230055
4211.14452723
4210.79026402
4210.68136588
5243.18977214
5242.96910601
5242.18984421
5240.72322571
5238.51192545
5235.51141937
5231.68435664
5227.00699079
5221.46178242
5215.04446976
5207.75472289
5199.60468349
5190.60811829
5180.79035952
5170.176135
5158.80078999
5146.69698424
5133.90707435
5120.4688612
5106.42899812
5091.82796584
5076.71436771
5061.12928952
5045.12133181
5028.73049968
5012.00382549
4994.97892769
4977.70007881
4960.20155321
4942.52419104
4924.69885905
4906.76314423
4888.74450872
4870.6754939
4852.56290037
4834.4155222
4816.24269608
4798.06257909
4779.88787168
4761.74374862
4743.6491462
4725.63136076
4707.70998379
4689.91201338
4672.25637695
4654.76875126
4637.46664618
4620.37382434
4603.5059673
4586.88461081
4570.52341988
4554.44157302
4538.65067104
4523.16752238
4508.00170774
4493.16772902
4478.67324583
4464.53056383
4450.74555487
4437.32846724
4424.28353464
4411.61910093
4399.33791956
4387.44658892
4375.94653893
4364.84278018
4354.13557207
4343.82849054
4333.92076831
4324.41469106
4315.30859957
4306.60362406
4298.2973353
4290.38983103
4282.87802287
4275.7610883
4269.0353775
4262.69924899
4256.74857969
4251.18100291
4245.9920024
4241.17857641
4236.7358978
4232.6604261
4228.94711668
4225.59199961
4222.58992502
4219.93662004
4217.62695812
4215.65653525
4214.0204622
4212.71436962
4211.73340459
4211.07134325
4210.71280106
4210.59783455
5244.40709897
5244.22375413
5243.47981079
5242.04693393
5239.86608054
5236.88834517
5233.07565921
5228.40254396
5222.85301867
5216.42190815
5209.11130692
5200.9324766
5191.90199202
5182.04410017
5171.386533
5159.96327187
5147.81007817
5134.96764511
5121.47691439
5107.38258769
5092.72828722
5077.56039819
5061.92312435
5045.86261333
5029.42194065
5012.64546801
4995.57381495
4978.24839965
4960.7064507
4942.98607418
4925.12174338
4907.14952105
4889.10259382
4871.01467494
4852.89027434
4834.72814978
4816.54046572
4798.34092346
4780.14471257
4761.9753135
4743.85542882
4725.81028253
4707.86273532
4690.0374562
4672.35633036
4654.84261
4637.51654483
4620.39946186
4603.50960629
4586.86611465
4570.48506262
4554.3832984
4538.57469224
4523.07381136
4507.8923729
4493.04274202
4478.53458564
4464.37818594
4450.58129679
4437.15226319
4424.09707736
4411.422303
4399.13233119
4387.23210575
4375.7245748
4364.61321982
4353.89970151
4343.58619207
4333.67321031
4324.16176189
4315.05136106
4306.34198015
4298.03225283
4290.1212385
4282.60680369
4275.48720433
4268.75963981
4262.42166002
4256.46988801
4250.90125645
4245.71189405
4240.89820011
4236.45589173
4232.38092295
4228.66868873
4225.31479544
4222.31441506
4219.66290452
4217.35531221
4215.38684421
4213.75252507
4212.44746896
4211.466289
4210.80192049
4210.43828271
4210.31422106
5246.62112419
5246.47385799
5245.73706601
5244.29896029
5242.10397295
5239.10158282
5235.25334337
5230.53353636
5224.92732477
5218.43009221
5211.04562822
5202.78588545
5193.66926452
5183.72058965
5172.96938066
5161.44998716
5149.19984961
5136.25979038
5122.67228816
5108.48193094
5093.73372943
5078.47372896
5062.74737375
5046.60026356
5030.07657207
5013.21992075
4996.07189505
4978.6730295
4961.06149623
4943.27481657
4925.34931621
4907.32202206
4889.23038191
4871.11162641
4852.96408364
4834.77724578
4816.56388819
4798.33443517
4780.10482811
4761.8991467
4743.74210556
4725.65896235
4707.67408389
4689.81181678
4672.09523723
4654.54707421
4637.18856385
4620.04039818
4603.1216701
4586.45082574
4570.04468666
4553.91938836
4538.08947076
4522.56879028
4507.36967176
4492.50378515
4477.98135461
4463.81199404
4450.00396962
4436.56499025
4423.50152131
4410.81952766
4398.5238365
4386.6188314
4375.10786269
4363.99389234
4353.27895002
4342.96472861
4333.05208473
4323.54158543
4314.43305162
4305.72605647
4297.41951047
4289.51211277
4282.00197659
4274.88703449
4268.16470304
4261.83224378
4255.88646631
4250.32404633
4245.14126722
4240.334298
4235.89897402
4231.83103777
4228.12595772
4224.77913273
4221.78574435
4219.14091822
4216.83959818
4214.87666695
4213.24684352
4211.94460665
4210.96390579
4210.29686216
4209.92609474
4209.78888386
5249.90706373
5249.79854256
5249.04598215
5247.5709556
5245.32640554
5242.26219961
5238.33991667
5233.53411003
5227.83087842
5221.22659058
5213.72647687
5205.34373057
5196.09833243
5186.01633586
5175.12878383
5163.47110593
5151.08210504
5138.00346468
5124.27881746
5109.9533705
5095.07306571
5079.68432685
5063.8333141
5047.5657835
5030.92642551
5013.95881749
4996.70491024
4979.20508703
4961.49792354
4943.62126151
4925.61294882
4907.51204403
4889.35984669
4871.19742289
4853.01409242
4834.79022869
4816.53873672
4798.26697838
4779.99110941
4761.7365226
4743.52944732
4725.39594025
4707.36135809
4689.45043408
4671.68689568
4654.09360058
4636.69221978
4619.50341482
4602.54657252
4585.84001016
4569.40075062
4553.24474253
4537.38666529
4521.84015582
4506.6176375
4491.73054604
4477.18917647
4463.00290453
4449.18004903
4435.72808477
4422.65351711
4409.96208521
4397.65864771
4385.74737422
4374.23164024
4363.11420675
4352.39712397
4342.08189796
4332.16940189
4322.66003
4313.55361625
4304.84957493
4296.54682587
4288.6439223
4281.13898265
4274.02980542
4267.31380717
4260.98812512
4255.0495617
4249.49467507
4244.31973083
4239.52078215
4235.09363004
4231.03389425
4227.33698112
4223.99814544
4221.01245762
4218.37484557
4216.08005789
4214.12265447
4212.49695066
4211.19693406
4210.21580169
4209.54461014
4209.16455592
4209.01044653
5254.319957
5254.25535393
5253.46772467
5251.92806293
5249.60196943
5246.44123889
5242.40806318
5237.47767652
5231.63723053
5224.88436834
5217.22585973
5208.67649237
5199.25796531
5188.99797024
5177.9292162
5166.08863148
5153.5164929
5140.25574183
5126.35122159
5111.84911299
5096.79628515
5081.23984988
5065.2266214
5048.80277977
5032.01342723
5014.90234421
4997.51173201
4979.88209091
4962.05236581
4944.06115661
4925.94799472
4907.75456243
4889.52601873
4871.30551951
4853.07183892
4834.7970221
4816.49348686
4798.16553159
4779.82955682
4761.51245555
4743.24189871
4725.04499466
4706.94800516
4688.97627087
4671.15406186
4653.50455407
4636.04972504
4618.81036781
4601.80602323
4585.0550211
4568.57443971
4552.38016495
4536.48686927
4520.90808161
4505.65617953
4490.7424646
4476.17716353
4461.96950534
4448.12772815
4434.65915555
4421.57020714
4408.86647237
4396.55272305
4384.63298361
4373.11054471
4361.98802903
4351.26740514
4340.95004839
4331.03675448
4321.52779514
4312.42293084
4303.72146112
4295.42223613
4287.52370158
4280.02390891
4272.92055492
4266.2109905
4259.89225503
4253.96108395
4248.4139381
4243.2470109
4238.45625351
4234.03738267
4229.98590279
4226.29711294
4222.9661237
4219.98785596
4217.35704184
4215.06819425
4213.11558467
4211.49317467
4210.19438411
4209.21179373
4208.53558644
4208.14472514
4207.97041901
5259.91649582
5259.90305519
5259.06337576
5257.43373943
5254.99556821
5251.70384809
5247.52209785
5242.42677133
5236.40647088
5229.46051461
5221.59756185
5212.83439115
5203.1947682
5192.70841366
5181.41002737
5169.33839283
5156.53553361
5143.04594783
5128.91589631
5114.19276796
5098.92449732
5083.15905634
5066.94399197
5050.32603124
5033.35072177
5016.06214292
4998.50276464
4980.71331491
4962.73321931
4944.60212317
4926.36155621
4908.05639032
4889.73597504
4871.44125775
4853.14062158
4834.79998783
4816.42926572
4798.02997722
4779.6190446
4761.2249719
4742.87688607
4724.60304044
4706.43060879
4688.38561471
4670.49286002
4652.77589404
4635.25697425
4617.95706412
4600.8958196
4584.09160929
4567.56152026
4551.32139372
4535.38584375
4519.76830313
4504.48105032
4489.53526111
4474.94104001
4460.70747478
4446.84267004
4433.35380236
4420.24715412
4407.52816782
4395.20147929
4383.27097007
4371.73979892
4360.6104517
4349.8847709
4339.56400236
4329.64882213
4320.13937992
4311.03532313
4302.33583654
4294.03966327
4286.14514063
4278.65021807
4271.552489
4264.84920559
4258.53730664
4252.61342952
4247.07393392
4241.91491168
4237.132207
4232.7214251
4228.67794928
4224.99694658
4221.67338046
4218.70200301
4216.07735021
4213.7937157
4211.84508675
4210.22507499
4208.92677465
4207.94214764
4207.26023341
4206.85766151
4206.66053944
5266.76128552
5266.8076886
5265.90017579
5264.15629199
5261.57573744
5258.11771782
5253.74787449
5248.44457388
5242.19847712
5235.01115827
5226.89369414
5217.86537946
5207.95251852
5197.18732968
5185.60690589
5173.25228001
5160.1675409
5146.39905343
5131.99472682
5117.00338448
5101.4741773
5085.45609153
5068.99749217
5052.14575065
5034.9468984
5017.44538071
4999.68395273
4981.70364699
4963.54449169
4945.24742871
4926.85632932
4908.41983739
4889.99180769
4871.60584367
4853.22019749
4834.79757856
4816.34325502
4797.85630306
4779.35457378
4760.86826824
4742.4279938
4724.0631792
4705.80192176
4687.67094837
4669.69559326
4651.89978818
4634.30606053
4616.93554258
4599.80798724
4582.94179239
4566.3540301
4550.06048157
4534.07567565
4518.4129302
4503.08439629
4488.10110279
4473.47300365
4459.20902337
4445.31710526
4431.80425631
4418.67659507
4405.93939484
4393.59713016
4381.65351763
4370.11156043
4358.97358622
4348.24128917
4337.91576471
4327.99754861
4318.48664835
4309.38257899
4300.6843909
4292.3907022
4284.49972283
4277.00928341
4269.9168555
4263.21957685
4256.91426785
4250.99745309
4245.46537402
4240.31400743
4235.53907465
4231.13605757
4227.10020496
4223.42654405
4220.10988092
4217.14480014
4214.52564879
4212.24649951
4210.30111452
4208.68286016
4207.38440489
4206.39727444
4205.70963041
4205.2948279
4205.07239767
5274.92956756
5275.04556422
5274.05446129
5272.17193269
5269.41778111
5265.75633174
5261.15618665
5255.59845124
5249.07663609
5241.59531427
5233.16868351
5223.81920083
5213.57631254
5202.4752714
5190.55605496
5177.86236469
5164.44072996
5150.33968617
5135.60905716
5120.29930227
5104.46096137
5088.14415315
5071.39816061
5054.27105723
5036.80940709
5019.0580467
5001.06004338
4982.85676989
4964.48898732
4945.99915689
4927.43382888
4908.84591427
4890.29399134
4871.79933227
4853.30959752
4834.78730106
4816.23162818
4797.6394844
4779.03014146
4760.43556588
4741.88784122
4723.41756828
4705.05375724
4686.82383219
4668.75364601
4650.86750214
4633.18817918
4615.73696268
4598.53367886
4581.59673541
4564.94316227
4548.58865896
4532.5476397
4516.83328463
4501.45758697
4486.43140603
4471.76451441
4457.4656512
4443.54256802
4430.00208121
4416.85011579
4404.09175586
4391.73128598
4379.7722392
4368.2174354
4357.06902663
4346.32853225
4335.99688113
4326.07444335
4316.56106915
4307.45611697
4298.7584889
4290.46665492
4282.57868467
4275.09226795
4268.0047426
4261.31311117
4255.01406471
4249.10399576
4243.57901786
4238.43497538
4233.66745899
4229.27181296
4225.2431468
4221.57633814
4218.26603935
4215.30666597
4212.69238621
4210.41709291
4208.474331
4206.85722198
4205.55828869
4204.5685879
4203.87505942
4203.44777863
4203.1979601
5284.50905796
5284.70508359
5283.61376526
5281.56689409
5278.60588764
5274.7009827
5269.82465086
5263.961693
5257.10941794
5249.27631605
5240.48055682
5230.74855395
5220.11359951
5208.6146214
5196.29502384
5183.20165996
5169.38388665
5154.89274856
5139.78023597
5124.0986613
5107.90009702
5091.23591728
5074.1563871
5056.71033856
5038.94488058
5020.90526552
5002.63486654
4984.17543829
4965.56858822
4946.85852408
4928.09476195
4909.3348963
4890.64237583
4872.02082655
4853.40679671
4834.76587362
4816.08979826
4797.37373729
4778.63900652
4759.91937412
4741.24836225
4722.65770394
4704.17728894
4685.83520724
4667.65780214
4649.66971989
4631.89396262
4614.35193961
4597.06352231
4580.04709759
4563.31962498
4546.89669089
4530.79256704
4515.0202644
4499.59159144
4484.51720668
4469.8066759
4455.46852227
4441.5102818
4427.93855058
4414.75903783
4401.97660998
4389.59534097
4377.61855287
4366.04886331
4354.88822247
4344.13795739
4333.7988053
4323.87095453
4314.35407415
4305.24735128
4296.54951693
4288.2588795
4280.37334683
4272.8904557
4265.80739004
4259.12100632
4252.82784768
4246.92416527
4241.4059282
4236.26884118
4231.5083506
4227.11965897
4223.09772764
4219.43728647
4216.13283047
4213.17861865
4210.56865651
4208.29665841
4206.3560193
4204.73972595
4203.43999219
4202.4475858
4201.7485519
4201.30868638
4201.0292815
5295.60168401
5295.88876393
5294.67874253
5292.43941383
5289.23501228
5285.04250961
5279.83924416
5273.61481939
5266.371469
5258.12268476
5248.89163181
5238.70960137
5227.61456557
5215.64983893
5202.86287824
5189.30419341
5175.02640239
5160.0833849
5144.52957109
5128.41930991
5111.80635649
5094.74341917
5077.28180721
5059.47112029
5041.35902023
5022.99115538
5004.41120435
4985.66132257
4966.78411755
4947.82580421
4928.83914602
4909.88659518
4891.03629147
4872.26853649
4853.50884165
4834.72914208
4815.91231618
4797.05244427
4778.17363099
4759.31144927
4740.50077456
4721.77440144
4703.16303857
4684.69539173
4666.39824772
4648.29655405
4630.41349504
4612.77056627
4595.38764556
4578.28306425
4561.47367425
4544.97491656
4528.80088462
4512.96439014
4497.47702253
4482.34921177
4467.59028387
4453.20852062
4439.2112109
4425.60470723
4412.39447297
4399.58513551
4387.18052949
4375.18374659
4363.59717481
4352.42254477
4341.66096513
4331.31296541
4321.37852741
4311.85712445
4302.74774886
4294.04894744
4285.7588449
4277.87517549
4270.3953024
4263.31624532
4256.63469577
4250.34704035
4244.44937206
4238.93750906
4233.8070025
4229.05315091
4224.67100535
4220.65537971
4217.00085182
4213.70176956
4210.75223903
4208.14611631
4205.87698481
4203.93808537
4202.32224435
4201.02166769
4200.02675667
4199.3222496
4198.86980946
4198.55897484
5308.32571074
5308.71522802
5307.36534251
5304.90180043
5301.41283933
5296.8830496
5291.29581136
5284.64683208
5276.9445968
5268.20888712
5258.46905069
5247.76233834
5236.13233583
5223.62756124
5210.3001878
5196.20494496
5181.39813772
5165.93683137
5149.87813334
5133.27861737
5116.19382074
5098.67785876
5080.7830908
5062.55988097
5044.05639482
5025.31864865
5006.39057468
4987.31477316
4968.13506595
4948.90006216
4929.66618961
4910.50068885
4891.47427547
4872.53932863
4853.61166296
4834.67187151
4815.69268875
4796.66801573
4777.62558428
4758.60271789
4739.63551923
4720.75774207
4702.00083287
4683.39404274
4664.96454095
4646.73751936
4628.73629362
4610.98239607
4593.49566676
4576.29433683
4559.39511144
4542.81324515
4526.56261823
4510.65580499
4495.10414449
4479.91780254
4465.10583733
4450.67625573
4436.63607432
4422.99137041
4409.74733885
4396.90833812
4384.47794317
4372.45898697
4360.85360953
4349.66329509
4338.88891742
4328.5307729
4318.58862199
4309.06171825
4299.948846
4291.24834523
4282.95814533
4275.07578595
4267.5984466
4260.52296349
4253.84585488
4247.56333371
4241.67132862
4236.1654924
4231.04121914
4226.29364882
4221.91768116
4217.90797725
4214.25896928
4210.96485706
4208.01960966
4205.41695121
4203.1503276
4201.21289165
4199.5974163
4198.29586886
4197.29846345
4196.58903295
4196.12408661
4195.77976151
5322.81830636
5323.32200423
5321.80731912
5319.08284756
5315.26194284
5310.33793483
5304.30165847
5297.15649426
5288.91876512
5279.6160522
5269.2852805
5257.97088283
5245.72312759
5232.59661309
5218.64896522
5203.93969458
5188.52924742
5172.47818568
5155.84653363
5138.69321884
5121.07564912
5103.04935307
5084.66772857
5065.98183211
5047.04026707
5027.88931245
5008.57308951
4989.13470525
4969.61950286
4950.07903201
4930.57442174
4911.17833664
4891.95359583
4872.82676844
4853.70977022
4834.58748587
4815.42310515
4796.21172675
4776.98543769
4757.78320194
4738.64219797
4719.5970212
4700.67975744
4681.92011822
4663.34557846
4644.98150618
4626.85128454
4608.97642599
4591.376678
4574.07012347
4557.07327262
4540.40115224
4524.06738616
4508.08427551
4492.46286964
4477.21303883
4462.34353727
4447.86206937
4433.77534581
4420.08914439
4406.80836003
4393.93706073
4381.47853228
4369.43532979
4357.80931746
4346.60171613
4335.81313848
4325.44363259
4315.4927129
4305.95939985
4296.84224656
4288.13937457
4279.84849635
4271.96694699
4264.49170254
4257.41940759
4250.74638945
4244.46868126
4238.58203223
4233.08192616
4227.96358828
4223.22199966
4218.85190142
4214.84780563
4211.20399647
4207.91453837
4204.97326659
4202.3737841
4200.10944703
4198.17329965
4196.55800833
4195.25562765
4194.25606978
4193.54179235
4193.06446884
4192.68497072
5339.23889542
5339.86862792
5338.15935613
5335.13063697
5330.92229486
5325.53781458
5318.97728683
5311.25369222
5302.39309988
5292.43268634
5281.41855591
5269.40372831
5256.44631755
5242.60797206
5227.95251547
5212.54483324
5196.44992333
5179.73215235
5162.45463047
5144.67874836
5126.4637929
5107.86668664
5088.94177534
5069.74070908
5050.31239481
5030.70323671
5010.95744808
4991.1187878
4971.23448079
4951.35969903
4931.56168997
4911.91996204
4892.47142399
4873.12433724
4853.79691444
4834.46790433
4815.09412202
4795.67356824
4776.24268311
4756.84195277
4737.50951617
4718.28069676
4699.18811323
4680.26183868
4661.52956461
4643.01675338
4624.74678298
4606.741078
4589.01923361
4571.59912686
4554.49702332
4537.72767212
4521.30439884
4505.23918731
4489.54276156
4474.22465679
4459.29329257
4444.7560348
4430.61926177
4416.88841854
4403.56807703
4390.6619839
4378.17311555
4366.10372031
4354.45536891
4343.2289916
4332.4249244
4322.04294165
4312.08229813
4302.54175727
4293.41962921
4284.71379484
4276.42173968
4268.54057387
4261.06706183
4253.99763818
4247.32843309
4241.05528402
4235.17375689
4229.67915361
4224.5665296
4219.83069787
4215.46624344
4211.46752525
4207.82868746
4204.54365761
4201.60615261
4199.00966933
4196.74745665
4194.81251413
4193.19750781
4191.89428774
4190.89265124
4190.17416252
4189.68462581
4189.26799659
5357.77329978
5358.54096986
5356.60086311
5353.21598702
5348.55419088
5342.63107941
5335.45830863
5327.0608758
5317.47692399
5306.75534227
5294.95327899
5282.13389721
5268.36444694
5253.71462286
5238.25522929
5222.05707121
5205.19009733
5187.72270102
5169.72121427
5151.24950196
5132.36869942
5113.13700753
5093.60959266
5073.83851439
5053.87283067
5033.75888005
5013.54091377
4993.26355735
4972.97640274
4952.73887794
4932.62521224
4912.72185283
4893.02485616
4873.42865662
4853.86654215
4834.30395484
4814.69507893
4795.04240274
4775.38574732
4755.7670163
4736.22523424
4716.7963423
4697.51337409
4678.40665211
4659.50398112
4640.83082526
4622.41047267
4604.26418551
4586.41133697
4568.8695378
4551.65475047
4534.78139691
4518.26245431
4502.10954808
4486.33303311
4470.94207496
4455.94471951
4441.3479649
4427.15782158
4413.37937686
4400.01684714
4387.07363618
4374.55238083
4362.45500403
4350.7827548
4339.53625671
4328.71554274
4318.32009947
4308.34889738
4298.80043087
4289.67274416
4280.96346732
4272.66983783
4264.78873257
4257.31668522
4250.2499141
4243.58433545
4237.31558695
4231.43903714
4225.94980451
4220.8427639
4216.11256178
4211.75362052
4207.76015089
4204.12615428
4200.84543399
4197.911589
4195.31801635
4193.0579046
4191.12417264
4189.5094095
4188.2056178
4187.20233495
4186.47970804
4185.97815989
4185.52286466
5378.63917051
5379.55628511
5377.34079385
5373.53659746
5368.34175064
5361.78664511
5353.89756832
5344.7145917
5334.29077687
5322.68924465
5309.98030457
5296.23900667
5281.54308559
5265.97132684
5249.60224382
5232.51308175
5214.77903195
5196.47268325
5177.663602
5158.41807902
5138.79894743
5118.86551636
5098.67353798
5078.27525769
5057.71965089
5037.05280409
5016.31896475
4995.56396671
4974.84040849
4954.21274136
4933.76203694
4913.57794156
4893.60773714
4873.73428359
4853.91059621
4834.08590295
4814.21495027
4794.30624734
4774.40203107
4754.54540078
4734.77612061
4715.13060079
4695.64214682
4676.34119991
4657.25556048
4638.41058889
4619.82939017
4601.53297915
4583.54043304
4565.86902697
4548.53436108
4531.55047227
4514.92994135
4498.68398606
4482.8225527
4467.35439434
4452.28715044
4437.6274132
4423.38079786
4409.55199946
4396.14485563
4383.16239563
4370.60689692
4358.47992774
4346.7823985
4335.51459872
4324.67624382
4314.26650714
4304.28406248
4294.72711148
4285.59342207
4276.88035156
4268.58488092
4260.70363381
4253.23290667
4246.16868373
4239.5066629
4233.24226682
4227.37066458
4221.88677896
4216.78530484
4212.06071336
4207.70726774
4203.71902613
4200.08985513
4196.81343003
4193.88324547
4191.29261049
4189.03462517
4187.10219123
4185.48793
4184.18365024
4183.17882961
4182.45275978
4181.93943343
4181.44361547
5402.09283687
5403.17014442
5400.62363575
5396.32222365
5390.49707278
5383.19716512
5374.46747976
5364.36706935
5352.967405
5340.34879009
5326.59710732
5311.80115523
5296.05057145
5279.43421816
5262.03900409
5243.94899858
5225.24484359
5206.00333347
5186.29719197
5166.19493511
5145.76086362
5125.05508999
5104.13365218
5083.04865016
5061.84869005
5040.57935288
5019.28492893
4998.01289809
4976.81973562
4955.77642755
4934.97170707
4914.48057368
4894.20708001
4874.03142894
4853.91876977
4833.80274553
4813.64170925
4793.45197314
4773.27776069
4753.16298514
4733.14788606
4713.2691338
4693.56013098
4674.05128547
4654.77026054
4635.74219591
4616.98990956
4598.5340781
4580.39339991
4562.58474319
4545.12327834
4528.02260069
4511.29483864
4494.95075683
4478.99984535
4463.45040779
4448.30963574
4433.5836851
4419.27773896
4405.39607485
4391.94211827
4378.91850271
4366.32711567
4354.16915274
4342.44515733
4331.15506972
4320.2982614
4309.87357962
4299.87937691
4290.31355146
4281.17357211
4272.45651472
4264.15908288
4256.27764028
4248.8082273
4241.74658941
4235.08818973
4228.82823328
4222.96167597
4217.4832447
4212.38744369
4207.66857125
4203.32072448
4199.33781387
4195.7135669
4192.44154251
4189.51512792
4186.92754588
4184.67185493
4182.74089044
4181.12720974
4179.82282034
4178.81696915
4178.08751497
4177.56266968
4177.0249463
5428.43840052
5429.68490302
5426.73710232
5421.8409981
5415.26523064
5407.08270267
5397.36256186
5386.18782868
5373.65263023
5359.85789583
5344.90772282
5328.90663214
5311.9575235
5294.16025355
5275.61063322
5256.3998102
5236.61387576
5216.33370553
5195.63490552
5174.58789973
5153.25805468
5131.70588933
5109.98728424
5088.15380993
5066.25328598
5044.33055593
5022.43011571
5000.60167647
4978.90659213
4957.42447623
4936.25347244
4915.42226241
4894.80883529
4874.30871544
4853.87874663
4833.44112164
4812.96117108
4792.46475713
4771.99773653
4751.60438863
4731.32510377
4711.19656776
4691.25207948
4671.52184476
4652.03324309
4632.81106588
4613.87773242
4595.25348156
4576.95654673
4559.00331007
4541.40844516
4524.18504148
4507.34472219
4490.8977454
4474.85310285
4459.21860317
4444.00095605
4429.20584138
4414.83798236
4400.90120358
4387.39849547
4374.33206365
4361.70338652
4349.5132575
4337.76183699
4326.44868866
4315.57282665
4305.13274666
4295.12646884
4285.55156427
4276.40519368
4267.68412968
4259.38479144
4251.50326285
4244.03532322
4236.97646158
4230.32190328
4224.06662057
4218.20535534
4212.73262622
4207.64274829
4202.92983773
4198.58782923
4194.61047995
4190.99138547
4187.72398183
4184.80156045
4182.21726669
4179.96407998
4178.03483451
4176.422139
4175.11780343
4174.11105969
4173.37897177
4172.84290187
4172.26152719
5458.03956946
5459.46129928
5456.02189147
5450.4073585
5442.93018819
5433.69488973
5422.80211445
5410.36519628
5396.50603168
5381.35006212
5365.02243838
5347.64532664
5329.33614157
5310.20640925
5290.3611494
5269.89855825
5248.90997332
5227.47996357
5205.68657136
5183.60158805
5161.29091132
5138.81488877
5116.22870713
5093.58289788
5070.92404284
5048.29604286
5025.74399507
5003.32066234
4981.09351372
4959.15158301
4937.59913208
4916.39612783
4895.40601216
4874.5546842
4853.77591732
4832.98460759
4812.15664184
4791.32783933
4770.54517928
4749.85287102
4729.29114387
4708.89644653
4688.701765
4668.73692158
4649.02885604
4629.60187498
4610.47787937
4591.67656641
4573.21561119
4555.11083001
4537.37632539
4520.02461913
4503.06676879
4486.51247751
4470.37018838
4454.6471767
4439.3496272
4424.482713
4410.05065963
4396.05681375
4382.5036969
4369.39306632
4356.72596049
4344.50275366
4332.72319482
4321.38645696
4310.49117044
4300.03546784
4290.01701236
4280.43303857
4271.28037636
4262.5554877
4254.25448651
4246.3731715
4238.9070421
4231.85132747
4225.20099867
4218.95079378
4213.09522668
4207.62860844
4202.54505376
4197.83849947
4193.50270982
4189.53129313
4185.91770673
4182.65527424
4179.73718482
4177.1565043
4174.90618098
4172.97898761
4171.36747134
4170.06367483
4169.05662036
4168.32194556
4167.77496364
4167.14871788
5491.33573138
5492.93328506
5488.8843756
5482.39179099
5473.82181047
5463.32150853
5451.03290734
5437.10761036
5421.7012651
5404.96808213
5387.05708038
5368.10982901
5348.25916736
5327.62865351
5306.3324239
5284.47538819
5262.15356717
5239.45458389
5216.45817458
5193.23676619
5169.85601873
5146.37539233
5122.84867324
5099.32475943
5075.84848123
5052.46273767
5029.21384497
5006.15884369
4983.37327829
4960.95636713
4938.99606952
4917.3882103
4895.99154177
4874.75615848
4853.59179947
4832.41299267
4811.20884975
4790.02254026
4768.90170888
4747.89029754
4727.02813448
4706.35120037
4685.89195461
4665.67964988
4645.7406215
4626.09854833
4606.7746881
4587.78808613
4569.15576436
4550.89288709
4533.01291328
4515.52772844
4498.44776858
4481.7821259
4465.53865124
4449.72403959
4434.3439164
4419.40290753
4404.90471342
4390.85216706
4377.24729896
4364.09138569
4351.38500775
4339.12809069
4327.31995721
4315.95936225
4305.04454028
4294.57323525
4284.54274361
4274.94993972
4265.7913149
4257.06299866
4248.76079387
4240.88019412
4233.41641513
4226.36440839
4219.71888873
4213.47434458
4207.6250618
4202.16513091
4197.08846815
4192.38882078
4188.05978604
4184.09481621
4180.48723671
4177.23024938
4174.31695111
4171.74033484
4169.49327217
4167.56854264
4165.95875515
4164.65574248
4163.64854956
4162.91209748
4162.3545573
4161.6818195
5528.86374764
5530.62854998
5525.81297525
5518.23296368
5508.32393257
5496.29135255
5482.33166147
5466.64446087
5449.42587702
5430.86319381
5411.13185141
5390.3940678
5368.79851772
5346.48057121
5323.562921
5300.15634913
5276.36062398
5252.26538066
5227.95103021
5203.48959451
5178.94553119
5154.37646454
5129.83396822
5105.36453219
5081.01076229
5056.81473314
5032.82485488
5009.10391997
4985.73824268
4962.83916794
4940.43198136
4918.37631074
4896.55007551
4874.89590925
4853.30637681
4831.70543631
4810.09726411
4788.52864564
4767.04744117
4745.69714281
4724.51694689
4703.54212569
4682.80439525
4662.33224292
4642.15123016
4622.28425901
4602.75181426
4583.57217693
4564.76161575
4546.33455805
4528.30374088
4510.68034876
4493.47413351
4476.69352669
4460.34573541
4444.43683581
4428.97185049
4413.95482778
4399.38890518
4385.27637792
4371.61875169
4358.41680306
4345.67062378
4333.37967499
4321.54282477
4310.15839722
4299.22420454
4288.73759176
4278.69546397
4269.09432721
4259.93031138
4251.19920735
4242.89648594
4235.0173314
4227.55665662
4220.50913305
4213.86920236
4207.63110271
4201.78887736
4196.33639743
4191.26736859
4186.57535126
4182.25376636
4178.29591398
4174.69497912
4171.4440514
4168.53612601
4165.96411781
4163.72087159
4161.79910399
4160.19135809
4158.88972499
4157.88305581
4157.14486964
4156.57713719
4155.85686422
5571.28852666
5573.19592116
5567.39959905
5558.45241177
5546.88341625
5532.97900755
5517.00694827
5499.22619637
5479.88032458
5459.19356548
5437.36951799
5414.59146698
5391.02344138
5366.81166792
5342.08610033
5316.961992
5291.54136273
5265.91441457
5240.16079884
5214.3508111
5188.54643748
5162.8023346
5137.16686224
5111.68323585
5086.39143961
5061.33328974
5036.56049835
5012.14350066
4988.18028218
4964.78608166
4941.89350547
4919.34585961
4897.062644
4874.95283143
4852.89878913
4830.84121384
4808.80025303
4786.82443185
4764.96097219
4743.2524746
4721.73717617
4700.44937382
4679.41980492
4658.67599088
4638.24254229
4618.14143224
4598.39223989
4579.01236597
4560.01722659
4541.42042261
4523.23389439
4505.46805512
4488.13191572
4471.23319043
4454.77839927
4438.7729525
4423.22123636
4408.12668142
4393.49183596
4379.31842208
4365.60739978
4352.3590137
4339.57285018
4327.2478766
4315.38249295
4303.97456526
4293.02147263
4282.52013568
4272.4670596
4262.85835832
4253.68979377
4244.95679612
4236.65449948
4228.77775847
4221.32118034
4214.27913816
4207.64579934
4201.41513563
4195.58094822
4190.13687497
4185.07641307
4180.39292465
4176.0796574