/*--------------------------------*- C++ -*----------------------------------*\
| =========                 |                                                 |
| \\      /  F ield         | OpenFOAM: The Open Source CFD Toolbox           |
|  \\    /   O peration     | Version:  v1906                                 |
|   \\  /    A nd           | Web:      www.OpenFOAM.com                      |
|    \\/     M anipulation  |                                                 |
\*---------------------------------------------------------------------------*/
FoamFile
{
    version     2.0;
    format      ascii;
    class       surfaceScalarField;
    location    "240";
    object      phia;
}
// * * * * * * * * * * * * * * * * * * * * * * * * * * * * * * * * * * * * * //

dimensions      [0 3 -1 0 0 0 0];
oriented        oriented;


internalField   nonuniform List<scalar> 
18240
(
0.00136641461682
-0.00136499281474
0.00286269383314
-0.00149456821412
0.0043580833446
-0.00149394772668
0.00583535790681
-0.0014754988342
0.00728596234107
-0.00144922855018
0.00870394911796
-0.00141614810252
0.0100824882832
-0.00137723001062
0.0114171130286
-0.00133272281754
0.012701907013
-0.00128355527394
0.0139337665271
-0.00122989707454
0.0151077104369
-0.00117278300131
0.0162220380043
-0.00111230999859
0.0172727094765
-0.00104959486625
0.0182593992031
-0.00098462518317
0.0191789468961
-0.000918564327411
0.0200323061369
-0.000851258323549
0.0208170811454
-0.00078389153417
0.0215353569645
-0.000716151350039
0.0221853589614
-0.000649226810643
0.0227701343209
-0.00058264158298
0.0232883804646
-0.000517584019657
0.023743930111
-0.000453421881268
0.0241358150958
-0.000391341904056
0.0244684905462
-0.000330569258569
0.0247412053718
-0.000272292313709
0.0249588866042
-0.000215612227015
0.0251209056328
-0.000161719648024
0.0252325315426
-0.000109608981801
0.0252931835858
-6.04735562227e-05
0.0253083543871
-1.32200219282e-05
0.0252774555865
3.09575753706e-05
0.0252061022867
7.32253899131e-05
0.0250936432323
0.000112404090864
0.0249457078872
0.00014971759929
0.024761557676
0.000183986265001
0.0245467713169
0.000216469834312
0.0243005009207
0.00024600668795
0.0240281989013
0.000273879814839
0.0237288951766
0.000298947911337
0.0234078610393
0.000322501808791
0.0230640011165
0.000343423392202
0.0227023600011
0.000362996313684
0.0223217218564
0.000380130188188
0.0219268746158
0.000396089846486
0.0215164923271
0.000409815017282
0.0210950836707
0.000422540229391
0.0206612277531
0.000433238851014
0.0202191445844
0.000443106887027
0.019767336513
0.000451152690576
0.0193097308082
0.000458525735692
0.0188447740166
0.000464271690685
0.0183761069601
0.000469488439823
0.0179021425963
0.000473259455701
0.0174262444623
0.000476626215992
0.016946815103
0.00047871165829
0.0164669567708
0.000480498713627
0.0159850840436
0.000481150189431
0.0155040535504
0.000481588608816
0.0150223130261
0.00048101844306
0.0145424919377
0.000480302257756
0.0140630892297
0.000478687135202
0.0135865221261
0.000476976251559
0.0131113552909
0.000474461521369
0.0126398080688
0.000471888999136
0.0121705205946
0.000468596816963
0.0117055233009
0.000465275892244
0.0112435370155
0.000461312758426
0.0107864102069
0.000457346113133
0.0103329448434
0.000452811990542
0.00988480927083
0.000448299054699
0.00944088338795
0.000443294167289
0.00900265589899
0.00043833840815
0.00856907839409
0.00043296951782
0.00814145734594
0.000427682460135
0.0077188084287
0.000422065778893
0.0073022537853
0.000416569662666
0.00689086518631
0.000410832207568
0.0064855778243
0.000405259208999
0.00608551287519
0.000399536889548
0.00569141829537
0.000394026715344
0.00530246024167
0.000388460713791
0.00491920096652
0.000383155102859
0.00454085127345
0.000377884949065
0.00416779436663
0.000372919069761
0.00379929245656
0.000368070454743
0.0034355677188
0.000363553909294
0.00307596157049
0.000359206074193
0.00272059642603
0.000355160911568
0.00236900826877
0.000351216020064
0.00202149571486
0.000347280901579
0.00167840824821
0.000342749803464
0.00134176689282
0.000336396381917
0.00101729583514
0.000324195452221
0.000723323994186
0.000293715798673
0.000416469094616
0.000306484321456
0.000416251747935
0.0015105058086
-0.00287394105582
0.00319695409049
-0.00317929329678
0.00487454670423
-0.00316989593521
0.00652882144339
-0.00312803597228
0.00815221295833
-0.00307099183647
0.00973816960442
-0.00300035286253
0.011279837271
-0.00291728676969
0.0127715939754
-0.00282271340489
0.0142075985338
-0.00271797053852
0.0155835495636
-0.00260407170226
0.0168948139522
-0.00248248528015
0.0181385068417
-0.00235422254372
0.0193112269938
-0.00222078824919
0.0204114773514
-0.00208309983027
0.0214370147328
-0.00194261883968
0.0223876175165
-0.00180010026238
0.0232620620029
-0.00165690746164
0.0240612372722
-0.00151359226594
0.0247847666253
-0.00137139164662
0.0254344616673
-0.00123064091204
0.0260106125133
-0.00109244487869
0.0265157653053
-0.000956929987653
0.0269507091561
-0.000825079086457
0.027318552539
-0.000696830827555
0.02762043792
-0.000573063063064
0.0278598855766
-0.000453552142239
0.0280382702832
-0.000339088174115
0.0281593949343
-0.000229309882728
0.0282247661432
-0.000124932838554
0.0282383565496
-2.54793219063e-05
0.0282017181207
6.84005122912e-05
0.0281188927987
0.000157282362447
0.027991419207
0.000240572515259
0.0278233392824
0.000318924512729
0.0276161141519
0.000391797083831
0.0273736970309
0.000459906320048
0.0270974276991
0.000522754200538
0.0267911176307
0.000581100564504
0.0264559558078
0.00063448456209
0.026095567785
0.000683692867807
0.0257109721812
0.000728295458298
0.025305576161
0.000769090447285
0.0248802186084
0.000805672751141
0.0244380677496
0.000838838268271
0.0239797815605
0.000868201982513
0.0235082782993
0.00089454599377
0.0230240411242
0.000917500943915
0.0225297366086
0.000937825293868
0.0220256847271
0.000955161703524
0.021514305639
0.000970236972492
0.0209957726707
0.000982702506693
0.0204722716142
0.000993247033525
0.0199438490449
0.0010015283137
0.0194124727378
0.00100819241567
0.0188780849174
0.00101290185401
0.0183424553498
0.00101625726613
0.0178054449703
0.00101792567862
0.0172686463924
0.0010184615028
0.0167318617413
0.00101753726029
0.0161965272493
0.00101566217698
0.0156624062236
0.00101251671607
0.015130796578
0.00100856761488
0.0146014392541
0.00100350673039
0.0140755087146
0.000997762220913
0.0135527352146
0.000991041606745
0.0130341797702
0.000983739080375
0.0125195686993
0.000975582214375
0.0120098552842
0.000966935964724
0.0115047636594
0.000957552085914
0.0110051404194
0.000947770577764
0.010510705205
0.000937370622328
0.0100221959084
0.000926670670083
0.00953932225219
0.000915479456399
0.00906270890057
0.000904096080259
0.00859204868187
0.000892359555381
0.00812784801048
0.000880550545894
0.00766977560529
0.000868537731102
0.0072182148493
0.00085658292373
0.00677280441352
0.000844582566817
0.00633380188544
0.000832778027128
0.00590081234896
0.000821090454528
0.00547396736357
0.000809737824583
0.00505283854496
0.000798661505294
0.00463743553685
0.000788051109322
0.00422730177421
0.000777860570657
0.00382233557685
0.000768240528838
0.00342206584744
0.000759139289059
0.00302629945317
0.000750637946654
0.00263456287474
0.000742620316239
0.002246553466
0.000734990357343
0.00186162854202
0.000727362147703
0.00147866156141
0.000719075732512
0.00109371548352
0.000708839456629
0.000692557157693
0.000694597442962
0.000305593237869
0.000693158845393
0.000721683469193
0.00153679635046
-0.00440915527688
0.0032443499001
-0.00488515228399
0.00494563760917
-0.00486949290343
0.00662344634209
-0.00480413532475
0.00826964602599
-0.00471550647466
0.00987716215614
-0.00460615540219
0.0114392000331
-0.0044776448539
0.0129497569083
-0.00433155445585
0.0144031926485
-0.00416973403559
0.0157948252216
-0.00399399072634
0.0171203402314
-0.00380634148868
0.0183764648907
-0.00360864266566
0.0195602288186
-0.00340291410975
0.0206697292459
-0.00319091354259
0.0217032534711
-0.00297453554406
0.0226601437623
-0.00275533192747
0.0235397908301
-0.00253498768669
0.0243426044596
-0.00231478677428
0.0250688903953
-0.00209616309653
0.0257199292984
-0.00188011184856
0.0262967479
-0.0016678120187
0.0268013051788
-0.00145998212208
0.0272351703803
-0.00125756708092
0.0276008102981
-0.00106103927431
0.027900183523
-0.000871142548524
0.0281361189743
-0.000688139876974
0.0283108378306
-0.000512605891629
0.0284274100094
-0.000344626667078
0.0284882133039
-0.000184634076176
0.0284964538777
-3.25640953829e-05
0.0284545765468
0.000111274871845
0.028365834528
0.000247075344499
0.0282326633419
0.000374632732686
0.0280582858214
0.000494244496977
0.0278450646201
0.000605797238826
0.0275961275253
0.000709676179577
0.0273137124244
0.000805839283736
0.0270008001394
0.000894736468041
0.0266594663612
0.000976381225171
0.0262925078775
0.00105126853162
0.0259018124473
0.00111945137021
0.0254899665639
0.00118145121937
0.0250586555185
0.00123734695645
0.0246102413066
0.00128767085185
0.0241462011094
0.00133251525734
0.0236686662415
0.00137240929955
0.0231789083267
0.00140744887565
0.0226788309533
0.00143814864357
0.0221695089874
0.00146459899275
0.0216526268448
0.00148729019764
0.0211290772945
0.00150630023332
0.0206003408345
0.00152208744575
0.0200671468382
0.00153471151804
0.0195307903807
0.0015445930001
0.0189918594755
0.00155176996478
0.0184514859697
0.00155662211809
0.0179101396516
0.00155916434588
0.0173688113209
0.00155973470944
0.016827875583
0.00155832631257
0.0162882042791
0.00155523775334
0.015750097451
0.00155044363073
0.0152143265562
0.00154420727005
0.014681134277
0.00153649044078
0.0141512069406
0.00152752744171
0.0136247420837
0.00151727374461
0.0131023505477
0.00150594155607
0.0125841919364
0.00149348739753
0.0120708067946
0.0014801086348
0.0115623187291
0.00146576939393
0.0110591979369
0.00145065844447
0.0105615298545
0.00143475317036
0.0100697111483
0.00141823870887
0.00958378363139
0.00140110928512
0.00910406445097
0.00138354927226
0.00863054487907
0.00136557149474
0.00816345614247
0.00134736048777
0.00770273177157
0.00132894710615
0.00724851088027
0.00131051483185
0.00680066344524
0.00129211025239
0.00635923239946
0.00127391287362
0.00592402054256
0.00125598085261
0.00549497291
0.00123848502822
0.00507182454113
0.00122148935394
0.00465442398575
0.00120514926282
0.00424244036041
0.00118952583006
0.00383562823146
0.00117474818511
0.00343359057211
0.00116085945859
0.00303597800809
0.00114794161935
0.00264228865976
0.00113599133881
0.00225195876391
0.00112500964574
0.00186408129815
0.00111492302708
0.00147713254158
0.00110572519268
0.00108800239627
0.00109768969593
0.000690355958123
0.00109193877861
0.000291299618845
0.0010919153023
0.00101284666921
0.00155981537972
-0.00596738137708
0.00329000796618
-0.0066136351021
0.00501410533886
-0.00659188742951
0.00671406576687
-0.00650238409835
0.00838134931425
-0.00638108584046
0.0100084997082
-0.00623159426736
0.0115885801942
-0.00605602115015
0.0131153471449
-0.00585660996677
0.0145831559647
-0.00563584206057
0.0159871611974
-0.00539628868335
0.0173231517163
-0.00514064016323
0.0185877494732
-0.00487154406699
0.0197781770477
-0.00459166708076
0.0208924657807
-0.00430352580557
0.0219291642432
-0.00400958624402
0.0228875659606
-0.00371208761238
0.0237673685953
-0.00341318082268
0.0245689303186
-0.00311474454986
0.0252928888885
-0.0028185619208
0.025940453382
-0.00252612640733
0.0265129919444
-0.0022388526494
0.0270123627854
-0.00195786883389
0.0274404767719
-0.00168425592908
0.027799667332
-0.00141882251261
0.0280922318636
-0.0011623653688
0.0283208368795
-0.00091542440916
0.0284880399266
-0.00067855948745
0.0285967239383
-0.000452085590485
0.0286496016402
-0.000236362447278
0.0286496733575
-3.15131750021e-05
0.0285997170633
0.00016227478532
0.0285027638379
0.000345043686589
0.0283615779528
0.00051675226263
0.0281791459498
0.000677580811176
0.0279581520213
0.000827613303167
0.0277014766189
0.000967144220584
0.0274116706705
0.00109635598237
0.0270914594662
0.00121562971586
0.0267432211264
0.00132522151761
0.0263694906722
0.00142557353791
0.0259724466224
0.0015169925271
0.0255544110053
0.00159995861062
0.0251173473858
0.00167480873385
0.0246633526495
0.0017420407843
0.0241941693464
0.00180200445179
0.0237116660384
0.0018551983668
0.0232173663337
0.0019019700461
0.0227129148794
0.00194280427708
0.0221996250099
0.00197803380018
0.0216789283874
0.00200811745677
0.0211519426763
0.00203336262364
0.0206199029783
0.00205419226847
0.0200837504382
0.00207088020042
0.0195445442681
0.00208380640496
0.0190030717362
0.00209320563957
0.0184602395417
0.00209941081557
0.0179167052294
0.00210261548207
0.0173732471606
0.00210310501598
0.0168304171598
0.00210103306673
0.0162888882734
0.00209664046081
0.0157491282672
0.00209004567983
0.0152117248187
0.00208145125254
0.0146770795088
0.00207094797968
0.0141457101062
0.00205870863481
0.0136179646854
0.00204480569827
0.0130943011188
0.00202939208186
0.0125750211338
0.00201253192425
0.0120605271813
0.00199436813527
0.0115510762827
0.00197496592352
0.0110470148324
0.00195446695756
0.0105485522785
0.00193294522373
0.010055974428
0.00191054774852
0.00956943695894
0.00188736254121
0.00908915804014
0.00186354590555
0.00861523178106
0.00183920222801
0.00814780088404
0.00181449805875
0.00768688997635
0.00178955363076
0.00723255908443
0.00176454396313
0.00678475683737
0.00173960200852
0.00634345534383
0.00171490708702
0.00590852298979
0.00169059958538
0.00547984119592
0.00166685699987
0.00505719643754
0.00164382007691
0.0046403789097
0.00162165662724
0.0042290926157
0.00160049889635
0.00382303488589
0.00158049528931
0.003421821439
0.00156175900331
0.00302504093583
0.00154440911705
0.00263218221985
0.00152853311198
0.00224264411101
0.00151423049431
0.00185564377564
0.00150161880561
0.00147014474716
0.00149092611604
0.00108484282719
0.00148267956295
0.000698788501746
0.00147770084296
0.000318924040073
0.00147148800452
0.00133161480001
0.00158930147455
-0.00755507999203
0.00335081709296
-0.0083734479409
0.00510569506728
-0.00834504592645
0.00683525498013
-0.00823022625547
0.00853055090761
-0.00807466312567
0.0101837444367
-0.00788306698856
0.0117876417922
-0.00765819917805
0.0133357682104
-0.00740301421358
0.0148223712603
-0.00712072693427
0.0162425027761
-0.00681470109249
0.0175919724056
-0.00648839843338
0.0188674032969
-0.00614526612808
0.0200661415088
-0.0057887088085
0.0211862937634
-0.00542198897741
0.0222266042298
-0.00504822553628
0.0231864845303
-0.00467030977126
0.0240658688779
-0.00429093083594
0.0248652460683
-0.00391250671491
0.0255855034802
-0.00353723440156
0.0262279695745
-0.00316703306324
0.0267942547547
-0.00280361450155
0.0272863102912
-0.00244843266786
0.0277062712321
-0.00210276718426
0.0280565335318
-0.00176767220777
0.0283395993219
-0.00144406576969
0.028558170021
-0.00113267182323
0.0287149921429
-0.000834110265719
0.0288129621611
-0.000548830397031
0.0288549701395
-0.000277200849257
0.0288440129306
-1.94359504206e-05
0.0287830357843
0.000224313411981
0.0286750511788
0.000454037959042
0.0285229806222
0.000669772230573
0.0283297782688
0.000871679308836
0.0280982735358
0.00105995331906
0.0278313006708
0.00123489903988
0.0275315433359
0.00139683507137
0.0272016680034
0.00154617426505
0.0268441728485
0.00168332716042
0.0264615235349
0.00180878282798
0.02605600646
0.0019230133675
0.0256298657353
0.0020265553011
0.0251851613484
0.00211991592815
0.0247239060791
0.00220365469066
0.0242479282714
0.00227829148082
0.0237590078609
0.0023443877509
0.0232587442998
0.00240245708313
0.0227486908402
0.00245304533041
0.0222302274803
0.00249664347194
0.0217046929507
0.00253376663391
0.0211732632835
0.00256486971902
0.0206370807118
0.0025904248367
0.0200971377004
0.00261084003503
0.0195544020904
0.00262653518508
0.0190097069363
0.00263786447556
0.0184638709317
0.00264519040186
0.0179175936454
0.00264881035958
0.0173715704307
0.00264902872213
0.0168263931111
0.0026460879598
0.0162826584409
0.00264023832987
0.0157408737143
0.00263167353006
0.0152015581733
0.00262059776529
0.0146651535469
0.00260716594959
0.0141321178434
0.00259154752499
0.013602840455
0.00257387088038
0.0130777281992
0.00255428356456
0.012557125196
0.0025329006629
0.0120413911249
0.00250986080084
0.0115308258318
0.00248527805073
0.0110257401501
0.00245929346036
0.010526385689
0.00243203023829
0.0100330185944
0.00240364044377
0.00954583471069
0.00237426318603
0.00906502688432
0.00234406647231
0.00859072600808
0.00231320837625
0.00812305234863
0.0022818740025
0.00766206266447
0.00225023961303
0.00720779609493
0.00221850494734
0.00676022768507
0.00218686044832
0.00631930912293
0.00215551509339
0.00588492861922
0.00212466685653
0.00545694669413
0.00209452635335
0.00503516224439
0.00206529073188
0.0046193431303
0.00203716334046
0.00420919756355
0.00201033131242
0.00380439858084
0.00198498185638
0.00340455920808
0.00196128448968
0.00300924705909
0.00193940588657
0.00261796207104
0.0019195023217
0.00223013920161
0.0019017403586
0.00184512732231
0.00188631305985
0.00146224354374
0.00187350899063
0.00108090700637
0.00186373904911
0.000701183521286
0.00185711041467
0.000327376544481
0.00184497528625
0.00165884991526
0.00162654175785
-0.00918001325733
0.00342855334919
-0.0101737304739
0.00522301205833
-0.0101377785061
0.00699050239832
-0.00999598492881
0.00872157385819
-0.00980400331842
0.0104079541837
-0.00956771373775
0.0120421118526
-0.00929062124682
0.0136173081691
-0.00897647409856
0.0151276347242
-0.00862931638833
0.0165680491653
-0.00825338012047
0.0179343668089
-0.00785298340483
0.0192232579201
-0.00743243012399
0.0204322000509
-0.00699593165414
0.0215594495245
-0.00654752956854
0.0226039661097
-0.00609104718292
0.0235653713901
-0.00563003623172
0.0244438575849
-0.00516775906663
0.0252401444679
-0.00470715778106
0.0259553831801
-0.00425086515493
0.0265911219044
-0.0038011921704
0.027149214119
-0.00336016191545
0.0276318001787
-0.0029295081511
0.0280412250994
-0.00251072272243
0.0283800377525
-0.00210505524061
0.0286509178461
-0.00171356328851
0.0288566891079
-0.00133710509218
0.0290002508607
-0.000976386002414
0.0290845994244
-0.000631941667326
0.0291127600512
-0.00030418030248
0.0290878127421
6.6406061911e-06
0.0290128232561
0.000300373015324
0.0288908714088
0.000577005756873
0.0287249845967
0.000836613720966
0.0285181689679
0.00107939439495
0.0282733433041
0.00130561655398
0.0279933770835
0.00151564765911
0.0276810267592
0.00170990638725
0.0273389780914
0.00188888989846
0.0269697863466
0.00205312622402
0.0265759217715
0.00220320269811
0.0261597139139
0.00233971959563
0.0257233989793
0.00246331944888
0.0252690681406
0.00257464275387
0.0247987155335
0.00267435755045
0.0243141905406
0.00276311775233
0.0238172456141
0.00284159212812
0.0233094925168
0.00291042537474
0.0227924494041
0.00297026587145
0.0222675011158
0.00302172969447
0.0217359452753
0.00306542678685
0.0211989565538
0.0031019279947
0.020657631522
0.0031317897522
0.0201129566853
0.00315552438679
0.0195658518416
0.00317362361665
0.019017141391
0.00318653221219
0.018467595757
0.00319467075691
0.0179179053531
0.00319841274581
0.0173687196114
0.00319810691978
0.0168206228485
0.00319405761135
0.0162741703499
0.00318654682613
0.0157298654587
0.00317581755241
0.0151881923008
0.00316209549002
0.0146495935177
0.00314557480377
0.0141144993005
0.00312643923503
0.0135833054277
0.00310484975333
0.0130563985458
0.00308096460448
0.0125341344012
0.003054928231
0.0120168594682
0.00302688978892
0.0115048895208
0.00299699281243
0.0109985279701
0.00296539175336
0.0104980451155
0.00293224193815
0.0100036936528
0.00289771382587
0.00951568905978
0.0028619830217
0.00903422285334
0.00282524210455
0.00855944460085
0.00278769060838
0.00809147344987
0.00274954446263
0.00763038218653
0.00271102604139
0.0071762075119
0.00267237139856
0.00672893646125
0.00263382058449
0.00628851572205
0.00259562295925
0.00585484050132
0.0025580280476
0.00542776301201
0.00252128927647
0.00500708362019
0.00248565568568
0.00459255835493
0.00245137450696
0.00418389180718
0.00241868420058
0.00378074321493
0.00238781661334
0.00338272069505
0.00235899245602
0.00298938589999
0.00233242515478
0.00260024985906
0.00230832067188
0.00221478108903
0.00228689019067
0.0018324287069
0.00226836332233
0.0014526503401
0.00225299041506
0.00107502690141
0.00224104657034
0.000699618474956
0.0022322246355
0.000329080755459
0.00221521516145
0.00198777009754
0.00167235791613
-0.0108507463389
0.00352444055757
-0.0120240896888
0.00536780523972
-0.0119793997481
0.007182055404
-0.0118084932514
0.00895711919583
-0.011577321201
0.0106841963932
-0.0112930418223
0.0123553399066
-0.0109600133455
0.0139635066693
-0.0105828853324
0.0155025963797
-0.0101666504169
0.0169674796502
-0.00971650583772
0.0183539808522
-0.00923773050383
0.0196588615047
-0.00873555920707
0.0208797630523
-0.00821508988923
0.022015159262
-0.00768119107308
0.0230642753374
-0.00713844261615
0.0240270223004
-0.00659107826061
0.0249039065466
-0.00604295875854
0.0256959584038
-0.0054975484038
0.0264046451261
-0.00495791759545
0.0270318055766
-0.00442674917039
0.0275795775604
-0.00390636378766
0.0280503477799
-0.00339874620734
0.0284466990935
-0.00290558130282
0.0287713781133
-0.00242828583006
0.0290272595771
-0.00196804120557
0.0292173263194
-0.00152581815227
0.0293446424812
-0.00110239818496
0.029412338024
-0.00069838762354
0.0294235832707
-0.000314229527469
0.0293815735617
4.97882535906e-05
0.0292895036414
0.000393524447091
0.0291505510107
0.000716979249342
0.0289678548555
0.00102027259232
0.0287444998315
0.00130365002822
0.0284834968284
0.0015674616923
0.0281877730994
0.00181215134381
0.0278601570485
0.00203824480263
0.0275033719946
0.00224633625101
0.0271200260158
0.0024370777661
0.0267126090188
0.00261116658746
0.026283486371
0.00276933621099
0.0258348988713
0.00291234566343
0.0253689588764
0.00304097200372
0.0248876528875
0.00315600187186
0.0243928388971
0.00325822464669
0.0238862515887
0.00334842625379
0.0233695003289
0.00342738228256
0.0228440770956
0.00349585381042
0.0223113547303
0.00355457998628
0.0217725976908
0.00360427586933
0.0212289606237
0.00364562456
0.020681501741
0.00367927708727
0.020131181593
0.00370584447185
0.0195788785633
0.00372589989754
0.0190253877872
0.00373997136862
0.0184714379063
0.00374854621869
0.0179176897572
0.00375206489535
0.017364753397
0.00375092779627
0.0168131862326
0.00374549057214
0.0162635092768
0.00373607294903
0.015716204224
0.00372295557042
0.0151717280854
0.00370639034872
0.0146305089291
0.00368659863175
0.0140929582696
0.00366378236957
0.0135594652243
0.00363812310961
0.01303040639
0.00360979326879
0.0125061385091
0.00357895538428
0.0119870058634
0.00354577272284
0.0114733316594
0.00351040816199
0.0109654232966
0.00347303355975
0.0104635629765
0.00343382779683
0.00996801136632
0.00339298445381
0.00947899795995
0.00335070870782
0.00899672377923
0.00330722316723
0.00852135212043
0.00326276356984
0.00805301087507
0.00321758280617
0.00759178414302
0.0031719455551
0.00713771467314
0.00312613075252
0.0066907967521
0.00308042547875
0.00625097905169
0.00303512620111
0.00581815893332
0.00299053230333
0.00539218582081
0.00294694653274
0.00497285686313
0.00290466864178
0.00455992075176
0.00286399550583
0.00415307448794
0.00282521546303
0.00375196762525
0.00278860883749
0.00335620068311
0.00275444391073
0.00296532965673
0.00272297880796
0.00257887151797
0.00269446209945
0.00219631387457
0.00266913496868
0.00181712504539
0.00264723260373
0.00144081196779
0.00262900239879
0.00106695916103
0.00261462754789
0.000695367756189
0.00260349860512
0.000327964047196
0.00258229322661
0.00231559331334
0.00172752234006
-0.0125766401084
0.00363997322907
-0.0139347898513
0.00554222130033
-0.0138798984617
0.00741267135611
-0.0136771866133
0.00924046422687
-0.0134033545832
0.0110161633417
-0.0130669769234
0.0127313266189
-0.0126734064243
0.0143785559883
-0.0122283411136
0.015951542715
-0.0117378583845
0.0174450725046
-0.0112082561892
0.0188550090474
-0.0106458862571
0.0201782468647
-0.0100570200231
0.0214126517044
-0.0094477223117
0.0225569824341
-0.00882375898228
0.0236108054815
-0.00819051473762
0.0245744019305
-0.00755294013529
0.0254486702491
-0.00691551248243
0.0262350327315
-0.00628221977024
0.0269353407598
-0.00565656263481
0.0275517949592
-0.00504157097836
0.0280868670215
-0.0044398393978
0.028543244911
-0.0038535649555
0.0289237789521
-0.00328459921664
0.0292314537433
-0.00273448792137
0.0294693545588
-0.00220451859412
0.0296406562755
-0.00169574518818
0.0297485975635
-0.00120901932842
0.0297964738944
-0.00074499697273
0.0297876092866
-0.000304156773887
0.0297253472229
0.000113201867608
0.0296130190961
0.000506942052016
0.0294539328611
0.000877096081694
0.0292513432077
0.00122382856034
0.0290084432686
0.00154745643981
0.028728335533
0.0018484109782
0.0284140312706
0.0021272376278
0.0280684253676
0.00238456847897
0.0276943011454
0.00262112017863
0.0272943100268
0.00283766640814
0.0268709803198
0.00303503822902
0.0264267011209
0.00321409844997
0.0259637333579
0.00337574427559
0.0254841971698
0.00352088449284
0.0249900837975
0.00365044342686
0.0244832459918
0.00376534112966
0.0239654100109
0.00386649732277
0.0234381689691
0.00395481435579
0.0229029947626
0.0040311801535
0.022361234486
0.004096453815
0.0218141224549
0.00415146721873
0.0212627796998
0.00419701330714
0.0207082262222
0.00423384671243
0.0201513833059
0.00426267499644
0.0195930859301
0.00428415905742
0.0190340872323
0.00429890755433
0.0184750706919
0.00430747796221
0.017916655845
0.00431037427091
0.0173594096438
0.00430804932176
0.0168038523685
0.00430090556867
0.0162504674752
0.00428929897943
0.0156997067431
0.00427354239146
0.0151519980067
0.00425391083176
0.014607748761
0.0042306467311
0.0140673513498
0.0042039661929
0.0135311845843
0.004174065202
0.0129996162566
0.00414112611895
0.0124730026719
0.00410532396155
0.0119516886543
0.00406683233648
0.0114360052496
0.00402582897402
0.0109262676874
0.00398250037765
0.0104227717828
0.00393704597608
0.00992579050639
0.00388968098651
0.00943556977705
0.00384063884457
0.00895232438154
0.00379017206478
0.00847623386357
0.00373855289585
0.00800743848494
0.00368607225978
0.00754603581514
0.00363303885634
0.00709207728863
0.00357977649053
0.00664556591868
0.0035266220205
0.0062064538018
0.0034739215358
0.00577464113587
0.0034220276353
0.00534997483772
0.00337129499674
0.00493224880506
0.00332207751432
0.00452120369344
0.00327472384595
0.00411652831657
0.00322957498371
0.00371786075507
0.00318696041763
0.0033247914925
0.00314719681792
0.00293686750615
0.00311058576715
0.00255359799106
0.00307741250291
0.00217446453529
0.00304794793082
0.00179894739069
0.00302244933392
0.0014265203909
0.00300113302127
0.00105668095632
0.00298414678475
0.000689112087032
0.00297077503719
0.000325356141313
0.00294575284644
0.00264078718679
0.00179296094518
-0.0143679569446
0.00377697322008
-0.015917059732
0.0057489503875
-0.0158501112556
0.00768579003025
-0.01561226059
0.00957568212974
-0.015291473903
0.0114084243651
-0.0148979387445
0.0131749922145
-0.0144381878082
0.0148675930696
-0.0139191461605
0.0164796925872
-0.0133481580969
0.0180060176296
-0.0127327744706
0.0194425063919
-0.012080568344
0.0207862544833
-0.011398959901
0.0220354209112
-0.0106950863805
0.0231891406306
-0.00997568240058
0.02424740902
-0.00924699963157
0.0252109759861
-0.00851473852285
0.0260812247916
-0.00778401305432
0.0268600616417
-0.00705933255363
0.027549805401
-0.00634461031556
0.0281530903498
-0.00564319292373
0.0286727845489
-0.00495790589372
0.0291119221536
-0.004291116028
0.0294736602439
-0.00364479283448
0.0297612439814
-0.00302057537775
0.0299779939039
-0.00241982029044
0.030127289509
-0.00184364664119
0.0302125660015
-0.00129295491064
0.0302372973001
-0.000768446116143
0.0302049862428
-0.000270620950225
0.0301191392498
0.000200211066507
0.0299832510146
0.000643932111937
0.0298007760912
0.00106060747882
0.0295751081037
0.00145047094932
0.0293095582354
0.00181391379577
0.0290073425643
0.0021514720024
0.0286715596004
0.00246379886556
0.0283051883546
0.00275165711421
0.0279110699608
0.00301589016414
0.0274919128591
0.00325741658643
0.027050277931
0.00347720325215
0.026588588295
0.00367626305336
0.0261091172308
0.00385563148871
0.0256139999905
0.00401636692145
0.0251052242181
0.00415953080305
0.0245846418666
0.00428618884753
0.0240539624196
0.00439739441605
0.0235147641005
0.0044941890393
0.0229684905552
0.00457758844906
0.0224164612429
0.00464858156437
0.0218598721414
0.00470811906728
0.0212998056414
0.00475711096329
0.0207372353222
0.00479641796087
0.0201730355627
0.0048268484307
0.0196079897883
0.00484915306373
0.0190427997769
0.00486402237115
0.0184780962198
0.00487208493796
0.0179144473562
0.00487390643682
0.0173523704154
0.00486999151255
0.0167923390299
0.00486078488628
0.0162347941182
0.00484667649382
0.0156801494439
0.00482800471529
0.0151288007392
0.0048050640677
0.014581128895
0.00477811014071
0.0140375065147
0.00474736885242
0.0134982984323
0.00471304229471
0.0129638653575
0.00467531845397
0.0124345617654
0.00463437699854
0.0119107367624
0.00459039836716
0.0113927297043
0.00454356852223
0.0108808688291
0.00449408650724
0.0103754652677
0.00444216740269
0.0098768102522
0.00438804773968
0.00938516832933
0.00433198621524
0.00890077405411
0.00427426675976
0.00842382524404
0.00421519695973
0.00795447998809
0.00415510892242
0.00749285063232
0.00409435569081
0.00703900174087
0.00403331033342
0.00659294530979
0.00397236086828
0.00615464005911
0.00391190814455
0.00572398810249
0.00385235989915
0.00530083572773
0.00379412805941
0.0048849715267
0.00373762258603
0.00447612869398
0.00368324879772
0.00407398456997
0.00363140162834
0.00367816466811
0.00358246354508
0.0032882444109
0.00353679971784
0.00290375458253
0.00349475652456
0.00252419003771
0.00345665934552
0.00214901737102
0.00342280772629
0.00177767573454
0.00339346907535
0.00140961560072
0.00336889124492
0.00104428609423
0.00334920879452
0.000681192525547
0.00333354940429
0.000321728656129
0.00330488897383
0.00296237690558
0.00186976806039
-0.0162360839636
0.00393771789569
-0.0179832465945
0.00599131776682
-0.0179019455991
0.00800566480594
-0.0176248318769
0.00996778497184
-0.0172518102459
0.0118665696669
-0.0167949306971