/*--------------------------------*- C++ -*----------------------------------*\
| =========                 |                                                 |
| \\      /  F ield         | OpenFOAM: The Open Source CFD Toolbox           |
|  \\    /   O peration     | Version:  v1906                                 |
|   \\  /    A nd           | Web:      www.OpenFOAM.com                      |
|    \\/     M anipulation  |                                                 |
\*---------------------------------------------------------------------------*/
FoamFile
{
    version     2.0;
    format      ascii;
    class       volScalarField;
    location    "615";
    object      p;
}
// * * * * * * * * * * * * * * * * * * * * * * * * * * * * * * * * * * * * * //

dimensions      [0 2 -2 0 0 0 0];


internalField   nonuniform List<scalar> 
9216
(
273.537672623
273.617441915
273.782500875
274.034254886
274.37128353
274.792000474
275.294437465
275.876285212
276.534931227
277.267501071
278.070894487
278.941826363
279.876860424
280.872447512
281.924954204
283.030696358
284.185961203
285.387035437
286.630220592
287.911855992
289.228328048
290.576088992
291.951661141
293.351652512
294.772757132
296.211768554
297.665577139
299.131182235
300.605687139
302.086310464
303.570379313
305.055339628
306.538747817
308.018281738
309.491730487
310.957004256
312.412123227
313.855227289
315.284563747
316.698496681
318.095493681
319.474134883
320.833098919
322.171171661
323.48723158
324.780258241
326.049317286
327.293568731
328.512251772
329.704692922
330.870290855
332.008524411
333.118937652
334.201147742
335.254830384
336.279727563
337.275633471
338.242402088
339.179933687
340.088182182
340.967142266
341.816856451
342.637402866
343.428901891
344.191504612
344.925398958
345.630798813
346.307949565
346.957117851
347.578596468
348.172694738
348.739742738
349.280082287
349.794070487
350.282071342
350.744458623
351.181608147
351.593900001
351.981711507
352.345418876
352.685390872
353.001989975
353.295566787
353.56646078
353.814995477
354.041478897
354.246199597
354.429427006
354.591408608
354.732370881
354.8525192
354.952043004
355.031128196
355.09000572
355.129511848
355.145827926
273.457945232
273.53807679
273.70347969
273.95623559
274.294700033
274.717211564
275.221757609
275.805991198
276.4672643
277.202666622
278.009063533
278.883135816
279.821415914
280.820324522
281.876201869
282.985338898
284.144002143
285.348458795
286.594995084
287.879935651
289.199656192
290.550598138
291.929276685
293.332291946
294.756333497
296.19818905
297.654746453
299.123000669
300.600053898
302.083121373
303.569529954
305.056723352
306.542259543
308.023814574
309.499179184
310.966262455
312.423087192
313.867792838
315.298630024
316.713962929
318.112263064
319.492111124
320.852190141
322.191286907
323.508284644
324.802164102
326.071995896
327.316941382
328.536244826
329.729234146
330.89531307
332.033961825
333.144729413
334.227234316
335.281156991
336.306240634
337.30228397
338.269142073
339.206719509
340.114971192
340.993895879
341.843537026
342.663976624
343.455335986
344.217769899
344.95146727
345.656645559
346.33355122
346.982454373
347.603649002
348.197447835
348.764182268
349.304197454
349.81785194
350.305512973
350.767555873
351.204359581
351.616305804
352.003774829
352.367144503
352.70678636
353.023064481
353.316331985
353.586929843
353.835183772
354.061403078
354.265878006
354.448878691
354.610652996
354.751425527
354.871395508
354.970733921
355.049575303
355.107988019
355.145856218
355.162146584
273.292122906
273.373402734
273.540338373
273.795399058
274.136908523
274.563160343
275.072080842
275.661255059
276.327963659
277.069223443
277.881827908
278.762387958
279.707370346
280.713134397
281.77596494
282.892102759
284.05777068
285.269197222
286.522635975
287.814383094
289.140790942
290.49828063
291.883351218
293.292588595
294.722671465
296.170377682
297.632587984
299.106290587
300.588583332
302.076677038
303.56789643
305.059682594
306.549592933
308.035302607
309.514603617
310.985405625
312.445734115
313.893730453
315.327649279
316.745857895
318.146832967
319.529159325
320.891526089
322.23272498
323.551646001
324.847275388
326.118690984
327.365059956
328.585634001
329.779746956
330.94680997
332.086309108
333.197800611
334.280908576
335.335320391
336.360784557
337.35710635
338.324145813
339.261813671
340.170069489
341.04891783
341.898406549
342.718623166
343.509693231
344.271776872
345.005067174
345.709786839
346.386186524
347.03454157
347.655150245
348.248330513
348.814418167
349.353763612
349.866729889
350.353689483
350.815022259
351.251112323
351.662345896
352.049108278
352.411781711
352.750742489
353.066358864
353.358988358
353.628975766
353.876650719
354.102325834
354.306294548
354.488829434
354.650180235
354.790572102
354.9102032
355.009241415
355.087818409
355.146014682
355.183777029
355.201602118
273.037177542
273.119744318
273.289077331
273.547742342
273.894001912
274.326073877
274.841790752
275.438632608
276.11376889
276.864102759
277.686315289
278.576908783
279.532247694
280.548596667
281.622154781
282.749086135
283.925546314
285.147705325
286.411766791
287.713984257
289.050674453
290.418228483
291.813120706
293.231916312
294.671277191
296.127967098
297.598855531
299.080921298
300.571255042
302.067061687
303.565661946
305.064493798
306.561113175
308.053194722
309.538531525
311.015035028
312.480734003
313.933773705
315.372414075
316.79502818
318.200099733
319.586220911
320.952089298
322.296505199
323.618368138
324.9166738
326.190510222
327.439054513
328.661568877
329.857397237
331.025961235
332.166756871
333.279350597
334.36337607
335.41853042
336.444571192
337.441312833
338.408623861
339.346423594
340.254679535
341.133404327
341.982653326
342.802521741
343.593142332
344.354682677
345.087342929
345.79135315
346.466971059
347.114479378
347.73418353
348.326408947
348.891498701
349.429810761
349.941715546
350.427593156
350.887830858
351.32282032
351.732955078
352.118627813
352.48022785
352.818138533
353.13273481
353.424380758
353.693427313
353.940209987
354.165046786
354.368236134
354.550054967
354.710756799
354.850569804
354.969694652
355.068302018
355.146529545
355.204476896
355.24213109
355.26026309
272.692028173
272.776243754
272.948866117
273.212484779
273.565268904
274.005325539
274.530355156
275.137691234
275.824348281
276.58707175
277.422387151
278.326647303
279.296076396
280.326810096
281.414931142
282.556500369
283.747583145
284.984271629
286.262703132
287.579075187
288.929657684
290.310802708
291.718952368
293.150645166
294.602521075
296.071325774
297.553914038
299.047252655
300.548422736
302.054621718
303.563164858
305.071486331
306.577140051
308.077800274
309.571261372
311.055437489
312.528361674
313.988184748
315.433173653
316.861709574
318.272285592
319.663504153
321.034074131
322.382807781
323.708617338
325.010511599
326.287592225
327.539050083
328.764161407
329.962284057
331.13285366
332.275379922
333.389442876
334.474689344
335.530829376
336.557632942
337.554926624
338.522590555
339.460555386
340.368799478
341.247346106
342.09626087
342.915649087
343.705653349
344.466451032
345.198251929
345.9012958
346.575850002
347.222207018
347.840682033
348.431610399
348.995345125
349.532254262
350.042718313
350.527127548
350.985879359
351.419375541
351.828019631
352.212214214
352.5723583
352.908844706
353.222057539
353.512369706
353.780140558
354.025713583
354.24941424
354.451547868
354.632397714
354.792223017
354.931257168
355.049705877
355.147745525
355.22552181
355.283148334
355.320629967
355.338793213
272.254892202
272.341199321
272.518057262
272.788062575
273.149255368
273.599591794
274.136595733
274.757406293
275.458833781
276.237417003
277.089478814
278.011178565
278.998560099
280.047594467
281.154216985
282.314358669
283.523972315
284.779053738
286.075658771
287.409916674
288.77804059
290.176335669
291.601205356
293.049156329
294.516802412
296.000867776
297.498189591
299.005720292
300.520529501
302.039805672
303.560857419
305.0811144
306.598128122
308.109572536
309.613243674
311.107059248
312.589057756
314.05739722
315.510353492
316.946318211
318.363796375
319.761403622
321.137863188
322.492002643
323.822750384
325.129131989
326.410266408
327.665362096
328.893713061
330.094694936
331.267761036
332.412438503
333.528324503
334.615082555
335.672438961
336.700179404
337.698145665
338.666232525
339.60438478
340.512594438
341.390898007
342.23937393
343.058140085
343.847351379
344.607197368
345.337899925
346.039710888
346.712909712
347.357801076
347.974712454
348.563991627
349.12600415
349.66113075
350.169764684
350.652309048
351.109174057
351.5407743
351.947525998
352.329844265
352.688140398
353.022819217
353.334276453
353.62289622
353.889048568
354.13308714
354.355346935
354.55614219
354.735764368
354.894480284
355.032530344
355.15012696
355.247453303
355.324662594
355.381877229
355.419109609
355.437190837
271.723492526
271.812390331
271.994512374
272.272455484
272.644090841
273.107177361
273.65901014
274.296478321
275.01613145
275.81424637
276.686890994
277.629983295
278.639344048
279.710742555
280.839935165
282.02269685
283.25484643
284.532266235
285.850917058
287.206849303
288.59621114
290.015254406
291.460338886
292.927935477
294.414628632
295.917118358
297.432221956
298.956875608
300.488135824
302.023180776
303.559311405
305.093952199
306.624651988
308.149084506
309.665047924
311.170464418
312.663379221
314.141959256
315.604491341
317.049379994
318.475144864
319.880417817
321.263939717
322.624556951
323.961217725
325.272968197
326.558948477
327.818388542
329.050604108
330.25499251
331.431028607
332.57826077
333.696306966
334.784850973
335.843638751
336.872474969
337.871219716
338.83978539
339.778133752
340.686273157
341.564255923
342.412175833
343.23016574
344.018395244
344.777068421
345.506421573
346.206720966
346.878260551
347.521359626
348.136360442
348.723625743
349.283536228
349.816487933
350.322889563
350.803159749
351.257724273
351.687013253
352.09145833
352.471489843
352.827534047
353.160010357
353.469328664
353.755886721
354.020067628
354.262237413
354.482742741
354.68190874
354.86003698
355.017403587
355.154257539
355.27081918
355.367279137
355.443797616
355.500503212
355.5374125
355.555349949
271.095006699
271.18705283
271.375574629
271.663161746
272.047469077
272.526002872
273.095767074
273.753335036
274.494929515
275.316501912
276.213806397
277.182466884
278.21803531
279.316040587
280.472028341
281.681592067
282.940396745
284.244196051
285.588844414
286.970305074
288.384655194
289.828088925
291.296919159
292.787578531
294.296620103
295.820717978
297.356668026
298.901388741
300.451922238
302.005435315
303.559220267
305.110695879
306.657408125
308.197030589
309.727364123
311.246336334
312.752000573
314.242534469
315.716238007
317.171531164
318.606951152
320.021149284
321.41288753
322.781034789
324.124562942
325.442542727
326.734139484
327.998608837
329.235292326
330.443613074
331.62307149
332.773241087
333.893764405
334.98434912
336.044764303
337.074836908
338.074448439
339.043531856
339.982068657
340.890086179
341.767655049
342.614886794
343.431931561
344.218975926
344.976240735
345.703978983
346.40247365
347.072035517
347.713000892
348.32572927
348.910600892
349.468014206
349.998383235
350.502134859
350.979706019
351.431540868
351.85808787
352.259796893
352.637116291
352.990490014
353.320354759
353.627137184
353.9112512
354.173095361
354.413050379
354.631476744
354.828712512
355.005071221
355.160840003
355.296277871
355.411614247
355.507047839
355.582745848
355.638842381
355.675357723
355.693107889
270.366004606
270.461827035
270.658021212
270.95715765
271.356616567
271.853583397
272.444694874
273.126129317
273.893704464
274.742972519
275.66930713
276.667979904
277.734224881
278.863290645
280.050480657
281.291183051
282.58089146
283.915218591
285.28990422
286.700819123
288.143966245
289.615480193
291.111625886
292.628796985
294.163514526
295.712426008
297.272305028
298.840051446
300.412691976
301.987381079
303.561401611
305.132166052
306.697217282
308.254228907
309.801005028
311.335479703
312.855715885
314.359903848
315.846359106
317.313519864
318.759944024
320.184305798
321.585391982
322.962097933
324.313423327
325.638467721
326.936426013
328.206583819
329.448312844
330.661066272
331.844374253
332.997839494
334.121133017
335.213990107
336.27620648
337.307634683
338.30818075
339.277801102
340.216499695
341.124325386
342.001369513
342.84776363
343.663677384
344.449316472
345.204920658
345.93076178
346.627141734
347.294390393
347.932863425
348.542940005
349.125020406
349.679523454
350.206883872
350.707549506
351.181978455
351.630636126
352.05399224
352.452517797
352.826682052
353.176949495
353.503776887
353.807610351
354.088882558
354.348010016
354.585390475
354.80140048
354.996393073
355.170695663
355.324608079
355.458400828
355.57231357
355.666553954
355.741296618
355.79668133
355.832732845
355.850258505
269.532372813
269.632687794
269.838001518
270.150846256
270.568253793
271.087003146
271.703269489
272.412739258
273.210731329
274.092312168
275.052398592
276.085845386
277.187516369
278.352339127
279.575344784
280.851694877
282.176697737
283.545816773
284.954672901
286.399043032
287.874856239
289.378188819
290.905259217
292.452423453
294.016171458
295.59312452
297.180033846
298.773780126
300.371373872
301.969956305
303.566799999
305.159310465
306.745027237
308.321624055
309.88690885
311.438823215
312.975441295
314.494968093
315.995737214
317.476208086
318.934962686
320.370701852
321.782241217
323.168506846
324.528530624
325.861445479
327.166480467
328.442955829
329.690278019
330.907934808
332.095490473
333.252581156
334.378910403
335.474244943
336.538410721
337.571289231
338.57281413
339.542968161
340.481780365
341.38932356
342.265712053
343.111099565
343.925677283
344.709672032
345.463344477
346.186987328
346.880923483
347.545504088
348.181106459
348.788131865
349.367003144
349.918162158
350.442067098
350.939189636
351.410011965
351.855023743
352.274718961
352.669592783
353.040138366
353.386843705
353.710188521
354.010641218
354.288655935
354.544669714
354.779099797
354.992341075
355.184763705
355.356710903
355.508496933
355.640405303
355.752687183
355.845560118
355.91920695
355.973773802
356.009290782
356.026556246
268.589219402
268.694855692
268.910958987
269.239993884
269.678548833
270.222887089
270.86860344
271.610772589
272.444100827
273.36306663
274.362042523
275.435395247
276.577563282
277.783112939
279.04677556
280.363469162
281.72830799
283.13660331
284.58385834
286.06575972
287.578167388
289.117104293
290.678746919
292.259417292
293.855576816
295.463822058
297.080882346
298.703618946
300.3290254
301.95422867
303.576490043
305.19320722
306.801915999
308.400290278
309.986142378
311.557422559
313.112217862
314.648750284
316.165374312
317.660573859
319.132958672
320.581260271
322.004327489
323.401121696
324.77071177
326.112268892
327.425061237
328.708448612
329.961877123
331.184873912
332.377042032
333.538055504
334.667654616
335.765641491
336.831875985
337.866271908
338.868793624
339.83945299
340.77830666
341.685453698
342.561033484
343.405223842
344.218239354
345.000329769
345.751778467
346.472900883
347.164042874
347.825578931
348.457910243
349.061462548
349.636683793
350.184041571
350.704020374
351.197118655
351.663845754
352.104718693
352.520258896
352.910988854
353.277428778
353.620093272
353.939488054
354.236106749
354.510427794
354.762911464
354.993997036
355.204100131
355.393610223
355.562888344
355.71226499
355.842038249
355.952472132
356.04379524
356.116199532
356.169838232
356.204747871
356.221717188
267.53075258
267.642683562
267.871532333
268.219651475
268.683061996
269.257369633
269.937437208
270.717577764
271.591746117
272.553711429
273.597201821
274.716018086
275.904116645
277.155664543
278.465070913
279.826999951
281.236370387
282.688345896
284.178320139
285.701899311
287.254884324
288.833254131
290.433151203
292.050869741
293.6828469
295.325657003
296.976008448
298.630742845
300.286835776
301.941398564
303.591679833
305.235068322
306.869095451
308.491435136
310.099904593
311.692463922
313.267214899
314.822398989
316.356394618
317.86771378
319.354998049
320.817014077
322.252648667
323.660903515
325.040889682
326.391821913
327.713012837
329.003867163
330.263875893
331.492610662
332.689718222
333.854915175
334.987982962
336.088763212
337.157153447
338.193103211
339.196610621
340.167719363
341.106516087
342.013128217
342.887722076
343.730501307
344.541705479
345.321608824
346.070519008
346.788775855
347.476749956
348.134841103
348.763476494
349.363108686
349.934213283
350.477286359
350.992841626
351.481407394
351.943523337
352.379737118
352.790600913
353.176667878
353.538488601
353.876607565
354.191559679
354.483866885
354.754034887
355.002550015
355.229876248
355.436452418
355.62268961
355.788968757
355.935638467
356.063013056
356.171370824
356.260952602
356.331960509
356.384555815
356.41878234
356.43541833
266.350124787
266.46951138
266.713430854
267.084057711
267.576680659
268.186061644
268.906135899
269.730265603
270.651483494
271.662705341
272.75690095
273.927221496
275.167085294
276.470227518
277.830720998
279.242975663
280.701723513
282.201994978
283.739091173
285.308555366
286.906145926
288.52781225
290.169674555
291.828008035
293.499231481
295.179900199
296.866702681
298.556460291
300.24612906
301.932802553
303.613714674
305.286243685
306.947915516
308.596403727
310.22953085
311.845268045
313.441733821
315.017191834
316.570047845
318.098845911
319.602263924
321.079108584
322.528309921
323.94891546
325.34008413
326.701080012
328.031266
329.330097461
330.597115958
331.831943106
333.034274631
334.203874692
335.340570546
336.4442476
337.514844916
338.552351213
339.556801382
340.528273524
341.46688651
342.372797993
343.246202851
344.087331942
344.896451109
345.673860313
346.419892798
347.134914175
347.819321351
348.473541211
349.098029013
349.693266444
350.259759339
350.798035067
351.308639601
351.792134324
352.249092608
352.680096219
353.085731611
353.466586146
353.823244305
354.156283921
354.466272472
354.753763486
355.019293063
355.263376561
355.48650545
355.68914438
355.871728434
356.034660634
356.178309647
356.303007755
356.409049031
356.496687865
356.566137607
356.617568412
356.651032403
356.667296264
265.039230831
265.167479601
265.429276592
265.826519929
266.353543701
267.004018089
267.770695668
268.645747206
269.621073139
270.6885652
271.840306922
273.068712777
274.366611642
275.727284323
277.144466393
278.612327256
280.12543486
281.678713436
283.267399622
284.887000519
286.533255881
288.202105689
289.889663779
291.592197792
293.306115401
295.027956418
296.754389974
298.482215649
300.208367226
301.929916919
303.644081137
305.348225665
307.039868934
308.716683558
310.376497712
312.017294903
313.637212574
315.234539617
316.807712921
318.355313063
319.876059266
321.368803746
322.832525577
324.266324194
325.669412632
327.041110633
328.380837684
329.688106077
330.962514061
332.203739165
333.411531741
334.585708843
335.726148466
336.832784284
337.905600895
338.944629672
339.949945238
340.921662575
341.859934756
342.764951256
343.636936755
344.476150355
345.282885059
346.057467417
346.800257178
347.511646835
348.192060932
348.841955069
349.4618145
350.052152321
350.613507206
351.146440736
351.651534328
352.129385846
352.580605938
353.005814168
353.40563503
353.780693873
354.131612831
354.459006773
354.763479346
355.045619126
355.305995924
355.545157255
355.763625028
355.961892431
356.140421064
356.299638304
356.439934925
356.561662975
356.665133888
356.750616916
356.81833778
356.868476508
356.901094355
356.916945235
263.588443924
263.72728722
264.010403514
264.439267999
265.006955562
265.705710434
266.526766811
267.460796497
268.498308445
269.629969775
270.846837199
272.140502802
273.503165982
274.927647938
276.407365858
277.936282321
279.508842335
281.119907075
282.764690212
284.438700274
286.13769073
287.857618521
289.594611219
291.344942829
293.105018021
294.871364218
296.6406304
298.409590967
300.175152728
301.934361647
303.684412223
305.422654392
307.146596834
308.853910204
310.542428543
312.210149101
313.855230725
315.47599099
317.07090221
318.638586508
320.177810072
321.687476754
323.166621159
324.614401361
326.030091392
327.4130736
328.762830991
330.078939614
331.361061076
332.608935244
333.822373224
335.001250679
336.145501617
337.255112703
338.330118218
339.370595713
340.376662436
341.348472523
342.286214963
343.190112261
344.060419726
344.897425233
345.701449342
346.472845561
347.212000633
347.91933463
348.59530076
349.240384732
349.85510362
350.440004178
350.995660589
351.522671693
352.021657732
352.493256694
352.938120347
353.356910035
353.75029234
354.118934664
354.463500821
354.784646674
355.083015873
355.359235735
355.613913291
355.847631542
356.060945927
356.254381051
356.428427649
356.583539842
356.720132637
356.838579723
356.939211509
357.02231354
357.088125046
357.136836802
357.168520184
357.183915008
261.986266405
262.137874766
262.446600471
262.913275384
263.529291372
264.285010885
265.169704248
266.172149629
267.281145872
268.485903061
269.776302581
271.143038528
272.57766256
274.072558684
275.620873613
277.216424109
278.853597273
280.527254198
282.232642929
283.965323239
285.721103826
287.495991502
289.286151901
291.087881355
292.897589752
294.711793727
296.527118721
298.340307478
300.148232071
301.947905026
303.736492462
305.511323815
307.26989519
309.009873896
310.729100008
312.425586104
314.097515298
315.743237809
317.361266294
318.950270141
320.509068883
322.036624899
323.532035581
324.994525145
326.423436236
327.818221461
329.178434937
330.50372395
331.793820741
333.048534528
334.267743813
335.451389082
336.599466006
337.712019278
338.789137184
339.830947034
340.837611504
341.80932594
342.746316594
343.648839755
344.517181614
345.351658762
346.152619067
346.920442766
347.655543512
348.358369194
349.029402321
349.669159861
350.278192397
350.857082577
351.406442856
351.926912568
352.41915441
352.883850446
353.321697739
353.733403738
354.119681505
354.481244895
354.818803753
355.133059182
355.42469895
355.694393055
355.942789496
356.170510271
356.378147636
356.566260627
356.73537188
356.885964734
357.01848065
357.133316899
357.230824568
357.311306876
357.375017761
357.422159745
357.452815174
357.46770831
260.218861109
260.3860044
260.725779896
261.238041056
261.911897286
262.73520049
263.694661935
264.776659107
265.967891922
267.255850668
268.629095027
270.077370431
271.591600404
273.163796759
274.786924945
276.454753416
278.161706482
279.902731741
281.673186782
283.468745629
285.285323213
287.119015699
288.966055041
290.822777294
292.685604757
294.551041803
296.415682512
298.276226664
300.129499356
301.972468813
303.802264379
305.616188985
307.411722499
309.186527262
310.938449627
312.665519432
314.365947458
316.038121205
317.680599356
319.292105127
320.871518666
322.41786868
323.930323515
325.408181898
326.850863541
328.257899738
329.628924071
330.96366324
332.261928094
333.523604871
334.748646749
335.937065798
337.0889255
338.204333972
339.28343807
340.326418502
341.333486081
342.304879129
343.240862078
344.141725145
345.007784977
345.839386026
346.636902448
347.400740195
348.131339061
348.829174383
349.494758174
350.128639504
350.731404009
351.303672485
351.846098566
352.359365568
352.844182613
353.301280175
353.731405209
354.135316008
354.513776922
354.867553044
355.197404962
355.504083611
355.788325295
356.050846918
356.292341438
356.513473595
356.714875923
356.89714508
357.060838483
357.206471296
357.334513715
357.445388615
357.539469463
357.617078653
357.678486011
357.723906701
357.753435031
357.767778143
258.269412477
258.455695963
258.833547966
259.401326049
260.144995414
261.049021155
262.096756624
263.271528606
264.557470228
265.940067111
267.406432361
268.945361264
270.547230926
272.203809375
273.908027268
275.653749579
277.435569491
279.248634425
281.08850558
282.951047349
284.832341065
286.728617919
288.636208025
290.551505175
292.470948764
294.391024071
296.308278879
298.219351312
300.121000373
302.010134777
303.883836798
305.739374996
307.574208986
309.385994477
311.172584605
312.932028959
314.662570148
316.362638462
318.030845229
319.665975068
321.266977076
322.832955171
324.363157874
325.856967799
327.313891102
328.733547067
330.115657883
331.460038644
332.766587538
334.035276256
335.266140657
336.459271853
337.614807871
338.732926122
339.813836882
340.857778015
341.865011046
342.835818711
343.770503962
344.669390365
345.53282368
346.361174414
347.154840957
347.914253006
348.639874844
349.332208166
349.99179413
350.619214409
351.2150911
351.780085447
352.314895389
352.820252068
353.296915447
353.745669247
354.167315424
354.562668368
354.932549003
355.277778904
355.599174527
355.897541603
356.173669744
356.428327285
356.662256415
356.876168592
357.07074031
357.246609191
357.404370469
357.544573814
357.667720552
357.774261207
357.864593416
357.939060181
357.997948439
358.04148699
358.069782985
358.083524734
256.117239428
256.327459088
256.752643671
257.388840872
258.217612248
259.218804763
260.371339893
261.654666144
263.049800174
264.539936767
266.110673501
267.749941923
269.447752127
271.195848626
272.987350886
274.816424513
276.678005421
278.567582298
280.481031915
282.414496592
284.364291958
286.326835465
288.298590507
290.276026667
292.255600699
294.233763368
296.206989979
298.171826901
300.124938805
302.063154263
303.98349537
305.883187999
307.759667677
309.610582084
311.433792113
313.227370454
314.989596778
316.718950768
318.41410414
320.073911691
321.697401075
323.283761589
324.832332393
326.342590503
327.814138931
329.246695162
330.640080006
331.994206751
333.309070514
334.584737728
335.821335824
337.019043237
338.178080028
339.298699361
340.381180202
341.425821457
342.432937827
343.402857468
344.335921509
345.232485323
346.092921336
346.917623024
347.707009701
348.46153159
349.181674713
349.867965123
350.520972103
351.141310026
351.729638728
352.286662317
352.813126498
353.30981457
353.777542346
354.217152275
354.629507071
355.015483092
355.375963694
355.711832688
356.02396799
356.313235514
356.580483318
356.826536044
357.052189676
357.258206635
357.445311254
357.614185659
357.765466052
357.899739421
358.01754065
358.119350034
358.205591134
358.27662909
358.332769128
358.374254587
358.401206441
358.414292329
253.736537291
253.977230688
254.46220452
255.183887205
256.117566978
257.236733793
258.51443773
259.925209709
261.446329629
263.058456661
264.745718566
266.495417508
268.297524934
270.144111471
272.028809585
273.946360454
275.892261751
277.862510734
279.853425126
281.861519685
283.883417162
285.915777254
287.955235706
289.998356176
292.041606544
294.081374301
296.114018471
298.135945857
300.143686876
302.133961473
304.10371621
306.050128722
307.970607666
309.862791766
311.724551244
313.553986501
315.349421048
317.109391918
318.832640217
320.5181011
322.164891914
323.77229905
325.339764238
326.86687073
328.353329903
329.798968613
331.203717158
332.567597685
333.890712735
335.173233782
336.415389747
337.617455726
338.779742242
339.902585479
340.98633888
342.031366533
343.038038638
344.006729282
344.937816548
345.831684898
346.688729506
347.509362156
348.294018112
349.043163348
349.757301477
350.436979782
351.082793838
351.695390371
352.275468122
352.823776705
353.341113532
353.828319077
354.286270809
354.715876223
355.118065352
355.493783138
355.843981884
356.169613973
356.471624885
356.750946553
357.008491037
357.245144522
357.461761679
357.659160407
357.838117007
357.99936181
358.143575289
358.27138463
358.383360782
358.480015928
358.561801369
358.629105809
358.682253966
358.721504653
358.746993576
358.759365683
251.094549496
251.374881484
251.936807107
252.766975616
253.831587227
255.095321683
256.523447136
258.084302372
259.750778204
261.500874518
263.317506462
265.187820814
267.102299541
269.05386584
271.037115033
273.047717784
275.081994737
277.136636106
279.20852898
281.294653437
283.392012283
285.49756807
287.608174905
289.720511844
291.831043089
293.936043742
296.031684867
298.114158757
300.179801714
302.225190434
304.247183053
306.242908759
308.20974981
310.145335366
312.047546824
313.914518864
315.744627956
317.536478025
319.288889796
321.000890572
322.671700411
324.300716392
325.887496543
327.431743676
328.933290216
330.392084459
331.808177857
333.181712891
334.512911001
335.802060127
337.049501894
338.255618691
339.420821201
340.545536926
341.630200341
342.675245193
343.681099414
344.648182921
345.576908457
346.467685316
347.320925669
348.137052874
348.916511071
349.659775187
350.367360516
351.039831026
351.677805784
352.281962999
352.853041449
353.391839264
353.899210225
354.376057947
354.82332844
355.242001637
355.633082475
355.997591973
356.336558657
356.651010442
356.941967019
357.210432664
357.457389424
357.683790665
357.890554988
358.078560592
358.248640106
358.401575966
358.53809633
358.658871556
358.764511179
358.855561411
358.932503031
358.995749778
359.045646978
359.082469781
359.106369542
359.117966351
248.148833333
248.48208109
249.145228801
250.11548251
251.34567477
252.788254156
254.398223018
256.136224854
257.970164193
259.875518714
261.834616072
263.835298653
265.869426805
267.93153549
270.017780506
272.125193923
274.251208711
276.393389908
278.549306033
280.716478731
282.892356689
285.074272213
287.259359443
289.444446105
291.625967921
293.800007013
295.962429317
298.109092225
300.236052018
302.339702454
304.416809478
306.464469618
308.480044988
310.461152565
312.405685338
314.311822264
316.178005945
318.002918317
319.785470629
321.524795946
323.220232472
324.871303957
326.477700684
328.039260126
329.555949562
331.027851549
332.455150926
333.83812268
335.177119594
336.472558846
337.72490755
338.934667754
340.102361622
341.228517712
342.313659124
343.3582943
344.362911066
345.32797438
346.253927973
347.141199807
347.990210891
348.801386767
349.575170632
350.312036992
351.01250464
351.677147929
352.306605425
352.901585402
353.462867853
353.991303042
354.487806823
354.95335326
355.388965238
355.795703953
356.174658075
356.526933249
356.853642318
357.15589636
357.43479647
357.691426077
357.926843669
358.14207585