/*--------------------------------*- C++ -*----------------------------------*\
| =========                 |                                                 |
| \\      /  F ield         | OpenFOAM: The Open Source CFD Toolbox           |
|  \\    /   O peration     | Version:  v1906                                 |
|   \\  /    A nd           | Web:      www.OpenFOAM.com                      |
|    \\/     M anipulation  |                                                 |
\*---------------------------------------------------------------------------*/
FoamFile
{
    version     2.0;
    format      ascii;
    class       surfaceScalarField;
    location    "14";
    object      phi;
}
// * * * * * * * * * * * * * * * * * * * * * * * * * * * * * * * * * * * * * //

dimensions      [0 3 -1 0 0 0 0];
oriented        oriented;


internalField   nonuniform List<scalar> 
18240
(
-0.000638156840605
0.000585654655521
-0.00150127528906
0.000783079867561
-0.00230783798885
0.000764481935835
-0.00313576095112
0.000741063899559
-0.00375974685495
0.000586305363944
-0.00415975925287
0.000314135797684
-0.00434482918971
0.000152809473249
-0.00461214552897
0.000174726559796
-0.00492924532116
0.000296744012716
-0.00542099629475
0.000382811451662
-0.00589366651785
0.000464998131848
-0.00619817802988
0.000173482829963
-0.00574378672848
-0.000467549731838
-0.00479056136285
-0.00106516749295
-0.00356502637958
-0.00122350969371
-0.00274320620734
-0.00095737613195
-0.00183863668149
-0.000852338234056
-0.00120585462223
-0.00079495506067
-0.000369034565115
-0.000779014670745
0.000440395277051
-0.00095821962014
0.00157946405091
-0.00111253965911
0.00270648703786
-0.00124143830913
0.00398424143843
-0.00126626005089
0.00508865999567
-0.00119575209041
0.00628701531135
-0.00117395164469
0.00754252067179
-0.00132734801598
0.00901633316425
-0.00144417243588
0.00999028460972
-0.00101052783169
0.0105685414479
-0.000545830482254
0.0111365057988
-0.000596057205124
0.0116047040112
-0.000428394520733
0.0119611715023
-0.000400655791503
0.0125407293383
-0.000531564973529
0.0130986057189
-0.000602987946513
0.0137304054085
-0.000585019815079
0.0143245700987
-0.000639112750371
0.0151627721568
-0.000805711824345
0.0158327518933
-0.000698277006524
0.015587779324
0.000246436890763
0.0145178043644
0.00107312941621
0.01400880127
0.000502243118231
0.0142529320153
-0.000227661174207
0.0144856393261
-0.000236746538273
0.0146119525427
-0.000103918254362
0.014618603347
-5.53400054004e-06
0.0145609322147
8.07384744603e-05
0.0144310465369
0.000133366992263
0.0142662455394
0.000186116467537
0.0140498254147
0.000220600149012
0.013804374983
0.000264094355798
0.0135131679446
0.000295229415219
0.0131975524288
0.000331359411132
0.0128462153015
0.000354746683806
0.0124779628656
0.000381167694693
0.012083544096
0.000397064287109
0.0116781382417
0.000415688105725
0.011253643903
0.000426323158635
0.0108218197136
0.000439669370825
0.010375757188
0.000447052291895
0.00992461695533
0.000456721286217
0.00946340059662
0.000461388279584
0.00900001969138
0.000466896062889
0.00853065289144
0.000468845565715
0.00807461437084
0.000457551375327
0.00771576405072
0.000357469780349
0.00733347339053
0.000381991330439
0.0067141911653
0.000617157748367
0.00610673088832
0.000605591163102
0.00599817497914
0.000105714035702
0.00601044884925
-1.49620012493e-05
0.0055477111861
0.00045923877423
0.00497532586682
0.000569011069214
0.00442828287213
0.000542616990416
0.00392485652442
0.000499324726572
0.00345388028023
0.000465347543528
0.00301134616761
0.000437690097765
0.0026217018917
0.000382396142158
0.00239845713893
0.000218314832128
0.0022405106345
0.000149957065525
0.00192840963386
0.000307512889437
0.00158887482092
0.000330594980908
0.00128066344266
0.000303872651747
0.00102423291572
0.00024667267417
0.000820860964525
0.000199041905639
0.000684102105329
0.000127525826834
0.00058593738312
9.30442094639e-05
0.000396016007565
0.000182209580282
0.000234329778315
0.000156308829838
0.000165405252115
6.09681926028e-05
0.000169445327942
-1.1544210659e-05
0.000201269863577
-4.1881779957e-05
0.000215086761883
-2.26541775104e-05
0.000168165069156
3.69136656814e-05
0.000112707997439
4.53636951892e-05
5.82454964961e-05
4.47931789324e-05
5.35229182031e-05
-0.000899645069311
0.00142221489187
-0.00205067470593
0.00186148666534
-0.00316407938961
0.00181664796283
-0.0042979368478
0.00180309305912
-0.00539219992424
0.00162315767832
-0.00651176477544
0.00135982559729
-0.00756873979966
0.00115143728986
-0.00846743622785
0.000993269344686
-0.0091165470459
0.000890182055419
-0.00953083601083
0.000721054459081
-0.00967749565787
0.000559729855619
-0.00972658751608
0.000146734185937
-0.0099107559784
-0.000323122644406
-0.0105982885264
-0.000461539997006
-0.0108914609931
-0.000970675812351
-0.0101520377969
-0.00177748303184
-0.00840038224713
-0.00265340227103
-0.00680092126233
-0.00244568919448
-0.00587299409269
-0.00175449000051
-0.00568653149612
-0.00120099263408
-0.0058212381989
-0.00101920786723
-0.00561624550508
-0.00152312704523
-0.0042904907404
-0.00261702439003
-0.00220733514706
-0.00335030654514
0.000253359328257
-0.00365478228891
0.00237726051554
-0.00350078798803
0.00457566870026
-0.00365761652259
0.00744678297048
-0.00392676535574
0.0107348429663
-0.00383211802192
0.0135988466934
-0.00347794946712
0.0154133611708
-0.0022601616723
0.0172302216937
-0.00221045255608
0.0196558995679
-0.00297540769392
0.0220650027113
-0.00299193042082
0.0243700590515
-0.00290004378807
0.0266034170889
-0.00285337665258
0.0287686371395
-0.00297586204066
0.0314733662799
-0.00339556862715
0.0365040219069
-0.00477693344989
0.0436360534189
-0.00605860541319
0.0492846908197
-0.00511949345155
0.0524026631641
-0.00334217242403
0.0545860343171
-0.00238897887549
0.0562618331808
-0.00176994754746
0.0575854230477
-0.00129697810951
0.0585925320961
-0.00091333690942
0.059337536322
-0.00058113710097
0.0598215465157
-0.000284161641103
0.0600799408112
-1.05310698973e-05
0.060117653901
0.00023929289919
0.059963949053
0.000472303090775
0.0596164794361
0.00069011413433
0.0590943797537
0.000896091733929
0.0583950384887
0.00108987518123
0.0575360745601
0.00127136719197
0.0565210064401
0.00143820537344
0.0553679583431
0.00159111830354
0.0540834518661
0.00172975496909
0.0526836504915
0.00185530781796
0.0511759130403
0.00196821291546
0.0495736407031
0.00206912979253
0.0478838802393
0.00215873360593
0.0461171994084
0.00223834733791
0.0442709720131
0.00230416312948
0.0422711243498
0.00235748518661
0.0401407930178
0.00251097046817
0.0378932102077
0.00286249321654
0.0350450632668
0.00345067319946
0.0306035262604
0.00454329685636
0.0261163888879
0.00446834555371
0.0231530368911
0.00341784404928
0.020943102648
0.00277375304774
0.0190651057957
0.0024146544424
0.0173544580326
0.00220326310602
0.0157304834183
0.00208194965124
0.0141234936317
0.00203607469137
0.0123973022575
0.00210006876153
0.0102698415203
0.00233605337569
0.00826722899323
0.00214474522962
0.00687944242101
0.00168538428754
0.0057655024706
0.00143605770756
0.00477380158395
0.00128467840597
0.00377937045646
0.00123187292727
0.0028739606094
0.00109406505049
0.00223202157916
0.000759147984731
0.00171276018561
0.000603331553982
0.00105760315143
0.000827984463798
0.000461415749622
0.000743770184254
6.0417360139e-05
0.000452884315798
-0.000162113811579
0.000201314890612
-0.000258031843573
4.24100296972e-05
-0.000183089452253
-0.000108248210653
-0.000102695971907
-5.36780592409e-05
-4.25096527036e-05
-2.54817139364e-05
1.24861901034e-05
-2.05036750922e-05
6.16873573173e-05
-0.000890886377217
0.00224852934043
-0.00223167562161
0.00313326560089
-0.00369549062625
0.0032119484133
-0.00511420518314
0.00315099605125
-0.00639774219483
0.00283789124441
-0.00755321048473
0.00244559038255
-0.0087298866719
0.00225849285248
-0.0098623436443
0.00205357138035
-0.0109219070069
0.00188530277701
-0.0119019909362
0.00163427710309
-0.0123394640066
0.00093520626644
-0.0120786906524
-0.000177855296408
-0.0115936965022
-0.000871701105601
-0.0115161000269
-0.000597565442743
-0.0123954034614
-0.000156641835009
-0.0136255087324
-0.000614093644391
-0.0148171330415
-0.00151800427001
-0.0148465785079
-0.0024896299218
-0.0134976546418
-0.00316193511399
-0.0110696644553
-0.00370222169396
-0.00789102228569
-0.00425875961439
-0.00485519895756
-0.00461077315283
-0.00162945572652
-0.0058984483259
0.00167452895891
-0.0067025053531
0.00498553471829
-0.00700485779472
0.00908265964518
-0.0076455742933
0.0128928435734
-0.0075168231366
0.017183448508
-0.00824728487412
0.0227827948395
-0.00946313940521
0.0292157356385
-0.00993172299513
0.0380400798703
-0.0110916289964
0.046978250614
-0.0111691591463
0.0539240921721
-0.00990432119485
0.0601383074961
-0.00921003154511
0.0659760091148
-0.00871138671118
0.0714780492966
-0.00835077549505
0.0766645036473
-0.00813543451617
0.0814265126863
-0.00814755811413
0.0851285994817
-0.00845453233441
0.0876949492531
-0.00860495717956
0.0904747411695
-0.00787262307639
0.0937086517366
-0.00655751805312
0.096713620217
-0.00536847656781
0.0993405766634
-0.00437868101283
0.101583317252
-0.00351528650936
0.103428573818
-0.00274041180384
0.104895479862
-0.00202509893905
0.105982996048
-0.00135436973784
0.106711203311
-0.000718077404117
0.107090003618
-0.000123861382742
0.107153365257
0.000426832334495
0.106904491163
0.000952329267615
0.106352653036
0.00146270238524
0.105501638894
0.00195178888179
0.104370014674
0.00241478673777
0.102969452106
0.00284735049685
0.101321462485
0.00324817184019
0.0994408125825
0.00361683933643
0.0973483510972
0.0039543356964
0.0950588537801
0.00426214767676
0.0925903929457
0.00454189351687
0.089955494328
0.00479626763616
0.0871668488732
0.00502928434081
0.0842226138218
0.00524930702712
0.0811088735295
0.00547148656651
0.077857460998
0.0057614923162
0.0745330811801
0.0061851617325
0.0712131789993
0.00676794303365
0.0682990405813
0.00745408575263
0.0652259733454
0.00753751634356
0.0616224376926
0.00701654082841
0.0578824461974
0.00650860260025
0.0541529230896
0.00613786959557
0.050472133034
0.00587750863951
0.0468458672396
0.00570020268454
0.0432781069939
0.00559568613281
0.0398009417572
0.00556760651584
0.0365387375327
0.00558885623344
0.0332665323152
0.00540581684302
0.0298819042063
0.00505916252836
0.0265434844434
0.00476189306412
0.0232743190807
0.00454139585602
0.0200620450897
0.0044300853291
0.0166660803402
0.00447519028315
0.012693142458
0.00471799598067
0.0089750631444
0.00430794370341
0.00613414369825
0.00365570827009
0.00366319039518
0.00320136806283
0.0016675735347
0.00243630704935
0.000522894451482
0.00133462145724
-9.42647723396e-05
0.000646945615012
-0.000285641933716
7.05866951641e-05
-0.000199483307092
-0.000150215058377
-0.000100977263776
-0.000133276778996
-1.85893306347e-05
-0.000111974864
3.84097966176e-05
-0.000967475631465
0.00315119907559
-0.00252695207806
0.00462012376872
-0.00415226649938
0.00476625097931
-0.00568744018176
0.0046141729865
-0.00720218070379
0.00428304261105
-0.00878957463964
0.00396086372365
-0.0102432530669
0.00363892572571
-0.0117414311398
0.00347922445925
-0.0130987594603
0.00317293686422
-0.0138700148725
0.00233705416015
-0.0141329986845
0.00113135418954
-0.0143913428214
1.54808395577e-05
-0.0157057846519
0.000377316303816
-0.0178945424319
0.00151590125769
-0.019293537945
0.00116933693726
-0.0192496810287
-0.000735006245358
-0.0179485858949
-0.00288936734037
-0.0155841064305
-0.00493083059315
-0.012358181638
-0.00645683099545
-0.00900831016163
-0.00712083291067
-0.00510779499319
-0.00821853742935
-0.000915851971171
-0.00886284893372
0.00356663153988
-0.0104319113617
0.00852982947806
-0.0117150825237
0.0141320154061
-0.0126581484237
0.0212378696503
-0.0147956716652
0.0310660983306
-0.0173867626291
0.0415739215946
-0.0187988186877
0.0506316693799
-0.0185363547844
0.0593132840394
-0.0186327680653
0.0670489141733
-0.0188320163281
0.0745045440678
-0.0186253818883
0.0824314655067
-0.0178198259765
0.0901973779124
-0.0169660218687
0.0976497711934
-0.0161449939561
0.104699201588
-0.0153831531381
0.111280527604
-0.0146935001259
0.117250920124
-0.0140963698139
0.122376756513
-0.0135533021927
0.126671502243
-0.0128734912251
0.130631582872
-0.0118066084848
0.134523208199
-0.0104260941742
0.138182814004
-0.00900529380502
0.141478284128
-0.00765389080694
0.144360952746
-0.00637732377671
0.146806634071
-0.00516739547524
0.148812224452
-0.00401170442913
0.150374707243
-0.00289968895402
0.151499491167
-0.00182578027672
0.152186321707
-0.000795378127464
0.152447609642
0.000180387263651
0.152301296048
0.00111160363164
0.151760717263
0.00201550073619
0.15083826067
0.00288473507205
0.14955145708
0.00371130046101
0.147917805194
0.00448918729349
0.145957831415
0.0052155692176
0.14369104314
0.00588972468475
0.141137976485
0.00651275504079
0.138317478898
0.00708684446012
0.135247828244
0.00761502825312
0.131944955804
0.00810163739259
0.128422903126
0.00855314835773
0.124692668529
0.00898044926443
0.120763821526
0.0094004817707
0.116676600919
0.0098479933002
0.112509205146
0.0103510133369
0.108378281827
0.010896589885
0.104432892695
0.0113965223828
0.100375806915
0.0115910734688
0.0959323711809
0.0114557949375
0.091213072134
0.011223234617
0.0863435647727
0.0110019744745
0.0813978674199
0.0108173144407
0.0764203151644
0.0106709764532
0.0714479485379
0.0105608086457
0.0665275157419
0.0104799575709
0.0617098536231
0.0103980150712
0.0568790712143
0.0102271546305
0.051956345236
0.00997203283897
0.0469982503018
0.00970917123923
0.0420500989836
0.00947822606995
0.0371483270567
0.00931942399747
0.0323403622564
0.0092702589365
0.0277549198011
0.00928939987705
0.0230720767275
0.00897652792398
0.0182769074063
0.00843556353831
0.0135162735685
0.00794556801551
0.00860531353659
0.00733130654162
0.00420865614958
0.00571720985029
0.00139724448846
0.00344505393955
0.000305353706768
0.00115002778471
-2.95561310817e-05
0.000173644260855
-3.31866998243e-05
-0.000139112067443
-5.36453875129e-06
-0.000149220894571
2.84821785799e-05
-0.000998183538385
0.00408522919746
-0.00267165269391
0.00622145256964
-0.00440502200535
0.00642750324074
-0.00606087900024
0.00619809234065
-0.00768380073324
0.0058353905581
-0.00942022903452
0.00562549284195
-0.0114846183312
0.00563164269154
-0.0131975086723
0.00511838171306
-0.0144437636831
0.00434665253051
-0.0152521372573
0.00307381946298
-0.0159157613238
0.00172617135981
-0.0176316053674
0.00166157844495
-0.0204102358851
0.0030813275211
-0.021982894217
0.00301038221347
-0.0215395428306
0.000648520372816
-0.0197487234287
-0.00260133403689
-0.0170304134796
-0.00568877769007
-0.0141541379102
-0.00788115561281
-0.0110242335228
-0.00966336950977
-0.00755373950596
-0.0106577839311
-0.00312242630025
-0.0127158839174
0.00254566667996
-0.0145810230554
0.00900012112877
-0.0169350615996
0.016395657992
-0.0191599331643
0.0270680370846
-0.0233729059082
0.0388835116828
-0.0266627017875
0.0488210557823
-0.0273589222822
0.0581080178282
-0.0281076981641
0.0678109801058
-0.0282494209285
0.077346365914
-0.0281738459731
0.0864216536916
-0.02790528497
0.0951328846147
-0.0273293538956
0.103735149099
-0.026410598954
0.112106663951
-0.0253237457955
0.120141764628
-0.0241634057175
0.127756381804
-0.0229788901525
0.134878084813
-0.0217937246379
0.141418839412
-0.0206141694221
0.147298321705
-0.0194074894895
0.152542428476
-0.0180919431446
0.157339878097
-0.0165794716703
0.161831431115
-0.0148944877751
0.165995825809
-0.0131481192794
0.169776498046
-0.0114143368853
0.173136372732
-0.00971797681623
0.176053020527
-0.00806582716521
0.178515109602
-0.00645635982252
0.180514943236
-0.00488309311011
0.182046617151
-0.00334187549912
0.183101131158
-0.0018353118491
0.183676919408
-0.000381825901835
0.183794497688
0.00100626362327
0.183467547393
0.00235357292356
0.182710156518
0.00365195269676
0.18153911373
0.0048911091137
0.179972662267
0.00606322908269
0.178030617754
0.00716425327972
0.175733020151
0.00819292009017
0.173100061689
0.00915045511027
0.170151165833
0.0100395523544
0.166904905512
0.0108643331214
0.163378602291
0.0116301536564
0.159588905596
0.0123443664494
0.155553135029
0.0130169595877
0.151292619589
0.0136610382211
0.146846352527
0.0142935344644
0.142273637957
0.014922280687
0.137642386539
0.0155257018326
0.132993246096
0.0160429249327
0.128207235012
0.01637375499
0.123153340933
0.0165058422525
0.117845256062
0.0165269326718
0.112339440886
0.0165028575551
0.106686984464
0.0164642861223
0.100928658889
0.0164231885505
0.0951003222436
0.0163824661121
0.0892357517037
0.0163372393379
0.0833555270546
0.0162703880649
0.0774221279444
0.016152049792
0.0714031793117
0.0159819093811
0.0653145741004
0.0157880037782
0.0591867901299
0.0155956566844
0.0530655788444
0.0154294971046
0.0470207364572
0.0153033154314
0.0411177209597
0.0151799164352
0.0351838652426
0.0148972681435
0.0291621281522
0.014443219555
0.0232026043506
0.0138902031442
0.0174161012485
0.013101584837
0.011534807788
0.0115815909264
0.00582555077503
0.00913867600818
0.00185574078639
0.00510690123887
0.000514729868793
0.00150291865615
0.000176339563081
0.000189157261537
5.80493602917e-05
-3.92092981296e-05
8.19119252939e-05
-0.00106151897568
0.00508443322164
-0.0028467586025
0.00793431965289
-0.00470256270063
0.0082106599068
-0.00649618658037
0.00792024677292
-0.00833691680419
0.00760396776301
-0.0105539707992
0.00776924605917
-0.0125584730204
0.0075630699261
-0.0141215952695
0.00660988610823
-0.0156938186964
0.0058467693532
-0.0168057256717
0.00411248496967
-0.0182971910972
0.00314751225945
-0.021531219199
0.00482317943823
-0.0236634717231
0.00513268216569
-0.0232588898391
0.00253008957273
-0.0217157251511
-0.00097362725429
-0.0196648182341
-0.00473180153663
-0.0178055998595
-0.00762751651086
-0.0159184848767
-0.00985119554965
-0.0129361889951
-0.0127194711035
-0.00792301191789
-0.0157398591307
-0.00165383498486
-0.0190377642979
0.0060694570137
-0.0223551537003
0.0145450208755
-0.0254573637369
0.0261825133797
-0.0308423445177
0.0382389912392
-0.0354751826106
0.0484738698562
-0.0369301595055
0.0588759125131
-0.0377820361278
0.0690224999352
-0.0382653307263
0.0790679772349
-0.0382990688877
0.0888784736416
-0.037983671513
0.0983425280279
-0.0373639007047
0.107463777179
-0.0364411407573
0.116303978249
-0.0352388787741
0.124833099485
-0.0338385510853
0.132995676564
-0.0323099964982
0.140735925977
-0.0307008918647
0.148001266574
-0.0290391284962
0.154743025057
-0.0273342152586
0.160931588113
-0.0255730734247
0.166587478819
-0.0237241640929
0.171790260556
-0.0217593628977
0.176609982579
-0.0196920180043
0.181055274757
-0.017572656829
0.185106804337
-0.015446024127
0.188743433826
-0.0133359603877
0.191948695483
-0.0112532285662
0.194710331954
-0.00920119284899
0.19701914052
-0.00717591538778
0.198866301829
-0.00517409436982
0.200241597466
-0.00319645684789
0.201132777758
-0.00126003647081
0.201550595427
0.000600301326979
0.201507223205
0.0024075043837
0.201013521287
0.00415510820125
0.200083207824
0.005829664594
0.198732763289
0.00742090653546
0.196980403291
0.00892278873104
0.194845452717
0.0103331544763
0.192347466906
0.0116527982903
0.189505877081
0.0128847019799
0.186339545384
0.0140334080062
0.182866922149
0.0151047992841
0.179106539566
0.0161060416117
0.175078518634
0.017045596824
0.170806905517
0.0179325645198
0.166324400316
0.018775290867
0.161671114327
0.0195741247803
0.156883027734
0.0203117283983
0.151970563716
0.0209527289381
0.146885077568
0.021456039784
0.141569921478
0.0218172789468
0.136019818916
0.0220728189109
0.130258109446
0.0222598303378
0.124314708995
0.0224024419353
0.118218418979
0.0225136672448
0.111995682783
0.0225988589898
0.1056689902
0.0226570241703
0.0992508182183
0.0226811169681
0.0927334802904
0.0226613638892
0.0861086710701
0.0225981488367
0.0793845644379
0.0225029269747
0.072581472461
0.0223890086248
0.0657323207145
0.0222682512791
0.0588805497929
0.0221440893291
0.0520560922196
0.021992731013
0.0451980965037
0.0217430118616
0.038267792321
0.021360432296
0.0313200644519
0.0208239601008
0.0244197381387
0.0199869613807
0.0175309100165
0.0184545968899
0.0109079512143
0.0157451473363
0.004865415516
0.0111337287329
0.00156142592458
0.0047944175458
0.0005887097408
0.00115089125588
0.00019129777851
0.000349390667189
0.000269021983543
-0.0012102925581
0.00623252067971
-0.00312280506527
0.00977417453415
-0.00512280492637
0.0101384170277
-0.00714858558574
0.00987357579169
-0.00949873815791
0.00988141882162
-0.0120307286522
0.0102252632476
-0.0140637866776
0.00952246453338
-0.0159067255016
0.00838292313672
-0.0179715952148
0.00783704590499
-0.0201357767757
0.00620498893796
-0.023687322409
0.00662459265748
-0.0261890491359
0.00724122208431
-0.0255743808388
0.00444356281762
-0.0241196639911
0.000989411824115
-0.0228331368728
-0.00233453571228
-0.0219173805312
-0.00572858827435
-0.0209654263097
-0.00866111450141
-0.0184220955574
-0.012473038323
-0.0137136518038
-0.0174964281013
-0.00702351088222
-0.0224919711104
0.000651688899813
-0.0267645877566
0.00953125620794
-0.0312854017018
0.0218109052912
-0.0377815382452
0.0344316067219
-0.0435075124951
0.044855247884
-0.0459293423411
0.0553803019299
-0.0474754778276
0.0659087399414
-0.048322804016
0.0762637249353
-0.0486258176554
0.0864076061797
-0.0484438218043
0.096275461831
-0.0478483167068
0.10581265844
-0.0468944474733
0.115003452081
-0.0456220781501
0.123852490467
-0.0440760053015
0.132343199754
-0.0423151906121
0.140444307447
-0.0403955698881
0.148121793848
-0.0383610085222
0.155343054343
-0.0362415763361
0.162082231073
-0.0340531902758
0.168328459718
-0.0317980783669
0.174096075961
-0.0294700007764
0.179422848869
-0.0270646288578
0.184344908415
-0.0245930008347
0.188874349118
-0.0220819556421
0.193006817324
-0.0195591285388
0.196732281725
-0.0170430337907
0.200040497069
-0.0145438930668
0.202921838019
-0.0120659338133
0.205368304758
-0.0096067225415
0.207372702493
-0.00716379372874
0.208927203158
-0.00473712459709
0.210016876453
-0.00233696408446
0.210639056275
-1.03630100542e-05
0.210804859447
0.00225203263325
0.210519317799
0.00444976476796
0.209792079777
0.00656489668803
0.208636676845
0.00858321370657
0.207069463681
0.0104959352198
0.205108511522
0.012299096431
0.202772802068
0.0139926527704
0.200081559553
0.0155792586792
0.197053977712
0.0170635596731
0.193709138239
0.0184514623332
0.190066496978
0.0197498393695
0.186146623276
0.0209659363887
0.181972402926
0.0221066165817
0.177570117465
0.0231767479344
0.172967297463
0.0241754999454
0.168184800048
0.02509216153
0.16322673341
0.025908183043
0.158073280218
0.0266063222713
0.152700682734
0.0271862287364
0.147103845002
0.0276654905572
0.141293347613
0.0280656941314
0.135286594587
0.0284040398975
0.129102678206
0.0286919315695
0.122759759934
0.0289355861841
0.116273139776
0.0291369507263
0.109652371662
0.0292946495393
0.10289947858
0.0294065122403
0.0960154655696
0.0294738675035
0.089007273996
0.0295022894945
0.0818884349494
0.0294984550424
0.0746790981479
0.029467636669
0.0674030113037
0.0294096321103
0.0600742995208
0.0293103294618
0.0526699310281
0.0291356378336
0.0451642088511
0.028853704289
0.0375602635204
0.0284146662293
0.0298736011584
0.027659451112
0.0221234692036
0.0261897925543
0.0145172869797
0.0233359502182
0.0075002206818
0.0181352228302
0.00269935792704
0.00958064070369
0.00114584799638
0.00269330068308
0.000394484120107
0.0010916771053
0.000658993506753
-0.00134594797248
0.00751566435545
-0.00339615211163
0.0117516147345
-0.00553210598825
0.0122013981528
-0.0077401017584
0.0120097746551
-0.0106128830993
0.012679922643
-0.0133296882143
0.0128659207636
-0.0156910277465
0.0118107970295
-0.018021666433
0.0106423226989
-0.0208434586274
0.0105848282308
-0.0242662479218
0.00955175694956
-0.027583183716
0.00985838659982
-0.0285169534692
0.00809201233838
-0.0280211068011
0.00385979509332
-0.0278642838774
0.000752166500196
-0.0278037788554
-0.00247947662196
-0.0276769653604
-0.00593201603363
-0.0254230302638
-0.0109940236547
-0.0203144611855
-0.0176457320142
-0.0133135664862
-0.0245608455132
-0.00543669019198
-0.0304182956916
0.00284349911714
-0.0351026149644
0.0153077129528
-0.0437961004303
0.0284403135844
-0.050960508602
0.0393072641671
-0.0544048247715
0.0501417719066
-0.0567848302868
0.0609142349663
-0.0582609338819
0.0715644722935
-0.0589804323859
0.0820057879517
-0.059069849761
0.0921828746626
-0.0586199244573
0.102047886819
-0.0577091051701
0.111564307723
-0.0564037081897
0.120712726594
-0.0547607184217
0.129483361381
-0.0528348400514
0.137862948889
-0.0506810708916
0.145832897632
-0.0483503568927
0.153373667587
-0.0458850813695
0.160467291612
-0.0433172784903
0.167101485796
-0.0406683014324
0.173273762321
-0.0379504871646
0.178994868295
-0.0351706839791
0.184285511571
-0.0323349287214
0.189166345474
-0.029453650515
0.193647756151
-0.0265438511605
0.197731155034
-0.0236235624418
0.201412846529
-0.0207066409642
0.20468756508
-0.0178012538578
0.207548798427
-0.0149108043973
0.209990730622
-0.0120331653833
0.212007846573
-0.00916643296367
0.213593527765
-0.00630916318275
0.214738683405
-0.00346965735977
0.215434440026
-0.000694789251207
0.215685493385
0.00201101866066
0.215492387732
0.00465177430896
0.214861448883
0.00720352732235
0.213803946043
0.0096474003412
0.212334529194
0.0119710004166
0.210470312269
0.014168099097
0.208229672176
0.0162371888225
0.205631748446
0.018180323704
0.202695820255
0.0200018485517
0.199441308725
0.0217076575165
0.195887753448
0.0233043783021
0.192055239586
0.0247988095879
0.187964586475
0.0261969741382
0.183637375569
0.0275030703804
0.179093885726
0.028717476722
0.174348642081
0.0298353327168
0.169405869639
0.0308483144068
0.164258914821
0.0317501250362
0.158898806452
0.0325426754374
0.153323688997
0.0332364706104
0.147539601
0.0338451510474
0.141557366665
0.0343811688875
0.135389646537
0.0348540376508
0.129048947144
0.0352701841474
0.122546030892
0.0356332530975
0.115888646374
0.035944928917
0.10908129194
0.036206248599
0.102127720084
0.0364193221652
0.0950337337811
0.0365876308097
0.0878080905665
0.036714938114
0.0804622183484
0.0368038028367
0.0730080770242
0.0368535320286
0.0654511658344
0.0368564307894
0.0577800602436
0.0367953516657
0.0499759037015
0.0366458075368
0.0420247453916
0.0363530680667
0.0339189689526
0.035751657143
0.0256735199778
0.0344210925764
0.0174273853197
0.0315673511282
0.00956464555877
0.0259824080495
0.00323866217989
0.0158925405571
0.00153900312557
0.00438208430767
0.000592507343021
0.0020282571526
0.00124744476299
-0.00148406824078
0.00893668569862
-0.00372760820752
0.0139221796136
-0.00610729199486
0.0145082394853
-0.00870895268202
0.0145381453966
-0.0119190172912
0.0158136276617
-0.0147015883364
0.0155724161336
-0.017311129365
0.0143478624209
-0.0198685574381
0.0131272653682
-0.0228237212347
0.0134648134983
-0.0265543316907
0.0132045498914
-0.030094161356
0.0133077519385
-0.0329497730324
0.0108587881437
-0.0372394863132
0.00805489585607
-0.0402210330216
0.00363497689441
-0.039432913959
-0.00335159195189
-0.0353234372052
-0.0101155156633
-0.028917318035
-0.0174621085444
-0.0211032271069
-0.0255204377634
-0.0124997632878
-0.0332114164687
-0.00309621903174
-0.0398803482933
0.00790822290973
-0.0461552853702
0.0212282337255
-0.0571672267542
0.0326475843393
-0.062415728775
0.0439763999033
-0.0657574490685
0.0551580570258
-0.0679820735981
0.0661702655259
-0.0692823482983
0.0769685572159
-0.0697836062931
0.087497283911
-0.0695995850219
0.0977093120141
-0.0688299374596
0.107567104332
-0.0675619914019
0.117042988359
-0.0658721691689
0.126119704461
-0.0638276697381
0.134786387082
-0.0614898514295
0.14303361188
-0.0589148795678
0.150851243435
-0.0561531477764
0.158229729074
-0.0532474309585
0.165161370746
-0.0502316437799
0.171642470192
-0.0471312347164
0.177675560952
-0.0439646507433
0.183269927781
-0.0407457204531
0.188439451649
-0.0374849666492
0.193197767207
-0.03419261306
0.197553769614
-0.0308808534159
0.201511001119
-0.0275623200285
0.205069415115
-0.0242472319207
0.208226946933
-0.0209417485331
0.210979923381
-0.0176475795937
0.213324262933
-0.0143622910758
0.215256000386
-0.0110838689847
0.216770232048
-0.00781003264763
0.217860366186
-0.00454752055419
0.218516425756
-0.00133985332393
0.2187397349
0.00179753115142
0.21852803854
0.00487202955831
0.217885774023
0.00785324689063
0.216822619481
0.0107169110534
0.215352287438
0.013446754476
0.21349116179
0.0160337208165
0.211257385353
0.0184746634702
0.20866996619
0.0207706403054
0.205748333448
0.0229256780614
0.202511930408
0.0249455431364
0.198980187428
0.0268369728118
0.195172401643
0.028606792583
0.191107728656
0.0302612548213
0.186804667497
0.0318051249619
0.18227974256
0.0332408336786
0.177544998443
0.0345679303595
0.172606183755
0.0357844640501
0.167463265131
0.0368898413736
0.162114599033
0.0378876675698
0.15656110629
0.0387857833189
0.150807537028
0.0395940858538
0.144861377499
0.0403221950251
0.13873149429
0.0409783248964
0.13242675457
0.0415688242819
0.125955098654
0.0420983431884
0.119322780681
0.0425701771016
0.112534468483
0.0429870245587
0.105594131894
0.0433516155016
0.0985062845257
0.0436669566866
0.0912763480868
0.0439358356992
0.0839104260001
0.0441601909735
0.0764138106195
0.0443400805646
0.0687874925631
0.0444721559746
0.0610237339648
0.0445479468123
0.0531081345179
0.0445496290237
0.0450240073114
0.0444247614762
0.0367558262745
0.0440067034823
0.0283089352891
0.0428542684377
0.019797696227
0.0400642420447
0.0115691288512
0.0341954527872
0.00413032469522
0.0233155820853
0.00181630316622
0.0066864436789
0.000744749855173
0.00309126912825
0.00198800292977
-0.00160081304329
0.0104741689085
-0.00404644798463
0.0162942309323
-0.00663597661397
0.0170249583898
-0.00949997591077
0.0173291528468
-0.012849462575
0.0190867839117
-0.0159861975728
0.0186336783901
-0.0189350960094
0.0172234754936
-0.0216471122114
0.0157676846139
-0.0245791762032
0.0163205331075
-0.0291915105246
0.0177302674233
-0.0339799727764
0.0180088138858
-0.0399384369706
0.0167192693936
-0.0447339708215
0.0127494695218
-0.0453608635796
0.00416882706226
-0.0427190098031
-0.00606957909854
-0.0372279185979
-0.0156699339259
-0.0296365195966
-0.0251155908131
-0.0209385315242
-0.034269175686
-0.0113482772807
-0.0428557526693