/*--------------------------------*- C++ -*----------------------------------*\
| =========                 |                                                 |
| \\      /  F ield         | OpenFOAM: The Open Source CFD Toolbox           |
|  \\    /   O peration     | Version:  v1906                                 |
|   \\  /    A nd           | Web:      www.OpenFOAM.com                      |
|    \\/     M anipulation  |                                                 |
\*---------------------------------------------------------------------------*/
FoamFile
{
    version     2.0;
    format      ascii;
    class       surfaceScalarField;
    location    "14";
    object      phia;
}
// * * * * * * * * * * * * * * * * * * * * * * * * * * * * * * * * * * * * * //

dimensions      [0 3 -1 0 0 0 0];
oriented        oriented;


internalField   nonuniform List<scalar> 
18240
(
0.00398507993073
-0.00403156017604
0.00791074076225
-0.00412355235278
0.0120920996811
-0.00417850295737
0.0161993171689
-0.00433017693556
0.0203439084081
-0.00410616636745
0.0234909290728
-0.00335826879866
0.0266402274792
-0.00308759268693
0.0298781259223
-0.00346268009106
0.0340245935548
-0.00403408276596
0.0387147714613
-0.00495850120513
0.0452529184977
-0.0063713690841
0.0524131622564
-0.00744202293852
0.0587086857122
-0.0061289985207
0.0608247308585
-0.00227907223826
0.0628654120462
-0.00184285619881
0.0660023601854
-0.00332652248628
0.070607896931
-0.00431828906055
0.0739142793668
-0.0035367177354
0.0748456528423
-0.000701040241667
0.0734728683228
0.00123795661822
0.0702848523541
0.0033150428107
0.0660907682996
0.0041749886335
0.063324338532
0.00283857131908
0.0610517325183
0.00229603553715
0.0575849778459
0.00351759950571
0.0522791061858
0.00534416185981
0.0469065781599
0.00540944022018
0.0421503593173
0.00477558992263
0.0385737810253
0.00361710627813
0.0363542322309
0.00222748865692
0.0343427960055
0.00207256126349
0.0325354351453
0.00181408938121
0.0328778804393
-0.000254082602756
0.0344868883698
-0.00160956163829
0.0369573907864
-0.0023663335897
0.0400582799067
-0.00310746239504
0.0441404039709
-0.00398235945435
0.0477557917857
-0.00358939153455
0.0481132856246
-0.000297336136739
0.0448156594376
0.003388395278
0.0429077824484
0.00196683140726
0.0441224445286
-0.00109263444583
0.0456220999094
-0.00144399514146
0.0468426805842
-0.00108376395108
0.047661959258
-0.000759529011763
0.0482561456236
-0.000446390987086
0.0485718271619
-0.000252429417138
0.0487672151206
-3.88252495702e-05
0.0487605394593
7.24802832891e-05
0.0486999550332
0.000224378473044
0.0484794930601
0.000288464573681
0.0482338605589
0.000416364322938
0.047835120906
0.000469289418323
0.0474221214545
0.000590974652001
0.0468625229755
0.000634126034823
0.0463008929405
0.000746854997239
0.0455998510664
0.000780786387406
0.0449065437554
0.000885252803751
0.044081445868
0.000910741087146
0.0432762168344
0.00100225350791
0.0423641740626
0.0010041653672
0.0415210496613
0.00104316435036
0.0406611802119
0.000961628266171
0.0399752521036
0.000881482213296
0.0393919733219
0.000695467018075
0.0381620403135
0.00143889419687
0.0352847633679
0.0030203107363
0.0324454850757
0.00302395691721
0.0319345753352
0.000695173966303
0.0323908402096
-0.000312585604367
0.030955291664
0.00160628348976
0.0291019589752
0.00199300784922
0.0272916973814
0.00198063214867
0.0255190861993
0.001913945115
0.0237837503966
0.00190775722573
0.0220103543123
0.00191168883574
0.0203452208851
0.0018403035833
0.0192436638297
0.00123032669334
0.0184310545125
0.000966985511472
0.0166652237819
0.00188418547377
0.0145636957011
0.00224036844269
0.0123310232712
0.00235695431398
0.0102633044607
0.00218604732829
0.00843695647421
0.00194540690583
0.0066923101981
0.00183884233136
0.00533236150632
0.00147314272781
0.00376848769764
0.00163773138687
0.00247533404168
0.00138405941559
0.00167388380437
0.000880958220948
0.00104132172276
0.000746230406009
0.000225556455158
0.00090812811625
-0.000187860434375
0.000530322020685
-0.000255868113258
0.000178376489746
-0.000238281926725
6.74622633227e-05
-0.000230131292413
4.40641363406e-05
-0.0002019234157
0.00421817202672
-0.00834110621682
0.00874487416766
-0.00879800434847
0.0130833325111
-0.00860315470922
0.01746454001
-0.00884961956742
0.0219744719779
-0.00867531929558
0.0268946731966
-0.00841289131972
0.0320856009695
-0.00832293711706
0.0369478947972
-0.00845938031958
0.0416513037058
-0.00875518979646
0.0455594591877
-0.00896819570549
0.0489077141046
-0.00970809950211
0.0515641011424
-0.0101701185621
0.0555943839035
-0.0100995634339
0.0650648272124
-0.0118253535821
0.0754013861581
-0.0120822524189
0.080043218363
-0.00800474344398
0.0764464739061
-0.000678089710415
0.0716958225845
0.00123237444168
0.0727900950695
-0.00177303441192
0.0767491268896
-0.00269481423946
0.0838756593798
-0.00376795994403
0.0906186283323
-0.00254129685884
0.0942715094749
-0.000749677941426
0.0951906265266
0.00141966973094
0.0943500543889
0.00441014006259
0.0916059637178
0.00812274544231
0.0888345922181
0.00821326450743
0.0900225967666
0.00360585454042
0.0942703293051
-0.000604150441354
0.0985463180664
-0.00202439010527
0.0999293775281
0.000717484426438
0.100042177086
0.00175178570267
0.103344384711
-0.00351784210141
0.107651910417
-0.00585460516247
0.112287296562
-0.00696139578513
0.117257394466
-0.0080114716692
0.123007800684
-0.00968561814767
0.132071236528
-0.0125933245491
0.150135012545
-0.0182804417224
0.176389927796
-0.0227893355527
0.197356724871
-0.0188447476815
0.20678739834
-0.0104388813384
0.211600482869
-0.00608749238027
0.214274824952
-0.00367043553508
0.215832154823
-0.00213533699664
0.216543367707
-0.00106400253124
0.216719509977
-0.000235157854192
0.216366608829
0.000413970201415
0.215704087469
0.000938851002724
0.214678867329
0.00135540099438
0.213442855198
0.00173755639915
0.211884826911
0.00208691579711
0.210138474243
0.00243745324809
0.208088670773
0.00276246589068
0.205868828538
0.00308501723212
0.203370512006
0.00337853742667
0.200722787891
0.00366907406333
0.197820847062
0.00393399960822
0.194781415007
0.00419936886393
0.191497179648
0.00444686441609
0.188053094483
0.00470529749341
0.184297302389
0.00497448292152
0.180206756178
0.00531591533336
0.175481605082
0.0057946473031
0.169716396818
0.00672841267258
0.162773881533
0.00859492177449
0.154788445572
0.0112850586801
0.143997049588
0.0140677246306
0.127875901912
0.0170707682352
0.112560416992
0.0152262761975
0.103946931982
0.0104320020558
0.0977779796201
0.00839296696587
0.0924689316296
0.00750846421599
0.0874504301272
0.00717151708432
0.0824283162462
0.00715411293514
0.0771330026662
0.0074517410353
0.0709809167751
0.00821446033661
0.0627760826659
0.00966218459926
0.0545628798171
0.00936305870567
0.0486133562633
0.00803075763695
0.0430706104503
0.00796853568419
0.0370738134128
0.00854181850155
0.0299231621231
0.00951354528803
0.0229193514613
0.00910959070212
0.0178193310161
0.00708987036161
0.0138285783625
0.00559607070761
0.00967681161985
0.00589427878462
0.00631754815859
0.00486048683188
0.00417064009511
0.00312212556339
0.00295297862379
0.00206259150346
0.00158058766631
0.0024054735661
0.000549938028451
0.0016788853572
0.000201688011593
0.000621509197263
9.94581070133e-05
0.000262909011302
3.106570301e-05
0.000181076322291
-0.000152420682902
0.00400391501474
-0.0124494021582
0.00874919428236
-0.0136657545832
0.0139700252909
-0.0139449716993
0.0192010221922
-0.0142004131579
0.0241576809659
-0.0137371337629
0.028711783811
-0.0130737067488
0.0336220711443
-0.0133283947818
0.0387269775481
-0.0136599906757
0.0440436096374
-0.0141216490969
0.0499846030532
-0.0149573255932
0.0554453957887
-0.0151751571818
0.0593991453038
-0.0141341846321
0.0633438996691
-0.0140548861421
0.067800625859
-0.0162660970686
0.0758487145476
-0.0201357288442
0.0870612046684
-0.0192070087075
0.101595153214
-0.0151796090235
0.115078780447
-0.0122434529906
0.12282145026
-0.00947479771537
0.127043909388
-0.00690056579302
0.129642407361
-0.00632737867308
0.1300364925
-0.00288708145827
0.130812268192
-0.00146851771673
0.133895960028
-0.0016164838944
0.139327894266
-0.000982332746358
0.153723821721
-0.00624686793614
0.169028457692
-0.0070706635336
0.179717923171
-0.00706339707311
0.193189949247
-0.0140610750124
0.210690306486
-0.0195076294938
0.236642193846
-0.0252087598335
0.262175239918
-0.0237543322684
0.276055097226
-0.0173475802847
0.28497373439
-0.0147476519508
0.291873470471
-0.0138033501876
0.297688535892
-0.0137982875797
0.302753862529
-0.0146849476363
0.306905011463
-0.0167038565379
0.308594269316
-0.0198921175769
0.307482837291
-0.0216028967404
0.307509615916
-0.0187781394833
0.30975882187
-0.012612448831
0.311753178209
-0.00798552946909
0.312972360157
-0.00481444380441
0.313469856687
-0.00253195123365
0.313269197576
-0.000783163851074
0.312495400138
0.000647085986513
0.311155762182
0.00184084363013
0.309359503759
0.00285135803224
0.307138803685
0.0036706183183
0.304621845463
0.00437864411865
0.301761439915
0.00504877637995
0.298628044396
0.00570264182482
0.295176981112
0.00632365308796
0.291476959919
0.00692582673915
0.287482427674
0.00749328738824
0.283257265526
0.00804493275839
0.278750462791
0.00857213911491
0.274010073582
0.00910038212199
0.268966561047
0.00963286741701
0.263630707849
0.0102116202531
0.257891196491
0.0108685171328
0.251708886063
0.0116789305607
0.244944018895
0.0127245028505
0.237676506419
0.0141853081955
0.230255082429
0.016194368082
0.223195804748
0.0185476613708
0.216651171907
0.0208001384364
0.211478155187
0.0224607109101
0.205294857642
0.0215986348373
0.197132691753
0.018813836852
0.188656754672
0.0170742213837
0.1801707149
0.0162260280918
0.171614523752
0.015948715907
0.162930224005
0.0160794690762
0.154049842766
0.0165633979353
0.145097885928
0.0174084662591
0.13655589382
0.0184350465548
0.127498165157
0.0186625891143
0.117189719034
0.0185782254687
0.10632791984
0.0190748557111
0.0949511721761
0.020164563984
0.0830668268845
0.0216451601416
0.0696767111746
0.0227360330715
0.0538720284925
0.0231197936506
0.0392918003073
0.0203488280292
0.028245373962
0.017112286189
0.0185129615035
0.0147473569993
0.0104314593875
0.0113165746055
0.0058567015854
0.00674967082688
0.0031986863745
0.00517136830536
0.00132212766236
0.00367607027393
0.000354995219324
0.00169588872049
8.11721451805e-05
0.000605089923182
-4.59039817999e-06
0.000313904859019
-0.000124164458325
0.00394110754555
-0.0164968859432
0.00934807051187
-0.0192127200094
0.0148460484249
-0.0195674968035
0.020066895065
-0.0195471685323
0.0254250111891
-0.0192039910707
0.0312682238487
-0.0190345860492
0.0367581826944
-0.0189256823422
0.0426907987343
-0.0196782783444
0.0494312645885
-0.0209184297751
0.0552002403956
-0.0207626229615
0.0601619993243
-0.0201657038434
0.0657960659331
-0.0197880110841
0.0761729000641
-0.024446282562
0.0936573074126
-0.0337663834494
0.111030957624
-0.0374973625707
0.124413026712
-0.0325853864208
0.135292909019
-0.0260429792529
0.143586084025
-0.0205405045992
0.152455583142
-0.018335482887
0.159854126537
-0.0142878644699
0.170089470921
-0.0165350644144
0.190486893216
-0.0232274235087
0.210615936757
-0.0215458253964
0.221353055498
-0.0123085508295
0.229301671762
-0.00890581251476
0.244216162119
-0.0211329697138
0.275420277856
-0.0382591441231
0.309299624998
-0.0409174374563
0.330063355057
-0.0348011856124
0.343813071825
-0.0332480892001
0.351994920793
-0.0333742938045
0.358365712302
-0.0301097928488
0.365876768134
-0.0248405213537
0.37223497978
-0.0210941272511
0.377251152948
-0.0188001612912
0.381030342442
-0.0175612168518
0.383547248861
-0.0171733208142
0.384394423122
-0.0175225853896
0.382780607684
-0.0182325769847
0.379197890308
-0.017970474758
0.37595288269
-0.0154792445695
0.374650898904
-0.011260134442
0.374041315412
-0.00732267974734
0.373346941211
-0.00407114213481
0.372267466203
-0.0013971043705
0.370684186874
0.000852890805877
0.368593346343
0.0027991488842
0.365995730506
0.00449777422786
0.362934949817
0.00598046709381
0.359429827121
0.00724276903732
0.355567430536
0.00831691570332
0.351364590106
0.00932559693485
0.346856110301
0.0102946568103
0.342041398204
0.0112207275813
0.336947815598
0.0121118725301
0.331567560418
0.0129652576422
0.325920887227
0.0137938196839
0.319992010004
0.0146027223547
0.313790624727
0.0154138116256
0.307291045136
0.016244173535
0.300494829461
0.0171298701398
0.293381860611
0.018103646439
0.285979670366
0.0192134449523
0.278329334566
0.0205067996183
0.270607181454
0.0220489656896
0.263105843684
0.0238361195357
0.256121723419
0.0256815589995
0.249779187209
0.0272921812244
0.244082648793
0.0283154258453
0.237694206289
0.0281422837609
0.229630479385
0.02704574772
0.220673009483
0.0262021872165
0.211272422704
0.0258088828266
0.201590754779
0.0258146969291
0.191706375224
0.0261571440568
0.181675878115
0.0267874745766
0.17162999239
0.0276521400151
0.161668385253
0.0285942282454
0.151217376511
0.0293170484308
0.140005258164
0.0299968213908
0.128332562505
0.0309599155415
0.116458500709
0.0322561899837
0.104607808743
0.0337126949035
0.0926915028602
0.0348731119088
0.0807970603889
0.0352248852893
0.0677042564277
0.0336459133576
0.0537771516132
0.0312439465081
0.0396610647293
0.0290437995174
0.0252251969437
0.0259162142892
0.0126477382101
0.0194495736507
0.00498128879167
0.01294572648
0.00186324844944
0.00690551803878
0.000487222849053
0.00315014025162
-2.46148913212e-05
0.00118536140536
-7.00145522996e-05
0.000423149262678
-0.000178357956941
0.0039162714575
-0.0205200692652
0.0094432835099
-0.024867210916
0.0150526308997
-0.0253071222181
0.0205329866406
-0.0251517691742
0.0260458225452
-0.024838264232
0.0318233555565
-0.0249314218604
0.0389562141299
-0.0261626165881
0.0458905259283
-0.0266981817428
0.0521517571164
-0.0272406428348
0.0584133357374
-0.0270767054849
0.0650031861295
-0.0267999967549
0.07599233144
-0.0308228395739
0.0967250026531
-0.0452029528289
0.118139785446
-0.0551947719081
0.134625141136
-0.0539795051437
0.148886116882
-0.0468444183053
0.160767117579
-0.0379457874991
0.171464545405
-0.031258583668
0.187873021016
-0.0347618493324
0.216180651323
-0.0425869878369
0.244173622229
-0.0444802084365
0.258628533688
-0.0376310963852
0.267978074392
-0.0308555580969
0.282223801962
-0.0265231985089
0.315053215506
-0.0417116444004
0.350786809242
-0.0568423995178
0.369859355856
-0.0572966761267
0.381948051061
-0.0529749828175
0.393306430761
-0.0461382165031
0.401487742203
-0.0414179697003
0.406061471789
-0.0379400118004
0.409621744312
-0.0336647507042
0.413668336318
-0.0288863827019
0.417390690207
-0.0248179129439
0.420297248087
-0.0217086682205
0.422190237294
-0.0194537791815
0.422914573506
-0.017891732938
0.422225319395
-0.0168228682975
0.419894258525
-0.0158814462765
0.416344504506
-0.0143952335
0.412712246672
-0.0118198651943
0.409874386652
-0.00839408025335
0.407483090074
-0.00490388371092
0.40511673554
-0.0016765593118
0.40251791184
0.00123134424298
0.399556770456
0.00384593788086
0.396185176664
0.00620575363767
0.392390512441
0.00833056347274
0.388183089026
0.0102299601558
0.383573133222
0.0118986536194
0.378595570646
0.0133442236688
0.373299049388
0.0146749773426
0.367703360278
0.015947966037
0.361823771141
0.0171619277669
0.355674759429
0.0183275124522
0.349261239795
0.0194496850277
0.342591747689
0.0205395310974
0.335667240152
0.0216077676638
0.328494517069
0.022672361542
0.321076967865
0.0237518248329
0.313431047699
0.0248712876994
0.305580695629
0.026053714376
0.297574948022
0.0273244571637
0.289485322167
0.0287053681976
0.281438075968
0.0302104020761
0.273591329437
0.0317996005693
0.266052411524
0.0333412185566
0.258813336858
0.0346554471979
0.251704524114
0.0355527844811
0.244130192719
0.035848477909
0.2356122398
0.0357034315518
0.226384348025
0.0355753271336
0.216695613723
0.0356504749486
0.206696663293
0.0359711725735
0.196485110793
0.0365319607217
0.18613285902
0.0373062446521
0.175706736777
0.0382480462593
0.165200756745
0.0392726266392
0.154407045971
0.0402876903815
0.143239085381
0.0413459597849
0.131835791367
0.0425496961668
0.120388483554
0.0438950621831
0.109060447523
0.0452353026837
0.0978619858797
0.0462678182687
0.0866591323174
0.0466218343194
0.074638035118
0.0458617286905
0.061806010404
0.0442640848546
0.0488976309586
0.042134392515
0.0361735922008
0.0388158954029
0.0227947022648
0.0329706017509
0.0106874648625
0.0251835110514
0.00301956894895
0.0146621981246
0.000616907711887
0.00563910294981
-1.43143210295e-05
0.00187106875079
-0.00012557521646
0.000566518239725
-0.000275557355448
0.0039057603702
-0.024528754428
0.00962547029817
-0.0307239885596
0.0154100496809
-0.0312205103331
0.0210911685849
-0.0309610564438
0.0268848877012
-0.0307577238359
0.034115737765
-0.0322895252476
0.0411893184427
-0.0333415648925
0.0468267708619
-0.032422287495
0.0543101773873
-0.0347838876638
0.0613075511295
-0.0341457478065
0.0695620287714
-0.0351125529354
0.090331363082
-0.0516234567487
0.115234534362
-0.070144308795
0.135951009872
-0.0759123464185
0.155252845086
-0.0732977225063
0.172439204087
-0.0640646939823
0.190534889259
-0.056082943846
0.222745417547
-0.063511296548
0.257550208321
-0.0695756470035
0.278501941971
-0.0635037205904
0.289640582145
-0.0555766288751
0.298566869204
-0.046527660072
0.311332686154
-0.0435940888634
0.346204975189
-0.0613772210233
0.38268301048
-0.0781553882584
0.40079590331
-0.0749127415132
0.411611596865
-0.0680711065373
0.419039915807
-0.0603701065952
0.425690815451
-0.0527674906752
0.430787071717
-0.0465030218133
0.434060226893
-0.0412088652943
0.436488328097
-0.0360934924503
0.438722620498
-0.0311271669768
0.440582336459
-0.0266868828069
0.44179731779
-0.0229348109083
0.442185035144
-0.0198512010319
0.441609415894
-0.0173222203454
0.439952505568
-0.0151678544528
0.437190705462
-0.013115012894
0.43360686961
-0.010801800735
0.429770908608
-0.00797211168608
0.42611256829
-0.00472175176245
0.422588801375
-0.00136596760833
0.419028687124
0.00189946743651
0.415282974886
0.00499424296909
0.411257035815
0.00789193433957
0.40690101925
0.0105843711049
0.402195020367
0.0130628417121
0.397134893828
0.0153198007068
0.391722248928
0.0173456152337
0.385960649299
0.0191428884036
0.379912415652
0.0207647110955
0.373587091163
0.0223187410198
0.3670035221
0.0237959620057
0.360174178392
0.0252115360755
0.353108793911
0.0265749644171
0.345815782954
0.0278968529959
0.338304178847
0.0291887871014
0.330584897437
0.0304654053513
0.322673169424
0.0317422586917
0.314591156102
0.0330363864457
0.306369875249
0.0343627974621
0.298051563135
0.0357349747312
0.289692206524
0.0371612787307
0.281366480112
0.0386367953411
0.273149372875
0.0401209227298
0.265069504365
0.0415284540875
0.257081402772
0.0427547112922
0.249043693968
0.0437053853881
0.240682042171
0.0443293128963
0.23179016151
0.044720466407
0.222420045225
0.0450760552549
0.212685587841
0.0455214507484
0.202685173055
0.0461129007028
0.192496017329
0.046867042275
0.182176292275
0.0477756187001
0.171764681305
0.0488126712309
0.161256693863
0.049936730077
0.150592369941
0.0511122272295
0.139756483788
0.0523459820942
0.128820847293
0.0536542214083
0.117888823153
0.0550000074576
0.1070365919
0.0562637357018
0.0962423930547
0.0572404032296
0.0853600222168
0.0576827930706
0.0740521936288
0.0573490429992
0.0623050807937
0.0561907065811
0.0505088060569
0.054108504165
0.0389080220618
0.0505781925945
0.0272183534064
0.044814115163
0.0159567535271
0.0365813519147
0.00594205023392
0.0247722433022
0.00117220620408
0.0104684645246
0.000212155257178
0.0028976335335
-4.09395682767e-05
0.000872693300359
-0.000307716278379
0.00428911659913
-0.0289238919319
0.0100494104028
-0.0366086709426
0.0160088016225
-0.0373123022923
0.0220544540802
-0.0371385457086
0.0290522923547
-0.0378882522245
0.0370076419689
-0.0403738111773
0.0436067200847
-0.0400527027873
0.0500850213711
-0.0389822504919
0.0579265364437
-0.0427098607129
0.0661621161196
-0.0424482310454
0.0828804883554
-0.0518867820589
0.107074569569
-0.0758670080208
0.127407446004
-0.0904875880553
0.151060995731
-0.0996178397236
0.17552402765
-0.0977920153259
0.199085509352
-0.0876848043058
0.237224080942
-0.0942730224688
0.275088763628
-0.101408803974
0.296984581553
-0.0914470123275
0.310916273976
-0.077398108772
0.319040225239
-0.0636831145235
0.330710218361
-0.0581777384963
0.365546236977
-0.0784239064191
0.401851598258
-0.0976453895119
0.417778160022
-0.0940311548393
0.427502420527
-0.0845845057964
0.434130699137
-0.0746546046479
0.439171649761
-0.0653765739606
0.443453794741
-0.0570267951552
0.446765986054
-0.0498022757747
0.449012637664
-0.0434504098915
0.45052737888
-0.0376084869741
0.451576380387
-0.0321825268562
0.452145032388
-0.0272645117152
0.452118129546
-0.0229195444956
0.45138816397
-0.0191319271066
0.449872731779
-0.0158153411323
0.447526767882
-0.0128268920123
0.444385978612
-0.00997449607297
0.44063244382
-0.00704421524727
0.436561909898
-0.00389502188487
0.432399514576
-0.000550028270807
0.428179713808
0.00286411407269
0.423848651592
0.00624325937876
0.419333054121
0.00952402844861
0.414575015014
0.0126673126655
0.409535938061
0.0156431707705
0.404196303924
0.018426030505
0.398547768108
0.0209952393328
0.392589122526
0.023335599441
0.386322203034
0.0254439551786
0.379783285983
0.0273421363977
0.372998511202
0.029146267668
0.365983535311
0.0308586822332
0.358748772692
0.0324982507428
0.35130525057
0.0340757751565
0.343662670046
0.0356009981781
0.335833240844
0.03708492306
0.327829918792
0.0385395220376
0.319670426211
0.0399774380092
0.311375763158
0.0414107107466
0.302973038538
0.0428497712485
0.294493990065
0.0443021641414
0.285977557012
0.0457701206372
0.277466673993
0.0472436854114
0.268996029406
0.0486914148406
0.260566905052
0.0500603133554
0.2521363855
0.0512918563967
0.24361092747
0.0523408000831
0.234857125503
0.05319736802
0.225779924556
0.0539166863306
0.21638380166
0.054596049271
0.206719432035
0.0553144879476
0.196845781182
0.0561196112452
0.18681652884
0.0570331880076
0.176675031633
0.0580577000949
0.166449611771
0.059181743918
0.15614790901
0.0603853279061
0.145761005737
0.0616494816373
0.135296409304
0.0629645698526
0.124793005791
0.0643154733116
0.114299639728
0.0656547130469
0.103842304689
0.0668849488589
0.0933916000426
0.0678571718158
0.0828543759658
0.0683866079686
0.0720969384831
0.0682736347861
0.0611216120027
0.0673331141505
0.0501058609478
0.0652901841578
0.0391973857766
0.0616454516256
0.0284138422079
0.0557543731651
0.0180519995847
0.0470560859086
0.0083619333727
0.0345583271975
0.00189728557847
0.0170432145391
0.00057756076104
0.00427460682011
0.000134810723819
0.00134686445669
-0.000148722961618
0.00453030352216
-0.033554651836
0.0104526282214
-0.0426722477491
0.0165760108515
-0.0435719217826
0.0227764673955
-0.0434718070644
0.0310895857481
-0.0463386183804
0.0389364974975
-0.0483530543916
0.0461289491534
-0.0473592486148
0.053406532695
-0.0463500248366
0.0625261563463
-0.0519131955588
0.0746721549178
-0.0546821212225
0.0935026233635
-0.0707874811288
0.113767821472
-0.0961800146038
0.136510296246
-0.113296363922
0.167747408179
-0.13089994676
0.202555250551
-0.132672457284
0.246862429199
-0.132041615034
0.287880376395
-0.135329091916
0.309735073361
-0.123252538929
0.324665181073
-0.106335794712
0.335899412917
-0.0886171933987
0.34545984805
-0.0732328596765
0.379190753451
-0.0919097805763
0.415264415073
-0.114463900599
0.429902899563
-0.112225028716
0.437872348268
-0.101936827065
0.443378369942
-0.0900314433385
0.447592823303
-0.0788202237373
0.450993101735
-0.0687391148305
0.453776982639
-0.0597833372149
0.455855210025
-0.0518622578263
0.457184470767
-0.0447684001931
0.457872884356
-0.0382910911548
0.458026710883
-0.0323355192605
0.457660173992
-0.0269001794569
0.456731276082
-0.0219948167392
0.455189250754
-0.0175942106766
0.452997125152
-0.0136256819407
0.450147092988
-0.00997694172004
0.44668522747
-0.00650882710185
0.442728285756
-0.00308014701645
0.438439199075
0.000404035018144
0.433946176681
0.00395539377286
0.429294528731
0.00753005539949
0.424476120426
0.0110781716065
0.419459868524
0.0145589003121
0.414213624445
0.0179348567582
0.408712182708
0.0211687121737
0.402940302674
0.0242252011721
0.396891669748
0.0270748298601
0.390566483613
0.0296955990373
0.383970730569
0.0320772542259
0.377123757737
0.0342311497509
0.370061399635
0.0362549868938
0.362790369186
0.0381805733677
0.355321835364
0.0400221618305
0.347667275494
0.0417907131611
0.339837624843
0.0434954683087
0.331845749436
0.0451463501814
0.3237051691
0.0467537730556
0.315432566925
0.0483281221317
0.307046342884
0.0498788914798
0.298568303783
0.0514138481697
0.290022247466
0.0529379275397
0.281434848923
0.0544510355039
0.272831340874
0.0559440960885
0.264227661354
0.057395529837
0.255617550157
0.0587738387397
0.246969007376
0.0600472849175
0.238224515848
0.0611954435868
0.229314999243
0.0622207925783
0.220192265099
0.0631573991296
0.210851167673
0.0640592009944
0.201315264136
0.0649764895725
0.191619554708
0.065945176675
0.181800151029
0.066985805383
0.171888740138
0.0681055441943
0.161908444665
0.0693013574742
0.151872601571
0.070563355053
0.14178854353
0.07187884046
0.131668482975
0.0732329733279
0.121534368017
0.0746012808496
0.111407422637
0.0759361087508
0.101292558744
0.0771564980005
0.0911646728
0.0781432013874
0.0809697520539
0.0787400723734
0.0706492289228
0.0787521629155
0.0602053994148
0.0779341831848
0.049715889806
0.0759346669094
0.0392783539169
0.0722399800815
0.0289747517995
0.0661994234271
0.0190315036449
0.0571272251235
0.00973773848928
0.0439707892465
0.00209045208446
0.0247640322174
0.000776811343264
0.00566149204814
0.000309985649072
0.00186600249759
0.000165173614155
0.00474948492323
-0.0384196741115
0.0109937805943
-0.0490437538616
0.0174993454623
-0.0502170541357
0.0244860674078
-0.0505994885677
0.0334490290805
-0.0554442048023
0.041110067725
-0.0561516452712
0.048662564406
-0.055019928097
0.0563597832091
-0.0541453371649
0.0659701376718
-0.0616177071279
0.0801523032355
-0.0689519167245
0.100032722177
-0.090776319965
0.125393656507
-0.12160703429
0.172939277937
-0.160927006853
0.225031113988
-0.183076709472
0.26897667231
-0.176671167779
0.302398356791
-0.165494290342
0.320520813729
-0.153448992722
0.333484334029
-0.136177925152
0.34510004338
-0.117943028754
0.360317890312
-0.103837091383
0.389462053135
-0.102387042999
0.42380564731
-0.126228412464
0.438407594261
-0.128999902711
0.445743910298
-0.119484516871
0.450228477664
-0.106346060592
0.453569112216
-0.0933060845435
0.456250580249
-0.0814465517091
0.458417576332
-0.0708617020206
0.460086912376
-0.0614174195984
0.461197220371
-0.0529450402134
0.461715255665
-0.0452651523068
0.461669819505
-0.0382289938199
0.461100688789
-0.031754246548
0.460021211977
-0.0258110497787
0.458419305801
-0.0203853426075
0.456277493163
-0.0154449613282
0.453586173795
-0.0109259402411
0.450355320634
-0.00673567425012
0.44662614023
-0.00276647036147
0.442474851128
0.00108716879156
0.437996745889
0.00490052129755
0.433270236661
0.00870270497066
0.428333973574
0.0124889075798
0.423195615547
0.0162415166604
0.417844539824
0.0199368565102
0.412265555584
0.0235434407913
0.406444167479
0.0270220759083
0.400371767463
0.0303327582288
0.394046057873
0.0334389892502
0.387470512164
0.036312965847
0.380653800122
0.0389386733271
0.373615684508
0.041318020371
0.366385168827
0.043538634596
0.358961536013
0.0456615823462
0.351358388049
0.0476870218111
0.343588108453
0.0496275802672
0.335662216189
0.0514921696884
0.327593655587
0.0532902335436
0.31939549289
0.055031094745
0.311082872162
0.0567240199271
0.302671485328
0.058377078417
0.294178973464
0.0599969155045
0.285623325193
0.0615874079487
0.277023193978
0.0631484855751
0.268393811499
0.0646738045588
0.259742803642
0.0661501746962
0.25106317759
0.0675598286143
0.242333409451
0.06888667702
0.233518775662
0.0701226075679
0.22458179587
0.0712736982655
0.215496198897
0.0723623178934
0.206256763458
0.0734214646464
0.196875307095
0.0744841371939
0.187373199192
0.0755767297252
0.177774693669
0.0767165934834
0.168103069826
0.0779123217653
0.15837718661
0.0791648621702
0.148611419989
0.0804693786549
0.138816862754
0.0818162358426
0.129005168339
0.0831902420107
0.119189057246
0.0845656427169
0.109377254013
0.085898646829
0.0995665126447
0.0871194901691
0.0897372659683
0.088125998532
0.0798549145545
0.0887756155016
0.0698857654267
0.0888732915565
0.0598234837831
0.0881476368523
0.0496976458093
0.0862097401559
0.0395695704242
0.0825141651651
0.0295563009716
0.0763622689065
0.0198870344366
0.0669231090642
0.0108032520457
0.0531650996834
0.00266437276015
0.0330507772838
0.000958172503084
0.00740952003913
0.000394243487776
0.00244362257179
0.000578081392565
0.00491859373756
-0.0434486435868
0.0115352253667
-0.0558077137187
0.0184046856907
-0.0572258583297
0.0258755420981
-0.0582113436485
0.0345703065237
-0.0642869963918
0.0429415992757
-0.0646622230637
0.0510778579397
-0.0632692607148
0.0590407862465
-0.0622066178499
0.0681844437126
-0.0708528462063
0.0866093485542
-0.0875018284162
0.111989613185
-0.116250083933
0.154023282837
-0.163740609172
0.210214959663
-0.21719873061
0.254114813255
-0.227044968908
0.29122269675
-0.213805119427
0.318542284351
-0.192819376124
0.335352087067
-0.170228421227
0.346677699292
-0.147503500893
0.356307132908
-0.127592730623
0.369744318575
-0.117303782233
0.406192517712
-0.138842593017
0.437054220152
-0.157027642996
0.449943708241
-0.141798765863
0.455482771624
-0.124929464453
0.458495382896
-0.109272108252
0.460576968805
-0.0953128310796
0.462164561087
-0.0829702871205
0.463350210073
-0.0719938206961
0.464119395004
-0.0621409515707
0.464423967212
-0.05321094941
0.464232899749
-0.0450406167709
0.463545182858
-0.0375121917869
0.462372810751
-0.0305564409345
0.460723667443
-0.0241391474019
0.458597812617
-0.0182383400582
0.455993692396
-0.0128204601663
0.452916101718
-0.00782712540625
0.449381103326
-0.0031783277706
0.445422321168
0.00121692998131
0.441090091737
0.00544599537952
0.436443558094
0.00957584734147
0.431532672998
0.0136441503244
0.426387338905
0.0176667697445
0.421018552306
0.0216447145743
0.41542576316
0.0255660759225
0.409603724054
0.0294040728026
0.403546772371
0.0331200980333
0.397252472945
0.0366705860774