/*--------------------------------*- C++ -*----------------------------------*\
| =========                 |                                                 |
| \\      /  F ield         | OpenFOAM: The Open Source CFD Toolbox           |
|  \\    /   O peration     | Version:  v1906                                 |
|   \\  /    A nd           | Web:      www.OpenFOAM.com                      |
|    \\/     M anipulation  |                                                 |
\*---------------------------------------------------------------------------*/
FoamFile
{
    version     2.0;
    format      ascii;
    class       volScalarField;
    location    "568";
    object      pa;
}
// * * * * * * * * * * * * * * * * * * * * * * * * * * * * * * * * * * * * * //

dimensions      [0 2 -2 0 0 0 0];


internalField   nonuniform List<scalar> 
9216
(
978.464706046
978.102336422
977.366063475
976.25273685
974.766019091
972.910199923
970.690652347
968.113771278
965.186877
961.918189943
958.316723076
954.39226158
950.155243792
945.616748841
940.788370759
935.682219386
930.31079255
924.68699508
918.824013082
912.735354477
906.434727805
899.936105876
893.25360973
886.401594812
879.394538805
872.24714786
864.974245579
857.59089519
850.112285897
842.553865739
834.931221676
827.26021663
819.556857255
811.837430125
804.118353965
796.416306686
788.748057878
781.130581148
773.580865058
766.116006091
758.752998573
751.508805807
744.400132244
737.443471741
730.65486665
724.049931668
717.643603587
711.450136096
705.482840844
699.754045315
694.274824625
689.054917065
684.102453521
679.423841357
675.023519533
670.903850551
667.064955109
663.50467407
660.218540271
657.199863432
654.439871002
651.927937354
649.651877785
647.598263511
645.752757357
644.10041072
642.626001314
641.314311912
640.150446854
639.120029444
638.209427921
637.40583374
636.697394707
636.073201001
635.523357065
635.038904452
634.611846538
634.235026673
633.902124603
633.607518817
633.346273987
633.113999846
632.906824001
632.721150086
632.553798023
632.408250727
632.287690918
632.190781483
632.116279201
632.061276731
632.02246614
631.995951902
631.978280078
631.967587901
631.962212598
631.96033238
978.826618483
978.463097557
977.725559521
976.609171322
975.118147479
973.256921108
971.030955577
968.446709255
965.511574815
962.233834053
958.622576798
954.687650921
950.439573555
945.889483193
941.049049448
935.930433084
930.546199651
924.909292386
919.03295394
912.930715654
906.61632995
900.103777572
893.407211201
886.540980118
879.519583618
872.357710611
865.070199783
857.672090179
850.178584004
842.605103327
834.967250563
827.28086518
819.561977625
811.826860505
804.091969074
796.373980858
788.689718784
781.056173574
773.490406134
766.009549241
758.630688485
751.370842278
744.246823423
737.275198509
730.472133639
723.853334186
717.433876821
711.228127279
705.249556643
699.510630209
694.022602918
688.795373061
683.837258294
679.154823451
674.752662735
670.633243715
666.79675456
663.241033464
659.961547259
656.951461814
654.201791915
651.701641075
649.438522891
647.398706061
645.567550835
643.929814298
642.469979995
641.172571354
640.022463963
639.005116432
638.106768776
637.314544351
636.616541677
636.001849197
635.460576199
634.98381101
634.56360099
634.192864281
633.865340808
633.575492327
633.318451688
633.089930341
632.88618506
632.703978726
632.540460776
632.396937312
632.277740834
632.183289556
632.109986503
632.055676499
632.01805241
631.992441199
631.975137322
631.965055526
631.96023376
631.958286153
979.564321618
979.197638585
978.455863661
977.333119525
975.833657694
973.961970639
971.723618432
969.125165198
966.174123617
962.878897504
959.248709227
955.293535209
951.024027515
946.451449161
941.587596595
936.444741026
931.035557541
925.373077691
919.470629776
913.34180641
907.000418732
900.460480631
893.736177457
886.84186629
879.792057497
872.601428417
865.284814389
857.857231752
850.333873912
842.730138688
835.061624621
827.344156508
819.593776293
811.826762019
804.059606664
796.309023715
788.59190887
780.925326723
773.326451146
765.812529727
758.4008015
751.108438995
743.95244539
736.949576921
730.116223553
723.468314925
717.021187026
710.789470681
704.786940513
699.026377483
693.519389481
688.276235836
683.305612248
678.614439892
674.207635908
670.087912317
666.255602787
662.708557973
659.442113082
656.449141387
653.720210803
651.243846934
649.006926138
646.995087074
645.193075868
643.585034929
642.154838179
640.886454267
639.764291704
638.773459952
637.899953593
637.13074937
636.453864014
635.858369298
635.334401664
634.873131918
634.466717663
634.108216464
633.791507606
633.511202129
633.262571847
633.04147039
632.844281821
632.667891939
632.50931606
632.370284452
632.257463699
632.168137474
632.097212675
632.044992674
632.009698781
631.985213813
631.969182322
631.96001036
631.955171756
631.952775672
980.685291572
980.314940125
979.566643123
978.43411599
976.921696094
975.033978786
972.776663465
970.156475247
967.181106836
963.859152869
960.200036677
956.213937243
951.911710975
947.30481791
942.405245478
937.225440554
931.778241434
926.076821401
920.13463387
913.965371583
907.582927967
901.0013738
894.234935337
887.297987706
880.205047866
872.97078171
865.61000805
858.137714997
850.569070167
842.919441192
835.204407388
827.439777882
819.641598403
811.826162748
804.010007583
796.20990949
788.44286188
780.726051456
773.076812118
765.512577062
758.050807956
750.708923015
743.504204247
736.453706141
729.57414709
722.88180465
716.392395673
710.120958821
704.081718825
698.287944643
692.75177964
687.484052392
682.494051
677.789274841
673.375164731
669.254843823
665.428894297
661.895209463
658.648935102
655.682494403
652.985743083
650.546252995
648.349867104
646.38124822
644.624223455
643.061984412
641.677436801
640.453660295
639.3743342
638.424037
637.588413067
636.854235655
636.209418764
635.643013486
635.145209585
634.707310857
634.321664625
633.98154937
633.681069046
633.415059125
633.179004043
632.968953041
632.781452383
632.613488699
632.461990921
632.331197971
632.226688282
632.143187563
632.078161135
632.030101258
631.996364927
631.973676787
631.959163637
631.950508449
631.94567221
631.943298448
982.192523275
981.817458684
981.060340209
979.914553557
978.384573545
976.475147248
974.192165012
971.542572927
968.534309151
965.176230856
961.47803588
957.450182271
953.103805345
948.450636553
943.502923306
938.273354271
932.774988733
927.02119461
921.025592933
914.802013228
908.364456584
901.727070495
894.904131096
887.910036482
880.759305713
873.466587015
866.046669103
858.514499274
850.885201799
843.174100482
835.396739448
827.568903254
819.70663327
811.82624148
803.944314584
796.077712467
788.243553126
780.459188401
772.742163281
765.110164154
757.580950179
750.172274693
742.901792646
735.786962259
728.844938007
722.092462777
715.545755057
709.220395553
703.131204547
697.292107751
691.715975968
686.414430488
681.39759955
676.673825028
672.249326046
668.127853193
664.31038296
660.794908353
657.576353784
654.646533974
651.994292243
649.605734243
647.465155741
645.555894332
643.86061334
642.361200805
641.039154065
639.876254391
638.85515639
637.959736203
637.175217711
636.488152619
635.886353508
635.358854702
634.895924812
634.489070176
634.130932369
633.815115996
633.536043666
633.288859398
633.069341977
632.873802798
632.698997437
632.541913645
632.400349483
632.280844766
632.186364608
632.110811345
632.051271942
632.007651588
631.97754701
631.957150786
631.943742031
631.935653867
631.931009735
631.928704601
984.09065718
983.709681493
982.941373695
981.778740367
980.226446191
978.289442386
975.973869084
973.286959541
970.236969622
966.833096506
963.085392785
959.004677556
954.602446074
949.890780458
944.88226284
939.589893449
934.027014772
928.207244111
922.144415175
915.852530545
909.345724808
902.6382394
895.744407878
888.678651822
881.455485169
874.08952668
866.595517919
858.988346459
851.283071681
843.494953013
835.639479053
827.732393604
819.789721093
811.827787073
803.863231006
795.913010627
787.994393844
780.124937635
772.322450628
764.604940074
756.990541694
749.49743536
742.143747609
734.947446348
727.926230566
721.097420869
714.477852262
708.083770908
701.930729359
696.033472204
690.405794739
685.060354728
680.008412451
675.259482667
670.820900004
666.697339091
662.890375009
659.398195475
656.215523116
653.333427671
650.739432157
648.417357481
646.34918819
644.516632334
642.901163048
641.482982588
640.2415598
639.156822106
638.210050893
637.38428469
636.66432894
636.036569117
635.48875376
635.0098975
634.590357731
634.221936351
633.8977283
633.611806619
633.359014783
633.134895573
632.935622086
632.757863217
632.598697421
632.455287609
632.327047666
632.221014042
632.136061341
632.068077709
632.015986215
631.97918514
631.952443271
631.93428543
631.92253585
631.914526183
631.909986605
631.907702267
986.385506404
985.99732519
985.21534886
984.032124502
982.452558026
980.48186049
978.126486816
975.394030858
972.293146238
968.833455457
965.025454159
960.880412216
956.410273574
951.627557322
946.545261788
941.176774158
935.535787271
929.636225925
923.492183941
917.117873721
910.527588632
903.735678862
896.756539795
889.604612355
882.29439328
874.840454082
867.257466361
859.560232327
851.763718553
843.883092096
835.933758677
827.931397101
819.89199493
811.831878706
803.767736934
795.716633497
787.696007841
779.723659464
771.817713865
763.99656887
756.278820857
748.683172848
741.228327751
733.932872531
726.815159949
719.893195436
713.184534859
706.706196287
700.474582213
694.505401149
688.813565575
683.41303255
678.31654165
673.535207841
669.07794622
664.950777027
661.156156565
657.692582707
654.55471342
651.732807388
649.212933694
646.975081389
644.997572616
643.260404269
641.744507364
640.42791972
639.287043458
638.299108725
637.443617387
636.702726335
636.060980929
635.504791331
635.021934126
634.601357627
634.233440306
633.91041025
633.626095047
633.375239433
633.153200408
632.955994912
632.780313529
632.623279351
632.482386094
632.355058021
632.242361683
632.150253291
632.076165217
632.018006311
631.974541783
631.942970517
631.919724552
631.903809227
631.89384497
631.8865357
631.88233304
631.880253158
989.084157832
988.687388406
987.889126115
986.681365528
985.069309362
983.058489306
980.655747749
977.869121187
974.707750612
971.181778849
967.302242907
963.08096285
958.530429736
953.663694846
948.494262684
943.035990019
937.302993472
931.309567859
925.070117514
918.599102106
911.910998149
905.02027628
897.941393808
890.688800943
883.276958757
875.720366411
868.033595445
860.231329095
852.328405273
844.339861894
836.280985502
828.167355843
820.014893932
811.839904706
803.659112955
795.489689001
787.349259839
779.255901773
771.228110903
763.284749099
755.444964679
747.728089602
740.153517765
732.740572204
725.508371603
718.475708051
711.660947318
705.08195941
698.756079582
692.700088568
686.930183823
681.461890695
676.309839255
671.487309237
667.005467163
662.872306578
659.091538771
655.662003095
652.578687182
649.831099682
647.404686183
645.272150465
643.405341393
641.783201262
640.388774659
639.19701735
638.179195865
637.308474414
636.562137902
635.921661799
635.371797564
634.899426878
634.492539669
634.139819323
633.831359032
633.560000013
633.320882768
633.10973519
632.922436398
632.755488336
632.606291366
632.472517266
632.352173555
632.243158142
632.147941043
632.070516339
632.008677275
631.960677235
631.924973893
631.898204917
631.879555843
631.866051471
631.857273545
631.851813135
631.84805442
631.846329147
992.195050785
991.788213287
990.970878973
989.734389677
988.084306566
986.026550744
983.568434084
980.718528598
977.486563718
973.883309571
969.920454841
965.610481221
960.966536906
956.002311828
950.731916966
945.169770633
939.330494347
933.228821373
926.879520426
920.297336995
913.496953496
906.492968857
899.299896397
891.932178207
884.404212841
876.730393294
868.925151951
861.003010421
852.978632615
844.866880514
836.682874264
828.442048689
820.160216065
811.853624397
803.539009839
795.233638768
786.955333747
778.722477843
770.553991924
762.469280897
754.488147
746.630671421
738.91706999
731.367533196
724.002065916
716.840345352
709.901616782
703.204643464
696.767718628
690.608733865
684.745273582
679.194672792
673.973917413
669.099212212
664.584985253
660.442220065
656.676363487
653.286108702
650.267784584
647.610110184
645.302746303
643.302334387
641.567569988
640.079321486
638.83113954
637.792074807
636.923674073
636.192801399
635.5742687
635.049648367
634.604943142
634.228438193
633.908691204
633.633545953
633.391815154
633.177225675
632.987650205
632.820265194
632.671181252
632.537168223
632.416784368
632.30828576
632.210221333
632.121143163
632.044563256
631.982480534
631.933378155
631.895712259
631.867510457
631.846650165
631.831682181
631.821478078
631.814407599
631.81074914
631.807555934
631.806288537
995.728067714
995.309567092
994.470172347
993.200461832
991.506426646
989.394455933
986.872425206
983.949547943
980.636257125
976.944071417
972.885455991
968.473679825
963.722672412
958.64688224
953.26113992
947.580528709
941.620266027
935.39559934
928.921720264
922.213699783
915.286446943
908.154691368
900.832988707
893.335745761
885.677261313
877.871777598
869.933538427
861.876850753
853.716148765
845.466060313
837.141479367
828.7576357
820.330175151
811.875237062
803.409527961
794.950385321
786.515823959
778.124557145
769.795984611
761.550140786
753.407599116
745.389332495
737.51653584
729.810424036
722.292026683
714.982007489
707.900540075
701.067270282
694.501387219
688.221810619
682.247477772
676.597663172
671.292181644
666.351166888
661.793918578
657.636257841
653.886087295
650.539428328
647.596758189
645.043784858
642.894006387
641.063566292
639.480648486
638.138180632
637.065590539
636.215430287
635.528846157
634.963119945
634.491225942
634.096907152
633.769467106
633.500435173
633.279728804
633.092918599
632.924556637
632.769539202
632.632393426
632.512389216
632.404616573
632.305222211
632.215334289
632.133564125
632.058840473
631.990928422
631.933090553
631.886351573
631.850371236
631.823532683
631.803601683
631.788889812
631.777591651
631.770009685
631.765726177
631.763536212
631.76141043
631.760544638
999.694640539
999.262744834
998.398057477
997.090272804
995.345894123
993.171870495
990.576749845
987.570509289
984.164417159
980.370879003
976.203278209
971.675813642
966.803336763
961.601190867
956.0850548
950.270794623
944.174326942
937.811498848
931.197989144
924.349235664
917.280391682
910.006312806
902.541572577
894.900502739
887.097251521
879.145853002
871.060300991
862.854623831
854.542959138
846.139630468
837.659231538
829.116710295
820.527469146
811.907466113
803.273315675
794.642381499
786.032850976
777.463780804
768.955102093
760.527574438
752.202680948
744.00246119
735.949287262
728.065598601
720.373624361
712.895133477
705.651261697
698.662465383
691.948645785
685.529478219
679.424961485
673.656166816
668.246045172
663.219901353
658.604528049
654.424476916
650.691929024
647.390607357
644.533543817
642.087030725
640.1642951
638.567592769
637.146182643
635.938717161
635.085554626
634.478770712
634.015572504
633.642096192
633.333486992
633.080445687
632.878924679
632.726948495
632.618012288
632.53247282
632.442898506
632.344536159
632.260407099
632.191937259
632.129027472
632.064052327
632.005726798
631.951706972
631.900928342
631.854754758
631.815302617
631.78451073
631.761672477
631.744935915
631.732695924
631.724018927
631.71780424
631.713477098
631.711255443
631.710727791
631.710172115
631.709726582
1004.10787788
1003.66068968
1002.76718689
1001.41604352
999.614372905
997.369791633
994.691647397
991.590822549
988.079572728
984.171348602
979.880613332
975.22265765
970.213415129
964.869279246
959.206924697
953.243135954
946.99464807
940.478005573
933.709446699
926.704819435
919.479534861
912.048559684
904.426446436
896.627394751
888.665334283
880.554017699
872.307114339
863.938298778
855.461334827
846.890159592
838.238977275
829.522357707
820.755359369
811.953659305
803.133689117
794.312766101
785.509206805
776.74240818
768.0328801
759.402212844
750.872965198
742.468464412
734.212519553
726.129064898
718.241769948
710.573672808
703.146909432
695.982616138
689.1010755
682.522174286
676.266256352
670.355463336
664.815596617
659.678276593
654.981923436
650.769177952
647.063295297
643.802937831
641.048158568
638.655127327
637.113418092
635.870128324
634.518969341
633.220801095
632.644019495
632.398999784
632.242057151
632.108432889
631.991334073
631.896769962
631.836670509
631.827215942
631.872833669
631.941164174
631.960120945
631.90798582
631.875781352
631.866211613
631.85386291
631.817456864
631.791573169
631.766355677
631.738819141
631.714352015
631.692991431
631.678083649
631.667431334
631.660294751
631.655752543
631.653471112
631.652419753
631.652459444
631.652729923
631.653650327
631.654967465
631.655216062
1008.9827168
1008.51814093
1007.59195114
1006.19164945
1004.32507441
1002.00063847
999.228638857
996.021028723
992.391226638
988.353909931
983.924805438
979.120479896
973.958131126
968.455380839
962.63006991
956.500059391
950.083042463
943.396375796
936.456939977
929.281039627
921.884351365
914.28192419
906.488230042
898.517255802
890.382621227
882.097705124
873.675763682
865.130033029
856.473817677
847.72057621
838.884018661
829.978218383
821.017760423
812.017906721
802.994777176
793.965531971
784.948538661
775.963504983
767.031554729
758.175222313
749.418341851
740.785811712
732.303227703
723.99639839
715.890787035
708.010957366
700.380129733
693.019961307
685.950642228
679.191403253
672.761595055
666.682633913
660.981304658
655.695178261
650.879490577
646.617988886
642.976825828
639.725657587
637.070790028
634.049454075
633.397493501
633.011640484
632.451688649
632.20709572
632.154695276
632.146327602
632.1188266
632.066502493
632.002974826
631.944809295
631.906543483
631.894424721
631.885213241
631.805226381
631.587749031
631.412608539
631.420151644
631.509160956
631.588506605
631.564908083
631.576319489
631.582673303
631.574449961
631.572126384
631.566941732
631.566649867
631.567618162
631.570621591
631.574771369
631.579291218
631.583530075
631.58766211
631.591342366
631.594073997
631.597306543
631.598311354
1014.33610459
1013.85180611
1012.88864204
1011.43276703
1009.49288464
1007.07835663
1004.20060819
1000.87285765
997.109890457
992.927818514
988.343841279
983.376009685
978.042992673
972.363844065
966.35776898
960.043891432
953.441029733
946.56749028
939.440894592
932.078055138
924.494914323
916.706554478
908.727277986
900.570744215
892.250139933
883.778353154
875.168124261
866.432160472
857.583219405
848.634183284
839.598149911
830.488553195
821.319339653
812.105177477
802.861695745
793.605733959
784.35558217
775.131187547
765.954297703
756.848505531
747.839156985
738.953085695
730.21815037
721.6625779
713.314159948
705.199409357
697.34283249
689.766491197
682.489943057
675.530628704
668.904872757
662.629989318
656.728639207
651.239216488
646.232750037
641.884688144
638.406488778
634.72241977
632.887533503
632.767980254
632.846201094
632.822438202
632.697410387
632.578697762
632.501730834
632.441795324
632.376936276
632.300852146
632.217846491
632.135167383
632.059598349
631.993587229
631.922392737
631.820872163
631.698705123
631.617049887
631.613519064
631.618820467
631.476322199
631.260517516
631.337612312
631.406065397
631.406859689
631.431659673
631.435990573
631.451611419
631.46349115
631.477675243
631.491129316
631.502658897
631.512529509
631.52105468
631.528074028
631.533408521
631.538214007
631.540117098
1020.1872159
1019.68057133
1018.67564572
1017.15704682
1015.13451181
1012.61853855
1009.62189404
1006.15929209
1002.24712215
997.903168528
993.146338733
987.996401471
982.473729756
976.599042807
970.393141055
963.87663428
957.069669377
949.991672805
942.661128571
935.095416836
927.310736016
919.322124363
911.143582005
902.788276038
894.268791042
885.597375809
876.786139411
867.847173085
858.792609232
849.63466044
840.385684349
831.058305547
821.665622964
812.221475334
802.740755072
793.239745527
783.736458251
774.250943139
764.805533914
755.424980733
746.136410944
736.969055028
727.953682427
719.121722144
710.504110052
702.130005432
694.025620324
686.213463462
678.712034037
671.535866514
664.695889754
658.200303583
652.057248735
646.28069927
640.868533774
635.868364301
633.387553562
633.214366354
633.149994999
633.162765311
633.219994456
633.211358699
633.144273782
633.04836833
632.946003986
632.848146714
632.752842697
632.656131426
632.558360329
632.460886054
632.366382056
632.274995365
632.175029454
632.05013197
631.907488209
631.783406873
631.699196976
631.621851508
631.528732001
631.487678418
631.469470945
631.309873626
631.200663868
631.296725284
631.295900435
631.33590402
631.356463104
631.383207986
631.406360544
631.424672868
631.440340648
631.453614009
631.464537264
631.472788542
631.478770975
631.481851145
1026.55771361
1026.02574665
1024.97367262
1023.38431629
1021.26865782
1018.6385599
1015.50839145
1011.89463656
1007.81556552
1003.29090535
998.341533933
992.989195307
987.256225657
981.165274474
974.739008363
967.999792341
960.969355865
953.668462894
946.116617431
938.331842387
930.3305708
922.127678081
913.736664159
905.169962187
896.439316407
887.556144419
878.531800388
869.377693155
860.105283648
850.726043635
841.251461239
831.69315146
822.063101549
812.374011099
802.639703261
792.875573117
783.099050813
773.330052473
763.591376356
753.908980647
744.312057929
734.832803745
725.505768899
716.366711463
707.450951226
698.791416176
690.416770322
682.350289958
674.609363629
667.205191324
660.142204418
653.417218762
647.013527161
640.856268385
634.451351612
633.938277541
633.791970217
633.755762682
633.756372297
633.749181239
633.744592312
633.718866083
633.656340998
633.56353935
633.454858145
633.342120906
633.22828337
633.114679617
633.000268563
632.883448169
632.765819274
632.646065244
632.516370974
632.367741429
632.205556789
632.05244495
631.921753964
631.798413672
631.672187561
631.569281708
631.48061778
631.414970311
631.385732608
631.278509018
631.108186777
631.222199451
631.243318595
631.288389769
631.322451734
631.347120751
631.368405725
631.386638743
631.401768693
631.413162091
631.420810653
631.425056313
1033.47206233
1032.91136654
1031.8060299
1030.13681881
1027.91621544
1025.15773274
1021.87766149
1018.09458836
1013.82898861
1009.10283704
1003.93926776
998.362276855
992.396444666
986.066648373
979.39773823
972.414165267
965.139565743
957.596328956
949.805192964
941.78492739
933.552166235
925.121444706
916.505464367
907.715562111
898.762294277
889.655992315
880.40713313
871.026432034
861.524705317
851.912666932
842.200816994
832.399525101
822.51933004
812.571387101
802.56800625
792.523236652
782.453484233
772.378147244
762.32022659
752.306833029
742.369475819
732.543977355
722.869815549
713.388687335
704.142179738
695.168760293
686.50068613
678.16257323
670.171095249
662.53488632
655.25467518
648.319634568
641.668116324
634.834171874
634.005093813
634.276386374
634.417511603
634.445333047
634.410785318
634.380298723
634.353894202
634.315013758
634.249058152
634.156294242
634.044797273
633.922499988
633.793555333
633.662140013
633.527164992
633.386487946
633.241019351
633.089420516
632.927487618
632.75185207
632.567404093
632.387320094
632.219678953
632.059149635
631.901337864
631.756176793
631.623739115
631.506577705
631.408326736
631.327273102
631.287980326
631.216492082
631.101412998
631.195382063
631.244775808
631.272140168
631.29799886
631.321559949
631.341121888
631.356195947
631.36605343
631.371417868
1040.95790812
1040.36454371
1039.19894729
1037.43949347
1035.10049504
1032.19747393
1028.74904476
1024.7763047
1020.30231649
1015.35164239
1009.94997388
1004.12384185
997.900363554
991.306970147
984.371067449
977.119603413
969.578545511
961.772301868
953.723150628
945.450765647
936.9719413
928.30061239
919.448229917
910.424476236
901.238191974
891.898267671
882.414202333
872.796127313
863.054390875
853.199039945
843.239497074
833.184600701
823.043002896
812.823784201
802.53716036
792.195220398
781.812718972
771.407940712
761.003603904
750.627712544
740.314214247
730.103252294
720.040683602
710.176431702
700.561241034
691.241958359
682.255925202
673.629548034
665.379042812
657.512099636
650.025992843
642.869699042
635.594045638
634.700754792
634.877634842
635.112777413
635.163829408
635.17095581
635.137562573
635.099417441
635.057891983
635.003434369
634.927405662
634.828539108
634.710100265
634.576427217
634.432080233
634.281131348
634.122529503
633.955196666
633.779923536
633.596092375
633.402007205
633.197260003
632.986001377
632.776040674
632.572610451
632.375299054
632.184127733
632.003938501
631.835969842
631.680213697
631.539772602
631.416925941
631.323087713
631.260603131
631.213378963
631.142999371
631.183544492
631.199335143
631.228878087
631.259032397
631.28421528
631.303396728
631.315929016
631.322480904
1049.04653956
1048.41590615
1047.18196596
1045.32030615
1042.84748324
1039.78148674
1036.14377024
1031.95845552
1027.25164911
1022.05087228
1016.384671
1010.28237475
1003.7739194
996.889635237
989.659916282
982.114724548
974.282925925
966.19150213
957.864726868
949.323436401
940.584555123
931.661046011
922.562418404
913.295818172
903.867530618
894.284480639
884.555149365
874.689443816
864.697710671
854.589619497
844.373472896
834.056206623
823.643991252
813.143137022
802.561025049
791.906989918
781.193276874
770.436170179
759.657280893
748.884889316
738.155191215
727.513209793
717.012896849
706.715617075
696.68582711
686.983644638
677.653156416
668.722176071
660.206675848
652.111227339
644.390459164
636.587978228
635.685744761
635.892848472
636.046034914
636.081022798
636.053958955
636.019000277
635.96798172
635.913220659
635.852510544
635.779382206
635.687995535
635.576135667
635.444112146
635.294135625
635.13152528
634.958317881
634.773331794
634.577640399
634.372011452
634.15654198
633.930972341
633.696114258
633.455279186
633.213501175
632.974706119
632.740637136
632.513294698
632.296112337
632.091148707
631.899944067
631.724916605
631.567547364
631.43332203
631.325900877
631.242520181
631.213799929
631.171496133
631.110330651
631.156554236
631.199373809
631.232359486
631.256410805
631.27196557
631.279677769
1057.77345163
1057.10012188
1055.78840738
1053.81064038
1051.18614
1047.93594993
1044.08504488
1039.66124207
1034.694248
1029.21493665
1023.25496509
1016.84665736
1010.02299709
1002.81755436
995.264209408
987.396594974
979.247247725
970.846522701
962.22138919
953.394289346
944.382304285
935.196914846
925.844631986
916.328637841
906.651263924
896.8166279
886.832292075
876.708806244
866.457534408
856.088405335
845.608613542
835.022642784
824.33332299
813.543277023
802.656151411
791.677552989
780.616090991
769.484779769
758.302810436
747.097542398
735.906600177
724.779936144
713.781307255
702.987895007
692.48522734
682.356239506
672.652950152
663.402762552
654.616500514
646.251303149
637.835508748
636.918725144
637.209362816
637.353595459
637.275402413
637.168756253
637.06936686
636.982533746
636.898690703
636.817672576
636.732610266
636.636498384
636.523725122
636.391156738
636.237672089
636.064781634
635.878105391
635.678609588
635.465303653
635.240206204
635.004351553
634.758291378
634.502395839
634.237759636
633.966894692
633.693303774
633.420231136
633.150238752
632.886076331
632.630938439
632.387570373
632.158646811
631.947025476
631.755357544
631.587244793
631.444251936
631.326726381
631.246337948
631.186261863
631.133439012
631.079582477
631.144328081
631.187523226
631.217214108
631.235571565
631.244366635
1067.17903357
1066.45656292
1065.05593597
1062.94576702
1060.14874249
1056.68970735
1052.59809701
1047.9063463
1042.6484616
1036.85906468
1030.573069
1023.8258348
1016.65349471
1009.09315253
1001.18273626
992.960389627
984.463383966
975.726618075
966.780852345
957.650916133
948.354237635
938.900163739
929.290603212
919.522422274
909.591560873
899.497851031
889.24832812
878.856094914
868.335596615
857.698242807
846.950141551
836.092379453
825.123098622
814.040020866
802.842061305
791.530012488
780.107440031
768.582339443
756.969513817
745.293341671
733.590928974
721.915933375
710.342775615
698.969832269
687.915558083
677.307292531
667.204079056
657.62147645
648.513304786
639.387788482
638.419125092
638.793507691
638.96091664
638.801302578
638.557532278
638.347724332
638.177560794
638.038757533
637.917421042
637.804494627
637.689552289
637.564253562
637.422422072
637.26024474
637.0762747
636.872605582
636.655060471
636.424168635
636.179620358
635.923917258
635.658266458
635.383271742
635.099287874
634.807087961
634.508314754
634.205350386
633.900808925
633.59734484
633.297909535
633.005765435
632.724180218
632.456538987
632.206363088
631.977210637
631.772630949
631.594735939
631.444491779
631.324255694
631.227872944
631.150426181
631.114647522
631.101133305
631.153482433
631.188502591
631.208452768
631.217907061
1077.30939963
1076.53015003
1075.02722835
1072.76541474
1069.77130116
1066.07444797
1061.71012702
1056.71674654
1051.13353625
1044.9992146
1038.35185366
1031.22958297
1023.67153152
1015.71851008
1007.41311039
998.799064698
989.919852507
980.816636615
971.525694877
962.075626448
952.484790826
942.75968662
932.895244684
922.878094413
912.693358687
902.333724855
891.806700633
881.132049528
870.331340203
859.419629226
848.401782397
837.273646903
826.0263748
814.651183689
803.14140092
791.492008469
779.6998685
767.765625082
755.696927691
743.511991163
731.243658826
718.945415622
706.700168321
694.632121885
682.909974694
671.762369915
661.237458593
651.266229897
641.322661512
640.222426547
640.641166803
640.827948936
640.603382884
640.232294973
639.876330299
639.586422001
639.356680097
639.170827306
639.010183883
638.860399155
638.709027788
638.546747369
638.36684067
638.165132067
637.940743024
637.698062371
637.441681877
637.172325374
636.892461288
636.604519496
636.309623864
636.007981103
635.699364548
635.383716443
635.061579593
634.734185132
634.403308919
634.071194319
633.740601145
633.414760582
633.097239028
632.791925153