/*--------------------------------*- C++ -*----------------------------------*\
| =========                 |                                                 |
| \\      /  F ield         | OpenFOAM: The Open Source CFD Toolbox           |
|  \\    /   O peration     | Version:  v1906                                 |
|   \\  /    A nd           | Web:      www.OpenFOAM.com                      |
|    \\/     M anipulation  |                                                 |
\*---------------------------------------------------------------------------*/
FoamFile
{
    version     2.0;
    format      ascii;
    class       volVectorField;
    location    "179";
    object      U;
}
// * * * * * * * * * * * * * * * * * * * * * * * * * * * * * * * * * * * * * //

dimensions      [0 1 -1 0 0 0 0];


internalField   nonuniform List<vector> 
9216
(
(0.00271936409554 -0.00272256762588 0)
(0.00286723539455 -0.00878608915231 1.18311662012e-27)
(0.00285924120056 -0.0149443783709 1.84822815406e-31)
(0.00282213018808 -0.0211035988591 0)
(0.0027705867901 -0.0271604148509 0)
(0.00270608692996 -0.0330906839476 0)
(0.00263030365774 -0.0388686869073 0)
(0.00254459745457 -0.0444715569159 0)
(0.00245025200566 -0.0498792236017 0)
(0.00234855663452 -0.055074393766 0)
(0.0022407574919 -0.0600425191607 0)
(0.00212807595452 -0.0647717334577 0)
(0.00201165058802 -0.0692527240976 0)
(0.00189255304737 -0.0734785853471 0)
(0.00177174914051 -0.0774446067033 0)
(0.00165011279679 -0.0811480857 0)
(0.0015284133719 -0.0845880781954 0)
(0.00140731902352 -0.087765216711 0)
(0.00128741400289 -0.090681459547 0)
(0.00116917999086 -0.093339945705 0)
(0.00105304756696 -0.0957447631582 0)
(0.000939343882547 -0.0979008547949 0)
(0.000828383971477 -0.0998138119577 0)
(0.00072037357034 -0.101489833994 0)
(0.000615547984489 -0.102935542899 0)
(0.000514019414759 -0.104157990839 0)
(0.000415972000397 -0.105164487795 0)
(0.000321443859525 -0.105962648789 0)
(0.000230589220186 -0.106560224926 0)
(0.000143385123552 -0.106965184005 0)
(5.99735625886e-05 -0.107185532492 0)
(-1.97240695821e-05 -0.107229439303 0)
(-9.55975226435e-05 -0.107105055731 0)
(-0.000167792907019 -0.106820502978 0)
(-0.000236173550877 -0.106383866637 0)
(-0.000300928327982 -0.105803258141 0)
(-0.000361925423633 -0.105086614224 0)
(-0.000419411482337 -0.104241862679 0)
(-0.000473246636091 -0.103276693581 0)
(-0.000523732234747 -0.102198747369 0)
(-0.000570713502573 -0.101015375766 0)
(-0.000614544234351 -0.0997338465036 0)
(-0.000655049043725 -0.0983610974685 0)
(-0.000692631317005 -0.0969039577704 0)
(-0.000727088624182 -0.0953688983943 0)
(-0.000758869767281 -0.0937622626334 0)
(-0.000787740161161 -0.0920900204369 0)
(-0.000814189809131 -0.0903580053573 0)
(-0.000837946925425 -0.0885716753545 0)
(-0.000859536815729 -0.0867363489327 0)
(-0.000878647979284 -0.0848569796258 0)
(-0.000895835810965 -0.0829383861191 0)
(-0.000910747292746 -0.0809850441639 0)
(-0.000923961702273 -0.0790013008679 0)
(-0.00093508587506 -0.0769911918431 0)
(-0.000944717795691 -0.0749586337849 0)
(-0.000952426852119 -0.0729072696522 0)
(-0.000958823840004 -0.0708406294834 0)
(-0.000963446645256 -0.068762011199 0)
(-0.000966914581686 -0.0666746042642 0)
(-0.000968741219602 -0.0645814066921 0)
(-0.000969549260775 -0.0624853046995 0)
(-0.000968837634489 -0.0603890311931 0)
(-0.000967228815466 -0.0582951985811 0)
(-0.000964217076841 -0.0562062983482 0)
(-0.000960420198483 -0.0541246828688 0)
(-0.000955338740828 -0.0520526091822 0)
(-0.000949582220233 -0.0499921716771 0)
(-0.000942667711096 -0.0479453873999 0)
(-0.000935191747715 -0.0459140789061 0)
(-0.000926697696441 -0.0439000024874 0)
(-0.000917764630676 -0.0419046874429 0)
(-0.000907969613621 -0.0399296017658 0)
(-0.000897868989556 -0.0379759517219 0)
(-0.000887079907257 -0.0360448835295 0)
(-0.000876130500361 -0.0341372511947 0)
(-0.000864681489332 -0.0322538485078 0)
(-0.000853226697908 -0.0303951507692 0)
(-0.000841472253969 -0.0285615743281 0)
(-0.00082987130375 -0.0267532005086 0)
(-0.00081817404678 -0.0249700576238 0)
(-0.000806784801214 -0.0232118339513 0)
(-0.000795493055148 -0.0214781816804 0)
(-0.00078464144083 -0.0197684295727 0)
(-0.000774042389121 -0.0180819131683 0)
(-0.000763944248125 -0.0164177112087 0)
(-0.000754121403004 -0.0147750359108 0)
(-0.000744599512896 -0.0131530884556 0)
(-0.000734832042088 -0.011551681918 0)
(-0.000723978638769 -0.00997167430695 0)
(-0.000709647591716 -0.00841690528599 0)
(-0.000685652854869 -0.00690128288814 0)
(-0.000630865166597 -0.00544507390261 0)
(-0.000557443915502 -0.003862939658 0)
(-0.000800286736776 -0.00291334143832 0)
(-0.00126250462768 -0.00126148195259 0)
(0.00880369103394 -0.00289819300691 0)
(0.00973484560463 -0.00980746219976 0)
(0.00971302391308 -0.0167043065775 -1.24240419565e-27)
(0.00958414059814 -0.0236071624544 0)
(0.00940572350408 -0.0303859167623 0)
(0.00918516208712 -0.0370189764649 0)
(0.00892683672446 -0.0434790492535 0)
(0.00863498343452 -0.0497410191939 0)
(0.00831388318474 -0.0557826068841 0)
(0.00796788009005 -0.061584593529 0)
(0.00760123421827 -0.067130852916 0)
(0.00721808876866 -0.0724082911208 0)
(0.00682233699837 -0.0774067073143 0)
(0.00641761083097 -0.0821186079909 0)
(0.00600720105668 -0.0865389736312 0)
(0.00559406641434 -0.0906650191974 0)
(0.00518081370671 -0.0944959298768 0)
(0.00476970799782 -0.0980326229711 0)
(0.00436271055823 -0.101277495095 0)
(0.0039614655112 -0.104234219689 0)
(0.00356739467975 -0.106907528452 0)
(0.0031816368521 -0.109303060902 0)
(0.00280520197313 -0.111427185074 0)
(0.00243884220201 -0.113286899031 0)
(0.00208327355745 -0.114889687011 0)
(0.00173896074205 -0.116243464318 0)
(0.00140641846868 -0.117356458584 0)
(0.00108589483528 -0.118237188451 0)
(0.00077776810781 -0.118894357284 0)
(0.000482114716463 -0.1193368554 0)
(0.000199220257548 -0.119573660072 0)
(-7.09875321478e-05 -0.119613839018 0)
(-0.000328316778165 -0.119466445855 0)
(-0.000572989217672 -0.119140677553 0)
(-0.000804844057456 -0.118645598576 0)
(-0.00102422599822 -0.117990251905 0)
(-0.00123102547521 -0.117183543098 0)
(-0.00142571759529 -0.116234294081 0)
(-0.00160822413529 -0.115151131723 0)
(-0.00177914180902 -0.113942549853 0)
(-0.00193840757528 -0.112616794668 0)
(-0.00208672907512 -0.111181937412 0)
(-0.00222404149444 -0.109645760619 0)
(-0.00235115036858 -0.108015839669 0)
(-0.00246797088 -0.106299431068 0)
(-0.00257539120814 -0.104503563658 0)
(-0.00267328920647 -0.102634930014 0)
(-0.00276261933111 -0.100699985546 0)
(-0.00284320552876 -0.0987048463401 0)
(-0.00291605172471 -0.0966553908409 0)
(-0.00298091571549 -0.0945571672868 0)
(-0.00303883472558 -0.0924154954549 0)
(-0.0030894913383 -0.0902353843611 0)
(-0.00313394177609 -0.0880216301186 0)
(-0.00317179021704 -0.0857787457451 0)
(-0.00320410017757 -0.0835110510913 0)
(-0.00323039973989 -0.0812226154449 0)
(-0.00325175040587 -0.07891733498 0)
(-0.00326761298721 -0.0765988897907 0)
(-0.00327904183123 -0.074270804292 0)
(-0.00328544418372 -0.0719364197615 0)
(-0.00328786397595 -0.0695989341407 0)
(-0.00328567387518 -0.0672613894114 0)
(-0.00327990726223 -0.0649266898098 0)
(-0.00326992329103 -0.0625976034588 0)
(-0.00325674492694 -0.0602767585734 0)
(-0.00323974065101 -0.0579666582755 0)
(-0.00321992376101 -0.0556696539109 0)
(-0.00319669344947 -0.0533879770004 0)
(-0.00317105217668 -0.051123686782 0)
(-0.00314244891104 -0.0488787204445 0)
(-0.00311187246299 -0.0466548189847 0)
(-0.00307883539093 -0.0444535925058 0)
(-0.00304430709434 -0.0422764293588 0)
(-0.00300787390895 -0.0401245756208 0)
(-0.00297047649243 -0.0379990311861 0)
(-0.00293177843894 -0.0359006429019 0)
(-0.00289268014378 -0.0338299909033 0)
(-0.00285292042785 -0.0317874943378 0)
(-0.00281334423996 -0.0297732933977 0)
(-0.00277375682634 -0.0277873661229 0)
(-0.00273492562525 -0.0258294081948 0)
(-0.00269670298342 -0.0238989653108 0)
(-0.00265974393052 -0.02199531385 0)
(-0.00262389921268 -0.020117609203 0)
(-0.00258962506501 -0.0182647798117 0)
(-0.00255661596928 -0.0164356966088 0)
(-0.0025248268941 -0.0146290981224 0)
(-0.00249317574413 -0.012843769502 0)
(-0.00245979894445 -0.0110784435056 0)
(-0.00241986361622 -0.00933177063526 0)
(-0.00236273965945 -0.00760205828744 0)
(-0.00226127307875 -0.00588322156412 0)
(-0.00209432140145 -0.00400824693446 0)
(-0.00243835577394 -0.00243159027935 0)
(-0.00290763959654 -0.000795423265462 0)
(0.0150709102711 -0.00294403955319 0)
(0.0166878887868 -0.00996817697767 0)
(0.0166281115903 -0.016955144589 -1.24035244787e-27)
(0.0163980534823 -0.023958560693 0)
(0.0160875612829 -0.0308342157093 0)
(0.01570643217 -0.0375590061426 0)
(0.0152611602983 -0.0441046008228 0)
(0.0147586920199 -0.0504453343434 0)
(0.0142063378964 -0.0565586044729 0)
(0.0136115633624 -0.0624250580245 0)
(0.0129817448063 -0.0680286001225 0)
(0.0123240164939 -0.0733563086329 0)
(0.011645098941 -0.0783982700004 0)
(0.010951219144 -0.0831473595832 0)
(0.0102480214865 -0.0875989844643 0)
(0.00954055376857 -0.0917508122266 0)
(0.0088332512571 -0.0956024911419 0)
(0.00812996400636 -0.0991553867485 0)
(0.00743399434926 -0.102412325716 0)
(0.00674813654126 -0.105377374171 0)
(0.00607474980644 -0.108055628311 0)
(0.00541578459714 -0.11045304571 0)
(0.00477287898425 -0.112576286664 0)
(0.00414735313831 -0.114432596541 0)
(0.00354032472717 -0.116029689737 0)
(0.00295265966284 -0.117375672698 0)
(0.00238510919323 -0.118478958778 0)
(0.00183820994359 -0.119348218439 0)
(0.00131245017351 -0.11999231279 0)
(0.000808114728976 -0.1204202627 0)
(0.000325488502897 -0.120641188405 0)
(-0.000135353466493 -0.120664294427 0)
(-0.000574287268541 -0.120498804084 0)
(-0.000991419166028 -0.120153957485 0)
(-0.00138678068321 -0.119638946313 0)
(-0.00176065582518 -0.118962908132 0)
(-0.00211320355334 -0.118134869865 0)
(-0.00244486694729 -0.117163742418 0)
(-0.00275591862369 -0.116058266399 0)
(-0.00304694544114 -0.114827013622 0)
(-0.00331831224457 -0.11347833409 0)
(-0.00357072803907 -0.112020364154 0)
(-0.00380462384797 -0.110460977308 0)
(-0.00402080539792 -0.108807799586 0)
(-0.00421974190928 -0.107068165279 0)
(-0.00440230801056 -0.105249138067 0)
(-0.00456898101747 -0.103357474111 0)
(-0.00472067571244 -0.101399650487 0)
(-0.0048578495956 -0.0993818315217 0)
(-0.00498143000974 -0.097309904084 0)
(-0.00509183011348 -0.0951894523299 0)
(-0.00518996557046 -0.0930257943852 0)
(-0.00527618566457 -0.090823962868 0)
(-0.00535137485462 -0.0885887456309 0)
(-0.00541580628614 -0.0863246708331 0)
(-0.00547032052497 -0.0840360464084 0)
(-0.00551511041051 -0.0817269509925 0)
(-0.00555096644177 -0.0794012690309 0)
(-0.00557800560706 -0.0770626868759 0)
(-0.00559697003627 -0.0747147218212 0)
(-0.00560791309971 -0.0723607209874 0)
(-0.00561153654126 -0.0700038817801 0)
(-0.00560784939919 -0.0676472539142 0)
(-0.00559752599177 -0.065293750016 0)
(-0.00558055395395 -0.0629461492593 0)
(-0.00555759544553 -0.0606070970288 0)
(-0.00552864183439 -0.0582791102938 0)
(-0.00549435846339 -0.0559645671181 0)
(-0.00545476331267 -0.053665714054 0)
(-0.00541053744163 -0.0513846448948 0)
(-0.00536174439162 -0.0491233106899 0)
(-0.00530908893072 -0.046883492595 0)
(-0.00525269300914 -0.0446668125526 0)
(-0.00519328664541 -0.0424746984861 0)
(-0.00513105556595 -0.0403084047811 0)
(-0.00506675026995 -0.0381689687618 0)
(-0.005000617457 -0.0360572362516 0)
(-0.00493341618438 -0.0339738193385 0)
(-0.0048654435217 -0.0319191257553 0)
(-0.00479744768454 -0.0298933161088 0)
(-0.00472975692339 -0.027896344156 0)
(-0.00466308038137 -0.0259279102385 0)
(-0.00459774422412 -0.0239875093869 0)
(-0.00453437248363 -0.0220743916187 0)
(-0.00447322668332 -0.0201876087425 0)
(-0.00441474967711 -0.018325974625 0)
(-0.00435898517765 -0.0164880988006 0)
(-0.0043059394484 -0.0146722998711 0)
(-0.00425499828708 -0.0128765060117 0)
(-0.00420497794102 -0.0110978232848 0)
(-0.00415336743449 -0.00933161644884 0)
(-0.00409585615187 -0.00756874347875 0)
(-0.00402521999928 -0.00578880698228 0)
(-0.00393785515073 -0.00391454548944 0)
(-0.00400930497247 -0.00207666045817 0)
(-0.00384854042594 -0.000551369565031 0)
(0.0214859384609 -0.00298923792224 0)
(0.0238094801419 -0.0101181035538 0)
(0.0237210856179 -0.0172002344555 1.23977459279e-27)
(0.0233878195776 -0.0242995358089 0)
(0.0229389019893 -0.0312657278802 0)
(0.0223888128133 -0.0380742136466 0)
(0.0217469925199 -0.0446954835831 0)
(0.0210235347583 -0.0511031685228 0)
(0.020229091101 -0.0572743148568 0)
(0.0193745174405 -0.0631895175578 0)
(0.0184705299788 -0.0688328819422 0)
(0.0175274451628 -0.0741918897401 0)
(0.0165549543731 -0.0792571855083 0)
(0.0155619875538 -0.0840223071799 0)
(0.0145566095427 -0.088483384833 0)
(0.0135459926036 -0.0926388277987 0)
(0.0125364100501 -0.0964890160398 0)
(0.0115332819527 -0.100036008084 0)
(0.0105412293111 -0.103283272725 0)
(0.00956415417014 -0.106235451894 0)
(0.00860532110618 -0.108898152513 0)
(0.00766743963123 -0.11127777231 0)
(0.00675274986191 -0.113381351466 0)
(0.00586308686412 -0.115216453297 0)
(0.00499995885253 -0.11679106482 0)
(0.00416458274569 -0.118113518025 0)
(0.00335795296451 -0.119192422055 0)
(0.00258084643101 -0.12003661223 0)
(0.00183388635382 -0.120655099153 0)
(0.00111751732166 -0.121057032387 0)
(0.000432070797769 -0.121251656629 0)
(-0.00022228227428 -0.121248288466 0)
(-0.000845455981239 -0.121056266046 0)
(-0.00143752207394 -0.12068491693 0)
(-0.00199862336266 -0.120143535534 0)
(-0.00252906171516 -0.119441347633 0)
(-0.00302918474527 -0.118587472598 0)
(-0.00349950164961 -0.117590900536 0)
(-0.00394054406632 -0.116460454151 0)
(-0.0043530044474 -0.115204771671 0)
(-0.00473756940504 -0.113832272351 0)
(-0.00509508273982 -0.112351143191 0)
(-0.00542635049288 -0.110769311924 0)
(-0.00573233017027 -0.109094436802 0)
(-0.00601390660953 -0.107333887594 0)
(-0.00627211018911 -0.105494745061 0)
(-0.00650786229378 -0.103583782221 0)
(-0.00672222436957 -0.101607474533 0)
(-0.00691611395993 -0.0995719878847 0)
(-0.00709058433865 -0.0974831923922 0)
(-0.00724651240275 -0.095346658343 0)
(-0.00738490958472 -0.093167674397 0)
(-0.00750658262053 -0.0909512487634 0)
(-0.00761247451745 -0.0887021314195 0)
(-0.00770330175859 -0.08642481775 0)
(-0.00777992296886 -0.084123574408 0)
(-0.00784295575388 -0.0818024452872 0)
(-0.00789316918848 -0.0794652746709 0)
(-0.00793108436602 -0.0771157164429 0)
(-0.00795738725653 -0.0747572537008 0)
(-0.00797251660361 -0.0723932071836 0)
(-0.00797709152352 -0.0700267503221 0)
(-0.00797149175159 -0.0676609159674 0)
(-0.00795629354702 -0.0652986050237 0)
(-0.00793184619713 -0.0629425906234 0)
(-0.00789871082513 -0.060595520421 0)
(-0.00785723845316 -0.0582599160844 0)
(-0.00780800239785 -0.0559381696798 0)
(-0.00775138316914 -0.0536325419477 0)
(-0.00768798990368 -0.0513451508029 0)
(-0.00761825604925 -0.0490779681788 0)
(-0.00754284218084 -0.0468328046688 0)
(-0.00746224906411 -0.0446113050481 0)
(-0.00737719618427 -0.0424149310616 0)
(-0.00728825530131 -0.0402449560953 0)
(-0.00719620116965 -0.0381024475987 0)
(-0.00710166974145 -0.0359882659361 0)
(-0.00700547684288 -0.0339030454007 0)
(-0.00690830553009 -0.0318471972886 0)
(-0.00681098852451 -0.0298208931386 0)
(-0.00671422750342 -0.0278240719342 0)
(-0.00661883829267 -0.0258564263196 0)
(-0.00652550003466 -0.023917412322 0)
(-0.00643496045845 -0.0220062399006 0)
(-0.00634781453459 -0.0201218752589 0)
(-0.00626466201481 -0.0182630268735 0)
(-0.00618590918722 -0.016428122058 0)
(-0.00611187268507 -0.0146152311002 0)
(-0.0060426244217 -0.0128219468635 0)
(-0.00597810909092 -0.01104505495 0)
(-0.00591833621978 -0.00928007709428 0)
(-0.00586431169746 -0.00752021423219 0)
(-0.00582087231904 -0.00575557674247 0)
(-0.00580411376539 -0.00396734904756 0)
(-0.00586616712412 -0.00222374235449 0)
(-0.00541381700422 -0.000619722780896 0)
(0.0280073962401 -0.0030485748721 0)
(0.0310393083991 -0.0103151841761 0)
(0.0309196873929 -0.0175293494269 0)
(0.0304778786763 -0.0247575172424 0)
(0.0298832546863 -0.0318445606989 0)
(0.0291554302513 -0.038764171093 0)
(0.0283072816367 -0.0454854068482 0)
(0.0273524870494 -0.0519809854305 0)
(0.0263054184078 -0.0582275115955 0)
(0.0251806517316 -0.064205559381 0)
(0.0239925107847 -0.0698995675897 0)
(0.0227547043015 -0.0752976345774 0)
(0.0214800405582 -0.0803912299947 0)
(0.020180242775 -0.0851748533518 0)
(0.0188658344118 -0.0896456677441 0)
(0.0175461078649 -0.093803131855 0)
(0.0162291385122 -0.0976486465486 0)
(0.014921853556 -0.101185230203 0)
(0.013630120234 -0.104417229144 0)
(0.0123588608687 -0.107350067535 0)
(0.0111121669227 -0.109990036424 0)
(0.00989341892902 -0.112344119852 0)
(0.00870539426211 -0.114419855427 0)
(0.00755036720433 -0.116225223648 0)
(0.00643019406277 -0.117768559742 0)
(0.00534638250009 -0.119058487078 0)
(0.00430015190097 -0.120103860983 0)
(0.00329247260888 -0.120913728049 0)
(0.00232410461926 -0.12149728447 0)
(0.00139561273539 -0.121863845885 0)
(0.000507392480843 -0.122022809688 0)
(-0.000340329431266 -0.121983639235 0)
(-0.00114747451987 -0.121755806719 0)
(-0.00191412363368 -0.121348771867 0)
(-0.0026404938553 -0.120771957467 0)
(-0.00332695554049 -0.120034710233 0)
(-0.00397399991996 -0.119146267177 0)
(-0.00458226293024 -0.118115726302 0)
(-0.00515248317583 -0.116952015014 0)
(-0.00568553004989 -0.115663861996 0)
(-0.00618235248495 -0.114259773089 0)
(-0.00664401143849 -0.112748004601 0)
(-0.00707161930631 -0.111136548189 0)
(-0.00746637882362 -0.109433110144 0)
(-0.00782951192154 -0.107645100254 0)
(-0.00816230833152 -0.105779622041 0)
(-0.008466045086 -0.103843464725 0)
(-0.00874204337277 -0.101843103809 0)
(-0.00899158073486 -0.0997846968644 0)
(-0.00921595808845 -0.0976740932545 0)
(-0.00941640485936 -0.0955168362402 0)
(-0.0095941572324 -0.0933181760021 0)
(-0.00975035679957 -0.091083079046 0)
(-0.00988614061171 -0.0888162442888 0)
(-0.010002535118 -0.0865221175807 0)
(-0.0101005569638 -0.0842049081236 0)
(-0.0101811050431 -0.0818686069982 0)
(-0.0102450707296 -0.0795170036019 0)
(-0.0102932274341 -0.0771537024003 0)
(-0.0103263507993 -0.0747821395977 0)
(-0.0103451072519 -0.0724055965764 0)
(-0.0103501802025 -0.0700272128787 0)
(-0.0103421588762 -0.0676499963471 0)
(-0.0103216679886 -0.065276830514 0)
(-0.0102892568302 -0.0629104807119 0)
(-0.010245532588 -0.0605535948775 0)
(-0.0101910463189 -0.0582087012933 0)
(-0.0101264230907 -0.0558782095838 0)
(-0.010052251954 -0.0535644024312 0)
(-0.00996921162188 -0.0512694273181 0)
(-0.00987795922894 -0.0489952883478 0)
(-0.00977924822993 -0.04674383355 0)
(-0.00967382195124 -0.0445167446648 0)
(-0.0095625210705 -0.0423155219373 0)
(-0.00944617878392 -0.0401414739444 0)
(-0.00932571801426 -0.0379957029566 0)
(-0.00920205224609 -0.0358790969543 0)
(-0.00907617071475 -0.0337923151687 0)
(-0.00894904407168 -0.0317357823182 0)
(-0.00882169707381 -0.0297096791663 0)
(-0.00869512247286 -0.0277139393275 0)
(-0.00857034070797 -0.025748242609 0)
(-0.00844832025662 -0.0238120158748 0)
(-0.00833002494305 -0.0219044241746 0)
(-0.00821634296235 -0.0200243707104 0)
(-0.00810812207618 -0.0181704805082 0)
(-0.00800611430552 -0.0163410812935 0)
(-0.00791101324977 -0.0145341526217 0)
(-0.00782346248722 -0.0127472468032 0)
(-0.00774421722006 -0.0109773911911 0)
(-0.00767442530261 -0.00922091224115 0)
(-0.0076164323825 -0.00747355141082 0)
(-0.00757512801333 -0.00573117961152 0)
(-0.00755839431238 -0.00399012766043 0)
(-0.00754918454819 -0.00229624648075 0)
(-0.00683350933914 -0.000665554489209 0)
(0.0346730802931 -0.00312375880307 0)
(0.0384242567261 -0.0105674800566 0)
(0.0382687948989 -0.0179530619694 0)
(0.0377104230867 -0.0253473170232 0)
(0.0369597203967 -0.0325894291949 0)
(0.0360419351503 -0.0396509955065 0)
(0.0349739410576 -0.0464993357036 0)
(0.03377356003 -0.0531060672003 0)
(0.0324593989529 -0.0594473087878 0)
(0.0310502033975 -0.0655037016458 0)
(0.0295642708814 -0.0712602179318 0)
(0.0280189828273 -0.0767058546786 0)
(0.026430455357 -0.0818332419476 0)
(0.0248133165501 -0.0866382017331 0)
(0.023180588569 -0.0911192951928 0)
(0.021543667284 -0.0952773800125 0)
(0.0199123695374 -0.0991152012008 0)
(0.0182950391909 -0.102637025493 0)
(0.01669868179 -0.105848326846 0)
(0.0151291230202 -0.108755522696 0)
(0.0135911670771 -0.111365762045 0)
(0.0120887548569 -0.113686756876 0)
(0.0106251052249 -0.115726653713 0)
(0.00920284347203 -0.117493938174 0)
(0.00782410640627 -0.118997362642 0)
(0.00649063133095 -0.120245896043 0)
(0.00520382345015 -0.121248686139 0)
(0.00396480737473 -0.122015027082 0)
(0.0027744632852 -0.122554335823 0)
(0.00163345163368 -0.122876126208 0)
(0.000542229493769 -0.122989979438 0)
(-0.000498939720533 -0.122905539672 0)
(-0.00148997749664 -0.122632440727 0)
(-0.00243099088219 -0.122180310158 0)
(-0.00332226343327 -0.12155873148 0)
(-0.00416425490662 -0.120777204826 0)
(-0.00495759036747 -0.11984511573 0)
(-0.00570305823901 -0.118771700466 0)
(-0.00640159396733 -0.117566017853 0)
(-0.00705427588443 -0.116236913838 0)
(-0.0076623037313 -0.114793001215 0)
(-0.00822699309515 -0.113242629268 0)
(-0.00874974891778 -0.111593867295 0)
(-0.009232060958 -0.109854484902 0)
(-0.00967547284923 -0.108031939565 0)
(-0.0100815790755 -0.106133364868 0)
(-0.0104519916786 -0.104165567227 0)
(-0.0107883403651 -0.102135022203 0)
(-0.0110922375982 -0.100047875594 0)
(-0.0113652823695 -0.0979099500944 0)
(-0.0116090254707 -0.0957267499513 0)
(-0.0118249789326 -0.0935034768269 0)
(-0.0120145817754 -0.0912450398306 0)
(-0.0121792160269 -0.0889560733649 0)
(-0.0123201739437 -0.0866409544487 0)
(-0.0124386808141 -0.0843038202671 0)
(-0.0125358655675 -0.0819485900468 0)
(-0.0126127907108 -0.0795789827487 0)
(-0.0126704255821 -0.0771985373045 0)
(-0.0127096824989 -0.0748106285013 0)
(-0.0127313946571 -0.072418486277 0)
(-0.012736354611 -0.0700252058889 0)
(-0.0127252964826 -0.0676337618515 0)
(-0.0126989412662 -0.0652470198965 0)
(-0.0126579724441 -0.0628677282662 0)
(-0.0126030874443 -0.0604985373241 0)
(-0.012534973394 -0.0581419874827 0)
(-0.0124543530456 -0.0558005115732 0)
(-0.0123619638537 -0.0534764211901 0)
(-0.0122586001999 -0.051171902847 0)
(-0.0121450874593 -0.0488890047365 0)
(-0.0120223193461 -0.0466296232755 0)
(-0.0118912320965 -0.0443954888073 0)
(-0.0117528347994 -0.0421881531006 0)
(-0.0116081802099 -0.0400089742726 0)
(-0.0114583873087 -0.0378590988769 0)
(-0.0113046107886 -0.0357394529429 0)
(-0.0111480595643 -0.0336507275162 0)
(-0.0109899644622 -0.0315933714723 0)
(-0.0108315875435 -0.0295675779631 0)
(-0.0106741905633 -0.0275732802235 0)
(-0.010519042777 -0.0256101483708 0)
(-0.0103673868343 -0.0236775817766 0)
(-0.01022044384 -0.0217747082947 0)
(-0.0100793856535 -0.0199003810503 0)
(-0.00994533922931 -0.0180531689262 0)
(-0.00981937325865 -0.0162313458956 0)
(-0.00970252671291 -0.0144328787601 0)
(-0.00959585094353 -0.0126553943297 0)
(-0.00950055506218 -0.0108962163618 0)
(-0.00941815344941 -0.00915237333684 0)
(-0.00935087257871 -0.00742094137826 0)
(-0.00930198151812 -0.00569980831653 0)
(-0.00927329803587 -0.0039874444224 0)
(-0.00922156618264 -0.00231782302776 0)
(-0.00829388187843 -0.000678901170715 0)
(0.0415199321666 -0.0032168940504 0)
(0.0460061844675 -0.0108807067005 0)
(0.045808437256 -0.0184796936553 1.23015457441e-27)
(0.0451226425328 -0.0260800579884 0)
(0.0442020603595 -0.0335138527779 0)
(0.0430782439109 -0.0407500430414 0)
(0.0417727809316 -0.0477538411715 0)
(0.0403083597116 -0.0544955914102 0)
(0.0387084925851 -0.0609509388386 0)
(0.036996676358 -0.0671007645325 0)
(0.035195650441 -0.0729308715079 0)
(0.0333268162851 -0.0784315397328 0)
(0.0314098248339 -0.0835969914584 0)
(0.0294623290634 -0.0884248203976 0)
(0.0274998764596 -0.092915422231 0)
(0.0255359209054 -0.0970714607448 0)
(0.0235819215981 -0.100897388801 0)
(0.0216475051996 -0.104399036267 0)
(0.0197406625965 -0.107583267166 0)
(0.0178679643884 -0.1104577072 0)
(0.0160347736778 -0.113030532082 0)
(0.0142454489208 -0.115310311626 0)
(0.0125035251097 -0.117305899276 0)
(0.0108118705414 -0.119026357319 0)
(0.00917281599949 -0.120480908067 0)
(0.00758825908914 -0.121678906593 0)
(0.00605974041976 -0.122629822105 0)
(0.00458850013228 -0.123343225292 0)
(0.00317551515853 -0.123828777364 0)
(0.00182152264232 -0.124096216426 0)
(0.00052703296101 -0.124155334608 0)
(-0.000707664389918 -0.124015987054 0)
(-0.00188249036303 -0.123687997708 0)
(-0.00299758644949 -0.12318119693 0)
(-0.0040533037554 -0.122505360293 0)
(-0.00505020238098 -0.121670176071 0)
(-0.00598904412078 -0.120685209468 0)
(-0.00687078504268 -0.119559868742 0)
(-0.00769656293314 -0.118303370806 0)
(-0.00846768467649 -0.116924708823 0)
(-0.00918560798051 -0.115432625064 0)
(-0.00985192644117 -0.113835583293 0)
(-0.0104683468808 -0.112141748246 0)
(-0.0110366716555 -0.110358964776 0)
(-0.0115587741555 -0.108494747621 0)
(-0.0120365810152 -0.106556268637 0)
(-0.0124720464419 -0.104550352902 0)
(-0.012867135406 -0.102483474275 0)
(-0.0132237990539 -0.100361761565 0)
(-0.013543960658 -0.0981910020795 0)
(-0.0138294926853 -0.095976652051 0)
(-0.0140822068981 -0.0937238505022 0)
(-0.0143038349398 -0.091437432429 0)
(-0.0144960239847 -0.0891219506598 0)
(-0.0146603221769 -0.0867816946827 0)
(-0.0147981794371 -0.0844207101746 0)
(-0.0149109393866 -0.0820428260216 0)
(-0.0149998473946 -0.0796516705051 0)
(-0.0150660475292 -0.0772506997906 0)
(-0.0151105960766 -0.0748432122892 0)
(-0.0151344663628 -0.0724323706288 0)
(-0.0151385691343 -0.0700212219232 0)
(-0.0151237539872 -0.0676126904111 0)
(-0.0150908393891 -0.0652096148052 0)
(-0.0150406159501 -0.0628147339669 0)
(-0.0149738722275 -0.0604306979197 0)
(-0.0148914055961 -0.0580600666941 0)
(-0.0147940409449 -0.0557052980912 0)
(-0.0146826391863 -0.0533687440194 0)
(-0.0145581179653 -0.0510526417719 0)
(-0.0144214505131 -0.0487590957287 0)
(-0.0142736820688 -0.0464900646287 0)
(-0.0141159271929 -0.0442473436154 0)
(-0.0139493771745 -0.0420325496801 0)
(-0.0137752928011 -0.0398471001437 0)
(-0.0135950085285 -0.037692204059 0)
(-0.0134099162142 -0.0355688366427 0)
(-0.0132214649484 -0.0334777322825 0)
(-0.0130311433197 -0.0314193679174 0)
(-0.0128404737131 -0.0293939589525 0)
(-0.0126509909966 -0.0274014434337 0)
(-0.0124642343768 -0.0254414834439 0)
(-0.0122817272445 -0.023513457508 0)
(-0.012104965818 -0.0216164585927 0)
(-0.0119354060689 -0.0197492962706 0)
(-0.011774457939 -0.0179104932042 0)
(-0.011623483648 -0.0160982897653 0)
(-0.0114838133013 -0.0143106459226 0)
(-0.0113567823567 -0.0125452610449 0)
(-0.0112438132786 -0.0107996358371 0)
(-0.0111464954398 -0.00907118686765 0)
(-0.0110666371829 -0.00735746050703 0)
(-0.0110061609765 -0.00565665234691 0)
(-0.0109637870609 -0.00396650373025 0)
(-0.0108832943681 -0.00231508905271 0)
(-0.00976812436643 -0.000680591671151 0)
(0.0485889557025 -0.00333009639933 0)
(0.0538301629343 -0.0112614998813 0)
(0.0535817642762 -0.019119753903 -1.22949805081e-27)
(0.0527544629341 -0.0269697829511 0)
(0.0516461854657 -0.0346347481258 0)
(0.0502957344843 -0.0420803340986 0)
(0.0487303702433 -0.0492692299783 0)
(0.0469785942751 -0.0561703627358 0)
(0.0450696909096 -0.0627589990549 0)
(0.0430326456525 -0.0690165506094 0)
(0.0408952188019 -0.0749300851436 0)
(0.0386832445921 -0.08049168769 0)
(0.036420162058 -0.085697736468 0)
(0.0341267609082 -0.0905481577014 0)
(0.0318211088643 -0.0950457113049 0)
(0.0295186244704 -0.0991953432263 0)
(0.0272322531844 -0.103003625897 0)
(0.0249727113088 -0.106478293836 0)
(0.0227487646764 -0.109627877044 0)
(0.0205675177348 -0.112461421248 0)
(0.0184346920525 -0.114988287355 0)
(0.0163548835822 -0.117218015618 0)
(0.014331786554 -0.11916024374 0)
(0.0123683827109 -0.120824658278 0)
(0.0104670942211 -0.122220984709 0)
(0.00862990022308 -0.123358981999 0)
(0.00685842030429 -0.124248454845 0)
(0.00515397181193 -0.124899261846 0)
(0.00351760379498 -0.125321322967 0)
(0.00195011585147 -0.125524617293 0)
(0.000452064996632 -0.125519169384 0)
(-0.000976238405531 -0.125315076262 0)
(-0.00233471519429 -0.124922375365 0)
(-0.00362354513998 -0.124351136755 0)
(-0.00484315028638 -0.123611360864 0)
(-0.00599419781316 -0.12271295945 0)
(-0.00707759430039 -0.121665713058 0)
(-0.00809447578663 -0.120479234782 0)
(-0.00904619496709 -0.119162932011 0)
(-0.00993430401268 -0.117725973651 0)
(-0.0107605359714 -0.116177258008 0)
(-0.0115267829148 -0.114525383384 0)
(-0.0122350725022 -0.112778627959 0)
(-0.0128875426692 -0.110944928022 0)
(-0.0134864162663 -0.109031865169 0)
(-0.0140339751645 -0.107046653644 0)
(-0.0145325344875 -0.104996138445 0)
(-0.0149844170828 -0.102886792099 0)
(-0.0153919291016 -0.100724718501 0)
(-0.0157573382841 -0.0985156618482 0)
(-0.0160828509089 -0.0962650146918 0)
(-0.0163705952495 -0.0939778388521 0)
(-0.0166226031315 -0.0916588773094 0)
(-0.0168407985194 -0.089312582101 0)
(-0.0170269862807 -0.086943131111 0)
(-0.0171828474102 -0.084554459935 0)
(-0.0173099346729 -0.0821502808599 0)
(-0.0174096765493 -0.0797341140895 0)
(-0.017483378277 -0.0773093105825 0)
(-0.0175322373542 -0.0748790775804 0)
(-0.0175573522433 -0.0724464941656 0)
(-0.0175597380839 -0.0700145313245 0)
(-0.0175403433496 -0.0675860726699 0)
(-0.0175000707 -0.0651639199446 0)
(-0.0174397958326 -0.0627507996282 0)
(-0.0173603901145 -0.0603493658603 0)
(-0.0172627380702 -0.0579621933352 0)
(-0.0171477602536 -0.055591783123 0)
(-0.017016424117 -0.0532405351059 0)
(-0.0168697652728 -0.050910749777 0)
(-0.0167088943406 -0.0486046053673 0)
(-0.0165350066641 -0.046324134731 0)
(-0.0163493897747 -0.0440712186864 0)
(-0.0161534233164 -0.0418475542632 0)
(-0.0159485768594 -0.0396546397692 0)
(-0.0157364080181 -0.0374937542947 0)
(-0.0155185519262 -0.0353659402999 0)
(-0.0152967113311 -0.0332719840059 0)
(-0.0150726447019 -0.0312124082324 0)
(-0.014848149716 -0.0291874514466 0)
(-0.0146250456189 -0.0271970640985 0)
(-0.0144051601842 -0.0252409045444 0)
(-0.01419030693 -0.0233183302624 0)
(-0.0139822731993 -0.0214284027244 0)
(-0.0137828029308 -0.0195698867084 0)
(-0.0135935890002 -0.0177412565323 0)
(-0.0134162692535 -0.0159407096424 0)
(-0.0132524270971 -0.0141661790044 0)
(-0.0131036163644 -0.0124153773799 0)
(-0.0129713857603 -0.0106858531338 0)
(-0.0128572994018 -0.00897511885066 0)
(-0.0127628906054 -0.00728077811939 0)