/*--------------------------------*- C++ -*----------------------------------*\
| =========                 |                                                 |
| \\      /  F ield         | OpenFOAM: The Open Source CFD Toolbox           |
|  \\    /   O peration     | Version:  v1906                                 |
|   \\  /    A nd           | Web:      www.OpenFOAM.com                      |
|    \\/     M anipulation  |                                                 |
\*---------------------------------------------------------------------------*/
FoamFile
{
    version     2.0;
    format      ascii;
    class       surfaceScalarField;
    location    "41";
    object      phi;
}
// * * * * * * * * * * * * * * * * * * * * * * * * * * * * * * * * * * * * * //

dimensions      [0 3 -1 0 0 0 0];
oriented        oriented;


internalField   nonuniform List<scalar> 
18240
(
-0.000476311694395
0.000475879896317
-0.000999198419549
0.000521696552731
-0.00152348426487
0.000524097938832
-0.00204596757537
0.000521111123024
-0.00256124754817
0.000515375773863
-0.00306822290306
0.000505448726801
-0.00356519635077
0.000497368982096
-0.00405672979879
0.000489881433398
-0.00453905696136
0.000483064533723
-0.00501631981026
0.000475532800188
-0.00548531173477
0.00047012684899
-0.00594775690157
0.000460716163464
-0.0063902556235
0.000444071434469
-0.00681091141592
0.000419039184976
-0.00721362792222
0.000404788404089
-0.00761058139201
0.000395530443082
-0.00799555334559
0.000387613121022
-0.00836755545287
0.000370910172212
-0.00871464780997
0.000350309056773
-0.00904429949516
0.000329086689433
-0.00934817593407
0.000307673353886
-0.00963529251475
0.000287265584518
-0.0099026625206
0.000271779912918
-0.0101559575577
0.000254290038985
-0.0103878466853
0.000236883294523
-0.0106066310599
0.0002207221799
-0.010793714562
0.000192574362268
-0.0109525509145
0.000161805546859
-0.011090021893
0.000143342583467
-0.0112165846833
0.000130594225246
-0.0113567194769
0.000146296574038
-0.0114722069718
0.000120710429647
-0.0115052569198
3.9386732789e-05
-0.0114869491947
-1.20708835398e-05
-0.0114532364068
-2.75093642938e-05
-0.0114051412228
-4.09681630975e-05
-0.0113347258625
-6.4488200645e-05
-0.0112323228082
-9.4580299594e-05
-0.0110946350212
-0.00013225174676
-0.0109225797496
-0.000163834864025
-0.0107385571044
-0.00017927431114
-0.0105237190508
-0.000206538288955
-0.0102711339045
-0.000248699160076
-0.00998375543994
-0.000279415585933
-0.00966776725
-0.000313107067339
-0.00932563451685
-0.000334816258221
-0.00896861099799
-0.000355290658764
-0.00858213398861
-0.000380073584415
-0.00818331214033
-0.00039831620236
-0.00776186318078
-0.000416150622397
-0.00732376995532
-0.000438732505871
-0.00686817527425
-0.000451551118024
-0.00640750553966
-0.000462261233039
-0.00593291523587
-0.000471878052062
-0.00545716234517
-0.00047802505018
-0.00497653715594
-0.000479126805143
-0.00449739444581
-0.000481761511856
-0.00402077427416
-0.00047611881833
-0.00356499902537
-0.000458504851894
-0.0031335179099
-0.000431699317464
-0.00273135616076
-0.00040482346892
-0.00235926559392
-0.000372818865663
-0.00202491611188
-0.000336839034451
-0.00172973625466
-0.000296195317301
-0.00147251142712
-0.000259396686651
-0.00124442733789
-0.000229223353401
-0.00105315797537
-0.000193075562063
-0.000898450337811
-0.000155789544571
-0.00077897067151
-0.000120863111625
-0.000689377555383
-9.05566575081e-05
-0.000622075388051
-6.83129304358e-05
-0.000571361155696
-5.15651004627e-05
-0.000534485311853
-3.75904198259e-05
-0.000506612923009
-2.86114347367e-05
-0.000482876445786
-2.42003078262e-05
-0.000462603766926
-2.08876709933e-05
-0.000444252754522
-1.86042355881e-05
-0.00042839662849
-1.6326748955e-05
-0.000414282019179
-1.41905599612e-05
-0.000400773921825
-1.38275385298e-05
-0.000387125713583
-1.35827326331e-05
-0.000373788581276
-1.35363277219e-05
-0.000359016915107
-1.45957989198e-05
-0.000344113667403
-1.50145517363e-05
-0.000328189179971
-1.56809593365e-05
-0.000311754753731
-1.64678874415e-05
-0.000297416814343
-1.40551475182e-05
-0.000291265449487
-6.12162374633e-06
-0.000285542613892
-5.41777471664e-06
-0.000271281323547
-1.4099673925e-05
-0.000246666638759
-2.42065921249e-05
-0.000214246395375
-3.20776495652e-05
-0.000173724806444
-4.00786708235e-05
-0.00011880890086
-5.43577250461e-05
-5.38036033426e-05
-6.43247367378e-05
-5.34765088467e-05
-0.00052598628019
0.00100121033346
-0.00111676710666
0.00111150793507
-0.00170523408459
0.00111193152071
-0.00228983694061
0.00110476170372
-0.00286809274488
0.00109310664808
-0.00344171398349
0.00107813277067
-0.00400688155289
0.00106214604614
-0.00456193450329
0.00104404101314
-0.00510361846776
0.00102454156678
-0.00563160774378
0.00100273146482
-0.00614371655103
0.000982269171256
-0.00664262704358
0.000959006113634
-0.00713017874584
0.000931968851701
-0.00761937670695
0.000907858671852
-0.00809273853426
0.000878880414917
-0.008535502358
0.000838270210235
-0.00893997158506
0.000793264269842
-0.00932681384193
0.000758200503003
-0.00971296562218
0.000738187636255
-0.0100924875463
0.00070963503356
-0.0104619341771
0.000679510946169
-0.0108117894644
0.000638856363183
-0.0111274688752
0.000590588467478
-0.0114125346302
0.000541882697433
-0.0116708186757
0.000499028639124
-0.0119016503221
0.000454912447981
-0.0121260612927
0.000421557875394
-0.0123535766212
0.000393580373159
-0.0125549391294
0.000350002178312
-0.0127358525097
0.000316669003778
-0.0128668559505
0.000283274842823
-0.0129652878162
0.000225176135776
-0.013056457298
0.000137098450283
-0.0131000970264
3.83369364121e-05
-0.0130939262973
-2.67669163722e-05
-0.0130466958307
-8.08771031396e-05
-0.0129567771487
-0.000147351089098
-0.0128325426162
-0.000211200218554
-0.012696015968
-0.000261835617237
-0.0125349198064
-0.000317270054275
-0.0123205260024
-0.000387086896142
-0.0120513735747
-0.00046829005919
-0.0117514491622
-0.000542740546392
-0.0114278218384
-0.000596205405852
-0.0110959859948
-0.000639963121634
-0.0107401581316
-0.000684654679854
-0.0103377388124
-0.00075376610466
-0.00989558885381
-0.000817446723259
-0.00943664609004
-0.000854433491739
-0.00895578594837
-0.000893588568053
-0.00844820339899
-0.000944669318623
-0.00792260103204
-0.000975067873152
-0.00738788773545
-0.000996518809092
-0.00683725472512
-0.00102165121057
-0.00628349415911
-0.00103234776902
-0.00573123262233
-0.00103151188929
-0.00519158637179
-0.00102268639755
-0.00466647355125
-0.00100206290895
-0.00414899586763
-0.000977702640882
-0.00364375498912
-0.00093828922843
-0.00316714352385
-0.000883415451642
-0.00272620650539
-0.000815446806584
-0.00232750584995
-0.000737580588159
-0.00196683501728
-0.00065865071026
-0.00165761463605
-0.000570523680576
-0.00139982172477
-0.000488697685865
-0.00118898422617
-0.000405549033026
-0.0010213755985
-0.000324852971657
-0.000889422221484
-0.000254158139777
-0.000790784680145
-0.000190386208235
-0.000719974158558
-0.000140177304844
-0.000666653795281
-0.000105852138666
-0.000628742455397
-7.63380483222e-05
-0.000599846299259
-5.82686569022e-05
-0.000573716603712
-5.09266834716e-05
-0.000550429086196
-4.47560529475e-05
-0.00052854712571
-4.08762939553e-05
-0.000506510625551
-3.87685690048e-05
-0.000486947519303
-3.39417367808e-05
-0.000470079754317
-3.09481882356e-05
-0.000450335378348
-3.33586145303e-05
-0.000430566336821
-3.34179060269e-05
-0.000410443787615
-3.46437675627e-05
-0.000390504360302
-3.49468618623e-05
-0.000371006298024
-3.5029847592e-05
-0.000350204081341
-3.71559430442e-05
-0.00033021810738
-3.38339638696e-05
-0.00031295609638
-2.32072940061e-05
-0.000301583721538
-1.65460569169e-05
-0.000289530596243
-2.58860198271e-05
-0.000267385814147
-4.59939511821e-05
-0.000235248570662
-6.38283786279e-05
-0.000195581118964
-7.92544672833e-05
-0.000142878940261
-0.000106487063525
-6.88035907535e-05
-0.000137716015016
-0.000121910910109
-0.000532582186069
0.00153304871269
-0.00112917223302
0.00170725784576
-0.0017275304964
0.00170948312205
-0.00232128450718
0.00169767115511
-0.00290736846419
0.00167845945455
-0.0034845266996
0.00165449308608
-0.00405362251062
0.00163060439632
-0.00461340990562
0.00160311467274
-0.00516168109187
0.00157231488875
-0.00569977119443
0.0015402485014
-0.00622264213995
0.00150483892891
-0.00672698710532
0.00146298191262
-0.00721514867011
0.00142008412318
-0.00768827927219
0.00138090264507
-0.00815329676355
0.00134419406114
-0.0086121738781
0.00129743106508
-0.00906258271733
0.0012444188796
-0.00949654764186
0.00119293126377
-0.00989808087099
0.00114101733079
-0.0102746723088
0.00108760064242
-0.0106261084324
0.00103290341229
-0.0109528816254
0.000967728113858
-0.0112577821092
0.000898176406307
-0.01154349707
0.000830467828271
-0.0118169519839
0.000775933916258
-0.0121080537921
0.00074969787239
-0.0124004103789
0.000718198199136
-0.0126592934335
0.000657038006056
-0.0128947681319
0.000590616784429
-0.0130826479065
0.000510011395178
-0.0132228114353
0.000429382831576
-0.0133331300213
0.000341779277598
-0.0134121115231
0.000222708426352
-0.0134846498163
0.000117817989883
-0.0135168214629
1.25721576262e-05
-0.0134801597662
-0.000110111820867
-0.0133880990969
-0.000231978788535
-0.0132496171995
-0.000342043082032
-0.0130776388283
-0.000426375077668
-0.0128667883134
-0.000520569294388
-0.0126257951645
-0.000620935209985
-0.0123503516889
-0.000736617656813
-0.0120451536107
-0.000841317092367
-0.0117504002248
-0.000884541101705
-0.011424873807
-0.000959664128242
-0.0110562326155
-0.0010478251467
-0.0106987227495
-0.00110660003981
-0.0103353139198
-0.00117649400384
-0.0099240806194
-0.00126228559464
-0.00948041470038
-0.00133417713029
-0.00902955788956
-0.00139347977454
-0.00852790569992
-0.00147494639034
-0.00796642266322
-0.00155720167072
-0.00736785179246
-0.00161970146651
-0.00676096574395
-0.00163949575794
-0.00615535479991
-0.00163755578251
-0.0055519850026
-0.0016270648787
-0.00495297819761
-0.00160221435741
-0.00437000942028
-0.00156226717073
-0.00381581644528
-0.00149418926563
-0.00329608168964
-0.00140513715138
-0.00281870552888
-0.00129486055706
-0.00239399201927
-0.00116448497058
-0.00202548726483
-0.00102927346934
-0.00171664800501
-0.00088136517641
-0.00146407344866
-0.000743143153079
-0.00126492687092
-0.000606403705923
-0.00110873539511
-0.000482629758609
-0.00098846332079
-0.000375805460782
-0.00089072649973
-0.000289410976385
-0.000814344557587
-0.000217657329671
-0.000760418745836
-0.000160820127675
-0.000714059315258
-0.000123586063921
-0.000674225090506
-9.88559222493e-05
-0.000646208855787
-7.96385880786e-05
-0.000622088186488
-6.94116476394e-05
-0.000598859906957
-6.45991961017e-05
-0.000574239220889
-6.37328036111e-05
-0.000541179811859
-6.73155738375e-05
-0.000509202134497
-6.31079733063e-05
-0.000485829754996
-5.68969907681e-05
-0.000465285403561
-5.40162002869e-05
-0.00044673227156
-5.32010058959e-05
-0.000427652887987
-5.39824409854e-05
-0.000405923318854
-5.66280579394e-05
-0.0003809188034
-6.20085267947e-05
-0.000356557065356
-5.79495181704e-05
-0.000327163613728
-5.23738384556e-05
-0.00029338732134
-5.00522790641e-05
-0.000274453603932
-4.45106022149e-05
-0.000260834456731
-5.92175175385e-05
-0.000227115226234
-9.71221682451e-05
-0.000174958102232
-0.000130977534944
-0.000122401563313
-0.00015847620853
-6.39877503786e-05
-0.000195433661184
-0.000185551229173
-0.000537425045315
0.00206969365956
-0.00114090058534
0.00230979909411
-0.0017446208241
0.0023123484349
-0.00234232049278
0.00229450045307
-0.00293365398769
0.00226898212773
-0.00351835914892
0.00223838943134
-0.00409182541194
0.00220333082498
-0.00465575643806
0.00216633029917
-0.0052097572439
0.00212569747413
-0.00574765700586
0.00207757602089
-0.00626926013026
0.00202599559948
-0.00677665806369
0.00197000573184
-0.00727663919497
0.00191986080537
-0.00777216405923
0.00187632953777
-0.00824943191462
0.00182159014164
-0.00870477764084
0.00175305692485
-0.00914319191193
0.00168339325715
-0.00956251207384
0.00161301563517
-0.00996384840913
0.0015434649931
-0.0103440523928
0.00146918476042
-0.0107069949193
0.00139763362892
-0.0110617855628
0.00132462105461
-0.0113951828332
0.00123410241675
-0.011719841912
0.0011579966035
-0.0120536748988
0.00111310526432
-0.0123730760133
0.00107283477372
-0.0126576989091
0.00100704337573
-0.0129108168401
0.000914812954794
-0.0131309840498
0.000815929217099
-0.0133309002437
0.000715483568235
-0.01348811428
0.000592624372463
-0.0135893623275
0.000449408854711
-0.0136557449297
0.000295846760558
-0.0136849507493
0.000154094832966
-0.0136813223589
1.6275861108e-05
-0.0136455368749
-0.000138364304063
-0.0135954760135
-0.000274376625589
-0.0134981562625
-0.000431593189921
-0.0133411749256
-0.000575615932669
-0.0131471583095
-0.000706927368091
-0.0129385083113
-0.000822102969705
-0.0127825153889
-0.000885324252958
-0.012622040913
-0.000994816877148
-0.0123716103886
-0.00112829686234
-0.0120733697663
-0.00125186539908
-0.0117323732282
-0.0013832021785
-0.0113017476708
-0.00153232377107
-0.0108194836435
-0.00165444531254
-0.0103191543616
-0.00175907326978
-0.00978794620921
-0.00186245499718
-0.00923315264058
-0.00194611553328
-0.00867358303842
-0.0020329149071
-0.00813068897953
-0.0020992003141
-0.00755605402559
-0.00219391604764
-0.00692603643009
-0.00226965590334
-0.00629528380952
-0.00226878861463
-0.00566227922592
-0.00226103933458
-0.00503018295927
-0.00223562427989
-0.00440675529972
-0.0021874508803
-0.00381732269743
-0.0020855411617
-0.00326436472447
-0.00196042701628
-0.00275798017536
-0.00180360628495
-0.0023140082712
-0.0016107411375
-0.00191949672803
-0.00142600533294
-0.00160245841989
-0.00120026816464
-0.00136317872827
-0.000984316111891
-0.00119158385186
-0.000779504023047
-0.00106004626544
-0.000615635214194
-0.000965698064893
-0.000471422097637
-0.000900090601061
-0.000356208657744
-0.000843648056558
-0.000275165260481
-0.000793675052435
-0.000211768192683
-0.000763467410377
-0.000154650488675
-0.000743357733505
-0.00011975383006
-0.000717858621927
-0.000105801789409
-0.000690293327974
-9.75044776099e-05
-0.000664790410767
-9.06259429882e-05
-0.000641727852044
-8.70637262476e-05
-0.000619691293227
-8.97588217572e-05
-0.000600013449926
-8.29044357029e-05
-0.000582750647573
-7.43795968718e-05
-0.000558818105615
-7.79320662138e-05
-0.000530952044795
-8.11052995161e-05
-0.000498944482255
-8.58884466518e-05
-0.000465562843665
-8.99096851846e-05
-0.000434411650295
-9.29508662259e-05
-0.000390291301715
-0.000101818263459
-0.000344963758799
-9.74275571954e-05
-0.000303179953163
-9.15074289275e-05
-0.000262799734527
-8.45262449285e-05
-0.000233442039423
-8.81929893807e-05
-0.000207399294008
-0.000122730843426
-0.000164731822342
-0.000173108093351
-0.000106795089744
-0.000215860911561
-5.87759526528e-05
-0.000242807505513
-0.000243918399851
-0.000543343296178
0.00261219492044
-0.00115339390074
0.00291895851943
-0.00176353407968
0.0029215529812
-0.00236778555294
0.0028978525203
-0.00296468193529
0.00286499642489
-0.00355316740974
0.00282601989129
-0.00413528608909
0.00278463791216
-0.0047052925641
0.00273556558412
-0.0052597662843
0.00267946954708
-0.00580053099198
0.00261769702964
-0.00632663722479
0.00255155599929
-0.00684324711743
0.00248615639006
-0.00735698735344
0.0024332816584
-0.0078517274281
0.00237088296712
-0.00832246902575
0.00229233295103
-0.00877756949395
0.00220833925599
-0.00921578281565
0.00212202697627
-0.00963652537715
0.00203442289358
-0.0100460609777
0.00195397497936
-0.0104495466552
0.00187396372449
-0.01083408278
0.00178383576521
-0.0111875297349
0.00168007010797
-0.0115302664897
0.00157923386046
-0.0118843279477
0.00151484372445
-0.0122492500609
0.0014812837833
-0.0125781014289
0.00140538609459
-0.0128704588762
0.00130359031445
-0.0131380114201
0.00118704169667
-0.0133569689662
0.00104003818968
-0.013528356771
0.000892491921063
-0.0136578321489
0.000728141464683
-0.0137708408336
0.000568908080573
-0.0138855956827
0.000417467741709
-0.0139632828224
0.000239036325518
-0.0139719615643
3.24663842371e-05
-0.0139281325417
-0.000174445171047
-0.0138481309467
-0.000346494916195
-0.0137646788812
-0.000507071072648
-0.0136786956068
-0.00065359296328
-0.0136146091328
-0.000763056382044
-0.0135119850746
-0.000916893275852
-0.0133275150056
-0.00106220905892
-0.0130761148635
-0.00123900422324
-0.0127450082756
-0.00145266371694
-0.0123584520663
-0.00163220673591
-0.0119579394163
-0.00177807550751
-0.0115665155416
-0.0019188043612
-0.011141946821
-0.00207467633174
-0.0106403717652
-0.00225704670111
-0.0100870115089
-0.00241292229777
-0.00951014462008
-0.0025207681521
-0.00891349625245
-0.00262798364941
-0.00830757469678
-0.00270415952769
-0.00771380924789
-0.00278727166149
-0.00708986003124
-0.00289364842931
-0.00643822240011
-0.00292098519009
-0.00577368191408
-0.00292671502614
-0.00510484963871
-0.0029060989046
-0.00442459928895
-0.00286981362339
-0.00379619751116
-0.00271639538286
-0.00320186960144
-0.00255720416186
-0.00265512518885
-0.00235253410872
-0.00220816820022
-0.00205985140655
-0.00177765733532
-0.00185811741875
-0.00148246851946
-0.00149740626514
-0.00130719669418
-0.00116084053271
-0.00118944206911
-0.000898953614358
-0.0010880901715
-0.00071814460553
-0.00101189881184
-0.000549152861003
-0.000955074082686
-0.000414194741187
-0.000901726165062
-0.000329813876478
-0.00086095602371
-0.000253758283082
-0.000846379683815
-0.000170270672475
-0.000831721338305
-0.000135415652363
-0.000797616117368
-0.000140523581177
-0.000761139660251
-0.000134870571224
-0.000732483492913
-0.000119498219538
-0.000704168551925
-0.000116042856145
-0.000664943110848
-0.000128939852789
-0.000626636291391
-0.000121551119453
-0.000596363038567
-0.000104544640613
-0.000572885744064
-0.000101367607523
-0.000556812593303
-9.70907008404e-05
-0.000542664988461
-9.98136341378e-05
-0.000521318179615
-0.000111120419703
-0.000491282604579
-0.000122646915861
-0.000453424988043
-0.000139398329759
-0.000401829928864
-0.000148660394637
-0.000344083269654
-0.000148878020367
-0.00027653255126
-0.000151648581816
-0.000217514321572
-0.000146777611729
-0.000180535691801
-0.000159258101173
-0.000153220433291
-0.000199959494766
-9.85004957371e-05
-0.000269941054527
-5.07047116644e-05
-0.000289912477835
-0.000294270362823
-0.000550848936274
0.00316217660291
-0.00116983578417
0.00353691793062
-0.00178839465611
0.00353915144118
-0.00240062674955
0.00350911609055
-0.00300475112717
0.00346818364628
-0.00360352074433
0.00342386964309
-0.00419050367292
0.00337073664499
-0.00476053029118
0.00330475074477
-0.00532196134583
0.0032401089775
-0.00586680382091
0.00316180897436
-0.00639661188456
0.00308070806937
-0.00692771622832
0.00301670399685
-0.00744398819008
0.0029491071705
-0.00793328107777
0.00285987539284
-0.00840692123429
0.00276583093243
-0.00886511777874
0.00266658523684
-0.00930863145577
0.00256581014441
-0.00974952594246
0.00247584856028
-0.0101758857518
0.0023811729969
-0.0105721909176
0.00227143302412
-0.0109447719626
0.00215791804238
-0.0113004821886
0.00203763532633
-0.0116746566458
0.00195563833379
-0.0120700596903
0.00191293637174
-0.0124297530202
0.00184413330131
-0.0127586189125
0.00173788316592
-0.0130544365694
0.00160355404927
-0.0132987639894
0.00143599414483
-0.0135200661961
0.00126648799178
-0.0137101534462
0.00108819088587
-0.0138949436713
0.000919069143646
-0.0140523609111
0.000732920670292
-0.0141408057326
0.000512946706766
-0.01418788671
0.00029349597242
-0.0142044253654
5.67054466275e-05
-0.0142110738466
-0.00015984508344
-0.0141992900149
-0.000350119404095
-0.0141974963856
-0.000500585644416
-0.0141757914555
-0.000666922532622
-0.0140757674411
-0.000854808477462
-0.0139142987612
-0.00107028018933
-0.0136549691895
-0.0013137737544
-0.0133469802812
-0.0015396216731
-0.0130599666055
-0.00173276131412
-0.0127319104045
-0.0019538953613
-0.0123201763032
-0.00218408785956
-0.0118480298634
-0.00238584842609
-0.0113696519868
-0.0025486868353
-0.0109100410671
-0.00271301056477
-0.0104116589194
-0.00290833129091
-0.00983454092558
-0.00309562437477
-0.00920902286317
-0.0032518284266
-0.00858117873563
-0.00333104134743
-0.00795587425348
-0.00341204464075
-0.00730980469126
-0.00353994050956
-0.00663043740185
-0.00360124052023
-0.00592626589198
-0.00363228068949
-0.00524413362268
-0.00359041702575
-0.00452950073413
-0.00358687744242
-0.00388242057579
-0.00336578040879
-0.0033067924127
-0.00313477152398
-0.00265972552671
-0.00300139515758
-0.00226119245735
-0.00245979055112
-0.00193156138336
-0.00218937924477
-0.00165655781571
-0.00177393414265
-0.00150372566971
-0.00131559285484
-0.00134299555519
-0.00106145058971
-0.00126431526752
-0.00079918197365
-0.00117006721996
-0.000645449517381
-0.00109448434519
-0.000492082310849
-0.00106989475068
-0.000356639969828
-0.00102913389768
-0.000296685186234
-0.000951123471112
-0.000250305578445
-0.000915215951585
-0.000172771165034
-0.000933116211938
-0.000124289702675
-0.000938260923226
-0.000130622088846
-0.000892963027285
-0.00016595055691
-0.000839243500102
-0.000170093234052
-0.00080581459828
-0.000162830134708
-0.000761369572053
-0.000166107850107
-0.000726482717761
-0.000139170836285
-0.000693535258914
-0.000134266516771
-0.00064477795624
-0.000145268018861
-0.000596218305172
-0.000148187925017
-0.000551795702011
-0.00015502200495
-0.000505250369998
-0.000168777944914
-0.000461629492408
-0.000182594763838
-0.000432280207781
-0.000177518755158
-0.000388220789013
-0.000192455788753
-0.000323176441695
-0.000216153908096
-0.000237503267282
-0.000231953425076
-0.00017158931649
-0.000224684683607
-0.000139333977825
-0.000231662451304
-0.00010369011779
-0.000304981733307
-4.75811372147e-05
-0.000345389062918
-0.000341454566419
-0.000561924012921
0.00372316002896
-0.00119111711756
0.00416512805638
-0.00182000609049
0.00416699323815
-0.00244241585979
0.0041305140737
-0.00305824040512
0.00408299764526
-0.00366619911683
0.00403083989294
-0.00425764056075
0.00396121611482
-0.00483536784224
0.00388155063606
-0.00540151952449
0.00380537363528
-0.00595153824065
0.00371099196145
-0.0064984242487
0.0036268281543
-0.00703299473806
0.00355058595781
-0.00753749881988
0.00345303908551
-0.00802867981171
0.00335060042308
-0.00850675349416
0.00324361316611
-0.00897011222383
0.00312982703898
-0.00943082545787
0.00302663558179
-0.00987581307346
0.0029212096425
-0.0102919686728
0.00279800202434
-0.0106894948267
0.00266994315851
-0.0110691528258
0.00253889146371
-0.011450268014
0.00242040933281
-0.0118801224739
0.00238758267948
-0.0122974921676
0.00233285291765
-0.0126542943328
0.00220398397208
-0.0129617047602
0.00204883693669
-0.0132316392781
0.00187753304804
-0.0134784838855
0.00168741794229
-0.0137163470151
0.00150946180855
-0.013955679838
0.00133319163037
-0.0141542612859
0.00112385219069
-0.0142868391193
0.000872212386549
-0.0143780423873
0.000611294422841
-0.0144452942859
0.000368329434715
-0.0145209276032
0.000140243925205
-0.0145968236067
-7.57056985655e-05
-0.0146573481458
-0.000281117179418
-0.0146798832572
-0.000469381537778
-0.0146164948006
-0.000721640451298
-0.0144396832369
-0.00102309917293
-0.0142168914865
-0.00128474815437
-0.0140152825019
-0.00150737286451
-0.0137651199496
-0.0017821492456
-0.0134093632257
-0.002081443261
-0.0130174756759
-0.00233926050939
-0.0126578499851
-0.00253781711753
-0.0122527721596
-0.00278570327641
-0.0117597738312
-0.00303716796387
-0.0112166900723
-0.00325231149266
-0.0106489549371
-0.00347301478732
-0.0101104141088
-0.00363170677416
-0.00953302213084
-0.00382757503687
-0.00890014046129
-0.00396271894674
-0.00824741117118
-0.00406459561613
-0.00760230937514
-0.00418563364716
-0.00692675407969
-0.00427763547202
-0.00623369513472
-0.00432734491977
-0.00549529077559
-0.00433072515444
-0.00468633005337
-0.00439775388454
-0.00390822984235
-0.00414544667766
-0.00338282182051
-0.00366160315788
-0.0030535388412
-0.00333190661449
-0.00269737177055
-0.00281732339988
-0.00226219252218
-0.00262659024515
-0.00170946818556
-0.00232902228653
-0.00105601131778
-0.00197195002311
-0.000358667324309
-0.00176234209563
0.000353287788223
-0.00151463484774
0.000950809139528
-0.00124655177643
0.00140561815733
-0.000950348912286
0.00170131726811
-0.000655644328314
0.00180320872141
-0.000401726302451
0.00172690757513
-0.000176874265638
0.00152500633394
2.64265505289e-05
0.00122384763245
0.000174618632447
0.000838165328566
0.000253065722141
0.000395959982678
0.00027479485628
-4.38108991231e-05
0.000268655170129
-0.000429829757634
0.000222393475051
-0.000701575704359
0.000105727647797
-0.000849770161452
8.94277781542e-06
-0.000909566464198
-7.37202917876e-05
-0.000879418062611
-0.000174912202019
-0.000789854883409
-0.000237008847378
-0.000697563002627
-0.000246460369092
-0.000603205130792
-0.000262515875327
-0.000504940871163
-0.000279970067972
-0.000445380077004
-0.000236407251684
-0.000386865329296
-0.000250318239655
-0.000331589250734
-0.000270742652977
-0.000263014760277
-0.000299837669405
-0.000178233014263
-0.000308877942234
-0.000117778561796
-0.000291626579825
-0.00010243589374
-0.000319733042413
-4.80236518626e-05
-0.000399074202265
-0.000389141994077
-0.000574354956223
0.00429655232592
-0.00121664331976
0.0048062780998
-0.00185795472215
0.00480723116486
-0.00249167479233
0.00476314296757
-0.00312136014653
0.00471161004266
-0.00373743021336
0.0046458449499
-0.00433826604577
0.00456100488448
-0.00492448881705
0.00446675480422
-0.00549799814471
0.00437788948057
-0.0060590689632
0.0042711128986
-0.006609656801
0.00417651541151
-0.00713548085221
0.00407558813591
-0.00764218354327
0.00395900453054
-0.00813967715389
0.00384748356102
-0.00862586264914
0.00372932341256
-0.00910583613306
0.00360951467183
-0.00956900535937
0.00348973538252
-0.0100032011319
0.00335559616235
-0.0104210267656
0.00321630717816
-0.0108219186465
0.00307160865789
-0.0112085598718
0.00292663324544
-0.0116542221554
0.00286754002794
-0.0120906594867
0.00282593778819
-0.0124670464474
0.00271162665103
-0.0128235203994
0.00256335337206
-0.0131413616233
0.00237007304667
-0.013434237982
0.00217435205683
-0.0137389116116
0.00199660212549
-0.0140245126722
0.00180019015472
-0.0142456872525
0.00156006198088
-0.0144189382594
0.0013033813263
-0.0145651440472
0.00102521193475
-0.0147164062681
0.000769900376593
-0.0148426378436
0.000502349621592
-0.0149377551816
0.000243560981228
-0.0150296932252
2.4789338868e-05
-0.0150943077484
-0.000207652185405
-0.0150727913346
-0.000481930820291
-0.0149644618886
-0.000821050117914
-0.0148476122895
-0.0011310916341
-0.0146835852949
-0.00144013402167
-0.0144178288738
-0.00176482489075
-0.0141105313071
-0.00208164848124
-0.0138067036547
-0.00237791660011
-0.0134650556439
-0.00267416562918
-0.0130242179101
-0.002972520323
-0.0125443772643
-0.00326014257965
-0.0120314901717
-0.00354531420421
-0.0115527624929
-0.00372706092365
-0.0110527310378
-0.00396967181278
-0.0104999240458
-0.00418205242833
-0.00994628736942
-0.00437922494401
-0.00934290340943
-0.0045653491721
-0.00869647207333
-0.00471120067195
-0.00800867931729
-0.00487370301112
-0.00729719161549
-0.00499081458758
-0.00651167737809
-0.00511387526678
-0.00572875365389
-0.00511497700332
-0.00475929860232
-0.00536839239902
-0.00420875675727
-0.00469700288558
-0.00362121992241
-0.00425022539662
-0.00277029049375
-0.0041844039304
-0.00164979479919
-0.00393999311951
-0.000236306593079
-0.00404302198328
0.00134504046785
-0.00391396296847
0.00295726039206
-0.00358794920736
0.0043867165639
-0.00319564166693
0.0056037826884
-0.00273549548682
0.00657506518394
-0.00222155080165
0.00729046872778
-0.00166932344807
0.00774314538501
-0.00111169411096
0.00792033141517
-0.000582098457305
0.00783470164519
-9.41580530559e-05
0.00752297532783
0.000335483922655
0.00701536219115
0.000679936319605
0.00633666500399
0.000929784251524
0.00552130841067
0.0010886264376
0.00461924169458
0.00116951665343
0.00366790140616
0.00117301184625
0.00267807945814
0.00109510690017
0.00171499937891
0.000972161237079
0.000833711619637
0.000808081938811
8.32643325179e-05
0.000576245255131
-0.000435341030003
0.000282901121832
-0.000712017479135
3.1221778136e-05
-0.000815063791239
-0.000158049549087
-0.000739546137812
-0.000353971858326
-0.000577638689954
-0.000397250391264
-0.000431175003935
-0.000395662543874
-0.000333296757012
-0.000367669590848
-0.000266569999476
-0.000365760740227
-0.000200321103375
-0.000374377102425
-0.000110468843662
-0.000380801787701
-8.54282971712e-05
-0.000344221719488
-4.79104058111e-05
-0.000435940624675
-0.000436667277627
-0.000589069883663
0.00488457402695
-0.00124740877884
0.00546352877455
-0.00190440673568
0.00546306222704
-0.00255386451788
0.00541146019141
-0.00319732923181
0.00535392149537
-0.00382292357097
0.00527029469637
-0.00443354524578
0.00517049227775
-0.00502806556617
0.0050601533064
-0.00560771179302
0.00495643145723
-0.00617485062259
0.00483717360148
-0.00672680039999
0.00472742424417
-0.00725821452497
0.00460602006265
-0.00778571945045
0.00448560760879
-0.00829942186959
0.00436038604071
-0.00878938428923
0.00421863133576
-0.00925955310823
0.0040791991565
-0.00970858409129
0.00393849777069
-0.0101443322773
0.0037913208177
-0.0105677018622
0.0036399244554
-0.0109792744965
0.00348371121239
-0.0114247351402
0.00337294405899
-0.0118823723403
0.00332644013458
-0.0122961915072
0.00324145778704
-0.0126810407893
0.00309866658472
-0.0130224563221
0.00290746005329
-0.0133515142553
0.0027023601851
-0.0136943715635
0.00252102601965
-0.0140150294843
0.00232171020124
-0.0142806164323
0.00207084906635
-0.0145120997414
0.00179725762924
-0.0147095458361
0.00150713575834
-0.0149135696739
0.0012361862338
-0.0150873981556
0.000951226593948
-0.0152374843307
0.000660468069622
-0.0153933349471
0.00040791998935
-0.0155076927536
0.000148092174894
-0.0155229550225
-0.000183215637934
-0.0154575874741
-0.000537988946236
-0.0154053420794
-0.000863986557887
-0.0152828798477
-0.00124434607387
-0.0150521449639
-0.00166191685366
-0.0147797190286
-0.0020286599715
-0.0145302554817
-0.00232293442762
-0.0142202747809
-0.002680278996
-0.0138089170129
-0.00307843780633
-0.0133603032718
-0.00341475466092
-0.0129471918254
-0.00366746281605
-0.0124895158902
-0.0039979723958
-0.0119263453729