/*--------------------------------*- C++ -*----------------------------------*\
| =========                 |                                                 |
| \\      /  F ield         | OpenFOAM: The Open Source CFD Toolbox           |
|  \\    /   O peration     | Version:  v1906                                 |
|   \\  /    A nd           | Web:      www.OpenFOAM.com                      |
|    \\/     M anipulation  |                                                 |
\*---------------------------------------------------------------------------*/
FoamFile
{
    version     2.0;
    format      ascii;
    class       volVectorField;
    location    "42";
    object      U;
}
// * * * * * * * * * * * * * * * * * * * * * * * * * * * * * * * * * * * * * //

dimensions      [0 1 -1 0 0 0 0];


internalField   nonuniform List<vector> 
9216
(
(-0.093444616831 0.0935035521863 0)
(-0.0961383954125 0.291092301714 4.50220834468e-26)
(-0.0956928287398 0.490145750538 -6.48076621708e-30)
(-0.0946093522602 0.688607660771 0)
(-0.0931272227907 0.884327257744 0)
(-0.0912849489183 1.07661503192 0)
(-0.0891134223281 1.26476010794 0)
(-0.0866431868979 1.44810602635 0)
(-0.0839009368686 1.62605619304 0)
(-0.0809186692216 1.79807280233 0)
(-0.0777244516367 1.96368164015 0)
(-0.0743517277204 2.12247087459 0)
(-0.0708284045661 2.2740938013 0)
(-0.0671873698869 2.41826572882 0)
(-0.0634544868322 2.55476442664 0)
(-0.0596603389132 2.6834254378 0)
(-0.0558273414469 2.80414076561 0)
(-0.0519826030654 2.91685324175 0)
(-0.0481442955873 3.02155406736 0)
(-0.0443354755027 3.11827683225 0)
(-0.0405698046385 3.2070944926 0)
(-0.0368661842235 3.28811354766 0)
(-0.0332339149907 3.36147087806 0)
(-0.0296879896893 3.42732841497 0)
(-0.0262337573176 3.48587015159 0)
(-0.0228827496371 3.53729752346 0)
(-0.0196369265941 3.58182674756 0)
(-0.0165049148376 3.61968499256 0)
(-0.013485898547 3.65110814045 0)
(-0.0105861902353 3.67633778303 0)
(-0.00780287498441 3.6956194491 0)
(-0.00514072619828 3.70920051091 0)
(-0.00259600586886 3.71732963368 0)
(-0.000175298953641 3.72025088991 0)
(0.00213196342172 3.71823198904 0)
(0.00433007988743 3.71148788103 0)
(0.00642340944222 3.70024808424 0)
(0.00840862422791 3.68473822306 0)
(0.0102922819997 3.66517886212 0)
(0.0120730072512 3.64178487329 0)
(0.013758227106 3.61476453107 0)
(0.0153470395335 3.58431934888 0)
(0.0168470884798 3.55064353246 0)
(0.0182576386416 3.51392423411 0)
(0.0195863435976 3.47434105946 0)
(0.0208325198081 3.43206658813 0)
(0.0220037111658 3.38726584851 0)
(0.0230992190595 3.34009703518 0)
(0.0241264040772 3.2907109394 0)
(0.0250845205219 3.2392518364 0)
(0.0259806895218 3.1858568405 0)
(0.026814098982 3.13065692178 0)
(0.0275915982926 3.07377619288 0)
(0.0283123086335 3.01533304189 0)
(0.0289827815072 2.95543933309 0)
(0.0296020742809 2.89420162669 0)
(0.030176429362 2.83172030839 0)
(0.0307048541955 2.76809088965 0)
(0.0311932712612 2.70340305589 0)
(0.031640650288 2.63774202508 0)
(0.0320525925973 2.5711875328 0)
(0.0324280486665 2.50381524672 0)
(0.0327722948636 2.43569568237 0)
(0.0330842769522 2.36689565659 0)
(0.0333689488814 2.29747715237 0)
(0.0336252698335 2.22749881126 0)
(0.0338578700444 2.15701474279 0)
(0.0340657357424 2.0860760433 0)
(0.0342531764267 2.01472956639 0)
(0.0344192211153 1.94301946954 0)
(0.0345678575217 1.870985942 0)
(0.0346981689352 1.79866676949 0)
(0.0348138233153 1.72609603437 0)
(0.0349139707702 1.65330569897 0)
(0.0350019581688 1.58032427675 0)
(0.0350770111059 1.50717842483 0)
(0.0351421566497 1.43389160115 0)
(0.0351967044958 1.36048566325 0)
(0.0352433611097 1.28697951428 0)
(0.0352815252549 1.21339069704 0)
(0.0353135844192 1.13973404458 0)
(0.0353390302869 1.06602326495 0)
(0.0353599313223 0.992269599732 0)
(0.0353758733262 0.918483396132 0)
(0.0353886042614 0.8446727787 0)
(0.0353978026968 0.770845216371 0)
(0.0354048844672 0.697006203274 0)
(0.0354096015703 0.623160833924 0)
(0.0354129836324 0.549312538007 0)
(0.0354147212266 0.475464736275 0)
(0.0354151068464 0.401619924928 0)
(0.0354127891918 0.327781911009 0)
(0.0354040144718 0.253958441989 0)
(0.0353829453273 0.180131006622 0)
(0.0352736188715 0.106769305415 0)
(0.0342468553288 0.0342467180229 0)
(-0.291462544757 0.0967689179442 0)
(-0.307931965989 0.309370237793 0)
(-0.306440931924 0.521158495858 -4.558454515e-26)
(-0.302935124653 0.732460238829 0)
(-0.298191683255 0.940678985426 0)
(-0.292326062941 1.14518828466 0)
(-0.285417979459 1.34525794431 0)
(-0.277554255049 1.54019795025 0)
(-0.268821052207 1.72937580428 0)
(-0.259315242603 1.91222105058 0)
(-0.249130072476 2.08822989995 0)
(-0.238367264607 2.25696600462 0)
(-0.227120538711 2.41806186683 0)
(-0.215489603785 2.57121700584 0)
(-0.2035623748 2.71619693219 0)
(-0.191430947484 2.8528294321 0)
(-0.179172853276 2.9810018145 0)
(-0.166868872099 3.10065602536 0)
(-0.154583505241 3.21178486788 0)
(-0.1423843797 3.31442660912 0)
(-0.130322023744 3.40866078354 0)
(-0.118450596748 3.49460282162 0)
(-0.106807021751 3.57239989521 0)
(-0.095432770228 3.6422259407 0)
(-0.0843523869519 3.70427785115 0)
(-0.0735960968789 3.75877111321 0)
(-0.0631777741883 3.80593650894 0)
(-0.0531181653796 3.84601646418 0)
(-0.0434223611823 3.87926231981 0)
(-0.0341034882759 3.90593138835 0)
(-0.0251597913192 3.92628473788 0)
(-0.0165987439327 3.94058479588 0)
(-0.00841398218274 3.94909250031 0)
(-0.000611078918054 3.95207122353 0)
(0.0068259337945 3.94975604216 0)
(0.013903393354 3.94241864525 0)
(0.0206328463193 3.93030795829 0)
(0.0270154071277 3.91366768021 0)
(0.0330660086885 3.8927340647 0)
(0.0387884831549 3.86773603871 0)
(0.0441993301244 3.83889504144 0)
(0.0493034228103 3.80642512977 0)
(0.0541178444451 3.77053252624 0)
(0.0586478704515 3.73141585567 0)
(0.0629106583432 3.68926576217 0)
(0.0669115296338 3.64426530166 0)
(0.0706673888447 3.59658960738 0)
(0.0741833776918 3.54640640619 0)
(0.0774759331866 3.49387570998 0)
(0.080549882771 3.43915042393 0)
(0.0834210511233 3.38237604085 0)
(0.0860938737967 3.32369131617 0)
(0.088583476677 3.26322795461 0)
(0.0908938732854 3.20111133288 0)
(0.0930394380348 3.13746016706 0)
(0.0950237581193 3.07238726816 0)
(0.0968604348875 3.0059991885 0)
(0.0985526484324 2.93839699934 0)
(0.100113219271 2.86967591152 0)
(0.101544948114 2.7999260666 0)
(0.102859882313 2.7292321346 0)
(0.10406048093 2.65767411314 0)
(0.105158028761 2.58532690084 0)
(0.106154680408 2.5122610996 0)
(0.107060975491 2.43854256861 0)
(0.107878804346 2.36423322729 0)
(0.108617976333 2.28939058972 0)
(0.109280153214 2.21406856577 0)
(0.109874431277 2.13831698113 0)
(0.110402279176 2.06218237601 0)
(0.110872092748 1.98570751097 0)
(0.111285177286 1.90893216177 0)
(0.111649241179 1.83189261598 0)
(0.111965454389 1.75462246412 0)
(0.112240846379 1.67715208776 0)
(0.1124764739 1.59950944509 0)
(0.112678696246 1.52171955621 0)
(0.112848476337 1.44380528217 0)
(0.112991508977 1.36578680931 0)
(0.113108676642 1.28768241897 0)
(0.11320501591 1.20950797692 0)
(0.113281338561 1.13127769309 0)
(0.113342025903 1.05300361794 0)
(0.113387823196 0.974696391979 0)
(0.113422453992 0.896364751155 0)
(0.113446593825 0.818016268824 0)
(0.113463286022 0.739656863731 0)
(0.113473097202 0.661291531604 0)
(0.113478293747 0.582923849723 0)
(0.113479112884 0.50455665967 0)
(0.113476540694 0.426191477352 0)
(0.113469287622 0.347828372095 0)
(0.113453775865 0.269465551618 0)
(0.113415413788 0.191036673339 0)
(0.113127453116 0.113171082801 0)
(0.106796596751 0.0352969996689 0)
(-0.493079260077 0.097787936039 0)
(-0.521178375347 0.3125022057 0)
(-0.518261932183 0.526043024431 -4.52889410537e-26)
(-0.512201376967 0.739271004091 0)
(-0.504122526157 0.949357163687 0)
(-0.494166233126 1.15564600513 0)
(-0.482453013315 1.35738715784 0)
(-0.469120765059 1.55387817759 0)
(-0.454317858058 1.74447702588 0)
(-0.438204518221 1.92860679757 0)
(-0.420943917355 2.10575953811 0)
(-0.402704576604 2.27549763897 0)
(-0.383651112412 2.43745438477 0)
(-0.363947910823 2.5913325104 0)
(-0.343749946479 2.73690224934 0)
(-0.323207884922 2.8739978708 0)
(-0.302459193751 3.00251404362 0)
(-0.281634626092 3.12240115242 0)
(-0.260849650779 3.23366073718 0)
(-0.240212128231 3.33634029208 0)
(-0.219813972577 3.43052842317 0)
(-0.199739769881 3.5163496824 0)
(-0.18005854243 3.59395990154 0)
(-0.160833053816 3.66354142935 0)
(-0.142111548866 3.72529893898 0)
(-0.123937523465 3.77945528207 0)
(-0.106341344307 3.8262479099 0)
(-0.0893503054021 3.86592542403 0)
(-0.07298006876 3.89874465463 0)
(-0.057244877927 3.92496790145 0)
(-0.0421487882318 3.94486061488 0)
(-0.0276959103033 3.95868928222 0)
(-0.0138812595788 3.96671913492 0)
(-0.000700430003673 3.96921689051 0)
(0.0118593425674 3.96644453365 0)
(0.0238065045409 3.95865430986 0)
(0.0351568383261 3.94609263007 0)
(0.0459230649835 3.92900370493 0)
(0.0561238880684 3.90762476473 0)
(0.0657740470448 3.88218569764 0)
(0.0748939430331 3.85290891482 0)
(0.0834996368247 3.82000917115 0)
(0.0916123996234 3.78369336621 0)
(0.0992488214021 3.74416053542 0)
(0.106430338444 3.70160176656 0)
(0.113173492141 3.65620031545 0)
(0.11949938707 3.60813159452 0)
(0.125424124102 3.55756337843 0)
(0.130968143974 3.50465584251 0)
(0.136146856041 3.44956183378 0)
(0.140979824719 3.39242693087 0)
(0.145481618768 3.33338975639 0)
(0.149670802995 3.27258204828 0)
(0.153561030739 3.21012900088 0)
(0.157169805203 3.14614933083 0)
(0.160509840092 3.0807556328 0)
(0.163597559331 3.01405443849 0)
(0.166444747806 2.94614658185 0)
(0.16906675978 2.87712724131 0)
(0.171474483143 2.80708630676 0)
(0.173682230809 2.73610840817 0)
(0.175700038539 2.66427328323 0)
(0.17754121475 2.59165578648 0)
(0.17921499303 2.51832625355 0)
(0.1807337192 2.44435049601 0)
(0.182105876392 2.36979016309 0)
(0.183342888855 2.29470271853 0)
(0.184452538465 2.21914179782 0)
(0.185445367482 2.14315717266 0)
(0.186328502503 2.06679510535 0)
(0.187111638577 1.99009829845 0)
(0.187801287558 1.91310624535 0)
(0.188406328271 1.83585517041 0)
(0.188932693491 1.75837837741 0)
(0.189388471223 1.6807061787 0)
(0.189779044761 1.60286624072 0)
(0.190111732833 1.52488350716 0)
(0.190391393805 1.44678054259 0)
(0.19062459387 1.36857744877 0)
(0.19081568512 1.29029220552 0)
(0.1909704947 1.21194058494 0)
(0.191092882095 1.13353649005 0)
(0.191187943801 1.0550918671 0)
(0.191259054124 0.97661704178 0)
(0.191310580297 0.898120632135 0)
(0.191345409926 0.819609880401 0)
(0.19136716604 0.741090558174 0)
(0.191378222617 0.662567285819 0)
(0.19138140367 0.584043407153 0)
(0.191378476906 0.505521253761 0)
(0.191371341056 0.427001953675 0)
(0.191361085696 0.348485069042 0)
(0.191348778039 0.269970596415 0)
(0.191329208284 0.191395825078 0)
(0.190999218902 0.113476798325 0)
(0.180211304672 0.0354097627098 0)
(-0.697939265859 0.0989809564814 0)
(-0.737990297677 0.316255133539 0)
(-0.733813309838 0.532238091425 4.49435761561e-26)
(-0.725147303701 0.747892501938 0)
(-0.713607030175 0.960306954661 0)
(-0.699397984329 1.16879663134 0)
(-0.682693537186 1.37258481752 0)
(-0.663689790953 1.57095005277 0)
(-0.642600990489 1.76323632297 0)
(-0.619655842456 1.94885750057 0)
(-0.595090224305 2.12730060688 0)
(-0.56914421478 2.29812714009 0)
(-0.542055328738 2.46097299758 0)
(-0.514056759674 2.61554679183 0)
(-0.485371549406 2.76162717982 0)
(-0.456212277532 2.89905907085 0)
(-0.426776330195 3.02774928142 0)
(-0.397247014522 3.14766153236 0)
(-0.367789849034 3.25881127847 0)
(-0.338554886162 3.36126026638 0)
(-0.309673800925 3.4551112149 0)
(-0.281263122323 3.54050250276 0)
(-0.253421852773 3.6176031677 0)
(-0.226235301385 3.68660809114 0)
(-0.199772984199 3.74773358988 0)
(-0.174092801229 3.80121328555 0)
(-0.149239022655 3.84729440896 0)
(-0.125246610351 3.88623441508 0)
(-0.102139153265 3.91829801178 0)
(-0.0799331992196 3.94375449023 0)
(-0.0586360533435 3.96287541814 0)
(-0.0382500162475 3.97593266462 0)
(-0.0187699692095 3.98319607975 0)
(-0.000187688802112 3.98493704394 0)
(0.0175138174565 3.98142334495 0)
(0.0343507939938 3.97290679741 0)
(0.0503427225051 3.95963541059 0)
(0.0655102443468 3.94185527279 0)
(0.079877466508 3.91980494938 0)
(0.0934681811317 3.89371537602 0)
(0.106308881837 3.86380975924 0)
(0.118425105773 3.83030337187 0)
(0.129844484195 3.79340342871 0)
(0.14059318771 3.75330906872 0)
(0.150699032788 3.71021135179 0)
(0.160188027663 3.66429334431 0)
(0.169087505292 3.61573019504 0)
(0.177422767722 3.56468929541 0)
(0.185220219907 3.51133040651 0)
(0.192504107396 3.45580586718 0)
(0.199299626429 3.39826075001 0)
(0.205629756581 3.33883309928 0)
(0.21151832767 3.27765410091 0)
(0.216986946813 3.21484833527 0)
(0.222058003439 3.15053394945 0)
(0.226751695877 3.08482291651 0)
(0.231088959982 3.01782120336 0)
(0.235088597498 2.94962902904 0)
(0.23877011407 2.88034102313 0)
(0.242150956238 2.81004647988 0)
(0.245249247945 2.73882950528 0)
(0.248081139862 2.66676926407 0)
(0.250663433406 2.59394011365 0)
(0.253011049881 2.52041184363 0)
(0.255139533632 2.44624979731 0)
(0.257062645335 2.37151510291 0)
(0.258794735572 2.29626478244 0)
(0.260348469782 2.22055197559 0)
(0.261737065512 2.14442603772 0)
(0.262972153638 2.0679327566 0)
(0.264065872044 1.99111443997 0)
(0.265028870399 1.91401012655 0)
(0.26587225453 1.83665566513 0)
(0.266605739343 1.75908392045 0)
(0.267239437836 1.68132484462 0)
(0.267782168708 1.60340567898 0)
(0.26824308534 1.52535101983 0)
(0.268630141965 1.44718301691 0)
(0.268951558136 1.36892143402 0)
(0.269214448275 1.29058384486 0)
(0.269426118623 1.21218569039 0)
(0.269592862262 1.13374047286 0)
(0.269721085866 1.05525981095 0)
(0.269816272956 0.976753631741 0)
(0.269883937783 0.898230225032 0)
(0.269928758677 0.819696430029 0)
(0.269955354803 0.74115768106 0)
(0.269967593281 0.66261818047 0)
(0.269969189218 0.584080918786 0)
(0.269963199445 0.505547815449 0)
(0.269952487796 0.427019730007 0)
(0.269939525527 0.348496189382 0)
(0.269926605785 0.269978457016 0)
(0.269904720878 0.191405378105 0)
(0.26944163023 0.113509659414 0)
(0.254098697205 0.0354290369776 0)
(-0.905597925537 0.100558207229 0)
(-0.957588090449 0.321270228133 0)
(-0.952100804775 0.540625482447 0)
(-0.940731519283 0.759570872219 0)
(-0.925593938989 0.975131128128 0)
(-0.906965133513 1.18658798262 0)
(-0.885077609719 1.39313173908 0)
(-0.860192178406 1.59401539526 0)
(-0.832594076738 1.78856404671 0)
(-0.802586326335 1.97617913863 0)
(-0.770481864201 2.15634129879 0)
(-0.73659744608 2.32861127154 0)
(-0.701246788662 2.49262917425 0)
(-0.664735954442 2.64811219853 0)
(-0.627358058439 2.79485113525 0)
(-0.589390457827 2.93270588943 0)
(-0.551091169789 3.0616003463 0)
(-0.512697815624 3.18151673786 0)
(-0.474425572852 3.29248980695 0)
(-0.436467574708 3.39460087324 0)
(-0.398994045295 3.48797202139 0)
(-0.362153753239 3.57276046182 0)
(-0.326073934155 3.64915320996 0)
(-0.290862404158 3.71736209149 0)
(-0.256607916368 3.77761916151 0)
(-0.223382607599 3.83017251277 0)
(-0.191242514553 3.8752825164 0)
(-0.160230114215 3.91321845468 0)
(-0.130374812223 3.94425556161 0)
(-0.101695419277 3.96867242376 0)
(-0.0742004956905 3.98674873558 0)
(-0.0478906612255 3.99876341321 0)
(-0.0227587984609 4.00499219905 0)
(0.00120799830722 4.00571352373 0)
(0.0240318907408 4.00119796148 0)
(0.0457353336604 3.99170064435 0)
(0.0663436511868 3.97747171698 0)
(0.0858850498617 3.95875991486 0)
(0.104390564142 3.93580561172 0)
(0.121892380142 3.90884107901 0)
(0.138424447494 3.87809048738 0)
(0.154021014348 3.84376973082 0)
(0.168717336591 3.80608636104 0)
(0.182548328569 3.76523960147 0)
(0.195549367044 3.72142039888 0)
(0.207755039465 3.67481152903 0)
(0.219200017411 3.62558772138 0)
(0.229917886117 3.57391582622 0)
(0.23994206438 3.51995498674 0)
(0.24930470103 3.46385684472 0)
(0.258037622361 3.40576573767 0)
(0.266171285147 3.34581892484 0)
(0.273735735357 3.28414679661 0)
(0.280759609645 3.22087310936 0)
(0.287271092673 3.15611519547 0)
(0.293296962079 3.08998419774 0)
(0.298863533605 3.02258527515 0)
(0.303995745878 2.95401783235 0)
(0.308718085109 2.8843757155 0)
(0.313053708157 2.81374743295 0)
(0.317025339704 2.74221634062 0)
(0.320654432625 2.66986085306 0)
(0.323962032303 2.59675461603 0)
(0.326967974808 2.52296670681 0)
(0.329691713643 2.4485617956 0)
(0.332151556302 2.37360033594 0)
(0.334365449865 2.29813871421 0)
(0.33635025758 2.22222943044 0)
(0.338122500034 2.14592123819 0)
(0.339697673178 2.06925931727 0)
(0.34109094249 1.99228540399 0)
(0.342316504658 1.91503795656 0)
(0.343388232323 1.83755227806 0)
(0.3443190812 1.75986067614 0)
(0.345121683426 1.68199257896 0)
(0.345807802444 1.60397468995 0)
(0.346388873164 1.52583109897 0)
(0.346875506316 1.44758343331 0)
(0.347277973977 1.36925096419 0)
(0.347605765326 1.2908507548 0)
(0.347868016413 1.21239776381 0)
(0.34807311842 1.13390499152 0)
(0.348229090744 1.05538358126 0)
(0.348343243218 0.976842963432 0)
(0.348422491698 0.898290956286 0)
(0.348473075783 0.819733904468 0)
(0.348500816564 0.741176772583 0)
(0.348510894361 0.66262327489 0)
(0.34850805428 0.584075948058 0)
(0.348496460938 0.505536271372 0)
(0.348479885698 0.427004801452 0)
(0.348461691878 0.348480925459 0)
(0.348444607518 0.269966307452 0)
(0.348415268263 0.191399813625 0)
(0.347812768549 0.113514709384 0)
(0.327976587792 0.0354346037646 0)
(-1.11699663757 0.102553840673 0)
(-1.18107520341 0.32764944591 0)
(-1.17419666118 0.551327292031 0)
(-1.1599839176 0.774478440142 0)
(-1.14106316792 0.994049746526 0)
(-1.11778933324 1.20928190496 0)
(-1.09046096357 1.41932471532 0)
(-1.0594111947 1.62339916729 0)
(-1.02500347803 1.82080674279 0)
(-0.987622526961 2.01093360621 0)
(-0.947664819445 2.1932530365 0)
(-0.905530115372 2.3673257517 0)
(-0.861613405174 2.5327983235 0)
(-0.816298377252 2.68939995463 0)
(-0.769951556294 2.83693797949 0)
(-0.722918121161 2.9752923861 0)
(-0.675518355527 3.10440969408 0)
(-0.628045695977 3.22429644092 0)
(-0.580765196928 3.33501253574 0)
(-0.533913377227 3.43666465488 0)
(-0.487698196353 3.52939984986 0)
(-0.442300160895 3.61339946582 0)
(-0.397873279755 3.6888734648 0)
(-0.354546921858 3.75605519149 0)
(-0.312427290654 3.81519661838 0)
(-0.271599626628 3.86656406768 0)
(-0.23212985675 3.91043441124 0)
(-0.19406685307 3.94709172265 0)
(-0.157444027011 3.97682436184 0)
(-0.122281463349 3.99992245592 0)
(-0.0885873269441 4.0166757534 0)
(-0.0563597557096 4.02737179019 0)
(-0.0255881746673 4.03229379063 0)
(0.00374624535246 4.03172861818 0)
(0.0316715047448 4.02595011093 0)
(0.0582161881648 4.0152171676 0)
(0.0834128752881 3.99978304689 0)
(0.10729766007 3.97989946809 0)
(0.129909436535 3.95580896664 0)
(0.151288867362 3.92774538941 0)
(0.171478149747 3.89593400634 0)
(0.190520207413 3.86059139333 0)
(0.20845859954 3.82192543296 0)
(0.225336851956 3.78013538136 0)
(0.241198487528 3.73541197312 0)
(0.256086466704 3.68793756535 0)
(0.27004331013 3.63788630631 0)
(0.283110625191 3.58542433028 0)
(0.295329296837 3.53070996381 0)
(0.306739079391 3.47389394872 0)
(0.317378835185 3.41511966752 0)
(0.327286176416 3.35452337961 0)
(0.336497735806 3.29223445287 0)
(0.345048845612 3.2283756018 0)
(0.352973827362 3.16306311668 0)
(0.360305699504 3.09640709711 0)
(0.367076476673 3.02851167327 0)
(0.373316898697 2.95947523023 0)
(0.379056731611 2.88939061813 0)
(0.384324513934 2.81834536535 0)
(0.389147853986 2.74642187629 0)
(0.393553189693 2.67369763214 0)
(0.397566077722 2.60024537592 0)
(0.401210965409 2.52613330129 0)
(0.404511468754 2.45142522538 0)
(0.407490154876 2.37618076609 0)
(0.410168806359 2.30045550355 0)
(0.412568214338 2.22430114728 0)
(0.414708427678 2.14776568764 0)
(0.416608556319 2.07089355385 0)
(0.418287003888 1.99372575662 0)
(0.419761282223 1.91630003861 0)
(0.421048226635 1.83865100977 0)
(0.422163821892 1.76081029141 0)
(0.423123399376 1.68280664536 0)
(0.423941475717 1.60466611307 0)
(0.424631931478 1.52641214 0)
(0.425207862973 1.44806571068 0)
(0.425681742076 1.36964546909 0)
(0.426065282387 1.2911678508 0)
(0.426369580036 1.21264720035 0)
(0.426604994662 1.13409590153 0)
(0.426781271148 1.05552449309 0)
(0.426907436529 0.976941797047 0)
(0.426991902863 0.898355034199 0)
(0.427042381425 0.819769947787 0)
(0.427065967805 0.741190913893 0)
(0.427069077379 0.662621058004 0)
(0.427057518501 0.584062355787 0)
(0.427036459041 0.505515752849 0)
(0.427010502736 0.426981323565 0)
(0.426983694021 0.348458061702 0)
(0.426958986537 0.269947462408 0)
(0.426918896336 0.191387474594 0)
(0.426174947792 0.113508589639 0)
(0.401860807048 0.0354327773837 0)
(-1.33304617377 0.105004962212 0)
(-1.40943232209 0.335488125479 0)
(-1.40105242182 0.56448365582 4.41337324985e-26)
(-1.38381040853 0.79280494294 0)
(-1.36086465701 1.01729865393 0)
(-1.33265567799 1.23715405139 0)
(-1.2995564683 1.45147144707 0)
(-1.2619817895 1.65943288064 0)
(-1.22038268197 1.86031150494 0)
(-1.17523482285 2.0534757233 0)
(-1.12702675714 2.23839111489 0)
(-1.07624908417 2.41461990824 0)
(-1.02338470176 2.58181827849 0)
(-0.968900605983 2.73973186754 0)
(-0.913241065437 2.88818995195 0)
(-0.856822477419 3.02709865408 0)
(-0.800029532774 3.15643357199 0)
(-0.743212880659 3.27623213945 0)
(-0.686687813508 3.38658598615 0)
(-0.630734123046 3.48763349904 0)
(-0.575596612601 3.57955274575 0)
(-0.521486429184 3.66255486187 0)
(-0.468582710436 3.73687797465 0)
(-0.417034750472 3.80278169335 0)
(-0.36696420958 3.86054217995 0)
(-0.318467619201 3.91044778578 0)
(-0.271618740833 3.95279523329 0)
(-0.226471073946 3.9878863063 0)
(-0.183060100391 4.0160250131 0)
(-0.141405593673 4.03751517633 0)
(-0.101513605664 4.05265842762 0)
(-0.0633784458498 4.06175240293 0)
(-0.0269846022853 4.06508934425 0)
(0.00769421385953 4.06296610201 0)
(0.0406924339714 4.05565909471 0)
(0.0720456100031 4.04343222002 0)
(0.101794557881 4.02654257514 0)
(0.12998393273 4.00524511169 0)
(0.156661286651 3.97978475948 0)
(0.18187620178 3.95039709065 0)
(0.205679737386 3.9173085371 0)
(0.228123778975 3.88073635337 0)
(0.249260664682 3.8408886933 0)
(0.269142696849 3.79796474199 0)
(0.287821910536 3.75215488054 0)
(0.305349710372 3.70364088005 0)
(0.321776748031 3.65259611638 0)
(0.337152654654 3.59918580147 0)
(0.351525999342 3.54356722477 0)
(0.364944092747 3.48589000266 0)
(0.377453004326 3.42629632982 0)
(0.389097417791 3.36492123299 0)
(0.399920689211 3.30189282197 0)
(0.4099647393 3.23733253906 0)
(0.419270138804 3.17135540217 0)
(0.427876026312 3.10407024442 0)
(0.435820210347 3.03557994556 0)
(0.443139104193 2.96598165894 0)
(0.449867837061 2.89536702888 0)
(0.456040199881 2.8238224034 0)
(0.461688759671 2.75142903742 0)
(0.466844811954 2.67826329134 0)
(0.471538494357 2.60439682 0)
(0.475798742807 2.52989675767 0)
(0.479653401378 2.45482589408 0)
(0.483129180386 2.3792428472 0)
(0.486251760631 2.30320222725 0)
(0.489045752429 2.22675479852 0)
(0.491534792916 2.1499476333 0)
(0.493741505494 2.07282426433 0)
(0.495687589542 1.99542482983 0)
(0.497393780303 1.91778621799 0)
(0.498879930567 1.83994220492 0)
(0.500164971184 1.76192359284 0)
(0.501266984638 1.68375834193 0)
(0.502203166704 1.60547170345 0)
(0.502989891913 1.52708634715 0)
(0.503642676832 1.44862249051 0)
(0.504176237609 1.37009802225 0)
(0.504604455526 1.29152862885 0)
(0.504940426861 1.21292791528 0)
(0.505196431266 1.13430752982 0)
(0.505383974296 1.05567728345 0)
(0.50551375948 0.977045273144 0)
(0.505595724157 0.898418001672 0)
(0.505639016449 0.819800496763 0)
(0.505652025824 0.741196427411 0)
(0.505642367754 0.662608220341 0)
(0.505616912122 0.584037165015 0)
(0.505581780638 0.505483536548 0)
(0.505542375855 0.426946786975 0)
(0.505503365846 0.348425278327 0)
(0.505467978673 0.269919920082 0)
(0.505414995374 0.191367505278 0)
(0.504529163149 0.113495258552 0)
(0.475742235097 0.0354275101255 0)
(-1.5547329649 0.107948157169 0)
(-1.64370223282 0.344896541278 0)
(-1.63368388544 0.58027147106 -4.37683872756e-26)
(-1.61317896175 0.81479075515 0)
(-1.58590481915 1.04517523832 0)
(-1.55239813603 1.27055033147 0)
(-1.51311722662 1.489956532 0)
(-1.4685702157 1.70252939017 0)
(-1.41930764842 1.90750902258 0)
(-1.36590777129 2.10424406844 0)
(-1.30896193021 2.29219288505 0)
(-1.24906118975 2.47092183371 0)
(-1.18678454305 2.64010107704 0)
(-1.12268904943 2.79949842947 0)
(-1.05730191116 2.94897180047 0)
(-0.991114552805 3.08846072944 0)
(-0.924578489818 3.21797745436 0)
(-0.858102894362 3.33759788109 0)
(-0.792053538986 3.44745274503 0)
(-0.726752976372 3.54771918193 0)
(-0.662481620335 3.63861285884 0)
(-0.599479605269 3.72038075976 0)
(-0.537949123584 3.7932946742 0)
(-0.478057168471 3.85764540146 0)
(-0.419938433863 3.91373765573 0)
(-0.363698355144 3.96188563967 0)
(-0.309416093052 4.00240924061 0)
(-0.257147492808 4.03563079762 0)
(-0.20692786173 4.06187238417 0)
(-0.158774633774 4.08145354687 0)
(-0.112689798725 4.09468948858 0)
(-0.0686621312238 4.10188927315 0)
(-0.0266695912614 4.10335565525 0)
(0.0133236030498 4.09939688091 0)
(0.0513587405647 4.09029081559 0)
(0.0874795762201 4.07630764722 0)
(0.121736231888 4.05770897596 0)
(0.154182768965 4.03475312414 0)
(0.184876196403 4.00768753617 0)
(0.213875627496 3.97674956354 0)
(0.241241579359 3.94216677928 0)
(0.26703533005 3.90415703741 0)
(0.291318430872 3.862928637 0)
(0.314152249096 3.81868052985 0)
(0.335597640878 3.77160255208 0)
(0.355714634588 3.72187567583 0)
(0.374562226056 3.6696722748 0)
(0.392198167942 3.61515639889 0)
(0.408678855804 3.55848405292 0)
(0.424059195238 3.49980347715 0)
(0.438392553482 3.43925542583 0)
(0.451730682386 3.37697344298 0)
(0.464123715952 3.31308413216 0)
(0.475620131898 3.24770742055 0)
(0.486266779945 3.180956815 0)
(0.496108869213 3.1129396509 0)
(0.505190016011 3.04375733191 0)
(0.513552247288 2.97350556188 0)
(0.521236059468 2.90227456742 0)
(0.528280431163 2.8301493129 0)
(0.534722887067 2.75720970623 0)
(0.540599514865 2.68353079752 0)
(0.545945029861 2.60918296919 0)
(0.550792792883 2.53423211976 0)
(0.555174872828 2.45873983987 0)
(0.559122063261 2.38276358267 0)
(0.562663940968 2.30635682754 0)
(0.565828880105 2.22956923899 0)
(0.568644105727 2.1524468198 0)
(0.571135704732 2.07503206024 0)
(0.573328673776 1.9973640823 0)
(0.575246926975 1.91947878099 0)
(0.576913338105 1.84140896141 0)
(0.578349745093 1.76318447365 0)
(0.579576986588 1.6848323441 0)
(0.580614903725 1.60637690548 0)
(0.58148237137 1.52783992377 0)
(0.582197297564 1.44924072447 0)
(0.582776649815 1.37059631607 0)
(0.583236452879 1.29192151377 0)
(0.583591810596 1.21322906037 0)
(0.583856902523 1.13452974853 0)
(0.584045001891 1.05583254082 0)
(0.584168471922 0.977144690789 0)
(0.584238780661 0.898471863825 0)
(0.584266498011 0.819818255131 0)
(0.584261308547 0.741186708212 0)
(0.584232010892 0.662578828907 0)
(0.584186530267 0.583995099224 0)
(0.58413192041 0.50543499806 0)
(0.584074372755 0.426897168577 0)
(0.584019192981 0.348379169722 0)
(0.583969958576 0.269881196929 0)
(0.583901929361 0.191338689413 0)
(0.582873421774 0.113475530868 0)
(0.549615479454 0.0354198183341 0)
(-1.78312423222 0.111426070285 0)
(-1.88500532869 0.356007951767 0)
(-1.87318000582 0.598909759823 0)
(-1.84912399571 0.840734365589 0)
(-1.81714758234 1.07804806026 0)
(-1.7778975965 1.30989811305 0)
(-1.73193171559 1.53525351479 0)
(-1.67986632007 1.75319520915 0)
(-1.62236646819 1.9629256809 0)
(-1.56012740892 2.16377250713 0)
(-1.49385653495 2.35518845135 0)
(-1.42425704992 2.5367480911 0)
(-1.35201385901 2.70814159439 0)
(-1.27778197471 2.8691663747 0)
(-1.20217747929 3.01971731812 0)
(-1.1257709778 3.15977620492 0)
(-1.04908331064 3.289400854 0)
(-0.972583276434 3.40871440974 0)
(-0.896687027068 3.51789508884 0)
(-0.821758844812 3.61716660578 0)
(-0.748112969215 3.70678941665 0)
(-0.676016224805 3.78705285084 0)
(-0.60569117807 3.85826815132 0)
(-0.537319647217 3.92076240289 0)
(-0.471046367202 3.97487330468 0)
(-0.406982705937 4.02094472303 0)
(-0.345210299756 4.05932295449 0)
(-0.28578456301 4.0903536225 0)
(-0.228737989792 4.11437913466 0)
(-0.174083244365 4.13173662103 0)
(-0.121816000992 4.14275636255 0)
(-0.0719174855865 4.14775996241 0)
(-0.024357374627 4.14706212956 0)
(0.0209120266808 4.14098374621 0)
(0.0639392352869 4.12980255714 0)
(0.104777775882 4.11379634278 0)
(0.143488243044 4.0932317434 0)
(0.180135066826 4.06837046132 0)
(0.214785567657 4.03946245994 0)
(0.247509101453 4.00674681733 0)
(0.278376269655 3.97045212985 0)
(0.307458248144 3.93079668583 0)
(0.33482624508 3.88798872796 0)
(0.360551037067 3.84222674536 0)
(0.384702603964 3.7936997794 0)
(0.407349819597 3.74258773972 0)
(0.428560220487 3.68906172532 0)
(0.448399811575 3.63328434649 0)
(0.46693293329 3.57541004434 0)
(0.484222150891 3.51558540538 0)
(0.500328192057 3.45394946918 0)
(0.515309895313 3.39063402766 0)
(0.529224196518 3.32576391505 0)
(0.542126117595 3.25945728778 0)
(0.554068785582 3.19182589375 0)
(0.565103447533 3.12297533108 0)
(0.57527950984 3.05300529599 0)
(0.584644568885 2.9820098204 0)
(0.593244461738 2.910077499 0)
(0.601123305021 2.83729170663 0)
(0.608323550546 2.76373080603 0)
(0.614886027111 2.68946834686 0)
(0.620849996684 2.61457325596 0)
(0.626253195556 2.53911001993 0)
(0.631131888106 2.46313886021 0)
(0.635520905014 2.38671590148 0)
(0.639453692803 2.30989333363 0)
(0.642962347811 2.23271956818 0)
(0.646077660466 2.15523938934 0)
(0.648829144361 2.07749410053 0)
(0.651245074891 1.99952166646 0)
(0.653352513302 1.92135685166 0)
(0.655177339647 1.84303135543 0)
(0.656744272015 1.76457394419 0)
(0.658076894092 1.68601058082 0)
(0.659197670002 1.60736455224 0)
(0.660127966911 1.52865659471 0)
(0.66088806602 1.44990501788 0)
(0.661497180774 1.37112582691 0)
(0.661973464664 1.29233284425 0)
(0.662334025643 1.21353782946 0)
(0.662594931396 1.13475059997 0)
(0.662771220645 1.0559791503 0)
(0.662876906678 0.977229772077 0)
(0.662924986299 0.89850717471 0)
(0.662927442456 0.819814602388 0)
(0.662895251722 0.741153952854 0)
(0.662838386888 0.662525893466 0)
(0.662765823109 0.583929968919 0)
(0.66268554045 0.505364721383 0)
(0.662604524626 0.426827880416 0)
(0.662528733247 0.348316048638 0)
(0.662462153332 0.269828491213 0)
(0.662376640286 0.191299312654 0)
(0.661204185503 0.113449070341 0)
(0.623475903982 0.0354098839918 0)
(-2.01938432315 0.115490022304 0)
(-2.13456045333 0.368984497177 0)