/*--------------------------------*- C++ -*----------------------------------*\
| =========                 |                                                 |
| \\      /  F ield         | OpenFOAM: The Open Source CFD Toolbox           |
|  \\    /   O peration     | Version:  v1906                                 |
|   \\  /    A nd           | Web:      www.OpenFOAM.com                      |
|    \\/     M anipulation  |                                                 |
\*---------------------------------------------------------------------------*/
FoamFile
{
    version     2.0;
    format      ascii;
    class       volVectorField;
    location    "382";
    object      U;
}
// * * * * * * * * * * * * * * * * * * * * * * * * * * * * * * * * * * * * * //

dimensions      [0 1 -1 0 0 0 0];


internalField   nonuniform List<vector> 
9216
(
(0.00155834449997 -0.00155957222911 0)
(0.0015979504084 -0.0048597519231 6.54643359626e-28)
(0.00158655293193 -0.00816794030245 1.08201017391e-31)
(0.00156333346857 -0.0114557785136 0)
(0.0015320934586 -0.014684762447 0)
(0.00149367352429 -0.0178408075078 0)
(0.00144888744958 -0.0209098321034 0)
(0.00139857419061 -0.0238794329689 0)
(0.00134347721119 -0.0267388830488 0)
(0.00128444230371 -0.0294790747979 0)
(0.00122217415786 -0.032092565293 0)
(0.00115746804733 -0.0345734381045 0)
(0.00109092164216 -0.036917277249 0)
(0.00102322081326 -0.039120963794 0)
(0.000954812112357 -0.0411826061888 0)
(0.00088624530338 -0.0431013058092 0)
(0.000817803442703 -0.0448770782858 0)
(0.00074990176852 -0.0465106184188 0)
(0.000682671156985 -0.0480032366366 0)
(0.000616412053239 -0.049356641303 0)
(0.000551126627728 -0.0505729036668 0)
(0.000487027557668 -0.0516542660373 0)
(0.000424015781308 -0.052603138107 0)
(0.000362244211061 -0.053421931097 0)
(0.000301538336451 -0.0541130842141 0)
(0.00024201625887 -0.054678922968 0)
(0.000183451110081 -0.0551217112082 0)
(0.000125948396265 -0.0554435301148 0)
(6.92492207139e-05 -0.0556463534774 0)
(1.34669754214e-05 -0.0557319448665 0)
(-4.16718145983e-05 -0.0557019625014 0)
(-9.6030914528e-05 -0.0555578547404 0)
(-0.000149875977774 -0.0553009927192 0)
(-0.000203022993373 -0.0549326077711 0)
(-0.000255712743687 -0.0544539225605 0)
(-0.000307698626902 -0.053866111787 0)
(-0.000359179001327 -0.05317045023 0)
(-0.000409830089008 -0.052368293443 0)
(-0.000459794665723 -0.051461232852 0)
(-0.000508664272348 -0.0504510911541 0)
(-0.000556521166897 -0.0493400739624 0)
(-0.00060287431192 -0.0481307755078 0)
(-0.000647747008217 -0.0468263126789 0)
(-0.000690573512138 -0.0454303393714 0)
(-0.000731320803191 -0.0439471564384 0)
(-0.000769354179193 -0.0423817458133 0)
(-0.000804576396699 -0.0407398581118 0)
(-0.000836277490882 -0.0390280854783 0)
(-0.000864275939253 -0.0372539370268 0)
(-0.0008877771204 -0.0354259603321 0)
(-0.000906508257301 -0.0335537906258 0)
(-0.000919621652968 -0.0316482760072 0)
(-0.000926824145367 -0.0297214263456 0)
(-0.000927355796364 -0.027786416016 0)
(-0.000921103507243 -0.0258573048666 0)
(-0.000907645559456 -0.0239487762479 0)
(-0.000887305366509 -0.0220755865331 0)
(-0.000860200516564 -0.0202520715249 0)
(-0.000827187855725 -0.0184915078516 0)
(-0.000788877595516 -0.0168056491821 0)
(-0.000746479485406 -0.0152042981229 0)
(-0.000700812196108 -0.0136951386277 0)
(-0.000653131519864 -0.0122836506351 0)
(-0.000604204295107 -0.010973213995 0)
(-0.00055515413108 -0.00976521066853 0)
(-0.000506580541563 -0.00865924557953 0)
(-0.000459391046095 -0.00765332550477 0)
(-0.000413955239603 -0.00674415505479 0)
(-0.000370922373588 -0.00592734434887 0)
(-0.000330429158707 -0.00519772564985 0)
(-0.000292893376157 -0.00454951345441 0)
(-0.000258269847148 -0.00397657914939 0)
(-0.000226791629502 -0.00347255193972 0)
(-0.000198266321715 -0.00303106824429 0)
(-0.000172765336161 -0.00264584625352 0)
(-0.000149982020518 -0.00231090493186 0)
(-0.000129877702487 -0.00202058126473 0)
(-0.000112096055446 -0.00176967769458 0)
(-9.65498027789e-05 -0.00155341468469 0)
(-8.28736853165e-05 -0.00136752589196 0)
(-7.09363586142e-05 -0.0012082077873 0)
(-6.02851789863e-05 -0.00107224594742 0)
(-5.03446259034e-05 -0.000957875341727 0)
(-3.92824385603e-05 -0.000855666880675 0)
(-3.40323133447e-05 -0.000783862956649 0)
(-3.35170650148e-05 -0.000719683616047 0)
(-3.01767628634e-05 -0.000651115331047 0)
(-2.5932887603e-05 -0.000596200112486 0)
(-2.64163302178e-05 -0.000550081209495 0)
(-2.91670603046e-05 -0.000495396902302 0)
(-2.97186357112e-05 -0.0004398662719 0)
(-3.07216755254e-05 -0.000379569269083 0)
(-3.55365847936e-05 -0.000312867577284 0)
(-4.08937176117e-05 -0.000238926254542 0)
(-4.63920484455e-05 -0.000148266283574 0)
(-4.94718573391e-05 -4.7686235727e-05 0)
(0.00487245364978 -0.00161568024412 0)
(0.00513329437311 -0.00517235971994 0)
(0.00509380927547 -0.00869768479267 -6.73148572569e-28)
(0.00501757033257 -0.0122037239812 0)
(0.00491613722649 -0.0156436337244 0)
(0.0047921043189 -0.019004202189 0)
(0.00464779807737 -0.0222707519185 0)
(0.00448575565405 -0.0254301907162 0)
(0.0043084424575 -0.0284711390048 0)
(0.00411848341563 -0.0313839826105 0)
(0.003918262836 -0.0341608846731 0)
(0.00371022450489 -0.0367956874788 0)
(0.0034964245682 -0.039283826572 0)
(0.00327892720481 -0.0416221575196 0)
(0.00305931730031 -0.0438088210361 0)
(0.0028391936594 -0.0458430399805 0)
(0.0026196335103 -0.0477249754587 0)
(0.002401777711 -0.0494555275415 0)
(0.00218623541488 -0.0510362089837 0)
(0.00197375426779 -0.0524689692201 0)
(0.0017645539575 -0.0537560986821 0)
(0.0015590769702 -0.0549000833596 0)
(0.00135724320112 -0.0559035425074 0)
(0.00115927940788 -0.0567691134532 0)
(0.000964889821837 -0.0574994200099 0)
(0.000774165401584 -0.0580969837772 0)
(0.000586668579591 -0.058564218874 0)
(0.000402424283749 -0.0589033659815 0)
(0.000220918145088 -0.0591165097064 0)
(4.21723145255e-05 -0.0592055343116 0)
(-0.000134344611335 -0.059172154614 0)
(-0.000308555568043 -0.0590179107575 0)
(-0.000480945240736 -0.058744213089 0)
(-0.00065131574043 -0.0583523405009 0)
(-0.000820045173015 -0.057843522949 0)
(-0.000986758416122 -0.057218960123 0)
(-0.00115167083926 -0.0564799217017 0)
(-0.00131418203541 -0.0556277849834 0)
(-0.00147430403579 -0.0546641474373 0)
(-0.00163118562814 -0.05359087629 0)
(-0.00178462128393 -0.0524102225033 0)
(-0.0019335132292 -0.0511248729463 0)
(-0.00207744904029 -0.0497380532011 0)
(-0.00221510837758 -0.0482535764121 0)
(-0.00234588755442 -0.046675929532 0)
(-0.00246825785249 -0.0450103253361 0)
(-0.00258140747797 -0.0432627810557 0)
(-0.00268356977559 -0.0414401953584 0)
(-0.00277366174902 -0.0395504398152 0)
(-0.00284962795432 -0.0376024791955 0)
(-0.00291008453225 -0.0356064731393 0)
(-0.00295276280675 -0.0335739017052 0)
(-0.0029761987222 -0.031517592838 0)
(-0.00297835397533 -0.029451707362 0)
(-0.0029583499103 -0.0273915140409 0)
(-0.00291522236241 -0.0253530468814 0)
(-0.00284955398191 -0.0233525271626 0)
(-0.0027621551713 -0.0214057229463 0)
(-0.0026554063829 -0.0195272360562 0)
(-0.00253174506784 -0.0177299033857 0)
(-0.00239472956153 -0.0160243395702 0)
(-0.00224744398458 -0.0144187384542 0)
(-0.00209356890737 -0.0129188529093 0)
(-0.00193597250718 -0.0115281225862 0)
(-0.00177789590604 -0.010247832418 0)
(-0.00162164858383 -0.00907733153499 0)
(-0.00146977901249 -0.00801426118299 0)
(-0.00132383316787 -0.00705485220145 0)
(-0.00118553027364 -0.00619420236882 0)
(-0.00105563907378 -0.00542658620631 0)
(-0.00093515286524 -0.00474567541604 0)
(-0.00082424214783 -0.00414477472288 0)
(-0.00072333625552 -0.00361697139429 0)
(-0.000632111602453 -0.00315534553828 0)
(-0.000550494416527 -0.00275311413055 0)
(-0.000477762006469 -0.00240381837874 0)
(-0.000413509069988 -0.00210140061558 0)
(-0.000356836427736 -0.00184029872903 0)
(-0.000307222314923 -0.00161543531313 0)
(-0.000263750943177 -0.00142223997588 0)
(-0.000225865171436 -0.00125657857922 0)
(-0.000192579626855 -0.00111468013008 0)
(-0.000163003030761 -0.000992934237828 0)
(-0.000134547726365 -0.000886540435956 0)
(-0.000114089798843 -0.000780218734036 0)
(-0.000105757457379 -0.00070874043923 0)
(-9.04553352922e-05 -0.000634979179349 0)
(-7.79122904563e-05 -0.000583343977836 0)
(-7.7343652636e-05 -0.000528710031914 0)
(-8.42017390584e-05 -0.000485356747814 0)
(-8.85107440833e-05 -0.000438599914942 0)
(-9.48265722215e-05 -0.000375228084284 0)
(-0.000105857080699 -0.000306972394511 0)
(-0.000132120466121 -0.000245157379429 0)
(-0.000162050956381 -0.000157754470539 0)
(-0.000145680660441 -4.3341484449e-05 0)
(0.00824595142026 -0.00163699115915 0)
(0.00869181664986 -0.00523765008984 0)
(0.00861745283675 -0.00879977222713 -6.72202541179e-28)
(0.00848517344674 -0.012345113306 0)
(0.00831135286933 -0.01582214767 0)
(0.00809957122905 -0.0192170091449 0)
(0.00785361146036 -0.0225145663832 0)
(0.00757765583181 -0.0257015016287 0)
(0.00727601350526 -0.0287663338655 0)
(0.00695307384902 -0.031699472854 0)
(0.00661304173318 -0.0344931955998 0)
(0.0062599618785 -0.0371415492427 0)
(0.00589748007564 -0.0396402250206 0)
(0.00552894759911 -0.0419863849995 0)
(0.00515720917902 -0.0441784877003 0)
(0.00478478232326 -0.0462160898543 0)
(0.00441365889649 -0.0480996680337 0)
(0.00404554460419 -0.0498304314621 0)
(0.00368165596895 -0.0514101667656 0)
(0.00332300434143 -0.052841080575 0)
(0.00297017227857 -0.0541256790311 0)
(0.00262363081997 -0.055266645661 0)
(0.0022834847386 -0.0562667561463 0)
(0.00194981744729 -0.057128788805 0)
(0.00162240005265 -0.0578554703356 0)
(0.00130106301525 -0.058449413732 0)
(0.00098536801815 -0.05891308935 0)
(0.000675008284571 -0.0592487853259 0)
(0.000369444451132 -0.0594586004007 0)
(6.8336256248e-05 -0.0595444246522 0)
(-0.000228854338477 -0.0595079534356 0)
(-0.000522397792693 -0.0593506856089 0)
(-0.000812728778119 -0.0590739600042 0)
(-0.0010999450846 -0.0586789780709 0)
(-0.00138427246498 -0.0581668602517 0)
(-0.00166553289163 -0.0575386912542 0)
(-0.00194364677898 -0.0567955987122 0)
(-0.00221807539999 -0.0559388185545 0)
(-0.0024883646406 -0.0549697891951 0)
(-0.00275356868824 -0.0538902283299 0)
(-0.00301283711648 -0.0527022310662 0)
(-0.00326482345954 -0.0514083450946 0)
(-0.00350830864317 -0.0500116575653 0)
(-0.0037415902409 -0.0485158571434 0)
(-0.00396312219528 -0.0469253027962 0)
(-0.00417087260337 -0.0452450765456 0)
(-0.00436295198746 -0.0434810475436 0)
(-0.00453693526947 -0.0416399444355 0)
(-0.00469046993558 -0.0397294530978 0)
(-0.00482060148248 -0.0377583490395 0)
(-0.0049244143346 -0.0357366521856 0)
(-0.00499847592551 -0.0336758027531 0)
(-0.00503963174394 -0.0315887880189 0)
(-0.00504470123165 -0.0294901867761 0)
(-0.00501148017872 -0.02739601018 0)
(-0.0049386118501 -0.0253233184092 0)
(-0.00482653017937 -0.0232895647642 0)
(-0.00467708555681 -0.0213117774193 0)
(-0.00449402952508 -0.0194056892333 0)
(-0.0042821763042 -0.0175849631735 0)
(-0.00404740118452 -0.0158606578076 0)
(-0.00379555771585 -0.0142410538293 0)
(-0.00353258806854 -0.0127317526943 0)
(-0.00326382517405 -0.0113359003448 0)
(-0.00299440125376 -0.0100544026637 0)
(-0.00272866157073 -0.00888614363399 0)
(-0.00247055254337 -0.00782824044209 0)
(-0.00222306484114 -0.00687636100685 0)
(-0.00198869424629 -0.00602506419284 0)
(-0.00176904728142 -0.00526813329847 0)
(-0.00156539888996 -0.00459882425939 0)
(-0.00137834799764 -0.00401006179212 0)
(-0.00120827497678 -0.00349458410331 0)
(-0.00105492589485 -0.00304512709838 0)
(-0.000917825697896 -0.00265461875989 0)
(-0.000795984400529 -0.00231637371469 0)
(-0.000688380238244 -0.00202420081301 0)
(-0.000593720473504 -0.00177246290685 0)
(-0.000510851314535 -0.00155606763351 0)
(-0.000438492629815 -0.00137044797531 0)
(-0.000375579060445 -0.00121149355753 0)
(-0.000321002844356 -0.00107545179889 0)
(-0.000273956725356 -0.000958766752949 0)
(-0.000234125603849 -0.000858028946094 0)
(-0.000200268255886 -0.00075507034626 0)
(-0.000179411383479 -0.000688871708909 0)
(-0.000158623324062 -0.000631168335555 0)
(-0.000136531800421 -0.000556302492305 0)
(-0.000124262464373 -0.000491676146253 0)
(-0.000130210274232 -0.000454032211767 0)
(-0.000151763159447 -0.000424567419153 0)
(-0.000157695258327 -0.000340395345768 0)
(-0.000181949928472 -0.000282818747673 0)
(-0.000214552641429 -0.000207880577473 0)
(-0.00024245254102 -0.000125977331764 0)
(-0.000235451715176 -3.90458826177e-05 0)
(0.0116847572539 -0.00166336862838 0)
(0.0123214774181 -0.00532023551122 0)
(0.0122141864274 -0.00893500797538 6.72113656309e-28)
(0.0120238077963 -0.0125317844454 0)
(0.0117739656365 -0.0160568058044 0)
(0.0114699694569 -0.0194954177076 0)
(0.01111736721 -0.0228318929049 0)
(0.0107222262389 -0.0260525769897 0)
(0.0102908522494 -0.029145862678 0)
(0.00982958174984 -0.0321022230997 0)
(0.00934453717132 -0.0349141521282 0)
(0.00884150016933 -0.0375760402875 0)
(0.00832574166666 -0.0400840084448 0)
(0.00780198740054 -0.0424357077252 0)
(0.00727432092121 -0.044630109274 0)
(0.00674622867457 -0.0466672875126 0)
(0.0062205544783 -0.0485482155948 0)
(0.00569959889652 -0.0502745706076 0)
(0.00518509805651 -0.0518485623043 0)
(0.00467835222825 -0.0532727776289 0)
(0.00418020643016 -0.0545500513492 0)
(0.00369119072185 -0.0556833517381 0)
(0.003211488881 -0.0566756902903 0)
(0.00274108163977 -0.0575300427718 0)
(0.00227969781707 -0.0582492905749 0)
(0.00182695890681 -0.0588361692947 0)
(0.00138231283826 -0.0592932345536 0)
(0.000945182369424 -0.0596228321619 0)
(0.00051488449513 -0.0598270839078 0)
(9.07868542378e-05 -0.0599078760689 0)
(-0.000327783214936 -0.0598668667134 0)
(-0.000741370704516 -0.0597054882486 0)
(-0.0011504929501 -0.0594249781034 0)
(-0.00155545917487 -0.0590264084956 0)
(-0.00195648028999 -0.0585107358396 0)
(-0.00235347981075 -0.0578788566842 0)
(-0.00274621964396 -0.0571316823959 0)
(-0.0031341100408 -0.0562702182635 0)
(-0.00351636001774 -0.0552956576647 0)
(-0.00389179590849 -0.0542094748915 0)
(-0.00425904323137 -0.053013524414 0)
(-0.00461635756752 -0.0517101292582 0)
(-0.00496183333199 -0.0503021649315 0)
(-0.00529323606267 -0.0487931243655 0)
(-0.00560821383078 -0.047187173156 0)
(-0.00590410099315 -0.0454891898922 0)
(-0.00617809298358 -0.043704809475 0)
(-0.00642699309353 -0.0418404797603 0)
(-0.00664733597106 -0.0399035570378 0)
(-0.00683510969289 -0.0379024588794 0)
(-0.00698591419117 -0.0358468849943 0)
(-0.00709482798904 -0.0337480966718 0)
(-0.00715682938863 -0.0316191964622 0)
(-0.00716706114054 -0.029475320031 0)
(-0.00712168028456 -0.0273335864271 0)
(-0.00701845781419 -0.0252126951929 0)
(-0.00685762424431 -0.023132102503 0)
(-0.00664202188869 -0.0211109207558 0)
(-0.00637719908777 -0.0191667405373 0)
(-0.00607074885283 -0.0173145443041 0)
(-0.00573152547368 -0.0155660043287 0)
(-0.00536844972744 -0.0139293954327 0)
(-0.00499005742772 -0.012409960005 0)
(-0.00460417049791 -0.0110103337998 0)
(-0.00421802647979 -0.00973081659796 0)
(-0.00383801951981 -0.00856957082206 0)
(-0.00346967746717 -0.00752287941703 0)
(-0.00311735883157 -0.00658551635404 0)
(-0.00278437979501 -0.00575118712857 0)
(-0.00247299827442 -0.00501293572629 0)
(-0.0021847768857 -0.00436341549374 0)
(-0.00192061928143 -0.00379502506864 0)
(-0.00168093750932 -0.00329998696114 0)
(-0.0014654434935 -0.00287051387881 0)
(-0.00127325866837 -0.00249907500352 0)
(-0.00110293689652 -0.00217865360159 0)
(-0.000952802031805 -0.00190287869505 0)
(-0.000821017450971 -0.00166604641313 0)
(-0.000705802505287 -0.00146308306042 0)
(-0.000605406212857 -0.0012894986885 0)
(-0.000518262111382 -0.00114132438661 0)
(-0.00044296708653 -0.00101504063793 0)
(-0.000378494471749 -0.000907812254681 0)
(-0.00032528438932 -0.000814129974586 0)
(-0.000279651892234 -0.000723173429391 0)
(-0.000249842412596 -0.000663521895154 0)
(-0.000222796428908 -0.000596616072391 0)
(-0.0001971298653 -0.000523013756078 0)
(-0.000187029012944 -0.000474284707858 0)
(-0.000180926045452 -0.000407842625432 0)
(-0.000196053836867 -0.000352755174912 0)
(-0.000234572084706 -0.0003158567196 0)
(-0.000248211318314 -0.000230788718285 0)
(-0.000282802229678 -0.000162591837222 0)
(-0.000317748315469 -9.9840714578e-05 0)
(-0.00031662000678 -3.29049559842e-05 0)
(0.0151857189292 -0.00169867537405 0)
(0.0160131057129 -0.00543180779042 0)
(0.0158706490077 -0.00911966875928 0)
(0.015618605274 -0.0127866401999 0)
(0.0152881174431 -0.0163768405716 0)
(0.0148864873314 -0.0198746222277 0)
(0.0144213013364 -0.0232634977389 0)
(0.0139007896239 -0.0265293729179 0)
(0.013333479587 -0.0296604964249 0)
(0.0127278753704 -0.032647460776 0)
(0.0120921660876 -0.0354830974077 0)
(0.0114340128187 -0.0381623046565 0)
(0.0107603742503 -0.040681829436 0)
(0.0100774167742 -0.043040021037 0)
(0.00939045123949 -0.0452365771754 0)
(0.0087039434886 -0.0472722942955 0)
(0.00802152859231 -0.0491488348636 0)
(0.00734608318666 -0.0508685158634 0)
(0.00667977797442 -0.0524341242997 0)
(0.00602417610589 -0.0538487580369 0)
(0.0053802934771 -0.0551156935513 0)
(0.00474869942143 -0.0562382757624 0)
(0.00412956750934 -0.0572198298211 0)
(0.00352276767278 -0.0580635891614 0)
(0.00292790169781 -0.0587726398618 0)
(0.00234438539646 -0.0593498759544 0)
(0.0017714703663 -0.0597979666616 0)
(0.00120832029205 -0.0601193311851 0)
(0.000654024289047 -0.0603161234859 0)
(0.000107673417086 -0.060390222956 0)
(-0.00043162871446 -0.0603432395359 0)
(-0.00096468341073 -0.060176515285 0)
(-0.00149218550778 -0.0598911534922 0)
(-0.00201463433621 -0.0594880492265 0)
(-0.00253232251735 -0.0589679372948 0)
(-0.00304524462863 -0.0583314534643 0)
(-0.00355309465189 -0.0575792121838 0)
(-0.00405518362748 -0.0567118965635 0)
(-0.00455045950991 -0.0557303612009 0)
(-0.00503744840775 -0.0546357403889 0)
(-0.00551430964909 -0.0534295586217 0)
(-0.00597880856638 -0.0521138326219 0)
(-0.00642840518032 -0.0506911596911 0)
(-0.00686024391769 -0.0491647823419 0)
(-0.00727124340046 -0.0475386286257 0)
(-0.00765805379069 -0.0458173281906 0)
(-0.00801708391598 -0.0440062194755 0)
(-0.00834436246609 -0.0421113706939 0)
(-0.00863545752641 -0.0401396529657 0)
(-0.00888525402259 -0.03809890755 0)
(-0.00908786868129 -0.0359982454002 0)
(-0.00923658145305 -0.0338484856965 0)
(-0.00932412705114 -0.0316626806526 0)
(-0.00934325432486 -0.0294565885118 0)
(-0.0092878127217 -0.0272488494862 0)
(-0.00915399712367 -0.0250605980254 0)
(-0.00894159022277 -0.0229143596136 0)
(-0.00865443690757 -0.0208324810339 0)
(-0.00830044177048 -0.0188354466146 0)
(-0.00789081010147 -0.0169402259027 0)
(-0.00743838225882 -0.0151592057816 0)
(-0.0069556847713 -0.0135003488317 0)
(-0.00645410871642 -0.0119681579393 0)
(-0.00594397422764 -0.0105644809142 0)
(-0.00543478899412 -0.00928879593965 0)
(-0.00493510570219 -0.00813827725827 0)
(-0.00445222179309 -0.00710800632205 0)
(-0.00399183124376 -0.00619143919111 0)
(-0.00355800086465 -0.00538103391584 0)
(-0.00315339113913 -0.00466881994366 0)
(-0.00277973335651 -0.00404669864474 0)
(-0.00243814483639 -0.00350644382371 0)
(-0.00212916702615 -0.00303960160986 0)
(-0.0018524378828 -0.0026376169305 0)
(-0.00160659375265 -0.00229225935818 0)
(-0.00138948821571 -0.00199604559973 0)
(-0.00119865301549 -0.00174239370705 0)
(-0.0010315551415 -0.00152556173612 0)
(-0.000885743576216 -0.00134054270132 0)
(-0.000758897410676 -0.00118298352578 0)
(-0.000648900593049 -0.00104912134171 0)
(-0.000553845830894 -0.000935738530086 0)
(-0.000472115406567 -0.000840976606061 0)
(-0.00040332474802 -0.000754228591699 0)
(-0.000355571647011 -0.000688060235973 0)
(-0.000322134686783 -0.000630525914841 0)
(-0.000297025528429 -0.000568683824537 0)
(-0.000268699482755 -0.000498027263375 0)
(-0.000241239491181 -0.000415601453394 0)
(-0.000241262918706 -0.000363672227848 0)
(-0.000246655965068 -0.000296190963095 0)
(-0.000287547476465 -0.000256808481101 0)
(-0.000333832567241 -0.000204489893118 0)
(-0.000346378876736 -0.000130929241593 0)
(-0.000367307381188 -7.68506690467e-05 0)
(-0.00036638034112 -2.5637204671e-05 0)
(0.0187701790248 -0.00174387977979 0)
(0.019790730128 -0.00557534375939 0)
(0.0196097075488 -0.00935780433186 0)
(0.0192908786281 -0.0131151853633 0)
(0.0188732744271 -0.0167889731483 0)
(0.0183665145918 -0.0203622636444 0)
(0.0177805822278 -0.0238176247944 0)
(0.0171262312848 -0.027140437825 0)
(0.0164145331308 -0.0303188207576 0)
(0.0156564445159 -0.0333435849719 0)
(0.0148624390029 -0.036208067395 0)
(0.0140422258755 -0.0389078889715 0)
(0.0132045490334 -0.0414406652482 0)
(0.0123570734612 -0.0438056951844 0)
(0.0115063361318 -0.0460036504689 0)
(0.0106577619732 -0.048036281301 0)
(0.00981571524626 -0.049906150038 0)
(0.0089835885012 -0.0516163981374 0)
(0.00816389950124 -0.0531705488382 0)
(0.00735840454353 -0.0545723438955 0)
(0.00656820113878 -0.0558256118957 0)
(0.00579383581799 -0.056934163443 0)
(0.00503539210489 -0.057901709436 0)
(0.00429258073265 -0.0587317974311 0)
(0.00356480762222 -0.0594277629434 0)
(0.00285124662084 -0.0599926917621 0)
(0.00215089139047 -0.0604293916396 0)
(0.00146261723505 -0.0607403708728 0)
(0.000785225016096 -0.0609278238601 0)
(0.000117500951914 -0.0609936217728 0)
(-0.0005417391242 -0.0609393163762 0)
(-0.00119358313166 -0.0607661373577 0)
(-0.0018389726252 -0.0604750206594 0)
(-0.0024786284224 -0.0600666362456 0)
(-0.00311299430859 -0.0595414357806 0)
(-0.00374216002447 -0.0588997171761 0)
(-0.00436581026074 -0.0581417082667 0)
(-0.00498316039905 -0.0572676683167 0)
(-0.00559293089241 -0.0562780057796 0)
(-0.00619331834994 -0.0551734063238 0)
(-0.00678201729345 -0.0539549636531 0)
(-0.00735624313264 -0.0526243014893 0)
(-0.00791280606994 -0.0511836744458 0)
(-0.00844817155782 -0.0496360340585 0)
(-0.00895854509534 -0.0479850516729 0)
(-0.00943989774864 -0.0462350960887 0)
(-0.00988795921378 -0.0443911807543 0)
(-0.0102980887164 -0.0424589127949 0)
(-0.0106650695702 -0.040444504766 0)
(-0.0109827786813 -0.0383549229028 0)
(-0.0112438678936 -0.0361982619803 0)
(-0.0114395366444 -0.0339844013002 0)
(-0.0115596804664 -0.0317259123468 0)
(-0.011593636427 -0.0294390455254 0)
(-0.0115317238388 -0.0271443659351 0)
(-0.0113674456587 -0.0248665063711 0)
(-0.0110996252856 -0.0226325730685 0)
(-0.0107331428035 -0.0204698003598 0)
(-0.0102790515312 -0.0184031392745 0)
(-0.00975372553378 -0.0164525080685 0)
(-0.00917575023695 -0.0146309002468 0)
(-0.00856206358329 -0.0129451412881 0)
(-0.00792694402653 -0.011398267144 0)
(-0.00728305816738 -0.00999103015095 0)
(-0.00664231003912 -0.00872196263212 0)
(-0.00601569073393 -0.00758701674448 0)
(-0.00541256899592 -0.00657961671778 0)
(-0.00483999820629 -0.00569130588979 0)
(-0.00430258904064 -0.00491275627564 0)
(-0.00380298406046 -0.00423467635484 0)
(-0.00334278117042 -0.00364817632918 0)
(-0.00292326907791 -0.00314446499728 0)
(-0.00254535392451 -0.0027142854983 0)
(-0.00220869848806 -0.00234794542076 0)
(-0.00191125676144 -0.00203612955834 0)
(-0.00164978757617 -0.00177071656558 0)
(-0.00142075710354 -0.001544948868 0)
(-0.00122078603705 -0.0013531398259 0)
(-0.00104668601744 -0.0011904278391 0)
(-0.000895503883276 -0.00105265790266 0)
(-0.000764556405235 -0.000936274201695 0)
(-0.000651393471847 -0.00083823862454 0)
(-0.000553976286895 -0.000756677884717 0)
(-0.000469456258724 -0.000677002626107 0)
(-0.000418543336929 -0.000621013798976 0)
(-0.000383848677595 -0.000566450918253 0)
(-0.000348560497783 -0.000497369505002 0)
(-0.000331098835476 -0.000446422054742 0)
(-0.0003199775653 -0.000390337938652 0)
(-0.000320017420107 -0.000334378049267 0)
(-0.00030331994178 -0.000252071458066 0)
(-0.000325547537554 -0.00019711071272 0)
(-0.000384377762246 -0.000164200851519 0)
(-0.00040689717132 -0.000112673050585 0)
(-0.000414107822088 -6.37143902004e-05 0)
(-0.000414261796793 -2.12460782431e-05 0)
(0.0224599282199 -0.00180014755562 0)
(0.023677278861 -0.00575415033235 0)
(0.0234530797236 -0.00965447640634 6.6737422916e-28)
(0.0230606045542 -0.0135241239911 0)
(0.0225473013644 -0.0173012351454 0)
(0.0219255499478 -0.0209673142307 0)
(0.0212082088804 -0.0245037798759 0)
(0.0204090297548 -0.0278954207733 0)
(0.0195420570041 -0.0311302819234 0)
(0.018621064842 -0.0341995536281 0)
(0.0176590928363 -0.0370973147924 0)
(0.0166680989806 -0.0398201934167 0)
(0.0156587291964 -0.0423669807121 0)
(0.0146401970881 -0.044738232894 0)
(0.013620254155 -0.0469358877314 0)
(0.0126052338688 -0.0489629143776 0)
(0.0116001449665 -0.0508230076735 0)
(0.0106087988701 -0.0525203310989 0)
(0.00963395066487 -0.054059307909 0)
(0.00867744578394 -0.0554444562198 0)
(0.00774035857322 -0.0566802622725 0)
(0.0068231224748 -0.0577710849731 0)
(0.0059256434696 -0.0587210852697 0)
(0.0050474020311 -0.0595341741989 0)
(0.00418753822927 -0.0602139747247 0)
(0.00334492847611 -0.0607637931385 0)
(0.00251824961874 -0.0611865972053 0)
(0.00170604067725 -0.0614849989268 0)
(0.00090675779824 -0.061661241328 0)
(0.000118833517064 -0.0617171880415 0)
(-0.000659265706381 -0.0616543247775 0)
(-0.00142896962089 -0.0614737496512 0)
(-0.00219153581403 -0.0611761993944 0)
(-0.00294796720564 -0.0607620712446 0)
(-0.0036989301009 -0.0602314689319 0)
(-0.00444466469619 -0.0595842691302 0)
(-0.00518490420242 -0.0588202119314 0)
(-0.0059187985849 -0.0579390162102 0)
(-0.00664486310873 -0.0569405177953 0)
(-0.00736094906361 -0.0558248250508 0)
(-0.0080642575386 -0.0545924812752 0)
(-0.00875138878728 -0.0532446188734 0)
(-0.009418439448 -0.0517830851923 0)
(-0.0100611233634 -0.0502105180404 0)
(-0.0106749059045 -0.0485303510839 0)
(-0.0112550981741 -0.0467467381663 0)
(-0.0117968733606 -0.0448644058893 0)
(-0.0122951316962 -0.0428884760875 0)
(-0.0127441759837 -0.0408243375751 0)
(-0.0131371791953 -0.0386777001591 0)
(-0.0134655050035 -0.0364549973525 0)
(-0.0137180837467 -0.0341642920508 0)
(-0.0138812099742 -0.0318167741096 0)
(-0.0139392794708 -0.0294286255365 0)
(-0.0138770381784 -0.0270226523903 0)
(-0.0136833266763 -0.0246284931765 0)
(-0.0133552092569 -0.0222800505765 0)
(-0.0128985032206 -0.0200119013136 0)
(-0.0123284426393 -0.0178560237437 0)
(-0.0116694805833 -0.0158369195904 0)
(-0.0109492906081 -0.0139675395652 0)
(-0.0101902362247 -0.0122515391378 0)
(-0.00940876138168 -0.010689149779 0)
(-0.00861920664576 -0.00927984485658 0)
(-0.00783598318599 -0.00802142702781 0)
(-0.00707315697324 -0.00690853521344 0)
(-0.00634275274434 -0.00593231313424 0)
(-0.00565331555707 -0.00508145878039 0)
(-0.00500954904135 -0.00434401941081 0)
(-0.00441326977662 -0.00370901174868 0)
(-0.00386528345184 -0.00316698336483 0)
(-0.00336707376071 -0.0027090163309 0)
(-0.00292059740378 -0.00232503083635 0)
(-0.00252594691652 -0.00200351963779 0)
(-0.00217999444852 -0.00173334835546 0)
(-0.00187762279805 -0.00150554587946 0)
(-0.0016137646708 -0.00131339212772 0)
(-0.00138410130873 -0.0011514906256 0)
(-0.00118466168423 -0.00101526053322 0)
(-0.00101183152687 -0.000900853868218 0)
(-0.000862380040694 -0.000805009747105 0)
(-0.000733329628945 -0.000725124647276 0)
(-0.00062236404422 -0.000658102832416 0)
(-0.000531502716059 -0.000594161830032 0)
(-0.000479326720971 -0.000547867398228 0)
(-0.000441714459667 -0.000496313674678 0)
(-0.000409355970518 -0.000442718318912 0)
(-0.000382184503889 -0.000384448112289 0)
(-0.000377718005964 -0.000337045574535 0)
(-0.000369584794171 -0.000275023798305 0)
(-0.00038256675717 -0.000227725548789 0)
(-0.000376008137126 -0.000161648607842 0)
(-0.000405984233433 -0.000122926282362 0)
(-0.000449469214668 -9.3362740969e-05 0)
(-0.000452980327724 -5.30197310649e-05 0)
(-0.000453784051725 -1.77075371819e-05 0)
(0.0262793461236 -0.00186883792429 0)
(0.0276979995135 -0.0059723843274 0)
(0.0274246186076 -0.010016303161 -6.67271757705e-28)
(0.0269495646676 -0.0140222202747 0)
(0.0263294391174 -0.0179240635687 0)
(0.0255799963055 -0.0217013549958 0)
(0.0247176152471 -0.0253341425207 0)
(0.0237596703134 -0.0288065869877 0)
(0.0227237370761 -0.0321067827711 0)
(0.0216268683276 -0.0352265460931 0)
(0.0204850164373 -0.0381610301028 0)
(0.0193126198763 -0.0409082493907 0)
(0.0181223502169 -0.0434685638895 0)
(0.0169250027876 -0.0458441669765 0)
(0.0157295038724 -0.0480386104682 0)
(0.0145430053428 -0.0500563873219 0)
(0.0133710365601 -0.0519025819408 0)
(0.012217688692 -0.0535825894312 0)
(0.0110858097473 -0.0551018990188 0)
(0.00997719621957 -0.0564659331966 0)
(0.00889277030106 -0.0576799325409 0)
(0.0078327383751 -0.0587488760204 0)
(0.00679672750556 -0.0596774275017 0)
(0.00578390171775 -0.0604699004521 0)
(0.00479305878376 -0.0611302344477 0)
(0.00382271218916 -0.0616619785008 0)
(0.00287116050693 -0.0620682777552 0)
(0.00193655003477 -0.0623518612074 0)
(0.00101693330077 -0.0625150297142 0)
(0.000110329588212 -0.0625596431371 0)
(-0.000785211311356 -0.0624871175791 0)
(-0.0016715320933 -0.0622984052336 0)
(-0.00255028682072 -0.0619940157718 0)
(-0.00342284320541 -0.0615740278001 0)
(-0.00429017739932 -0.0610381302591 0)
(-0.00515276087554 -0.0603856879675 0)
(-0.0060104488079 -0.0596158385315 0)
(-0.00686237687716 -0.0587276232723 0)
(-0.00770688157758 -0.0577201519714 0)
(-0.0085414556881 -0.0565927961249 0)
(-0.00936275646569 -0.0553453984041 0)
(-0.0101666755865 -0.0539784780822 0)
(-0.0109484786607 -0.0524934033626 0)
(-0.0117030027142 -0.050892494512 0)
(-0.0124248863908 -0.0491790201326 0)
(-0.013108775816 -0.0473570568368 0)
(-0.0137494300748 -0.0454312071987 0)
(-0.0143416111706 -0.0434062079588 0)
(-0.0148796692424 -0.0412865444221 0)
(-0.015356700876 -0.0390762437182 0)
(-0.0157633500794 -0.0367791580313 0)
(-0.0160863865591 -0.0344000975887 0)
(-0.0163076661093 -0.0319470993596 0)
(-0.0164044465084 -0.0294348651043 0)
(-0.0163523569213 -0.0268884046117 0)
(-0.0161319821695 -0.0243446689136 0)
(-0.0157377187955 -0.0218477411736 0)
(-0.0151756072102 -0.0194430255013 0)
(-0.0144660831112 -0.0171741087868 0)
(-0.0136471524334 -0.0150733490139 0)
(-0.0127627405271 -0.0131516499623 0)
(-0.0118413868962 -0.0114046072029 0)
(-0.0108988090434 -0.00982723369175 0)
(-0.00994913967302 -0.00841824902065 0)
(-0.00900959785302 -0.00717591088861 0)
(-0.00809874916122 -0.00609378494408 0)
(-0.00723257530757 -0.00515977443622 0)
(-0.0064214012193 -0.00435810158308 0)
(-0.00566917341787 -0.00367270996158 0)
(-0.00497521724572 -0.00309041019829 0)
(-0.00433808155668 -0.0026019797305 0)