/*--------------------------------*- C++ -*----------------------------------*\
| =========                 |                                                 |
| \\      /  F ield         | OpenFOAM: The Open Source CFD Toolbox           |
|  \\    /   O peration     | Version:  v1906                                 |
|   \\  /    A nd           | Web:      www.OpenFOAM.com                      |
|    \\/     M anipulation  |                                                 |
\*---------------------------------------------------------------------------*/
FoamFile
{
    version     2.0;
    format      ascii;
    class       volScalarField;
    location    "720";
    object      pa;
}
// * * * * * * * * * * * * * * * * * * * * * * * * * * * * * * * * * * * * * //

dimensions      [0 2 -2 0 0 0 0];


internalField   nonuniform List<scalar> 
9216
(
-206.739940476
-206.937800612
-207.339269561
-207.945006461
-208.751418999
-209.754096981
-210.947594492
-212.32553639
-213.880712245
-215.605178152
-217.490357825
-219.527148776
-221.706023174
-224.017130368
-226.450389691
-228.995582665
-231.642432465
-234.380682055
-237.20015798
-240.090833408
-243.042876329
-246.046698507
-249.092989708
-252.172754632
-255.277335419
-258.39843887
-261.528149381
-264.658948416
-267.783719319
-270.895760713
-273.988785032
-277.056926262
-280.094732563
-283.097169953
-286.059609905
-288.977829475
-291.847994722
-294.66665809
-297.430738446
-300.137516513
-302.784612301
-305.369979314
-307.891880104
-310.348879843
-312.739820624
-315.06381488
-317.320218944
-319.508626641
-321.628842543
-323.680875935
-325.664914136
-327.58131693
-329.430590297
-331.21338132
-332.930452677
-334.582677982
-336.171017441
-337.696513574
-339.160268547
-340.563440277
-341.907222083
-343.192839309
-344.421532129
-345.594552968
-346.713153471
-347.778583142
-348.792081494
-349.754878324
-350.668191755
-351.53323024
-352.351196427
-353.123290276
-353.85071748
-354.534692196
-355.176447587
-355.777236173
-356.338339752
-356.861065958
-357.346755908
-357.79677748
-358.212531432
-358.595444753
-358.946979434
-359.268633264
-359.561961189
-359.828599186
-360.070327455
-360.289142243
-360.488544701
-360.66145137
-360.793982581
-360.88699143
-360.948426431
-360.984645916
-361.002313956
-361.008369747
-206.542434242
-206.741428272
-207.14460273
-207.75351917
-208.564249491
-209.572257767
-210.771998386
-212.156999446
-213.719951561
-215.452808654
-217.346891849
-219.392996409
-221.581495933
-223.902445041
-226.345675103
-228.900885655
-231.557726296
-234.305873107
-237.135094524
-240.035311914
-242.996649718
-246.009481416
-249.064465796
-252.152580583
-255.265147268
-258.393854816
-261.530775298
-264.668379671
-267.799546101
-270.917569076
-274.016161259
-277.089457478
-280.132011128
-283.138793376
-286.105184957
-289.026971523
-291.900331583
-294.721828793
-297.48839685
-300.197329524
-302.84626329
-305.433165846
-307.9563172
-310.414297295
-312.805966153
-315.130451117
-317.387126521
-319.575600918
-321.695696655
-323.747437338
-325.731027607
-327.646841007
-329.495400206
-331.277365367
-332.993515045
-334.644735136
-336.232000698
-337.756365565
-339.218945421
-340.620908251
-341.963459113
-343.247831735
-344.475275639
-345.647049372
-346.764410805
-347.828612669
-348.840896935
-349.802493313
-350.714618398
-351.578477418
-352.395268123
-353.166185219
-353.892427778
-354.575204639
-355.215742899
-355.815291778
-356.37512938
-356.896562995
-357.380932494
-357.829607
-358.243985775
-358.625493999
-358.975585081
-359.295741475
-359.587485814
-359.852395391
-360.092131788
-360.308446916
-360.503776388
-360.674636393
-360.806553399
-360.897827474
-360.957611108
-360.992040455
-361.008483422
-361.014626876
-206.139309128
-206.341068812
-206.748640038
-207.364125665
-208.183503708
-209.202112964
-210.414248116
-211.8132582
-213.391641922
-215.141153406
-217.052911554
-219.117511048
-221.32513112
-223.665640944
-226.128698591
-228.703843543
-231.380580449
-234.148455174
-236.99712144
-239.916399947
-242.896328633
-245.927206565
-248.999630147
-252.10452447
-255.233168275
-258.37721545
-261.528711161
-264.68010557
-267.82426288
-270.954468596
-274.064432601
-277.148290961
-280.200603664
-283.216351706
-286.190930319
-289.120142055
-292.000186276
-294.827649055
-297.599489762
-300.313028601
-302.965931102
-305.55619407
-308.082128703
-310.5423456
-312.935737102
-315.261461867
-317.5189269
-319.707772063
-321.827852138
-323.87922155
-325.862116701
-327.776941096
-329.624248144
-331.404726806
-333.11918503
-334.768536026
-336.353782502
-337.876003691
-339.336340612
-340.735984068
-342.076161281
-343.358125229
-344.58314322
-345.752488158
-346.867429855
-347.929229062
-348.939132492
-349.898370505
-350.808156703
-351.669689831
-352.484158093
-353.252744847
-353.97663644
-354.657029737
-355.295140706
-355.892210607
-356.449511912
-356.968350281
-357.450065725
-357.896029675
-358.307642047
-358.686325648
-359.033522578
-359.350690705
-359.639305132
-359.900863073
-360.136899192
-360.348989418
-360.539314734
-360.705411004
-360.83308052
-360.920726653
-360.976700072
-361.008759189
-361.02514544
-361.032340829
-205.525406397
-205.730776908
-206.145130326
-206.770747414
-207.603442871
-208.638354999
-209.869533865
-211.290052859
-212.892113922
-214.6671622
-216.606003825
-218.698924094
-220.935802761
-223.306224346
-225.799581241
-228.405168686
-231.11227036
-233.910234722
-236.788541652
-239.736860304
-242.745098252
-245.803443307
-248.902398247
-252.032809972
-255.18589319
-258.353250019
-261.526885314
-264.699218861
-267.863094038
-271.01178389
-274.138994144
-277.238863815
-280.305962964
-283.335288624
-286.322258062
-289.262700635
-292.152847343
-294.989319451
-297.7691152
-300.489596062
-303.148471464
-305.743783489
-308.273890356
-310.737450234
-313.133404079
-315.460959073
-317.719571263
-319.908928984
-322.028935627
-324.079693304
-326.061485958
-327.974763452
-329.820125169
-331.598304653
-333.310153808
-334.956628178
-336.538771865
-338.057703542
-339.514602255
-340.910694359
-342.247240474
-343.52552372
-344.746838342
-345.912479881
-347.023736315
-348.081881148
-349.088168217
-350.043828918
-350.950071869
-351.808085233
-352.619041783
-353.38410614
-354.104444114
-354.781232623
-355.415669925
-356.008984026
-356.562439247
-357.077339008
-357.555025674
-357.99687636
-358.404296407
-358.778710132
-359.121550955
-359.434250831
-359.718231105
-359.974894769
-360.205625185
-360.411778862
-360.595170026
-360.753589442
-360.875173898
-360.957221456
-361.009685786
-361.040886903
-361.058292335
-361.066359351
-204.697416432
-204.907575178
-205.331178613
-205.970625606
-206.821491937
-207.878631248
-209.135753328
-210.585549794
-212.219812425
-214.029560377
-216.005169627
-218.136501385
-220.41302617
-222.823941061
-225.35827812
-228.00500282
-230.753101654
-233.591658913
-236.509922764
-239.497361429
-242.543710224
-245.639010691
-248.773642754
-251.938351163
-255.124266961
-258.322924934
-261.526277412
-264.726704949
-267.91702405
-271.09049223
-274.240810408
-277.362122585
-280.449013048
-283.496501374
-286.500035103
-289.455480599
-292.359111993
-295.207598779
-297.997991946
-300.727709258
-303.394519502
-305.996526299
-308.532151262
-311.00011704
-313.399429972
-315.729362875
-317.989437625
-320.179408035
-322.299242645
-324.349107929
-326.329351488
-328.240485728
-330.083171586
-331.858202767
-333.56649007
-335.209046244
-336.786970963
-338.301436355
-339.753672709
-341.1449548
-342.476588534
-343.74989838
-344.966215421
-346.126866553
-347.233164842
-348.286401634
-349.287840649
-350.238714623
-351.140224851
-351.993543955
-352.799822052
-353.560195969
-354.275801111
-354.947784608
-355.577318608
-356.165611665
-356.713917011
-357.22353619
-357.695817818
-358.132151288
-358.533956242
-358.902668372
-359.239722605
-359.546534019
-359.824476973
-360.074861615
-360.298909055
-360.497712432
-360.672532288
-360.821698538
-360.93502444
-361.012061644
-361.062436888
-361.093947345
-361.112833498
-361.121838896
-203.650501259
-203.8667647
-204.30223151
-204.959424951
-205.833598976
-206.919227769
-208.209572191
-209.696822889
-211.372235581
-213.226274855
-215.248758919
-217.429001469
-219.755947051
-222.218297224
-224.804625534
-227.503480149
-230.303473615
-233.193359855
-236.162098997
-239.198911062
-242.293319774
-245.435187991
-248.614746158
-251.822615199
-255.049824915
-258.287828821
-261.528515923
-264.764219723
-267.987724772
-271.192270719
-274.371553846
-277.519725839
-280.631390189
-283.701596223
-286.725830871
-289.700008443
-292.620458587
-295.48391277
-298.287489457
-301.02867834
-303.705323763
-306.31560764
-308.858031957
-311.331401103
-313.734804052
-316.067596602
-318.329383632
-320.520001564
-322.639500952
-324.688129359
-326.666314439
-328.574647353
-330.413866418
-332.184841117
-333.888556353
-335.526097046
-337.098632976
-338.607403955
-340.053705242
-341.438873314
-342.76427196
-344.031278858
-345.24127273
-346.395621363
-347.495670756
-348.542735909
-349.538093713
-350.482978644
-351.378581873
-352.226054385
-353.02651449
-353.781059615
-354.490781815
-355.156785522
-355.780205614
-356.36222319
-356.904076845
-357.407067497
-357.872556208
-358.301955047
-358.696712004
-359.058290873
-359.388147101
-359.687699864
-359.958299805
-360.201189992
-360.417457014
-360.607957515
-360.773465417
-360.912059185
-361.01725961
-361.090511052
-361.139687327
-361.173035767
-361.193503115
-361.203313841
-202.378495555
-202.602307056
-203.052455278
-203.73160744
-204.634603206
-205.75542907
-207.086772222
-208.620186297
-210.346248652
-212.254725548
-214.334736444
-216.574912841
-218.96354768
-221.488732364
-224.138479482
-226.900830189
-229.763946007
-232.716185497
-235.746166822
-238.842817699
-241.995414547
-245.19361279
-248.427470261
-251.687465443
-254.964511924
-258.249970053
-261.535656347
-264.813850696
-268.077301639
-271.319229517
-274.533327013
-277.713757047
-280.855148223
-283.952587775
-287.001612175
-289.998195637
-292.938736781
-295.820043789
-298.639318314
-301.394138493
-304.082441269
-306.702504297
-309.252927584
-311.732615042
-314.140756037
-316.47680706
-318.740473539
-320.931691893
-323.05061182
-325.097578882
-327.073117385
-328.97791358
-330.812799176
-332.578735178
-334.276796006
-335.908153913
-337.474063624
-338.975847213
-340.414879141
-341.792571482
-343.110359304
-344.369686303
-345.571990765
-346.71869213
-347.811178463
-348.850795391
-349.838837174
-350.776540812
-351.665084162
-352.505589083
-353.299130393
-354.046750874
-354.749481849
-355.408367452
-356.024489919
-356.598992002
-357.133092926
-357.6280952
-358.085381277
-358.50640086
-358.892650223
-359.245645378
-359.566890344
-359.857841074
-360.119864065
-360.354185606
-360.561822985
-360.743474093
-360.899362118
-361.028688266
-361.127081129
-361.197680618
-361.247277664
-361.281879352
-361.303280122
-361.313341833
-200.873776137
-201.106723478
-201.574633598
-202.280338054
-203.218154139
-204.381453689
-205.762204287
-207.351164656
-209.138070348
-211.111826161
-213.260694925
-215.572477297
-218.034678106
-220.634656203
-223.359755973
-226.197419734
-229.13528116
-232.161240616
-235.263524007
-238.430727219
-241.651848664
-244.916312572
-248.213985624
-251.535189175
-254.870708789
-258.211802175
-261.550205977
-264.878141225
-268.188317432
-271.473935096
-274.728685256
-277.946746578
-281.122779764
-284.251919274
-287.329762537
-290.352356916
-293.316184778
-296.218147017
-299.05554541
-301.826064146
-304.527750821
-307.158997145
-309.718519571
-312.205339953
-314.618766372
-316.958374177
-319.223987293
-321.415659838
-323.53365807
-325.578442672
-327.5506514
-329.451082089
-331.280676015
-333.040501584
-334.731738343
-336.355661236
-337.91362508
-339.407049174
-340.837401967
-342.206185734
-343.514921183
-344.765132014
-345.958329464
-347.095997052
-348.179575847
-349.210450871
-350.189939463
-351.119282845
-351.999642271
-352.832101481
-353.617676877
-354.357336394
-355.052026808
-355.702707402
-356.310386002
-356.876151531
-357.401197285
-357.886830546
-358.334467676
-358.745616336
-359.121847727
-359.46476173
-359.775947249
-360.056939308
-360.309173026
-360.533931785
-360.732283143
-360.904989471
-361.052378139
-361.174096715
-361.268323463
-361.338297779
-361.388648751
-361.422980338
-361.444442232
-361.453547438
-199.127121024
-199.370968778
-199.860052177
-200.597384073
-201.576629317
-202.790392648
-204.229748235
-205.884473732
-207.743272515
-209.794000469
-212.02388508
-214.419730595
-216.968104396
-219.655501543
-222.468485879
-225.39380736
-228.418496196
-231.529935332
-234.715913487
-237.964661655
-241.26487643
-244.605733755
-247.976896568
-251.368519307
-254.771251441
-258.176241201
-261.575139765
-264.960105259
-268.323806043
-271.659423057
-274.960648533
-278.221682431
-281.437225763
-284.602470924
-287.713089234
-290.765216048
-293.755433855
-296.680753823
-299.53859625
-302.32677032
-305.043453516
-307.687170955
-310.25677483
-312.751424105
-315.170564518
-317.513908958
-319.781418223
-321.973282188
-324.089901378
-326.131868953
-328.099953118
-329.995079945
-331.818316585
-333.570854866
-335.253995203
-336.869130787
-338.417731936
-339.901330519
-341.321504321
-342.679861211
-343.978022977
-345.217608743
-346.40021789
-347.52741264
-348.600700508
-349.621517315
-350.591211669
-351.511032534
-352.38212186
-353.205514911
-353.982150867
-354.71289589
-355.398579295
-356.040040523
-356.63818146
-357.194014762
-357.70869833
-358.183548939
-358.620034116
-359.019746744
-359.384367383
-359.715619165
-360.015218815
-360.284826983
-360.526000558
-360.740146563
-360.928475767
-361.091954997
-361.231266322
-361.34680167
-361.438745179
-361.508476425
-361.559580497
-361.594495069
-361.616216629
-361.624333331
-197.12753458
-197.38426757
-197.898350156
-198.672987386
-199.701031705
-200.974134325
-202.482265675
-204.21399985
-206.15678369
-208.297206616
-210.621256789
-213.114556469
-215.762571533
-218.550792329
-221.464884816
-224.490812195
-227.614928341
-230.824045189
-234.105477124
-237.447066214
-240.837192797
-244.264776287
-247.719270915
-251.190660395
-254.669454266
-258.146687132
-261.613920609
-265.063246673
-268.48729098
-271.879215734
-275.232717977
-278.542025585
-281.80188948
-285.007572346
-288.154834177
-291.239915106
-294.259516089
-297.21077802
-300.091259876
-302.898916358
-305.632075454
-308.2894162
-310.869946825
-313.372983374
-315.798128861
-318.145252947
-320.414472141
-322.606130498
-324.720780821
-326.759166347
-328.722202918
-330.610961628
-332.426651932
-334.170605172
-335.844258483
-337.449138965
-338.986848047
-340.459045835
-341.867435314
-343.213746131
-344.499717763
-345.727081797
-346.897543155
-348.012760164
-349.074323617
-350.083735343
-351.042387287
-351.95154303
-352.812324429
-353.625707277
-354.392530364
-355.113522392
-355.789349192
-356.420679763
-357.008263458
-357.55300339
-358.056008771
-358.518613212
-358.94236001
-359.328964016
-359.680259586
-359.998141476
-360.284503419
-360.54117942
-360.769894436
-360.972225352
-361.149571375
-361.303136036
-361.433932992
-361.542845212
-361.630790155
-361.699266065
-361.750461257
-361.786317683
-361.808568528
-361.81774698
-194.862029737
-195.133908578
-195.677335134
-196.495707773
-197.580866453
-198.923277148
-200.511548521
-202.33278207
-204.372901127
-206.616974261
-209.04951619
-211.654758455
-214.416884951
-217.320230277
-220.349440696
-223.489598862
-226.726314356
-230.045782974
-233.434818655
-236.880863002
-240.371978366
-243.896831093
-247.444671468
-251.005315848
-254.569134569
-258.127046816
-261.670521304
-265.191580616
-268.682806131
-272.137342175
-275.548894796
-278.911727522
-282.220652361
-285.471016629
-288.658686023
-291.780024638
-294.831872638
-297.811522398
-300.716693825
-303.545509508
-306.29647013
-308.968430475
-311.560576159
-314.072401154
-316.503686066
-318.854477134
-321.125065869
-323.315969314
-325.427910865
-327.46180167
-329.418722563
-331.299906571
-333.106721931
-334.840655628
-336.503297353
-338.096323811
-339.621483212
-341.080579764
-342.475457903
-343.807985951
-345.08003882
-346.293479366
-347.450137944
-348.551789837
-349.600130359
-350.59674789
-351.5430957
-352.440464614
-353.289959938
-354.09248813
-354.848760304
-355.559320785
-356.224607332
-356.845043999
-357.421157106
-357.953690238
-358.443685546
-358.892506761
-359.301809395
-359.673481002
-360.00956788
-360.312196811
-360.583496141
-360.82552224
-361.040207155
-361.229326564
-361.394483533
-361.537106606
-361.658471083
-361.759758026
-361.842168065
-361.907126102
-361.956292574
-361.991218944
-362.013243247
-362.023448503
-192.315355459
-192.604987779
-193.182753978
-194.052231791
-195.203994205
-196.627029858
-198.308265172
-200.233000525
-202.385315713
-204.748459488
-207.305203727
-210.038154373
-212.930015235
-215.9638041
-219.123022496
-222.391781452
-225.754886219
-229.197883558
-232.707076271
-236.269511123
-239.872947956
-243.505819024
-247.1571878
-250.816715085
-254.474637255
-258.121757666
-261.749448075
-265.349657169
-268.914919295
-272.438361066
-275.913702102
-279.335250471
-282.697892336
-285.997076395
-289.228793877
-292.38955498
-295.476362783
-298.486685669
-301.418429231
-304.269908447
-307.039820655
-309.727219626
-312.33149084
-314.852327914
-317.289710063
-319.643880457
-321.915325368
-324.104753997
-326.213078949
-328.241397337
-330.190972506
-332.063216389
-333.859672502
-335.581999523
-337.231955438
-338.811382096
-340.32219006
-341.766343469
-343.145844635
-344.46271792
-345.718992416
-346.916682748
-348.057767318
-349.144163208
-350.177697052
-351.16007156
-352.092828015
-352.977306515
-353.814607856
-354.605564169
-355.350729248
-356.050402762
-356.704703404
-357.313698516
-357.877582089
-358.396860775
-358.872486392
-359.305878854
-359.698862778
-360.05356993
-360.372335763
-360.657596706
-360.911786767
-361.137236953
-361.33611903
-361.510423804
-361.661958517
-361.79235289
-361.903082295
-361.995512071
-362.070965103
-362.130802661
-362.1764158
-362.20908597
-362.229884618
-362.239805225
-189.469654431
-189.780087133
-190.398009552
-191.327140943
-192.556458538
-194.07310029
-195.861907984
-197.90597642
-200.187156245
-202.686524291
-205.384799799
-208.262699718
-211.301231613
-214.481926373
-217.787014508
-221.199550012
-224.703485586
-228.283703198
-231.926005056
-235.617072222
-239.344400901
-243.09622893
-246.861465894
-250.629638515
-254.390858213
-258.135811308
-261.855765706
-265.54258774
-269.188758881
-272.787387084
-276.332210101
-279.817590767
-283.238504772
-286.590522005
-289.869782557
-293.072968602
-296.197273499
-299.240369563
-302.200375781
-305.075826472
-307.865641513
-310.569098387
-313.185806024
-315.715680241
-318.158920514
-320.515987827
-322.787583382
-324.97462807
-327.078242604
-329.099728339
-331.040548772
-332.90231177
-334.686752547
-336.395717374
-338.031147991
-339.59506661
-341.089561337
-342.516771742
-343.878874223
-345.178066648
-346.416551605
-347.596517399
-348.720115707
-349.789434583
-350.806465393
-351.773062319
-352.690893641
-353.561385517
-354.385661497
-355.164486624
-355.898230403
-356.586873881
-357.230088436
-357.827414426
-358.378537338
-358.883603618
-359.34344896
-359.759604717
-360.134156918
-360.469583255
-360.768610785
-361.034087639
-361.268848102
-361.475555024
-361.656644108
-361.814325531
-361.950603597
-362.067285368
-362.166002031
-362.248238922
-362.315376031
-362.368724086
-362.409518182
-362.438856997
-362.457628868
-362.46667607
-186.30403049
-186.638871623
-187.30381015
-188.302631528
-189.622285293
-191.247575185
-193.160747968
-195.342191707
-197.771062009
-200.425849556
-203.284866401
-206.326647529
-209.530271036
-212.875603963
-216.34348123
-219.915823756
-223.575700078
-227.307334928
-231.096069316
-234.928279884
-238.79127015
-242.673151195
-246.562731972
-250.449437372
-254.323264575
-258.174776948
-261.995123991
-265.776073878
-269.510044408
-273.190121413
-276.810065353
-280.364305825
-283.847926462
-287.256642068
-290.586769439
-293.835193316
-296.99932931
-300.077085739
-303.066826186
-305.967334016
-308.777779588
-311.497690275
-314.126923056
-316.665639217
-319.114280686
-321.473547557
-323.744376519
-325.927920007
-328.025526032
-330.038718679
-331.96917937
-333.818728937
-335.589310591
-337.282973805
-338.901859116
-340.44818373
-341.924227799
-343.332321062
-344.674829499
-345.954141393
-347.172652048
-348.332746041
-349.436775581
-350.487033018
-351.485715061
-352.43487589
-353.336366382
-354.191757339
-355.002248604
-355.768570019
-356.490895683
-357.168803717
-357.801341865
-358.387256908
-358.925432397
-359.415445347
-359.858000759
-360.254862101
-360.608531443
-360.921974591
-361.198441248
-361.441326704
-361.654005989
-361.839534704
-362.000617551
-362.139669092
-362.258879263
-362.360211435
-362.445422728
-362.516080844
-362.573592621
-362.619226424
-362.654113605
-362.679223693
-362.695316472
-362.703098157
-182.793997449
-183.157580016
-183.877734416
-184.958177095
-186.383252741
-188.134796297
-190.191806294
-192.531340243
-195.129295945
-197.961093179
-201.002235175
-204.228753816
-207.617550697
-211.146648976
-214.795368986
-218.544436173
-222.376025296
-226.273742127
-230.222544608
-234.20861033
-238.21916562
-242.2423011
-246.266805012
-250.282044067
-254.277909124
-258.24482262
-262.173786028
-266.056440877
-269.88512242
-273.652887746
-277.353525075
-280.98154549
-284.532163101
-288.001266493
-291.38538283
-294.681636115
-297.887702006
-301.001762021
-304.022459649
-306.948860053
-309.780414075
-312.516926461
-315.158527609
-317.705648019
-320.158994593
-322.519528141
-324.78844169
-326.967139399
-329.057216051
-331.060437203
-332.978720111
-334.814115601
-336.568791
-338.245014213
-339.845138994
-341.371591336
-342.826856859
-344.213468946
-345.53399724
-346.791035948
-347.9871911
-349.125065574
-350.207240062
-351.236247513
-352.214537339
-353.14442489
-354.028019697
-354.86712733
-355.663117875
-356.416767069
-357.128081325
-357.796162709
-358.419197828
-358.994721626
-359.520298975
-359.994557093
-360.418109115
-360.793222867
-361.123078761
-361.411317534
-361.661861176
-361.878828111
-362.066379742
-362.228016772
-362.366668121
-362.484898201
-362.585073363
-362.669295208
-362.73942832
-362.797096897
-362.843714847
-362.880507201
-362.90852383
-362.928635404
-362.941506525
-362.947727902
-178.910768948
-179.308376187
-180.093689042
-181.270123474
-182.81863392
-184.717242818
-186.940857829
-189.462427639
-192.253915205
-195.287108273
-198.534254416
-201.968538934
-205.564432783
-209.297937986
-213.146751454
-217.090358479
-221.110057689
-225.188913162
-229.311629199
-233.464350473
-237.634404717
-241.81002328
-245.980089638
-250.133967012
-254.26143611
-258.352735182
-262.398660424
-266.390677888
-270.321009957
-274.182675511
-277.96949781
-281.676088654
-285.297820837
-288.830792276
-292.271781766
-295.618197211
-298.868019623
-302.019747268
-305.072343685
-308.025191808
-310.878054855
-313.631043322
-316.284586728
-318.839408602
-321.296503381
-323.657114319
-325.922711872
-328.094972414
-330.175757335
-332.167092698
-334.071149711
-335.89022625
-337.62672967
-339.28316106
-340.862101026
-342.366197012
-343.798152054
-345.160714788
-346.456670391
-347.688831958
-348.860031592
-349.973109966
-351.030902547
-352.036219478
-352.991814696
-353.900337066
-354.764254657
-355.585736681
-356.366481759
-357.107472995
-357.808671954
-358.468685886
-359.084559701
-359.651948669
-360.166154179
-360.624078704
-361.026477307
-361.376746276
-361.679187539
-361.938322783
-362.158862769
-362.345854414
-362.504773385
-362.639556774
-362.753184978
-362.848232788
-362.927267574
-362.992513817
-363.045939548
-363.089200666
-363.123697225
-363.150598863
-363.17087703
-363.185315438
-363.194501628
-363.198923023
-174.620330905
-175.058513242
-175.921229665
-177.211206156
-178.904917713
-180.975438205
-183.392490653
-186.123944829
-189.137021838
-192.399240233
-195.879109658
-199.546616099
-203.373550589
-207.333727918
-211.403127438
-215.559969743
-219.784725604
-224.060041685
-228.370564916
-232.702657587
-237.044019
-241.383263456
-245.709536464
-250.012261165
-254.281075074
-258.505939326
-262.677340762
-266.786489067
-270.825449127
-274.787192719
-278.665591987
-282.455386202
-286.152142557
-289.752212294
-293.252676984
-296.651283631
-299.94637374
-303.13681387
-306.221933327
-309.20147202
-312.075538767
-314.844578335
-317.509344612
-320.070877415
-322.530480912
-324.889702437
-327.150311152
-329.314276517
-331.38374682
-333.361028121
-335.248564008
-337.048916571
-338.764748929
-340.398809567
-341.953918652
-343.43295636
-344.838853205
-346.174582236
-347.443152924
-348.647606423
-349.79101169
-350.876461581
-351.907067282
-352.885948477
-353.816213911
-354.700925077
-355.543027379
-356.345230578
-357.109800663
-357.838230006
-358.530734801
-359.185592926
-359.798457326
-360.362074215
-360.867674097
-361.308652223
-361.686780481
-362.008037547
-362.278564621
-362.503872327
-362.689379683
-362.841194025
-362.967479951
-363.07233653
-363.158302975
-363.22764008
-363.283302371
-363.327611086
-363.362665378
-363.390113635
-363.411313638
-363.427350797
-363.439106524
-363.447276345
-363.452376173
-363.454794504
-169.882209601
-170.369243037
-171.324706503
-172.749982341
-174.615525208
-176.887912955
-179.530258993
-182.504151494
-185.771124016
-189.293725598
-193.036233726
-196.965097865
-201.049204257
-205.260036692
-209.571780451
-213.961384771
-218.408569586
-222.895740556
-227.407768604
-231.931602384
-236.45571972
-240.969485202
-245.462549472
-249.924461475
-254.344618854
-258.712522187
-263.018162569
-267.252363762
-271.406978016
-275.474931211
-279.450173883
-283.327611352
-287.103049707
-290.773147364
-294.335352664
-297.78782131
-301.129323692
-304.359156364
-307.477066453
-310.483192795
-313.378023222
-316.162364041
-318.837317071
-321.404260212
-323.864828657
-326.220895167
-328.474549092
-330.62807438
-332.683927203
-334.644713781
-336.51316905
-338.29213674
-339.984551365
-341.59342249
-343.121821517
-344.572871059
-345.949736946
-347.255622819
-348.493767294
-349.667443636
-350.779961911
-351.834673217
-352.83497544
-353.78431846
-354.686205579
-355.54418229
-356.36179945
-357.142518668
-357.889514551
-358.60528167
-359.290926761
-359.944992962
-360.561826006
-361.129774839
-361.632472092
-362.055222133
-362.403774145
-362.690073199
-362.923115444
-363.109054524
-363.253316233
-363.362644387
-363.451917028
-363.524079764
-363.579976006
-363.620813143
-363.650743806
-363.672042113
-363.687055671
-363.697326906
-363.704133618
-363.708420662
-363.710956392
-363.712336199
-363.713001946
-363.713242918
-164.647802687
-165.194371491
-166.262186393
-167.850177897
-169.920556722
-172.431277184
-175.336987424
-178.591520981
-182.149647688
-185.968219455
-190.006821717
-194.228088545
-198.597831275
-203.085095163
-207.662210805
-212.30485521
-216.99208966
-221.70630414
-226.432978944
-231.160184517
-235.877794722
-240.57649484
-245.246807185
-249.878461448
-254.460388613
-258.981273951
-263.430289145
-267.797677577
-272.075024483
-276.255246478
-280.332435644
-284.301718277
-288.159190737
-291.901882049
-295.527688272
-299.035264044
-302.423895486
-305.693383986
-308.843953389
-311.876184827
-314.790976482
-317.589519896
-320.27328477
-322.844006185
-325.303670138
-327.65449577
-329.898914484
-332.039546989
-334.079179385
-336.020739281
-337.86727279
-339.621923224
-341.287912178
-342.868523505
-344.367090456
-345.786986089
-347.131616963
-348.404420163
-349.608863785
-350.74845116
-351.826729329
-352.847302377
-353.813850244
-354.730153614
-355.600123644
-356.427833945
-357.21754259
-357.973680279
-358.700741839
-359.402956328
-360.083482978
-360.742663285
-361.374827349
-361.962277069
-362.474437368
-362.874973358
-363.183597016
-363.426084271
-363.615159283
-363.755883837
-363.851389818
-363.90587562
-363.953951242
-363.992034333
-364.016286744
-364.025114935
-364.026848168
-364.022886444
-364.016249757
-364.008065637
-363.999510972
-363.991275685
-363.983992307
-363.978138838
-363.974073985
-363.971987223
-158.858064074
-159.478312273
-160.684093714
-162.469970169
-164.786639392
-167.580493208
-170.795314776
-174.375419534
-178.267649522
-182.422480282
-186.794462256
-191.34226334
-196.028549676
-200.819872527
-205.686651673
-210.603265996
-215.548189123
-220.504046925
-225.457432061
-230.398306937
-235.318892333
-240.212111064
-245.069940784
-249.88230841
-254.637186378
-259.321770627
-263.923861646
-268.43284616
-272.8400306
-277.138451311
-281.322471632
-285.38750962
-289.329998181
-293.147405299
-296.838179525
-300.401596563
-303.837571956
-307.146503825
-310.329158327
-313.386600527
-316.320164086
-319.131442113
-321.822285727
-324.394801962
-326.851345391
-329.194502225
-331.427068675
-333.552025927
-335.572513735
-337.491803943
-339.313275016
-341.04038867
-342.676669558
-344.225688658
-345.69105066
-347.076385358
-348.385343001
-349.62159358
-350.788830351
-351.89077813
-352.931207525
-353.913956676
-354.842963111
-355.722308979
-356.556284355
-357.349473312
-358.106866978
-358.833997436
-359.53705884
-360.222898413
-360.898546379
-361.569345275
-362.234177525
-362.869064138
-363.418768258
-363.781903441
-364.028343292
-364.214105727
-364.353353386
-364.445080753
-364.484999407
-364.45972809
-364.466387823
-364.473533614
-364.466785301
-364.437376899
-364.40853579
-364.376672801
-364.347026607
-364.319254059
-364.294591046
-364.273207614
-364.25562298
-364.242179483
-364.233137224
-364.228590605
-152.440202902
-153.153412416
-154.531512885
-156.561274385
-159.177007432
-162.309496432
-165.888610707
-169.847120274
-174.122793359
-178.659239188
-183.405885641
-188.317520235
-193.353757894
-198.478668399
-203.660680042
-208.872759546
-214.092764642
-219.303771797
-224.494099024
-229.656695714
-234.787619528
-239.883566654
-244.938969645
-249.943876213
-254.88426022
-259.744558054
-264.510267948
-269.169563902
-273.713611817
-278.135913092
-282.431355631
-286.595713708
-290.625759212
-294.519458734
-298.275956932
-301.895327198
-305.378268503
-308.72588955