/*--------------------------------*- C++ -*----------------------------------*\
| =========                 |                                                 |
| \\      /  F ield         | OpenFOAM: The Open Source CFD Toolbox           |
|  \\    /   O peration     | Version:  v1906                                 |
|   \\  /    A nd           | Web:      www.OpenFOAM.com                      |
|    \\/     M anipulation  |                                                 |
\*---------------------------------------------------------------------------*/
FoamFile
{
    version     2.0;
    format      ascii;
    class       volVectorField;
    location    "303";
    object      U;
}
// * * * * * * * * * * * * * * * * * * * * * * * * * * * * * * * * * * * * * //

dimensions      [0 1 -1 0 0 0 0];


internalField   nonuniform List<vector> 
9216
(
(0.00160939735284 -0.00161114584706 0)
(0.00158548196688 -0.00485483132395 6.55521255784e-28)
(0.00158146655503 -0.00817766495772 1.09049712658e-31)
(0.00156102413145 -0.0114581547668 0)
(0.00153071421325 -0.0146849946948 0)
(0.00149262852497 -0.0178398640247 0)
(0.00144802252215 -0.0209081223404 0)
(0.0013977413116 -0.0238771625944 0)
(0.00134271231186 -0.0267361108551 0)
(0.00128364927129 -0.0294758591582 0)
(0.00122143047737 -0.0320888917688 0)
(0.00115667284284 -0.0345693244817 0)
(0.00109017167557 -0.0369126800311 0)
(0.00102240055633 -0.0391158758783 0)
(0.000954033011442 -0.0411769571402 0)
(0.000885373844304 -0.0430950589434 0)
(0.000816964081234 -0.0448701278661 0)
(0.000748941760249 -0.0465028854313 0)
(0.000681726770944 -0.0479945643032 0)
(0.000615309759477 -0.0493468902121 0)
(0.000550013230788 -0.0505618467761 0)
(0.000485708166074 -0.0516416803934 0)
(0.000422646196587 -0.0525887008459 0)
(0.000360606995541 -0.0534053076911 0)
(0.000299796435917 -0.054093827148 0)
(0.000239929666886 -0.0546565528255 0)
(0.0001811877765 -0.0550956203669 0)
(0.00012324536041 -0.0554130563411 0)
(6.6277238736e-05 -0.0556106912698 0)
(9.94160730579e-06 -0.0556902073561 0)
(-4.55790458921e-05 -0.05565310527 0)
(-0.000100623996286 -0.0555007241532 0)
(-0.000154983060297 -0.0552342667752 0)
(-0.000208961842517 -0.0548548321001 0)
(-0.00026230998787 -0.0543634705053 0)
(-0.000315277045969 -0.0537612100771 0)
(-0.000367557743246 -0.053049168612 0)
(-0.000419320585485 -0.0522285604775 0)
(-0.000470195635027 -0.0513008661696 0)
(-0.000520250753884 -0.0502678121765 0)
(-0.000569048217683 -0.049131591938 0)
(-0.000616542609658 -0.0478948099551 0)
(-0.000662232623738 -0.0465607460795 0)
(-0.00070595375746 -0.0451332609484 0)
(-0.000747148736497 -0.0436170926643 0)
(-0.000785531641579 -0.0420177292055 0)
(-0.000820496512717 -0.0403417254567 0)
(-0.000851638958818 -0.0385965557384 0)
(-0.000878317310345 -0.036790924499 0)
(-0.000900035643184 -0.0349345998199 0)
(-0.000916164321427 -0.033038654194 0)
(-0.000926206853266 -0.0311152412926 0)
(-0.0009296684443 -0.0291776562011 0)
(-0.00092623410131 -0.0272399850523 0)
(-0.000915736067301 -0.0253168835807 0)
(-0.000898254453501 -0.023423076958 0)
(-0.000874099640391 -0.0215728948377 0)
(-0.000843836056096 -0.0197797440728 0)
(-0.000808215943477 -0.0180556246284 0)
(-0.000768153628704 -0.0164107890573 0)
(-0.00072461656022 -0.0148534836032 0)
(-0.000678614685609 -0.0133898877447 0)
(-0.000631096623391 -0.0120241163537 0)
(-0.00058297812037 -0.0107583366688 0)
(-0.000535055778875 -0.00959293248489 0)
(-0.000488051974955 -0.00852669263211 0)
(-0.000442552808347 -0.00755706138386 0)
(-0.000399050784984 -0.00668033670127 0)
(-0.000357917930579 -0.00589194692692 0)
(-0.000319426640237 -0.005186616951 0)
(-0.000283759904417 -0.0045586360599 0)
(-0.000250993286392 -0.00400198790321 0)
(-0.000221149034461 -0.00351059786974 0)
(-0.000194141107619 -0.00307842469903 0)
(-0.000169878851113 -0.00269965493329 0)
(-0.000148174228613 -0.00236873566529 0)
(-0.000128883987538 -0.00208049632048 0)
(-0.000111774384381 -0.00183013231707 0)
(-9.66887341846e-05 -0.001613271582 0)
(-8.3368380057e-05 -0.00142594527299 0)
(-7.1618572458e-05 -0.00126465951194 0)
(-6.10400020269e-05 -0.0011264326574 0)
(-5.08030976521e-05 -0.00101035518323 0)
(-3.88527342566e-05 -0.000900650897844 0)
(-3.57630128214e-05 -0.000838934776611 0)
(-3.60014193662e-05 -0.000763861594559 0)
(-3.16890273909e-05 -0.00069030790546 0)
(-2.68984718945e-05 -0.000632230019037 0)
(-2.74518255392e-05 -0.000583678559127 0)
(-3.05024728266e-05 -0.000525140364579 0)
(-3.09575566114e-05 -0.000465523342404 0)
(-3.1814772888e-05 -0.00040070441276 0)
(-3.67153290993e-05 -0.000329122297724 0)
(-4.17975773203e-05 -0.000249930526306 0)
(-4.67904361238e-05 -0.000153632699728 0)
(-4.99732995608e-05 -4.88878952489e-05 0)
(0.00486606954839 -0.00160376507158 0)
(0.0051156809925 -0.00515634982302 0)
(0.00508599642258 -0.00869534756704 -6.74052594295e-28)
(0.00501277919287 -0.0122026743524 0)
(0.00491274479605 -0.0156426579068 0)
(0.00478928991557 -0.0190028596937 0)
(0.00464532140228 -0.0222689633652 0)
(0.00448337433386 -0.0254279694062 0)
(0.00430618813196 -0.0284684908613 0)
(0.00411620238455 -0.0313809253486 0)
(0.00391605732818 -0.0341574080131 0)
(0.00370793974569 -0.0367917902064 0)
(0.00349419254002 -0.0392794782371 0)
(0.00327657112276 -0.0416173354543 0)
(0.00305698774692 -0.0438034696804 0)
(0.0028366839371 -0.0458371070361 0)
(0.00261710774528 -0.0477183691223 0)
(0.00239899496315 -0.0494481517992 0)
(0.00218336950882 -0.0510279193318 0)
(0.00197052599981 -0.0524596068011 0)
(0.00176114296568 -0.0537454448504 0)
(0.00155516260837 -0.0548878920917 0)
(0.00135300656761 -0.0558894944609 0)
(0.00115435482265 -0.0567528459871 0)
(0.000959454946691 -0.0574804812732 0)
(0.000767806990494 -0.0580748594271 0)
(0.000579555626853 -0.0585382872362 0)
(0.000394093764039 -0.058872920794 0)
(0.000211525517678 -0.0590807174404 0)
(3.12053958623e-05 -0.0591634521053 0)
(-0.000146747063658 -0.0591226913806 0)
(-0.00032295074882 -0.0589598424766 0)
(-0.000497209752126 -0.0586761495011 0)
(-0.000670039845067 -0.0582727350269 0)
(-0.00084111200396 -0.0577506523211 0)
(-0.00101076759884 -0.0571109326569 0)
(-0.0011784881748 -0.0563546742843 0)
(-0.00134437191586 -0.0554830953516 0)
(-0.00150766769523 -0.0544976579297 0)
(-0.00166817849423 -0.0534001196392 0)
(-0.0018248989749 -0.0521926852412 0)
(-0.00197730862261 -0.0508780475514 0)
(-0.00212415041072 -0.0494595572525 0)
(-0.00226457352324 -0.0479412469664 0)
(-0.00239708450342 -0.0463280112758 0)
(-0.00252050374018 -0.0446256158806 0)
(-0.00263311556602 -0.0428408849798 0)
(-0.00273342111471 -0.0409817043221 0)
(-0.00281951465529 -0.0390572062515 0)
(-0.00288965288512 -0.0370777599896 0)
(-0.00294188693616 -0.0350551060837 0)
(-0.00297450496151 -0.033002275119 0)
(-0.00298592220013 -0.0309335587345 0)
(-0.00297504056846 -0.0288642424321 0)
(-0.00294130485155 -0.0268102881025 0)
(-0.00288493498412 -0.0247878202841 0)
(-0.00280694771785 -0.0228125492863 0)
(-0.00270917630487 -0.0208991623569 0)
(-0.00259410761364 -0.0190607547107 0)
(-0.00246471974885 -0.0173084259505 0)
(-0.00232419874749 -0.0156510186913 0)
(-0.00217580193514 -0.0140950628929 0)
(-0.00202263197796 -0.0126448179422 0)
(-0.00186761762882 -0.0113024176504 0)
(-0.00171335320159 -0.0100680609569 0)
(-0.00156213570082 -0.00894023825984 0)
(-0.00141586423238 -0.00791599431241 0)
(-0.00127609751187 -0.00699117516598 0)
(-0.00114403011 -0.00616069899689 0)
(-0.0010205276419 -0.00541877024904 0)
(-0.000906160896841 -0.00475912419859 0)
(-0.000801181171522 -0.00417520939499 0)
(-0.000705619128493 -0.00366041323917 0)
(-0.00061922056784 -0.00320820918477 0)
(-0.000541632499484 -0.00281232558119 0)
(-0.00047229288279 -0.00246681829766 0)
(-0.000410669283526 -0.00216615763289 0)
(-0.000356078189364 -0.00190523473358 0)
(-0.000307948520359 -0.00167938841087 0)
(-0.000265568901012 -0.00148436904826 0)
(-0.000228345809644 -0.0013163099062 0)
(-0.000195425288082 -0.00117156951341 0)
(-0.00016577926091 -0.00104681685999 0)
(-0.000136593664744 -0.000933294476845 0)
(-0.000118089168484 -0.000822252341465 0)
(-0.000111493050746 -0.000751480976167 0)
(-9.44009657728e-05 -0.000671281724648 0)
(-8.06489249525e-05 -0.000617667917682 0)
(-8.02464645656e-05 -0.000559797058778 0)
(-8.7906363572e-05 -0.000514018765818 0)
(-9.23428032366e-05 -0.000464216293416 0)
(-9.87090096417e-05 -0.000396087772073 0)
(-0.000109804982207 -0.000322964142906 0)
(-0.000136418633296 -0.000257065279934 0)
(-0.000166351092729 -0.000164233473086 0)
(-0.000148908872828 -4.46309297414e-05 0)
(0.00825315400163 -0.00163244615827 0)
(0.00868678393133 -0.00523141912308 0)
(0.00861204198988 -0.00879705370953 -6.73107408626e-28)
(0.00848014571766 -0.0123433083789 0)
(0.00830683199659 -0.0158205831505 0)
(0.00809538479127 -0.0192153122097 0)
(0.00784966261493 -0.0225125858925 0)
(0.00757381844789 -0.0256991808576 0)
(0.00727227144257 -0.0287636464534 0)
(0.00694934410792 -0.0316964094628 0)
(0.00660934623584 -0.0344897427815 0)
(0.00625622300627 -0.0371376957263 0)
(0.0058937320259 -0.0396359475428 0)
(0.00552510051922 -0.0419816570219 0)
(0.005153297496 -0.0441732652046 0)
(0.00478069455429 -0.0462103198629 0)
(0.00440942225712 -0.0480932732209 0)
(0.0040410191931 -0.0498233176057 0)
(0.00367685552191 -0.0514022061506 0)
(0.00331775432111 -0.0528321185327 0)
(0.00296446670868 -0.0541155161088 0)
(0.00261725433906 -0.0552550425816 0)
(0.00227640494734 -0.0562534149302 0)
(0.00194177166079 -0.0571133562855 0)
(0.00161332228284 -0.0578375182311 0)
(0.00129063688124 -0.0584284398896 0)
(0.000973486702601 -0.0588884971518 0)
(0.000661296074777 -0.0592198829361 0)
(0.000353747607016 -0.059424579814 0)
(5.02167476725e-05 -0.0595043581159 0)
(-0.000249599656519 -0.0594607739669 0)
(-0.00054626605425 -0.0592951813655 0)
(-0.000839967746037 -0.0590087570678 0)
(-0.00113109786422 -0.0586025348054 0)
(-0.00141961272877 -0.0580774546455 0)
(-0.00170561663726 -0.0574344185665 0)
(-0.00198872992661 -0.0566743690275 0)
(-0.00226866133604 -0.0557983626433 0)
(-0.00254460792192 -0.0548076747352 0)
(-0.0028158051472 -0.0537038844225 0)
(-0.00308097759752 -0.0524889957076 0)
(-0.00333885323048 -0.0511655229668 0)
(-0.00358767895048 -0.0497366171239 0)
(-0.00382567901308 -0.0482061421655 0)
(-0.00405064156704 -0.0465787992375 0)
(-0.00426029955248 -0.0448601950994 0)
(-0.00445199354525 -0.0430569700439 0)
(-0.00462297087374 -0.0411768728634 0)
(-0.0047701499101 -0.0392289021055 0)
(-0.00489037951682 -0.0372233903141 0)
(-0.00498036759085 -0.035172128334 0)
(-0.00503699028095 -0.0330883912664 0)
(-0.00505744379019 -0.0309869153987 0)
(-0.00503964736464 -0.0288836960711 0)
(-0.00498253137725 -0.0267956217047 0)
(-0.00488637490516 -0.0247399102404 0)
(-0.00475292411785 -0.0227333997366 0)
(-0.00458539579164 -0.0207918046602 0)
(-0.00438820567496 -0.0189290175812 0)
(-0.00416660562003 -0.0171566278017 0)
(-0.00392619850774 -0.0154836713655 0)
(-0.00367262280491 -0.0139166255461 0)
(-0.00341124780175 -0.0124595284429 0)
(-0.00314707100853 -0.0111141700191 0)
(-0.00288453978102 -0.00988032242492 0)
(-0.00262753673744 -0.00875600114218 0)
(-0.00237927797172 -0.00773775048854 0)
(-0.00214237110165 -0.00682093180824 0)
(-0.0019188032131 -0.00599999406874 0)
(-0.00171002236424 -0.00526870892574 0)
(-0.00151694697429 -0.00462039459059 0)
(-0.00134000193279 -0.00404811932186 0)
(-0.001179154638 -0.00354492422885 0)
(-0.00103397214433 -0.00310400828826 0)
(-0.000903741744267 -0.00271888867145 0)
(-0.000787533693091 -0.00238348811122 0)
(-0.000684334382208 -0.00209219382347 0)
(-0.000593051433913 -0.00183986455345 0)
(-0.000512630170316 -0.00162182938841 0)
(-0.00044200816812 -0.00143385025478 0)
(-0.000380227639296 -0.00127207173055 0)
(-0.00032637514494 -0.00113288581025 0)
(-0.000279774239133 -0.00101321021028 0)
(-0.000240659142026 -0.000904754103883 0)
(-0.000209198321235 -0.000802872999796 0)
(-0.000187289623373 -0.000730420670457 0)
(-0.000165519975456 -0.00066884854011 0)
(-0.00014173034228 -0.000588760714691 0)
(-0.000128552620615 -0.000519794124389 0)
(-0.000134920895462 -0.000480172301315 0)
(-0.000158269410593 -0.000449925275441 0)
(-0.000163867275975 -0.000358995929559 0)
(-0.000188614365573 -0.000298084806438 0)
(-0.000221748548947 -0.000218510821825 0)
(-0.000249892156298 -0.000131963294953 0)
(-0.000242213726123 -4.06907079246e-05 0)
(0.0116835639172 -0.00166162368717 0)
(0.012316629171 -0.00531706087543 0)
(0.0122085744872 -0.00893269293999 6.73018432212e-28)
(0.0120180612349 -0.0125298592717 0)
(0.0117683429933 -0.0160550024418 0)
(0.0114644961456 -0.019493517936 0)
(0.0111120268307 -0.0228297716945 0)
(0.0107169702401 -0.02605016717 0)
(0.0102856593381 -0.0291431271997 0)
(0.00982440997832 -0.0320991416196 0)
(0.00933937599996 -0.0349107090378 0)
(0.00883630773611 -0.0375722220246 0)
(0.00832050652594 -0.0400797967994 0)
(0.00779665585276 -0.0424310796725 0)
(0.00726886981999 -0.0446250308425 0)
(0.00674058257079 -0.0466617134233 0)
(0.00621466954538 -0.0485420823531 0)
(0.00569336934693 -0.0502677953966 0)
(0.00517845096663 -0.0518410350445 0)
(0.00467114295489 -0.0532643587661 0)
(0.00417232438338 -0.0545405627054 0)
(0.00368244364181 -0.0556725731331 0)
(0.0032017192434 -0.0566633491509 0)
(0.00273004001879 -0.0575158092402 0)
(0.00226716987249 -0.0582327656831 0)
(0.00181262831446 -0.058816878434 0)
(0.00136589840948 -0.0592706142382 0)
(0.00092629163651 -0.059596221595 0)
(0.000493160910212 -0.0597957103272 0)
(6.57556332014e-05 -0.0598708441044 0)
(-0.000356557832328 -0.059823143965 0)
(-0.000774444644467 -0.0596538921696 0)
(-0.00118837531677 -0.0593641617338 0)
(-0.00159877278211 -0.0589548482623 0)
(-0.00200578313648 -0.0584267180887 0)
(-0.00240942130626 -0.0577804684514 0)
(-0.00280934826405 -0.057016804047 0)
(-0.0032050175303 -0.056136522058 0)
(-0.00359547142216 -0.0551406139421 0)
(-0.00397949169936 -0.0540303681409 0)
(-0.00435542648942 -0.0528074858927 0)
(-0.0047213437563 -0.0514741872844 0)
(-0.00507489243533 -0.0500333253023 0)
(-0.00541344574265 -0.0484884811302 0)
(-0.0057339867187 -0.0468440667667 0)
(-0.00603321921259 -0.0451054107106 0)
(-0.00630746567837 -0.0432788636841 0)
(-0.00655273991731 -0.0413719033279 0)
(-0.00676468052556 -0.0393932796946 0)
(-0.00693864705229 -0.0373531699307 0)
(-0.00706979369325 -0.0352633625147 0)
(-0.00715333944181 -0.033137399229 0)
(-0.00718492521913 -0.0309906396772 0)
(-0.0071611553002 -0.0288401300749 0)
(-0.00708016382974 -0.0267042196176 0)
(-0.00694214261751 -0.0246018763873 0)
(-0.0067496079634 -0.0225517752525 0)
(-0.00650739709393 -0.0205712982396 0)
(-0.00622224935537 -0.0186755980347 0)
(-0.00590212546781 -0.0168769805149 0)
(-0.0055554217751 -0.0151846901441 0)
(-0.00519042680488 -0.0136050347031 0)
(-0.00481496906096 -0.012141640095 0)
(-0.0044362485864 -0.0107957221208 0)
(-0.00406066514283 -0.00956636539166 0)
(-0.00369373786808 -0.00845082672211 0)
(-0.00334001623405 -0.00744487101078 0)
(-0.00300312667821 -0.00654310836605 0)
(-0.00268582268201 -0.00573928881548 0)
(-0.00239009292621 -0.00502653825728 0)
(-0.00211719163239 -0.00439755808364 0)
(-0.00186766548412 -0.00384483455049 0)
(-0.0016413690297 -0.00336088584767 0)
(-0.00143757790132 -0.00293849402025 0)
(-0.00125514318713 -0.00257087976671 0)
(-0.00109265659923 -0.00225178768583 0)
(-0.000948580689616 -0.00197551581934 0)
(-0.000821335349822 -0.00173690527853 0)
(-0.000709372456976 -0.00153131669906 0)
(-0.000611213543261 -0.00135458992009 0)
(-0.000525513975923 -0.00120300049011 0)
(-0.000451111799748 -0.00107317844911 0)
(-0.000387245056973 -0.000962806760534 0)
(-0.00033432896048 -0.000859862238995 0)
(-0.000294012187502 -0.000775264050322 0)
(-0.000261637784548 -0.000704574207522 0)
(-0.000232977344181 -0.000633037481181 0)
(-0.00020535770774 -0.000553724141139 0)
(-0.000194405849176 -0.00050213056058 0)
(-0.000187376868155 -0.000430617555348 0)
(-0.000203297142145 -0.000371963567266 0)
(-0.000244145177454 -0.000333872635667 0)
(-0.000257010055723 -0.000242904383227 0)
(-0.000292568078123 -0.000170968772055 0)
(-0.000328956163313 -0.000104991044287 0)
(-0.000327630405547 -3.44879684457e-05 0)
(0.0151813515918 -0.001697842346 0)
(0.0160072308493 -0.00543000463255 0)
(0.0158641669127 -0.00911785651015 0)
(0.0156118684511 -0.0127848489104 0)
(0.015281332892 -0.0163750057959 0)
(0.0148797329394 -0.0198726463323 0)
(0.0144146008245 -0.0232613035713 0)
(0.0138941359098 -0.0265269086192 0)
(0.0133268624166 -0.0296577290204 0)
(0.0127212738186 -0.0326443701307 0)
(0.0120855637943 -0.0354796699712 0)
(0.0114273808611 -0.0381585300144 0)
(0.0107536861227 -0.0406776961432 0)
(0.0100706273458 -0.043035514204 0)
(0.00938351418398 -0.0452316745138 0)
(0.0086967873206 -0.0472669634555 0)
(0.00801407696127 -0.0491430288378 0)
(0.00733822796679 -0.0508621694744 0)
(0.00667140245015 -0.0524271486671 0)
(0.00601512497906 -0.053841036106 0)
(0.00537039880941 -0.0551070734627 0)
(0.0047377474041 -0.0562285651203 0)
(0.00411732709214 -0.0572087877844 0)
(0.00350895414302 -0.0580509193243 0)
(0.00291220795221 -0.0587579808074 0)
(0.0023264425541 -0.0593327923198 0)
(0.00175088184501 -0.0597779379299 0)
(0.0011846201039 -0.060095740816 0)
(0.00062671430378 -0.0602882457372 0)
(7.61804340633e-05 -0.0603572091934 0)
(-0.000467911360353 -0.0603041046554 0)
(-0.00100643803863 -0.0601301206429 0)
(-0.00154012336058 -0.0598361919724 0)
(-0.00206953388486 -0.059423028014 0)
(-0.00259497367706 -0.058891160879 0)
(-0.00311647809744 -0.0582410074856 0)
(-0.00363371224553 -0.0574729489364 0)
(-0.00414597087369 -0.0565874232681 0)
(-0.00465209408083 -0.0555850341068 0)
(-0.0051504848689 -0.0544666664914 0)
(-0.00563905498313 -0.0532336107313 0)
(-0.00611526593965 -0.0518876821714 0)
(-0.00657610590505 -0.0504313371502 0)
(-0.00701814129427 -0.0488677739931 0)
(-0.00743750280096 -0.0472010247239 0)
(-0.00782991282425 -0.0454360358438 0)
(-0.00819064608498 -0.0435787579486 0)
(-0.00851450903334 -0.0416362564154 0)
(-0.00879578705986 -0.0396168760179 0)
(-0.00902824911875 -0.0375304654732 0)
(-0.00920523797108 -0.0353886756862 0)
(-0.0093199493264 -0.0332052691902 0)
(-0.00936595494738 -0.030996368297 0)
(-0.00933799250815 -0.0287804623876 0)
(-0.00923290922715 -0.0265780282496 0)
(-0.00905054728519 -0.0244106668482 0)
(-0.0087942196437 -0.0222998624837 0)
(-0.00847076645651 -0.0202655534619 0)
(-0.00808991128955 -0.0183247565217 0)
(-0.00766303957231 -0.0164907185324 0)
(-0.00720188941027 -0.0147728037599 0)
(-0.00671774533654 -0.0131769219461 0)
(-0.00622110062148 -0.0117060228904 0)
(-0.00572151275073 -0.0103604679174 0)
(-0.00522744126346 -0.00913834827515 0)
(-0.00474610054055 -0.00803582909246 0)
(-0.00428335616021 -0.00704756184436 0)
(-0.00384378483354 -0.00616711168921 0)
(-0.00343082347934 -0.00538728958457 0)
(-0.00304694678251 -0.00470036763486 0)
(-0.00269372708993 -0.00409822172995 0)
(-0.00237179125042 -0.00357252011645 0)
(-0.00208078997894 -0.00311503251007 0)
(-0.00181954954881 -0.0027179540908 0)
(-0.00158633628036 -0.00237411778634 0)
(-0.00137912525562 -0.00207705748425 0)
(-0.00119577329801 -0.00182098829194 0)
(-0.00103413226295 -0.00160075801116 0)
(-0.000892121447324 -0.00141179712549 0)
(-0.000767779262449 -0.00125007081555 0)
(-0.00065931190112 -0.00111203958876 0)
(-0.000565140934692 -0.000994666010275 0)
(-0.000484301801995 -0.000896070716274 0)
(-0.000414578868883 -0.000798544626372 0)
(-0.000373581663666 -0.00073855232286 0)
(-0.000338767647866 -0.000671528365657 0)
(-0.000312304192354 -0.000605474909533 0)
(-0.000281670747734 -0.000528926849006 0)
(-0.000251445933351 -0.000439445635255 0)
(-0.000250635229653 -0.000383933302761 0)
(-0.000255307974673 -0.000311617923059 0)
(-0.000298292979588 -0.000270727435658 0)
(-0.00034698223066 -0.000215990212405 0)
(-0.000359047185666 -0.000137656822476 0)
(-0.000380726845293 -8.06642234085e-05 0)
(-0.000379840990745 -2.68501735456e-05 0)
(0.0187635873291 -0.00174341012529 0)
(0.0197833796997 -0.00557416669168 0)
(0.01960198111 -0.00935635664661 0)
(0.0192829312074 -0.0131135654676 0)
(0.0188652300068 -0.0167871902947 0)
(0.0183584424619 -0.0203602830598 0)
(0.0177725163479 -0.0238154064093 0)
(0.0171181827422 -0.0271379484156 0)
(0.0164065025858 -0.0303160370918 0)
(0.0156484234247 -0.0333404927768 0)
(0.0148544141584 -0.0362046590292 0)
(0.0140341746693 -0.038904160979 0)
(0.0131964416381 -0.0414366155958 0)
(0.0123488658314 -0.0438013206277 0)
(0.0114979720548 -0.0459989433606 0)
(0.0106491649948 -0.048031226348 0)
(0.00980679125116 -0.0499007203579 0)
(0.00897421678109 -0.051610551243 0)
(0.00815393588797 -0.0531642217969 0)
(0.00734767152303 -0.0545654483441 0)
(0.00655649144981 -0.0558180281447 0)
(0.00578090144597 -0.056925734396 0)
(0.00502094817725 -0.0578922334049 0)
(0.004276293345 -0.058721020587 0)
(0.00354629808672 -0.0594153704706 0)
(0.00283007827761 -0.059978298511 0)
(0.00212657439992 -0.0604125312186 0)
(0.00143459488597 -0.0607204840179 0)
(0.000752879711962 -0.0609042450132 0)
(8.01409897e-05 -0.0609655640835 0)
(-0.000584870950307 -0.0609058573094 0)
(-0.00124332056371 -0.0607261988931 0)
(-0.00189621342148 -0.0604273519714 0)
(-0.00254433990325 -0.0600097924453 0)
(-0.0031881921904 -0.0594737554491 0)
(-0.00382790324761 -0.0588192992558 0)
(-0.00446316478041 -0.0580463879509 0)
(-0.00509317448393 -0.057154993718 0)
(-0.00571657310286 -0.0561452162604 0)
(-0.00633141955608 -0.0550174156686 0)
(-0.00693516654946 -0.053772351691 0)
(-0.00752467721425 -0.05241132084 0)
(-0.00809624281247 -0.0509362809975 0)
(-0.00864562678453 -0.0493499558812 0)
(-0.00916809025114 -0.0476559134738 0)
(-0.00965840616851 -0.045858626313 0)
(-0.0101108232733 -0.043963529179 0)
(-0.0105189845838 -0.0419771104018 0)
(-0.0108758055915 -0.0399070825549 0)
(-0.0111733617592 -0.0377626801828 0)
(-0.011402892019 -0.0355551185417 0)
(-0.0115550487158 -0.0332981684419 0)
(-0.0116205633705 -0.0310087314695 0)
(-0.0115914039782 -0.0287071293249 0)
(-0.0114623073645 -0.0264168157443 0)
(-0.0112323005257 -0.0241632246208 0)
(-0.0109054663651 -0.0219720288639 0)
(-0.0104912794258 -0.0198670211827 0)
(-0.0100035754901 -0.0178678995885 0)
(-0.00945838300008 -0.0159889845004 0)
(-0.00887157128268 -0.0142394194368 0)
(-0.00825779979638 -0.0126242672909 0)
(-0.00763041670055 -0.0111454268749 0)
(-0.00700150251033 -0.00980208023686 0)
(-0.00638172853465 -0.00859096887175 0)
(-0.00578009063971 -0.00750675563735 0)
(-0.00520372467232 -0.00654256777049 0)
(-0.00465801515218 -0.0056905867333 0)
(-0.00414692297043 -0.00494246053285 0)
(-0.00367333707692 -0.00428945049262 0)
(-0.0032391699321 -0.00372241015486 0)
(-0.00284513557354 -0.00323190412855 0)
(-0.0024905515005 -0.0028086500168 0)
(-0.00217354501355 -0.00244404546473 0)
(-0.00189154629667 -0.00213045997434 0)
(-0.00164173174505 -0.00186122864134 0)
(-0.00142123900452 -0.00163052627365 0)
(-0.00122727249103 -0.00143325644886 0)
(-0.00105716748333 -0.00126496634991 0)
(-0.000908425288595 -0.00112178265893 0)
(-0.000778745444724 -0.00100036273182 0)
(-0.000666053311448 -0.000898126721862 0)
(-0.000569361842617 -0.000810992341124 0)
(-0.00048717536392 -0.000725769759203 0)
(-0.000439262848471 -0.000666105289064 0)
(-0.000404224480941 -0.000604715397091 0)
(-0.000366735662112 -0.000529559641573 0)
(-0.000348232071872 -0.000474778579258 0)
(-0.000335514058957 -0.000414105024854 0)
(-0.000334235566252 -0.000353910421152 0)
(-0.000314452001059 -0.000265132764691 0)
(-0.000336874923943 -0.000206820056035 0)
(-0.000399377888846 -0.000172971014593 0)
(-0.000422967716363 -0.000118526592395 0)
(-0.000429917769941 -6.67037379837e-05 0)
(-0.000430299286658 -2.22123771509e-05 0)
(0.0224515473829 -0.00179983374983 0)
(0.0236683840996 -0.00575327883868 0)
(0.0234439611931 -0.00965326570554 6.68281360362e-28)
(0.0230513204926 -0.0135226538325 0)
(0.0225379175678 -0.0172995283599 0)
(0.0219161156097 -0.0209653633633 0)
(0.0211987559499 -0.0245015659632 0)
(0.0203995763672 -0.027892925228 0)
(0.0195326118835 -0.0311274913723 0)
(0.0186116284046 -0.0341964617696 0)
(0.0176496579965 -0.0370939221065 0)
(0.0166586488378 -0.0398165060727 0)
(0.0156492357013 -0.0423630086667 0)
(0.0146306171286 -0.0447339876062 0)
(0.0136105275729 -0.0469313792878 0)
(0.0125952789357 -0.0489581482964 0)
(0.0115898563191 -0.0508179811703 0)
(0.0105980426322 -0.0525150290175 0)
(0.00962256236653 -0.0540536981472 0)
(0.00866522501887 -0.0554384847881 0)
(0.00772706668927 -0.0566738477881 0)
(0.00680847653533 -0.0577641126276 0)
(0.00590931353703 -0.0587134000916 0)
(0.00502900430931 -0.0595255735781 0)
(0.00416663188381 -0.0602041999835 0)
(0.00332100805682 -0.06075252005 0)
(0.0024907416721 -0.0611734252921 0)
(0.00167429589903 -0.0614694393944 0)
(0.000870048025214 -0.0616427034207 0)
(7.63445256718e-05 -0.0616949627563 0)
(-0.000708435265079 -0.0616275698275 0)
(-0.00148581327244 -0.0614414668381 0)
(-0.00225713711478 -0.061137215151 0)
(-0.00302349903128 -0.0607150107306 0)
(-0.00378564423817 -0.0601747282712 0)
(-0.00454388001114 -0.0595159842134 0)
(-0.00529798082791 -0.0587382243868 0)
(-0.00604710506342 -0.057840835865 0)
(-0.00678972234742 -0.0568232834942 0)
(-0.00752356780265 -0.0556852642713 0)
(-0.00824562265149 -0.054426872713 0)
(-0.00895213219591 -0.0530487627167 0)
(-0.0096386521825 -0.0515522909236 0)
(-0.0103001184193 -0.0499396255133 0)
(-0.0109309126647 -0.0482138080193 0)
(-0.0115248957557 -0.0463787725562 0)
(-0.0120753683677 -0.0444393397801 0)
(-0.0125749241838 -0.0424012418276 0)
(-0.0130151988364 -0.0402712559245 0)
(-0.0133865500849 -0.0380575542409 0)
(-0.0136778317722 -0.0357703645727 0)
(-0.0138764784431 -0.0334229420428 0)
(-0.0139692502105 -0.0310327245981 0)
(-0.013943890825 -0.0286222069056 0)
(-0.0137916170753 -0.0262189247502 0)
(-0.0135098507152 -0.0238538252477 0)
(-0.0131032446359 -0.0215588403063 0)
(-0.0125848718589 -0.0193636612277 0)
(-0.0119747267709 -0.0172918587223 0)
(-0.0112955807146 -0.0153587131736 0)
(-0.010568489055 -0.013572219753 0)
(-0.00981172340402 -0.0119357669305 0)
(-0.00904151016403 -0.0104497254968 0)
(-0.00827260699834 -0.00911177989112 0)
(-0.00751814550276 -0.00791693669854 0)
(-0.00678905150511 -0.00685782559366 0)
(-0.00609363941085 -0.00592548672861 0)
(-0.00543780331426 -0.00511031034068 0)
(-0.00482570407314 -0.00440261184744 0)
(-0.00426054407057 -0.00379261493313 0)
(-0.00374473432944 -0.00327002056332 0)
(-0.00327922822525 -0.00282390200684 0)
(-0.00286284160709 -0.00244344223942 0)
(-0.00249256338823 -0.00211894913511 0)
(-0.00216456499381 -0.00184230472489 0)
(-0.00187498952072 -0.00160675036136 0)
(-0.00162014192803 -0.0014065291735 0)
(-0.00139650885026 -0.00123668659643 0)
(-0.00120080354342 -0.00109294999783 0)
(-0.00102995646893 -0.000971648594843 0)
(-0.000881098217497 -0.00086966002704 0)
(-0.00075152923256 -0.000785043104482 0)
(-0.000639687326552 -0.000709665860527 0)
(-0.000561424500401 -0.00064962643426 0)
(-0.000505565563336 -0.000589710077643 0)
(-0.000466815451527 -0.000532378676729 0)
(-0.000432335438542 -0.000473154508096 0)
(-0.000402414639639 -0.00040905390864 0)
(-0.000396762826811 -0.000357659406225 0)
(-0.000386474038955 -0.000290454916875 0)
(-0.00039875857107 -0.000239998043875 0)
(-0.000389650316499 -0.000169000024161 0)
(-0.000420837030295 -0.000128248472893 0)
(-0.00046746139654 -9.76642528377e-05 0)
(-0.000470521847041 -5.51528601197e-05 0)
(-0.000471656417916 -1.83982627386e-05 0)
(0.026269364289 -0.00186859484855 0)
(0.0276875681503 -0.00597167425294 0)
(0.0274140501051 -0.0100152491115 -6.68178822139e-28)
(0.0269388741137 -0.0140208691779 0)
(0.0263186585442 -0.0179224346434 0)
(0.0255691580857 -0.0216994474793 0)
(0.0247067468477 -0.0253319473869 0)
(0.0237487930859 -0.02880409421 0)
(0.022712866422 -0.0321039868056 0)
(0.0216160130361 -0.0352234484423 0)
(0.0204741773772 -0.0381576404073 0)
(0.0193017874701 -0.0409045851217 0)
(0.0181115016045 -0.0434646491897 0)
(0.0169140982103 -0.0458400306747 0)
(0.0157184832234 -0.0480342834995 0)
(0.0145317841985 -0.050051899565 0)
(0.0133595026052 -0.0518979586302 0)
(0.0122056975964 -0.0535778471566 0)
(0.0110731814314 -0.0550970413503 0)
(0.00996371036449 -0.0564609459272 0)
(0.00887816215959 -0.0576747784881 0)
(0.00781669356996 -0.0587434893512 0)
(0.00677887706116 -0.0596717073681 0)
(0.00576381591181 -0.0604637039042 0)
(0.0047702412963 -0.0611233683088 0)
(0.00379659304473 -0.0616541902265 0)
(0.00284108951227 -0.0620592447973 0)
(0.00190178918103 -0.0623411790026 0)
(0.000976650041994 -0.0625021976222 0)
(6.35895337446e-05 -0.0625440475639 0)
(-0.000839449852046 -0.062468016106 0)
(-0.00173442406553 -0.0622749018597 0)
(-0.00262310336956 -0.0619650389778 0)
(-0.0035069724745 -0.0615383009474 0)
(-0.0043871202659 -0.0609941379373 0)
(-0.00526412146266 -0.06033163748 0)
(-0.0061379155239 -0.0595496147579 0)
(-0.00700769237135 -0.0586467371037 0)
(-0.00787179509459 -0.0576216809656 0)
(-0.00872765365479 -0.0564733180232 0)
(-0.00957176029877 -0.0552009181996 0)
(-0.0103996983656 -0.0538043525262 0)
(-0.0112062219914 -0.0522842693841 0)
(-0.0119853799967 -0.0506422184951 0)
(-0.0127306473832 -0.0488806928625 0)
(-0.0134350198187 -0.0470030839341 0)
(-0.0140909929082 -0.0450135593331 0)
(-0.0146903558337 -0.0429169423492 0)
(-0.0152237509793 -0.0407187096453 0)
(-0.0156800045591 -0.0384253139955 0)
(-0.016045440107 -0.0360450474615 0)
(-0.0163034884445 -0.0335895871242 0)
(-0.0164353151683 -0.031076143735 0)
(-0.0164220689328 -0.0285294956031 0)
(-0.0162489691351 -0.0259827744109 0)
(-0.0159106761984 -0.0234748502872 0)
(-0.0154114893586 -0.0210470474801 0)
(-0.0147696526592 -0.0187385004402 0)
(-0.0140150990281 -0.0165786056733 0)
(-0.0131812371729 -0.0145827445024 0)
(-0.0122955253757 -0.0127555604826 0)
(-0.0113794090916 -0.0110972873885 0)
(-0.0104515675603 -0.0096063100052 0)
(-0.00952958580313 -0.00827871552802 0)
(-0.00862955024795 -0.00710741359257 0)
(-0.00776464903955 -0.0060822498713 0)
(-0.00694421645215 -0.0051913199053 0)
(-0.00617401613347 -0.00442265167717 0)
(-0.00545774234641 -0.00376520154674 0)
(-0.00479872502866 -0.0032084810292 0)