/*--------------------------------*- C++ -*----------------------------------*\
| =========                 |                                                 |
| \\      /  F ield         | OpenFOAM: The Open Source CFD Toolbox           |
|  \\    /   O peration     | Version:  v1906                                 |
|   \\  /    A nd           | Web:      www.OpenFOAM.com                      |
|    \\/     M anipulation  |                                                 |
\*---------------------------------------------------------------------------*/
FoamFile
{
    version     2.0;
    format      ascii;
    class       volVectorField;
    location    "412";
    object      U;
}
// * * * * * * * * * * * * * * * * * * * * * * * * * * * * * * * * * * * * * //

dimensions      [0 1 -1 0 0 0 0];


internalField   nonuniform List<vector> 
9216
(
(0.00271637240714 -0.00271844823143 0)
(0.00286409764584 -0.00877277308182 1.1732865515e-27)
(0.00285600088322 -0.0149215195165 1.84483558956e-31)
(0.002818801727 -0.021070895014 0)
(0.00276709860078 -0.0271176340453 0)
(0.0027024501985 -0.033037466526 0)
(0.00262642975656 -0.038804640135 0)
(0.00254050927544 -0.0443961634608 0)
(0.00244584502523 -0.049791931784 0)
(0.00234386731733 -0.0549745231328 0)
(0.00223566556851 -0.0599293561038 0)
(0.00212263323991 -0.0646444322689 0)
(0.00200572117822 -0.0691104085403 0)
(0.00188620556737 -0.0733202461386 0)
(0.00176483219188 -0.0772692093308 0)
(0.00164271407133 -0.0809544632582 0)
(0.00152036650325 -0.0843750460433 0)
(0.00139873267289 -0.0875314620588 0)
(0.00127810736936 -0.0904256628469 0)
(0.00115928524716 -0.0930606657899 0)
(0.00104237004943 -0.0954405651776 0)
(0.000928041072275 -0.0975701927561 0)
(0.000816248016039 -0.0994551630155 0)
(0.000707589975727 -0.101101577034 0)
(0.000601896475757 -0.102516098848 0)
(0.000499715073878 -0.103705699513 0)
(0.000400782895108 -0.104677753491 0)
(0.00030561733071 -0.105439814158 0)
(0.000213882500856 -0.10599972168 0)
(0.000126079825783 -0.106365406276 0)
(4.18190723482e-05 -0.106544987658 0)
(-3.8415659121e-05 -0.106546645618 0)
(-0.00011509364599 -0.106378631459 0)
(-0.000187738313235 -0.106049105713 0)
(-0.000256839341229 -0.105566327437 0)
(-0.000321923249086 -0.104938454012 0)
(-0.000383529633187 -0.104173632226 0)
(-0.000441195860589 -0.103279868286 0)
(-0.00049549941684 -0.102265095577 0)
(-0.00054598566146 -0.101137066161 0)
(-0.00059326390878 -0.0999034056734 0)
(-0.000636887151249 -0.0985715282057 0)
(-0.000677489168568 -0.0971486752216 0)
(-0.000714629058751 -0.095641853663 0)
(-0.000748958171475 -0.0940578603238 0)
(-0.000780041043054 -0.0924032463696 0)
(-0.000808538340517 -0.0906843242194 0)
(-0.0008340185342 -0.0889071576562 0)
(-0.000857144364511 -0.0870775523719 0)
(-0.000877488077785 -0.0852010738034 0)
(-0.000895706587422 -0.0832830181605 0)
(-0.000911375508531 -0.0813284561505 0)
(-0.000925139645703 -0.0793421854599 0)
(-0.000936579311498 -0.077328801233 0)
(-0.000946320924485 -0.0752926270038 0)
(-0.000953950987263 -0.0732378090506 0)
(-0.000960073287436 -0.0711682269871 0)
(-0.000964283805529 -0.0690876115777 0)
(-0.000967159858184 -0.066999432826 0)
(-0.000968310362925 -0.0649070375464 0)
(-0.000968284342517 -0.0628135170417 0)
(-0.000966708429591 -0.0607218630444 0)
(-0.000964101860315 -0.0586348144276 0)
(-0.000960113407072 -0.0565550274907 0)
(-0.000955232508592 -0.0544849052323 0)
(-0.000949134872733 -0.0524267801295 0)
(-0.00094227999131 -0.0503827273995 0)
(-0.000934374160564 -0.0483547564266 0)
(-0.000925847496381 -0.0463446128974 0)
(-0.000916439956428 -0.0443539769347 0)
(-0.000906552263685 -0.0423842570488 0)
(-0.000895959449599 -0.0404367915566 0)
(-0.000885033014151 -0.0385126397142 0)
(-0.000873583439995 -0.0366127845444 0)
(-0.000861952493299 -0.0347379244816 0)
(-0.000849984896542 -0.0328886747209 0)
(-0.000837992225665 -0.0310653640122 0)
(-0.000825851336805 -0.0292682329034 0)
(-0.000813842696285 -0.0274972382513 0)
(-0.000801872110179 -0.025752246198 0)
(-0.00079018811944 -0.0240328474656 0)
(-0.000778721751395 -0.0223385440309 0)
(-0.000767688413682 -0.020668576595 0)
(-0.000757039723848 -0.0190221043838 0)
(-0.000746955825933 -0.0173980469277 0)
(-0.00073740201786 -0.0157952592114 0)
(-0.00072851558048 -0.0142123922947 0)
(-0.000720255791131 -0.0126480730035 0)
(-0.000712679004973 -0.0111008087348 0)
(-0.000705638951771 -0.00956923694055 0)
(-0.00069885932399 -0.00805223247222 0)
(-0.000691421694187 -0.00654971512922 0)
(-0.000680921397802 -0.0050645054022 0)
(-0.000656330038471 -0.00361968513417 0)
(-0.000611953721962 -0.00205193745549 0)
(-0.00102519350165 -0.00102418513836 0)
(0.00879379371989 -0.00289380986406 0)
(0.00972371859918 -0.00979275501453 0)
(0.00970156069395 -0.01667900908 -1.23208435775e-27)
(0.00957234898099 -0.0235709433445 0)
(0.00939343315852 -0.0303385166315 0)
(0.00917232037568 -0.0369600136239 0)
(0.0089132420123 -0.043408072222 0)
(0.00862059831015 -0.0496574669748 0)
(0.00829848083005 -0.0556858486479 0)
(0.00795144150953 -0.0614738860449 0)
(0.00758350833184 -0.0670053826938 0)
(0.00719907863033 -0.0722671304763 0)
(0.00680176892728 -0.0772488595999 0)
(0.00639551415441 -0.0819429626851 0)
(0.00598328178726 -0.086344354748 0)
(0.00556838560372 -0.0904501403185 0)
(0.00515306017687 -0.0942594458396 0)
(0.00473997996012 -0.0977730842012 0)
(0.00433068296632 -0.100993402953 0)
(0.00392728003639 -0.103923980537 0)
(0.00353071614457 -0.106569513366 0)
(0.00314265610771 -0.108935558659 0)
(0.00276357741019 -0.111028466031 0)
(0.00239482018273 -0.112855167698 0)
(0.00203650979498 -0.114423149368 0)
(0.00168976259164 -0.115740280473 0)
(0.00135444274329 -0.116814813486 0)
(0.00103151590884 -0.117655243945 0)
(0.000720647704138 -0.118270326685 0)
(0.000422699656329 -0.118668954837 0)
(0.000137182409234 -0.118860188216 0)
(-0.000135129113376 -0.118853107353 0)
(-0.000394885547648 -0.118656918545 0)
(-0.000641379782355 -0.118280864352 0)
(-0.000875361292699 -0.117734156888 0)
(-0.00109618190707 -0.117025939767 0)
(-0.00130470877992 -0.11616530061 0)
(-0.00150035463527 -0.115161199919 0)
(-0.00168408616517 -0.114022483958 0)
(-0.0018553690136 -0.112757822718 0)
(-0.00201525418492 -0.11137571854 0)
(-0.0021632526319 -0.109884456417 0)
(-0.00230048187684 -0.108292108627 0)
(-0.00242648843889 -0.106606498559 0)
(-0.00254243756547 -0.104835201923 0)
(-0.00264790152298 -0.102985525135 0)
(-0.0027440729356 -0.101064502444 0)
(-0.0028305394153 -0.0990788891242 0)
(-0.00290850158332 -0.0970351544744 0)
(-0.00297755386492 -0.0949394899718 0)
(-0.00303888613438 -0.0927977968548 0)
(-0.00309209249783 -0.0906157085249 0)
(-0.00313833636927 -0.0883985721918 0)
(-0.00317720796615 -0.0861514847868 0)
(-0.0032098310585 -0.0838792670189 0)
(-0.0032357912061 -0.0815865112199 0)
(-0.00325616377048 -0.0792775471498 0)
(-0.00327053315905 -0.0769565003525 0)
(-0.00327992095869 -0.0746272482115 0)
(-0.00328391677778 -0.0722934867435 0)
(-0.00328348739815 -0.06995867673 0)
(-0.00327823723498 -0.0676261173522 0)
(-0.00326907977265 -0.0652988817962 0)
(-0.00325564490614 -0.062979895796 0)
(-0.0032387968224 -0.0606718636836 0)
(-0.00321820218786 -0.0583773506557 0)
(-0.00319468020613 -0.0560987000499 0)
(-0.0031679439179 -0.0538381179985 0)
(-0.00313877182693 -0.0515975841599 0)
(-0.00310693082635 -0.0493789381746 0)
(-0.00307316127824 -0.0471837857595 0)
(-0.00303728776742 -0.0450135861701 0)
(-0.00300001346952 -0.0428695565076 0)
(-0.00296122114432 -0.0407527599303 0)
(-0.00292157540911 -0.0386640103549 0)
(-0.00288101394476 -0.0366039608314 0)
(-0.0028401598271 -0.0345730111722 0)
(-0.00279899962457 -0.0325713962569 0)
(-0.00275811026837 -0.030599098195 0)
(-0.00271751871787 -0.0286559339935 0)
(-0.00267775033069 -0.0267414738254 0)
(-0.0026388623724 -0.0248551278217 0)
(-0.00260132208663 -0.0229960711805 0)
(-0.00256520490297 -0.0211633298956 0)
(-0.00253091077958 -0.019355713694 0)
(-0.00249851576296 -0.0175719011463 0)
(-0.00246833182819 -0.0158103806384 0)
(-0.00244039306254 -0.0140695329658 0)
(-0.00241484800152 -0.0123475722515 0)
(-0.00239151933803 -0.0106425990882 0)
(-0.00237001657433 -0.00895244834281 0)
(-0.00234906915264 -0.00727439906568 0)
(-0.00232554503195 -0.00560364902051 0)
(-0.00229061551753 -0.00392925916049 0)
(-0.00220088208901 -0.0021941252591 0)
(-0.0020521508289 -0.00060920975522 0)
(0.015054027328 -0.00293968170493 0)
(0.016668855422 -0.00995358102685 0)
(0.0166085685293 -0.0169300692926 -1.2300396054e-27)
(0.016377930383 -0.0239226611055 0)
(0.016066632665 -0.030787225947 0)
(0.0156845195953 -0.0375005504562 0)
(0.0152380170665 -0.0440342211471 0)
(0.014734141625 -0.0503624753688 0)
(0.014180118227 -0.0564626265004 0)
(0.0135835019621 -0.0623152217663 0)
(0.0129515663331 -0.0679040802514 0)
(0.0122915567234 -0.0732161789301 0)
(0.0116100735507 -0.0782415183174 0)
(0.0109134780541 -0.0829728736517 0)
(0.0102072771856 -0.0874055689931 0)
(0.00949667780236 -0.0915371752232 0)
(0.00878595977437 -0.0953672635263 0)
(0.0080791581471 -0.0988971096107 0)
(0.00737940132131 -0.102129472443 0)
(0.00668969591428 -0.105068338541 0)
(0.00601220778011 -0.107718748606 0)
(0.00534912788916 -0.110086594641 0)
(0.00470188070844 -0.112178497589 0)
(0.00407205586606 -0.114001654387 0)
(0.00346053623983 -0.115563759475 0)
(0.00286848690313 -0.116872891861 0)
(0.00229640236058 -0.117937467559 0)
(0.0017451488414 -0.118766153854 0)
(0.00121493476445 -0.119367840946 0)
(0.00070640496373 -0.119751572895 0)
(0.00021953977443 -0.119926530108 0)
(-0.000245192447296 -0.119901969163 0)
(-0.000687995922137 -0.119687205221 0)
(-0.00110855751209 -0.119291564225 0)
(-0.00150726131314 -0.118724362753 0)
(-0.00188393765763 -0.117994861476 0)
(-0.00223912563253 -0.117112248431 0)
(-0.00257278530171 -0.116085595174 0)
(-0.00288559732555 -0.114923842088 0)
(-0.00317763731135 -0.113635759771 0)
(-0.00344970754937 -0.112229935844 0)
(-0.00370198063912 -0.11071474356 0)
(-0.00393535627091 -0.109098330125 0)
(-0.00415008205195 -0.10738859309 0)
(-0.00434712819137 -0.105593171548 0)
(-0.00452679363921 -0.10371943139 0)
(-0.00469009088006 -0.101774458619 0)
(-0.00483734633752 -0.099765053165 0)
(-0.00496958741929 -0.0976977248963 0)
(-0.00508714607089 -0.0955786962072 0)
(-0.00519103957311 -0.0934138992062 0)
(-0.00528158674509 -0.0912089859535 0)
(-0.00535977404824 -0.0889693267306 0)
(-0.0054258936156 -0.0867000273245 0)
(-0.00548088572574 -0.0844059263192 0)
(-0.00552500813052 -0.0820916176549 0)
(-0.00555914619818 -0.0797614464133 0)
(-0.00558352230684 -0.0774195354961 0)
(-0.00559896469532 -0.0750697777607 0)
(-0.00560566553127 -0.0727158648464 0)
(-0.00560440002782 -0.0703612752785 0)
(-0.005595340686 -0.0680093043478 0)
(-0.0055792183879 -0.0656630467085 0)
(-0.00555619976104 -0.0633254258715 0)
(-0.00552698295468 -0.0609991717627 0)
(-0.00549174373067 -0.0586868494637 0)
(-0.00545115937298 -0.0563908314933 0)
(-0.0054054283414 -0.0541133253394 0)
(-0.00535521728321 -0.0518563419878 0)
(-0.00530075768278 -0.0496217227211 0)
(-0.00524271217918 -0.0474111047265 0)
(-0.00518135076397 -0.0452259474625 0)
(-0.00511733437179 -0.0430674973839 0)
(-0.00505097179147 -0.0409368147064 0)
(-0.00498291983987 -0.038834738404 0)
(-0.00491352122557 -0.0367619138212 0)
(-0.00484342218741 -0.0347187597029 0)
(-0.00477299028618 -0.0327054972752 0)
(-0.00470285142609 -0.0307221200795 0)
(-0.0046333857219 -0.028768424679 0)
(-0.00456518684508 -0.026843984248 0)
(-0.00449863306304 -0.0249481810489 0)
(-0.00443427223191 -0.0230801838612 0)
(-0.0043724643149 -0.0212389819834 0)
(-0.00431369518534 -0.0194233666628 0)
(-0.00425828556561 -0.0176319656954 0)
(-0.00420663494191 -0.0158632263995 0)
(-0.00415898872767 -0.0141154444839 0)
(-0.00411560985162 -0.0123867335569 0)
(-0.00407659233499 -0.0106750170911 0)
(-0.00404196744639 -0.00897791630814 0)
(-0.00401162410542 -0.00729255402032 0)
(-0.00398558306636 -0.00561493177058 0)
(-0.00396430089103 -0.00393820780324 0)
(-0.00393366386277 -0.00227119750253 0)
(-0.00361379841702 -0.000649927198855 0)
(0.0214621592137 -0.00298497181104 0)
(0.0237826303846 -0.0101038333835 0)
(0.0236935263167 -0.0171757282323 1.22946708883e-27)
(0.0233594287569 -0.0242644523422 0)
(0.0229093873584 -0.0312198002381 0)
(0.0223578884674 -0.0380170720351 0)
(0.0217143447299 -0.0446266710681 0)
(0.0209888703077 -0.051022135988 0)
(0.0201920837228 -0.0571804230629 0)
(0.0193348689311 -0.0630820318364 0)
(0.0184279050677 -0.06871097512 0)
(0.0174815461254 -0.0740546373231 0)
(0.0165054434647 -0.0791035700284 0)
(0.0155085755792 -0.0838512143003 0)
(0.014498965275 -0.0882936094249 0)
(0.0134838456884 -0.0924290716985 0)
(0.0124694461701 -0.0962578956158 0)
(0.0114612605147 -0.0997820534428 0)
(0.0104638641519 -0.103004937398 0)
(0.00948124640949 -0.105931113557 0)
(0.00851662441138 -0.10856612465 0)
(0.00757280880307 -0.11091630652 0)
(0.0066519903176 -0.112988650816 0)
(0.00575611917696 -0.114790676874 0)
(0.00488665158182 -0.116330342395 0)
(0.00404493383756 -0.117615956229 0)
(0.00323190582909 -0.118656121545 0)
(0.00244848812637 -0.119459674555 0)
(0.00169524557588 -0.12003564611 0)
(0.000972780320193 -0.120393214213 0)
(0.000281361563427 -0.120541672973 0)
(-0.00037866838053 -0.120490401731 0)
(-0.00100728916729 -0.120248812911 0)
(-0.00160438929063 -0.119826330134 0)
(-0.00217018243543 -0.119232363083 0)
(-0.00270477208846 -0.118476266374 0)
(-0.00320858381524 -0.117567313272 0)
(-0.00368191730094 -0.116514660763 0)
(-0.00412539035458 -0.115327325077 0)
(-0.00453947686271 -0.114014150855 0)
(-0.00492496055505 -0.112583789728 0)
(-0.00528246111049 -0.111044674664 0)
(-0.00561289545934 -0.109405002608 0)
(-0.00591699534382 -0.107672715146 0)
(-0.00619577432661 -0.105855485954 0)
(-0.00645003979332 -0.103960708189 0)
(-0.00668086344734 -0.101995486894 0)
(-0.00688909153692 -0.0999666333267 0)
(-0.00707581681107 -0.0978806621835 0)
(-0.00724189021984 -0.0957437924059 0)
(-0.00738839183624 -0.0935619485228 0)
(-0.00751614792743 -0.0913407672829 0)
(-0.00762619851259 -0.0890856022437 0)
(-0.00771932305194 -0.0868015350396 0)
(-0.00779650184615 -0.0844933818143 0)
(-0.00785845403689 -0.0821657077903 0)
(-0.00790609015894 -0.0798228341569 0)
(-0.0079400652849 -0.0774688542817 0)
(-0.00796121955509 -0.075107639357 0)
(-0.00797014944859 -0.0727428547047 0)
(-0.00796763319545 -0.0703779628822 0)
(-0.00795422214696 -0.0680162386518 0)
(-0.00793064763951 -0.0656607683646 0)
(-0.00789743445339 -0.0633144626572 0)
(-0.00785528601025 -0.0609800517378 0)
(-0.00780472102985 -0.0586600953817 0)
(-0.00774643403462 -0.0563569741189 0)
(-0.00768095643387 -0.0540728967077 0)
(-0.00760899001728 -0.0518098880615 0)
(-0.00753109309347 -0.049569794857 0)
(-0.00744798516223 -0.047354271228 0)
(-0.00736025893293 -0.0451647834702 0)
(-0.0072686552699 -0.0430025949853 0)
(-0.00717380144995 -0.0408687711698 0)
(-0.00707645607972 -0.0387641648758 0)
(-0.00697727404102 -0.0366894224586 0)
(-0.00687702183477 -0.0346449710489 0)
(-0.00677636918398 -0.0326310265571 0)
(-0.00667607565906 -0.0306475835472 0)
(-0.0065768088212 -0.0286944256424 0)
(-0.00647930337801 -0.0267711185425 0)
(-0.00638420522331 -0.0248770229651 0)
(-0.0062922043979 -0.023011290763 0)
(-0.0062039040947 -0.0211728800462 0)
(-0.0061199285458 -0.0193605540423 0)
(-0.00604081548888 -0.0175728969859 0)
(-0.00596709976315 -0.0158083128194 0)
(-0.00589922801986 -0.0140650362477 0)
(-0.00583762163912 -0.0123411197164 0)
(-0.00578262199207 -0.0106344224835 0)
(-0.00573456399904 -0.00894256907318 0)
(-0.00569382919263 -0.00726288972882 0)
(-0.00566105106855 -0.00559231890759 0)
(-0.00563637998074 -0.00392620233106 0)
(-0.00559429371893 -0.00228661988149 0)
(-0.00504202797331 -0.000668769722338 0)
(0.027976983838 -0.00304443665932 0)
(0.03100495453 -0.0103013642604 0)
(0.0308844243262 -0.0175056203812 0)
(0.0304415409448 -0.0247235441814 0)
(0.0298454740296 -0.0318000810514 0)
(0.0291158266099 -0.0387088207434 0)
(0.0282654602961 -0.0454187342694 0)
(0.0273080540074 -0.0519024476116 0)
(0.0262579643852 -0.0581364735829 0)
(0.0251297718806 -0.0641012907074 0)
(0.0239377859561 -0.0697812421526 0)
(0.0226957258339 -0.0751643282965 0)
(0.0214163884244 -0.080241921644 0)
(0.0201115152713 -0.0850084237861 0)
(0.0187916229296 -0.089460902592 0)
(0.0174660309331 -0.0935987219686 0)
(0.0161428125888 -0.0974231924444 0)
(0.0148289318836 -0.100937244569 0)
(0.0135302593253 -0.104145142929 0)
(0.01225176396 -0.107052234237 0)
(0.0109975460388 -0.10966473984 0)
(0.00977104299211 -0.111989580676 0)
(0.00857504639816 -0.114034240623 0)
(0.00741189735724 -0.115806654116 0)
(0.00628347148326 -0.117315122381 0)
(0.00519135371856 -0.118568243964 0)
(0.00413678768944 -0.119574863703 0)
(0.00312083035308 -0.120344027292 0)
(0.00214427029763 -0.120884946568 0)
(0.00120776834208 -0.121206964587 0)
(0.000311752725579 -0.121319523527 0)
(-0.000543446893179 -0.121232149347 0)
(-0.00135771408248 -0.120954381974 0)
(-0.00213101682013 -0.12049577817 0)
(-0.00286353305182 -0.119865871774 0)
(-0.00355551149541 -0.119074138464 0)
(-0.00420740321893 -0.118129965688 0)
(-0.00481971663283 -0.11704262034 0)
(-0.00539315127164 -0.115821220147 0)
(-0.00592844654091 -0.114474704596 0)
(-0.00642651667081 -0.113011810132 0)
(-0.00688829412056 -0.111441046022 0)
(-0.00731486553003 -0.109770674428 0)
(-0.00770731130591 -0.108008692167 0)
(-0.00806684258136 -0.106162816704 0)
(-0.00839463864675 -0.104240474511 0)
(-0.00869198502381 -0.102248793002 0)
(-0.00896011055188 -0.100194595389 0)
(-0.0092003265567 -0.098084398601 0)
(-0.0094138652937 -0.0959244143891 0)
(-0.00960202014573 -0.0937205523465 0)
(-0.00976598718015 -0.0914784263122 0)
(-0.00990700615147 -0.0892033617392 0)
(-0.0100262067263 -0.0869004063398 0)
(-0.0101247499402 -0.0845743401765 0)
(-0.0102036805541 -0.0822296888915 0)
(-0.0102640683285 -0.0798707351229 0)
(-0.0103068675312 -0.0775015326853 0)
(-0.0103330570632 -0.0751259173077 0)
(-0.0103435077984 -0.0727475198806 0)
(-0.0103391201832 -0.0703697751164 0)
(-0.0103206994902 -0.0679959324408 0)
(-0.0102890891784 -0.0656290611105 0)
(-0.0102450538327 -0.0632720576258 0)
(-0.0101894063901 -0.0609276468897 0)
(-0.0101228981806 -0.0585983858703 0)
(-0.0100463381796 -0.0562866606792 0)
(-0.0099604896343 -0.0539946867405 0)
(-0.00986617980793 -0.0517245027068 0)
(-0.00976420274111 -0.0494779681213 0)
(-0.00965541842426 -0.0472567552004 0)
(-0.0095406616025 -0.0450623451948 0)
(-0.00942082987541 -0.042896019611 0)
(-0.0092967986631 -0.0407588567074 0)
(-0.00916949823722 -0.0386517233987 0)
(-0.0090398352622 -0.0365752730918 0)
(-0.00890875918827 -0.0345299395567 0)
(-0.00877719082948 -0.0325159371222 0)
(-0.0086460788002 -0.0305332571995 0)
(-0.00851633564687 -0.0285816713868 0)
(-0.00838888514302 -0.0266607310735 0)
(-0.0082646063197 -0.0247697736205 0)
(-0.00814437239502 -0.0229079248469 0)
(-0.00802900292425 -0.0210741078833 0)
(-0.00791929510529 -0.0192670481315 0)
(-0.00781598426775 -0.017485283525 0)
(-0.00771976879955 -0.0157271697949 0)
(-0.0076312807714 -0.013990888638 0)
(-0.00755110999477 -0.0122744478311 0)
(-0.00747979587679 -0.0105756841336 0)
(-0.0074178744355 -0.00889226386352 0)
(-0.00736593148039 -0.00722170278998 0)
(-0.00732463393603 -0.00556142571267 0)
(-0.00729304622537 -0.00390741047078 0)
(-0.00723511280368 -0.00228385679102 0)
(-0.00649618825056 -0.00067150819129 0)
(0.0346363669991 -0.00311978545571 0)
(0.038382778522 -0.0105542251746 0)
(0.0382262120186 -0.0179303029027 0)
(0.0376665298801 -0.0253147322254 0)
(0.0369140695897 -0.0325467610136 0)
(0.0359940583117 -0.0395978882251 0)
(0.034923357058 -0.0464353455152 0)
(0.0337197800927 -0.0530306595836 0)
(0.0324019225003 -0.0593598553725 0)
(0.0309885250148 -0.0654034776073 0)
(0.0294978767721 -0.0711463998901 0)
(0.0279473600434 -0.0765775189872 0)
(0.026353088421 -0.081689363943 0)
(0.0247296990297 -0.0864776561117 0)
(0.0230902189686 -0.0909408566826 0)
(0.0214460621137 -0.0950797252368 0)
(0.0198070586678 -0.0988969117989 0)
(0.018181580309 -0.102396591549 0)
(0.0165766547251 -0.105584151698 0)
(0.0149981457122 -0.108465928746 0)
(0.0134508886063 -0.11104899714 0)
(0.0119388726436 -0.113341001599 0)
(0.010465356698 -0.115350030232 0)
(0.00903302455478 -0.117084518565 0)
(0.00764406208323 -0.118553180607 0)
(0.00630027538028 -0.119764957425 0)
(0.00500312683529 -0.120728980341 0)
(0.00375381908911 -0.121454540832 0)
(0.00255329738506 -0.121951066048 0)
(0.00140230929758 -0.122228094351 0)
(0.000301384791838 -0.122295247842 0)
(-0.000749120688307 -0.122162230839 0)
(-0.00174904598211 -0.121838739829 0)
(-0.00269839470736 -0.121334497986 0)
(-0.00359736422601 -0.120659195204 0)
(-0.00444630287861 -0.119822459363 0)
(-0.00524574505455 -0.11883382361 0)
(-0.00599636269658 -0.117702693568 0)
(-0.00669899857995 -0.116438316653 0)
(-0.00735461333434 -0.115049752359 0)
(-0.00796431659791 -0.11354584556 0)
(-0.00852931014647 -0.111935201779 0)
(-0.00905091746912 -0.110226166093 0)
(-0.00953052434901 -0.10842680471 0)
(-0.00996960781938 -0.10654489037 0)
(-0.0103696755198 -0.104587890732 0)
(-0.01073229492 -0.102562960562 0)
(-0.0110590329467 -0.100476937019 0)
(-0.0113514863847 -0.0983363383798 0)
(-0.0116112230023 -0.0961473657289 0)
(-0.0118398138466 -0.0939159075611 0)
(-0.0120387772085 -0.0916475470692 0)
(-0.0122096135248 -0.0893475715543 0)
(-0.0123537532146 -0.0870209839928 0)
(-0.0124725946322 -0.0846725157565 0)
(-0.0125674567654 -0.0823066408438 0)
(-0.0126396204531 -0.0799275900746 0)
(-0.012690286344 -0.0775393659985 0)
(-0.0127206190267 -0.0751457565283 0)
(-0.0127317102751 -0.0727503485648 0)
(-0.0127246252406 -0.0703565391685 0)
(-0.0127003702398 -0.0679675461412 0)
(-0.0126599395448 -0.0655864152412 0)
(-0.0126042866505 -0.0632160266042 0)
(-0.0125343699297 -0.0608590972686 0)
(-0.0124511259262 -0.0585181830643 0)
(-0.012355512038 -0.0561956765133 0)
(-0.0122484806093 -0.0538938046736 0)
(-0.0121310171498 -0.0516146233168 0)
(-0.0120041142168 -0.0493600118538 0)
(-0.0118688041364 -0.0471316651777 0)
(-0.0117261322986 -0.0449310871956 0)
(-0.0115771839948 -0.0427595820286 0)
(-0.0114230571532 -0.040618247743 0)
(-0.0112648834257 -0.0385079684686 0)
(-0.0111038008952 -0.0364294097324 0)
(-0.01094097 -0.0343830128377 0)
(-0.0107775469024 -0.0323689928467 0)
(-0.0106146950702 -0.0303873360685 0)
(-0.0104535601523 -0.028437801268 0)
(-0.0102952781457 -0.0265199206323 0)
(-0.0101409525074 -0.024633004301 0)
(-0.00999165979784 -0.0227761446442 0)
(-0.00984842972131 -0.0209482237243 0)
(-0.00971224917621 -0.0191479205277 0)
(-0.00958404606008 -0.0173737204476 0)
(-0.0094646932526 -0.0156239241448 0)
(-0.00935499847058 -0.0138966577148 0)
(-0.00925571254933 -0.0121898809358 0)
(-0.00916753274228 -0.0105013996425 0)
(-0.00909112619736 -0.00882889173957 0)
(-0.00902715056613 -0.00716994048746 0)
(-0.00897616184643 -0.00552209358351 0)
(-0.00893629322528 -0.00388135567284 0)
(-0.00886220678361 -0.00227172776904 0)
(-0.00794878094973 -0.000669180456744 0)
(0.0414773245525 -0.00321311557959 0)
(0.0459580412954 -0.0108681267195 0)
(0.0457590021758 -0.0184580946005 1.21987199534e-27)
(0.0450716700537 -0.0260491312596 0)
(0.0441490244329 -0.0334733506551 0)
(0.04302259039 -0.0406996202356 0)
(0.0417139407332 -0.047693065682 0)
(0.0402457506656 -0.054423939745 0)
(0.0386415190038 -0.060867792509 0)
(0.0369247327171 -0.0670054064193 0)
(0.0351181224331 -0.0728224829843 0)
(0.0332430863664 -0.0783091981319 0)
(0.0313192749789 -0.0834596694907 0)
(0.0293643474298 -0.0882713851493 0)
(0.0273938602743 -0.0927446361977 0)
(0.0254212843574 -0.0968819834439 0)
(0.0234580986751 -0.10068777959 0)
(0.0215139580949 -0.104167757712 0)
(0.0195968846371 -0.107328690262 0)
(0.0177134886973 -0.11017811632 0)
(0.0158691756895 -0.112724131784 0)
(0.0140683556856 -0.114975234075 0)
(0.0123146171192 -0.116940212519 0)
(0.0106108917845 -0.118628074576 0)
(0.00895957579332 -0.120047999159 0)
(0.00736264108031 -0.121209308317 0)
(0.00582170372877 -0.122121450344 0)
(0.00433808899279 -0.122793988098 0)
(0.00291285900194 -0.123236588462 0)
(0.00154684613044 -0.123459009433 0)
(0.00024065708228 -0.12347107976 0)
(-0.00100531911137 -0.123282712821 0)
(-0.00219089608635 -0.122903787559 0)
(-0.00331610075853 -0.122344227287 0)
(-0.00438117105702 -0.121613909964 0)
(-0.00538654391584 -0.120722648276 0)
(-0.006332861094 -0.119680153285 0)
(-0.00722094956532 -0.118496000281 0)
(-0.00805182318098 -0.117179595692 0)
(-0.00882665808787 -0.115740145878 0)
(-0.00954679036093 -0.114186628445 0)
(-0.0102136874024 -0.112527766516 0)
(-0.0108289427471 -0.110772006278 0)
(-0.0113942449371 -0.108927498094 0)
(-0.011911370924 -0.107002081304 0)
(-0.0123821540063 -0.105003272817 0)
(-0.0128084772529 -0.102938259353 0)
(-0.0131922419911 -0.100813893436 0)
(-0.0135353624966 -0.0986366928562 0)
(-0.0138397363874 -0.0964128436231 0)
(-0.0141072417531 -0.0941482058711 0)
(-0.0143397107308 -0.091848322824 0)
(-0.014538930124 -0.0895184320808 0)
(-0.0147066193172 -0.0871634792658 0)
(-0.0148444353002 -0.0847881330269 0)
(-0.0149539558324 -0.0823968014846 0)
(-0.0150366893947 -0.0799936489541 0)
(-0.0150940639988 -0.0775826129924 0)
(-0.0151274420077 -0.0751674204692 0)
(-0.0151381142919 -0.0727516028299 0)
(-0.01512731908 -0.0703385093438 0)
(-0.0150962403579 -0.067931318549 0)
(-0.015046029205 -0.0655330468936 0)
(-0.0149778047148 -0.0631465549702 0)
(-0.0148926757906 -0.0607745507421 0)
(-0.0147917425424 -0.0584195901941 0)
(-0.0146761164591 -0.0560840752485 0)
(-0.0145469203981 -0.0537702494326 0)
(-0.014405305399 -0.0514801916208 0)
(-0.0142524478674 -0.0492158081645 0)
(-0.0140895619498 -0.04697882412 0)
(-0.0139178932526 -0.0447707736957 0)
(-0.01373872644 -0.0425929909422 0)
(-0.0135533755251 -0.0404466004712 0)
(-0.0133631870174 -0.038332509357 0)
(-0.0131695274122 -0.0362513997861 0)
(-0.0129737826778 -0.0342037236122 0)
(-0.0127773439164 -0.0321896981875 0)
(-0.0125816042331 -0.0302093044129 0)
(-0.0123879437051 -0.0282622864107 0)
(-0.0121977247373 -0.026348153381 0)
(-0.0120122774413 -0.0244661832437 0)
(-0.0118328945212 -0.0226154280671 0)
(-0.0116608181001 -0.0207947213161 0)
(-0.0114972351596 -0.0190026865871 0)
(-0.0113432669211 -0.0172377477923 0)
(-0.0111999661917 -0.0154981404831 0)
(-0.0110683111124 -0.013781924312 0)
(-0.0109492069995 -0.0120869966213 0)
(-0.0108434874486 -0.0104111109736 0)
(-0.0107519222724 -0.00875190265151 0)
(-0.0106752155298 -0.00710692572421 0)
(-0.0106138435098 -0.00547369308085 0)
(-0.0105652576444 -0.00384804092281 0)
(-0.0104755238391 -0.00225338747432 0)
(-0.00939261654181 -0.000664202176464 0)
(0.0485409298828 -0.00332654570386 0)
(0.0537758925528 -0.011249699589 0)
(0.0535260254031 -0.0190994933356 -1.21922129757e-27)
(0.052696970707 -0.0269407741586 0)
(0.051586336754 -0.0345967542172 0)
(0.0502328913279 -0.0420330250225 0)
(0.0486638753716 -0.0492121890409 0)
(0.0469077719251 -0.0561030818239 0)
(0.0449938478043 -0.0626808731975 0)
(0.0429510739438 -0.0689268736674 0)
(0.0408071992274 -0.0748280454746 0)
(0.0385880517351 -0.0803763655551 0)
(0.0363170693948 -0.085568101997 0)
(0.0340150469779 -0.0904030700493 0)
(0.0317000631727 -0.094883919191 0)
(0.0293875544317 -0.0990154865468 0)
(0.0270904900384 -0.102804238095 0)
(0.0248196174752 -0.106257805983 0)
(0.022583739635 -0.109384621875 0)
(0.0203900053876 -0.112193638875 0)
(0.018244186841 -0.114694131745 0)
(0.0161509377656 -0.116895562183 0)
(0.0141140163843 -0.118807496572 0)
(0.0121364767173 -0.120439562762 0)
(0.0102208182153 -0.121801434617 0)
(0.008369104502 -0.122902833237 0)
(0.00658304479933 -0.123753536619 0)
(0.00486405295393 -0.124363390196 0)
(0.00321327910803 -0.124742313965 0)
(0.0016316303001 -0.124900301255 0)
(0.000119781310889 -0.124847409529 0)
(-0.00132184739636 -0.124593788591 0)
(-0.00269305264213 -0.12414952581 0)
(-0.00399387883803 -0.123524777093 0)
(-0.00522461388215 -0.122729642285 0)
(-0.00638578378879 -0.121774153099 0)
(-0.00747815093095 -0.120668232723 0)
(-0.00850270214238 -0.119421658875 0)
(-0.00946064029048 -0.118044028148 0)
(-0.0103533659564 -0.116544722259 0)
(-0.0111824634786 -0.114932877343 0)
(-0.0119496777734 -0.113217356381 0)
(-0.0126568966392 -0.111406725597 0)
(-0.0133061247137 -0.109509234614 0)
(-0.0138994639977 -0.107532800932 0)
(-0.0144390868475 -0.105484998326 0)
(-0.0149272164792 -0.103373049597 0)
(-0.015366100713 -0.101203823106 0)
(-0.0157579940237 -0.0989838334285 0)
(-0.0161051335102 -0.0967192454585 0)
(-0.0164097238976 -0.0944158822145 0)
(-0.0166739171748 -0.092079235601 0)
(-0.0168998019369 -0.0897144801704 0)
(-0.0170893880205 -0.0873264890832 0)
(-0.0172446014113 -0.0849198520898 0)
(-0.0173672750004 -0.0824988946766 0)
(-0.0174591498972 -0.0800676979198 0)
(-0.0175218727946 -0.0776301182477 0)
(-0.0175570037381 -0.0751898064353 0)
(-0.0175660197383 -0.0727502252457 0)
(-0.0175503280755 -0.0703146648574 0)
(-0.0175112747344 -0.0678862559195 0)
(-0.0174501613265 -0.0654679793001 0)
(-0.0173682561319 -0.0630626729549 0)
(-0.0172668120994 -0.0606730349404 0)
(-0.0171470778577 -0.0583016236679 0)
(-0.0170103141263 -0.0559508544078 0)
(-0.0168578023073 -0.0536229937645 0)
(-0.0166908571211 -0.051320151058 0)
(-0.0165108310527 -0.049044268802 0)
(-0.0163191218608 -0.0467971110905 0)
(-0.0161171721416 -0.0445802523433 0)
(-0.0159064713371 -0.0423950650887 0)
(-0.0156885505668 -0.0402427092335 0)
(-0.0154649795906 -0.03812412139 0)
(-0.0152373577811 -0.0360400065399 0)
(-0.0150073070865 -0.0339908305931 0)
(-0.0147764603983 -0.0319768157456 0)
(-0.0145464518682 -0.0299979372817 0)
(-0.0143189040801 -0.0280539232636 0)
(-0.0140954171594 -0.0261442559131 0)
(-0.013877556072 -0.0242681756674 0)
(-0.0136668398795 -0.022424686909 0)
(-0.013464730341 -0.0206125659766 0)
(-0.0132726225318 -0.0188303709563 0)
(-0.013091835791 -0.0170764530669 0)
(-0.0129236068664 -0.0153489698901 0)
(-0.0127690843126 -0.0136459000337 0)
(-0.0126293251777 -0.011965058765 0)
(-0.0125052934534 -0.0103041169977 0)
(-0.0123978583581 -0.00866063321851 0)
(-0.0123077785437 -0.00703207375503 0)