/*--------------------------------*- C++ -*----------------------------------*\
| =========                 |                                                 |
| \\      /  F ield         | OpenFOAM: The Open Source CFD Toolbox           |
|  \\    /   O peration     | Version:  v1906                                 |
|   \\  /    A nd           | Web:      www.OpenFOAM.com                      |
|    \\/     M anipulation  |                                                 |
\*---------------------------------------------------------------------------*/
FoamFile
{
    version     2.0;
    format      ascii;
    class       volScalarField;
    location    "295";
    object      p;
}
// * * * * * * * * * * * * * * * * * * * * * * * * * * * * * * * * * * * * * //

dimensions      [0 2 -2 0 0 0 0];


internalField   nonuniform List<scalar> 
9216
(
273.437000697
273.516942499
273.682369731
273.934684907
274.272481015
274.694162373
275.197781078
275.781016239
276.441282004
277.175690061
277.98117319
278.854429963
279.792063645
280.790506127
281.846170022
282.955349287
284.114383642
285.319534612
286.567162486
287.853577697
289.175231464
290.52854297
291.910105016
293.316487866
294.744461309
296.190775933
297.652402569
299.126291784
300.609631475
302.099585105
303.593567722
305.088963277
306.583418808
308.074542382
309.560215541
311.038270772
312.506821539
313.963921491
315.407911054
316.837059077
318.249925174
319.644985034
321.021007166
322.37666361
323.710919697
325.022631935
326.310948918
327.574898689
328.81379887
330.026835826
331.213481584
332.373067629
333.505206106
334.609361069
335.685270972
336.732520616
337.750961936
338.740289763
339.70045753
340.631260294
341.532742069
342.404789289
343.247526307
344.060922625
344.845173344
345.600323101
346.326628315
347.024200709
347.693348667
348.334242692
348.947233455
349.532541322
350.090549299
350.621518126
351.125852737
351.603844096
352.055908431
352.482356362
352.883604594
353.25997257
353.611866805
353.939604852
354.243572722
354.524075798
354.781470088
355.016039523
355.228102102
355.417913275
355.58574906
355.731836697
355.856421659
355.959735978
356.042091359
356.104306096
356.144839009
356.15971646
273.357132087
273.437436191
273.603203208
273.856519031
274.195745259
274.619219065
275.124938711
275.710556414
276.37343863
277.110674682
277.919148119
278.795539702
279.736403745
280.73816114
281.797177621
282.909744347
284.072156839
285.280682242
286.531639028
287.821351187
289.146229601
290.502714021
291.887357382
293.296756621
294.727641141
296.176793452
297.641142776
299.117676281
300.603538487
302.095933634
303.592231206
305.089859971
306.58642002
308.079568159
309.567136027
311.047008259
312.517246577
313.975960208
315.421435861
316.852001131
318.266159964
319.662449589
321.039581067
322.396290455
323.731483953
325.044084086
326.333178875
327.597863973
328.83739517
330.051027482
331.238170191
332.398224009
333.530737729
334.635244623
335.711419658
336.758916366
337.777523486
338.767003531
339.727247609
340.658116955
341.559594644
342.43163128
343.274292279
344.087608906
344.871719847
345.626728661
346.352838423
347.050216615
347.719121758
348.359776602
348.972485829
349.557518294
350.115215116
350.645881525
351.149884845
351.627556391
352.079279086
352.505399643
352.906305742
353.282348618
353.633909923
353.961334659
354.264987973
354.54519833
354.802304577
355.03660917
355.248415959
355.437993307
355.605603179
355.751473605
355.875818421
355.978813714
356.060589121
356.121178953
356.159727015
356.174586439
273.19101361
273.272465977
273.439761505
273.695377448
274.03764047
274.464846352
274.974928163
275.565474713
276.233776005
276.976854172
277.791514636
278.674375163
279.621916989
280.630507746
281.696449205
282.815991729
283.985377369
285.20084526
286.458670232
287.755159762
289.086689139
290.449691113
291.840688936
293.256279984
294.693167948
296.148141505
297.618106617
299.100061082
300.591127609
302.088524746
303.58960107
305.09180282
306.592709484
308.089998223
309.58148071
311.065064696
312.538792139
314.000797876
315.449349029
316.882801055
318.299638388
319.698428086
321.077861628
322.436706499
323.773849118
325.088244666
326.378961038
327.645127353
328.88597884
330.100804405
331.288992264
332.449977048
333.583286005
334.688486027
335.765230123
336.813204853
337.832176762
338.821940579
339.782365215
340.713343134
341.614835528
342.486823144
343.329350157
344.142476818
344.926321576
345.681015772
346.406743575
347.103698992
347.772123252
348.412264316
349.024411383
349.608857126
350.16592911
350.695954887
351.199290184
351.676287018
352.12731863
352.552750687
352.952962987
353.328323846
353.679208659
354.005977501
354.30899067
354.588589511
354.845109087
355.07886218
355.290149187
355.479245151
355.646406677
355.79186107
355.915808128
356.018405026
356.099748647
356.159830383
356.198271899
356.215010922
272.935614482
273.018351579
273.188039042
273.447251246
273.7942529
274.227265112
274.744125828
275.342320377
276.019025845
276.771152611
277.595391642
278.488254408
279.446117479
280.465256545
281.541884927
282.672179498
283.852312021
285.078466766
286.346865205
287.653776319
288.995536005
290.368551581
291.769317474
293.194415408
294.640527752
296.10443459
297.583025757
299.073295616
300.572354402
302.077421181
303.585834858
305.095045441
306.602624888
308.106257068
309.603748337
311.093015892
312.572098176
314.039141916
315.492412363
316.930279045
318.351225883
319.753835815
321.136800862
322.498905798
323.839038259
325.156171658
326.449375433
327.717797441
328.960674412
330.177314049
331.367105757
332.529502669
333.664032671
334.770280553
335.847899317
336.896592641
337.916126396
338.906311547
339.867015789
340.798146984
341.699664745
342.571564467
343.413888681
344.226711707
345.010150561
345.764350243
346.489493996
347.18578924
347.853476996
348.492818483
349.104103567
349.687638059
350.243751099
350.7727832
351.275092542
351.751043816
352.201013454
352.625379339
353.024525017
353.398830361
353.748674837
354.074429179
354.37645781
354.655111553
354.910729299
355.143631721
355.354122177
355.54248128
355.708966768
355.853808178
355.977204248
356.079315847
356.160256743
356.220082238
356.258698691
356.276893439
272.589857078
272.674239775
272.847209217
273.111364072
273.464875129
273.905853117
274.432003467
275.040665352
275.728860407
276.493341863
277.330644557
278.237131196
279.209037479
280.242511022
281.333648163
282.478523599
283.6732182
284.913839672
286.196542451
287.51754098
288.873123541
290.259660104
291.673612004
293.111536133
294.570092037
296.046043766
297.536265454
299.037741654
300.547572015
302.062970503
303.581269429
305.099917529
306.616483502
308.128653496
309.634233821
311.131147193
312.617434876
314.091252078
315.550869449
316.994667598
318.421138043
319.828876961
321.216585684
322.583063844
323.927209569
325.248012187
326.544552249
327.815993997
329.061585372
330.280650413
331.472589362
332.63687118
333.773033858
334.880677179
335.959463293
337.009109831
338.029390779
339.020129991
339.981202317
340.912527539
341.814071686
342.685841339
343.52788501
344.340287759
345.12317251
345.876694876
346.601044267
347.296438849
347.963126347
348.601379043
349.211494198
349.793789076
350.348600941
350.876282102
351.377199505
351.851729831
352.300258739
352.723176063
353.120874782
353.4937464
353.842179717
354.166556466
354.467249968
354.744621088
354.99901681
355.230766521
355.440180483
355.627546376
355.793127444
355.937159171
356.059846834
356.161361565
356.24183909
356.301380233
356.339979437
356.358533483
272.151962605
272.238432395
272.415628534
272.686156112
273.048056996
273.499290972
274.037386755
274.659489223
275.362415635
276.142712749
276.996712593
277.920584693
278.9103843
279.962094824
281.071665146
282.235040693
283.448189787
284.707124471
286.007917789
287.346716717
288.719752933
290.123350387
291.553931947
293.00802371
294.482259306
295.973382408
297.478249815
298.993832957
300.517220291
302.045618115
303.576352429
305.10686882
306.634733891
308.157634928
309.67338024
311.179897601
312.675234029
314.157553426
315.625135596
317.076373056
318.509769378
319.923935285
321.317586448
322.689539017
324.038707033
325.364097576
326.664807965
327.940020707
329.189000662
330.411089962
331.605705313
332.772333039
333.91052665
335.019902141
336.100135925
337.150960478
338.17216267
339.163579799
340.125098315
341.056650218
341.958212107
342.829801881
343.671477989
344.483336336
345.265509592
346.018164176
346.741499484
347.435744842
348.101158517
348.738024568
349.346651553
349.927369235
350.480526953
351.006490192
351.505638622
351.978362592
352.42506088
352.846137182
353.241997663
353.613047516
353.959688413
354.282315217
354.581313413
354.857056039
355.10990117
355.340189065
355.54823973
355.734350268
355.898792559
356.041810845
356.163619632
356.264402964
356.344313637
356.403475077
356.441909139
356.460509083
271.619658713
271.708714138
271.891163438
272.1696122
272.541933031
273.005888535
273.558778481
274.197497756
274.918602775
275.718378352
276.592901572
277.538100699
278.549808024
279.623805451
280.755863114
281.941770771
283.177363109
284.458539183
285.781277446
287.141646636
288.535813999
289.960050906
291.410737192
292.88436401
294.377536325
295.88697458
297.409516483
298.942118229
300.481856002
302.025926921
303.57165023
305.116467487
306.657943488
308.193766569
309.72174812
311.239821652
312.746041852
314.23858279
315.715736114
317.175908432
318.617618732
320.039495056
321.440271288
322.818783287
324.173965227
325.504845388
326.81054223
328.090260044
329.343284964
330.568980667
331.766784489
332.936203356
334.076810158
335.188240041
336.270187152
337.322401384
338.344685551
339.33689262
340.2989233
341.230723738
342.132283456
343.003633399
343.844844112
344.656023997
345.437317571
346.188903772
346.910994142
347.603831033
348.267685591
348.902855737
349.509663883
350.08845462
350.639592149
351.163457675
351.660446583
352.130965576
352.575429687
352.994259223
353.387876722
353.756703796
354.101158138
354.421650365
354.718581164
354.992338218
355.243293565
355.471800658
355.678191958
355.862776239
356.025836423
356.16762754
356.288375302
356.388274681
356.467491429
356.526162721
356.564315056
356.582822381
270.990128823
271.08232637
271.271163083
271.559236479
271.944203083
272.423572611
272.994353589
273.653125005
274.396116387
275.219287093
276.118400451
277.089090785
278.126921668
279.227434888
280.386190122
281.598796082
282.860934025
284.168374929
285.516991428
286.902765801
288.321794957
289.770293407
291.244594873
292.741153182
294.256542795
295.787459288
297.330719917
298.883264318
300.442155343
302.004579922
303.567849914
305.129402352
306.686800267
308.237733296
309.780016762
311.31159096
312.830519973
314.33498992
315.823306861
317.293894126
318.745289406
320.176141298
321.585205742
322.971341974
324.333508512
325.670758724
326.982236596
328.267172132
329.524877108
330.754740519
331.956224528
333.128860132
334.272243486
335.386031939
336.469940855
337.523740132
338.547251577
339.540345942
340.502940854
341.434998324
342.336523147
343.207560766
344.048195992
344.858551071
345.638784508
346.389089156
347.109690961
347.800846892
348.46284343
349.095994245
349.700638303
350.277137238
350.825873053
351.347245197
351.841667882
352.309566947
352.751376874
353.167537531
353.558491003
353.924678337
354.266536303
354.584494253
354.878970936
355.150371544
355.399084693
355.625479708
355.829903847
356.012679918
356.174103953
356.314443355
356.433935283
356.532786751
356.61117345
356.669238771
356.707013324
356.725353676
270.259949425
270.355916624
270.552411403
270.852012284
271.252100704
271.749865506
272.341947775
273.024531309
273.793440487
274.644235381
275.57229881
276.57291285
277.641323365
278.772792053
279.962636808
281.2062614
282.499176294
283.837012087
285.215527471
286.630612997
288.078292207
289.554720941
291.05618593
292.579103025
294.120015761
295.67559423
297.242634617
298.818059154
300.398916586
301.982382829
303.565761721
305.146485352
306.722115051
308.290342045
309.848986408
311.395996435
312.929447343
314.447539447
315.948595829
317.431059534
318.893490309
320.334560984
321.753053466
323.147854519
324.517951258
325.862426566
327.180454324
328.471294724
329.734289468
330.968857209
332.174488933
333.350743745
334.497244629
335.613674744
336.699773707
337.755334524
338.780200471
339.774262695
340.737457699
341.669765554
342.571207883
343.441846553
344.281781975
345.091152059
345.870130611
346.618926305
347.337780955
348.026968279
348.686791861
349.31758355
349.919701011
350.493525674
351.039459864
351.557924298
352.049354868
352.514199747
352.952915956
353.365966175
353.753815257
354.116926865
354.455760078
354.770765997
355.062384558
355.331041233
355.577144138
355.801080928
356.003216274
356.183889108
356.343410518
356.482061805
356.600093184
356.697722086
356.775133883
356.832479948
356.869791765
356.887912254
269.42501478
269.525466792
269.731065641
270.044350495
270.462354506
270.981859727
271.599045474
272.309603407
273.108858835
273.991885976
274.953610757
275.988898519
277.092625054
278.259731383
279.485263434
280.764398921
282.092463585
283.464939456
284.877467115
286.325844152
287.806021142
289.314096663
290.846312029
292.399046642
293.968814128
295.552259683
297.146158427
298.747414853
300.353062948
301.960266941
303.566321806
305.168654368
306.764824295
308.352524596
309.929580925
311.493950894
313.043722698
314.577113165
316.092465238
317.58824489
319.063037607
320.515544367
321.944577351
323.349055248
324.72799846
326.080524003
327.405840497
328.703242925
329.972107678
331.211887429
332.422106472
333.60235595
334.752289711
335.871620075
336.960114385
338.017591448
339.043918879
340.039010271
341.002823317
341.935357649
342.836653623
343.706790662
344.545886465
345.354095611
346.131608901
346.878651938
347.595484311
348.282397895
348.939715632
349.567789391
350.166998188
350.737745558
351.280457173
351.795577763
352.283568195
352.744902066
353.180062366
353.589537902
353.973819711
354.333397472
354.668755846
354.98037103
355.268707176
355.534213201
355.777319427
355.998434715
356.197943453
356.376203095
356.533541715
356.670256089
356.786609875
356.882833396
356.959121373
357.015630449
357.052398621
357.070256975
268.4804412
268.586206533
268.802577745
269.132026366
269.571141634
270.116189626
270.762768852
271.505958892
272.340472186
273.260794736
274.261308109
275.336389616
276.480489921
277.68818906
278.954233671
280.273558491
281.641295904
283.052776554
284.50352425
285.989247245
287.505828075
289.049313075
290.61590285
292.201944075
293.803923255
295.418462283
297.042315941
298.672370845
300.305645672
301.939292081
303.570595429
305.196976583
306.815993342
308.425340777
310.022850923
311.606492073
313.174367365
314.724712681
316.255893871
317.766403407
319.254856452
320.719986509
322.16064061
323.575774275
324.964446136
326.325812513
327.65912179
328.963708919
330.23898983
331.484456157
332.699669947
333.88425887
335.037911476
336.160373123
337.251441973
338.310965807
339.338838884
340.334999707
341.299428739
342.232147054
343.133214768
344.002730361
344.84082956
345.647685005
346.423505238
347.168534346
347.883050712
348.567366303
349.221824904
349.846800829
350.442696494
351.009940461
351.548984348
352.060300222
352.544376996
353.001717262
353.432833389
353.83824395
354.218469752
354.574030035
354.905438643
355.21320018
355.497806481
355.759732891
355.999435133
356.217345852
356.413871946
356.589391534
356.744251746
356.878766533
356.993215161
357.08783997
357.162846528
357.218400827
357.254545088
357.272099527
267.420446129
267.532497229
267.761595949
268.110100447
268.574032508
269.149000076
269.829869229
270.610957389
271.486225085
272.449448719
273.494365263
274.614786123
275.804680057
277.058228229
278.369855549
279.734243637
281.146330108
282.601298952
284.094565377
285.621758314
287.17870241
288.761401306
290.366022913
291.988887558
293.626458991
295.2753385
296.932261588
298.594096988
300.2578472
301.920650169
303.579780417
305.232651871
306.876820032
308.509982154
310.12997738
311.734786127
313.32252859
314.891462458
316.439979868
317.966603672
319.469983109
320.948888929
322.402208141
323.828938348
325.228181945
326.599140026
327.941106383
329.253461322
330.535665794
331.787255419
333.007835055
334.197073322
335.354697889
336.480490763
337.574284541
338.635958664
339.665436786
340.662684082
341.627705747
342.560545273
343.461283908
344.330039662
345.166967373
345.97225806
346.74613915
347.488873737
348.200760512
348.882132542
349.533356545
350.154830943
350.746984281
351.3102725
351.84517646
352.352198544
352.831859401
353.284694079
353.711248196
354.112073853
354.487725473
354.838755721
355.165711268
355.469128912
355.749531483
356.0074243
356.24329139
356.457592361
356.650759049
356.823192876
356.975262121
357.107299797
357.219601507
357.312424913
357.385986884
357.440460799
357.475898678
357.493109421
266.238191496
266.357689328
266.601839547
266.972822059
267.465925507
268.075913513
268.796723801
269.621722247
270.543946719
271.556319757
272.6518198
273.82360857
275.065116951
276.370094607
277.732630784
279.147153552
280.608414739
282.111466058
283.651631322
285.224477693
286.82578861
288.451539504
290.097877561
291.761105651
293.437670885
295.124157276
296.817282301
298.513896338
300.210984334
301.905668577
303.595210959
305.277016938
306.948638956
308.60777628
310.25227585
311.880131691
313.48948335
315.078613367
316.645943885
318.190032474
319.709567272
321.203361577
322.670347935
324.109571932
325.520185667
326.901441151
328.252683561
329.573344636
330.86293604
332.1210431
333.347318605
334.541477205
335.70328997
336.832579766
337.929216864
338.993115557
340.024231006
341.022557231
341.988125217
342.92100219
343.821290799
344.689129359
345.524691695
346.328187863
347.099864112
347.840003504
348.548925441
349.226985688
349.874575035
350.492118405
351.080072456
351.638923671
352.169184946
352.671392736
353.146102879
353.593886981
354.015327818
354.411015194
354.781541283
355.127496195
355.449463562
355.74801607
356.023711486
356.277088371
356.508662643
356.718923647
356.908331277
357.077312564
357.2262593
357.355525501
357.465425703
357.556232345
357.62817563
357.681440598
357.716086485
357.732910482
264.925582383
265.053932912
265.315941395
265.713509699
266.240971492
266.891997585
267.659342118
268.535178598
269.511411752
270.579939486
271.732853569
272.962578982
274.261957343
275.624284469
277.043313008
278.513231443
280.028628529
281.584450969
283.175959281
284.798685823
286.448396777
288.121059711
289.812817007
291.519965767
293.238943798
294.966321608
296.698799315
298.433207629
300.1665113
301.895813907
303.618361807
305.331549952
307.032926273
308.720191636
310.391201331
312.043964579
313.676642789
315.287546749
316.875132764
318.437997957
319.974874784
321.484624937
322.966232754
324.418798233
325.841529848
327.233737141
328.594823404
329.924278243
331.221670498
332.486641131
333.718896733
334.918203085
336.084379632
337.217294084
338.316858215
339.383023838
340.415780197
341.415151481
342.381195867
343.314004501
344.213701954
345.080446303
345.914430487
346.715882873
347.48506881
348.222290972
348.927890391
349.602245968
350.245774431
350.858928656
351.44219629
351.99609684
352.521178968
353.018016573
353.487204976
353.92935636
354.345095189
354.73505337
355.099865276
355.440162971
355.756571189
356.049702879
356.320154429
356.568501687
356.795295631
357.001058923
357.186282145
357.351420908
357.496892804
357.623075058
357.7303021
357.818864788
357.889007282
357.940924545
357.974688136
357.991082203
263.473002077
263.611938204
263.895246447
264.324405226
264.892487686
265.591737577
266.413389268
267.348116
268.386429897
269.519003364
270.736900879
272.031724874
273.395687783
274.821626356
276.302975757
277.83371865
279.408322092
281.021670968
282.669004235
284.345857051
286.048010873
287.771451795
289.512337733
291.266974003
293.031797489
294.803368425
296.578369051
298.353607155
300.126022908
301.892695883
303.650852972
305.397875814
307.131305365
308.848843346
310.548353929
312.227863217
313.885557323
315.519779085
317.129023686
318.711933249
320.267290622
321.794012477
323.291141866
324.757840423
326.193380288
327.597135964
328.968576099
330.307255437
331.612806829
332.884933638
334.12340233
335.328035721
336.498706565
337.635332104
338.737869093
339.806310086
340.840680254
341.841035661
342.807461972
343.740074657
344.63901934
345.504473462
346.336647649
347.135788047
347.902177842
348.636139338
349.338034726
350.008267123
350.647279903
351.25555626
351.833616827
352.382017696
352.901346456
353.392218882
353.855273846
354.291169001
354.700575143
355.084171223
355.44263872
355.776656312
356.086894692
356.374011247
356.638645549
356.881414341
357.102907746
357.30368477
357.484270185
357.645150693
357.786772363
357.909537765
358.013804076
358.099880247
358.168026612
358.218452051
358.251238047
358.267154801
261.868963312
262.020655621
262.32955497
262.796494342
263.412862861
264.169020665
265.054236464
266.057288079
267.16697595
268.372514308
269.663791584
271.031512103
272.467240845
273.963378171
275.513089788
277.110213876
278.749160933
280.424817272
282.132457653
283.867670058
285.626292699
287.4043633
289.198079651
291.003771503
292.817883153
294.636966472
296.457682588
298.276810175
300.091257225
301.898071951
303.694455708
305.477772543
307.245553436
308.995499906
310.725485435
312.433554958
314.117922496
315.776967346
317.409228911
319.013400522
320.588322289
322.132973266
323.646463016
325.128022815
326.57699665
327.99283209
329.375071281
330.723341925
332.037348632
333.316864333
334.561722346
335.771808613
336.947054972
338.087432761
339.192947874
340.263636293
341.299561423
342.300811907
343.267501425
344.199768758
345.097779761
345.961729137
346.79184379
347.588385333
348.351653683
349.08198913
349.779775016
350.445438346
351.079450691
351.682326832
352.254623546
352.796936299
353.309896058
353.7941645
354.250429278
354.679398385
355.081794434
355.458348739
355.809795161
356.136864384
356.440277831
356.720742465
356.978945172
357.215548244
357.431184427
357.626453112
357.801916121
357.958094566
358.095465471
358.214459226
358.315456918
358.398789301
358.46473357
358.513511212
358.54521815
358.560608878
260.099638351
260.266858153
260.606790447
261.119288719
261.793457453
262.617144057
263.577055629
264.659566861
265.851377167
267.139979368
268.513939339
269.963012523
271.4781363
273.051339806
274.675608921
276.344735062
278.053167656
279.795881125
281.568261441
283.366012354
285.185079989
287.021593104
288.871817828
290.732125803
292.598976269
294.468911461
296.338563922
298.204672014
300.064099542
301.91385284
303.751099055
305.573178649
307.377609374
309.162091055
310.924507041
312.662923348
314.375585753
316.060915075
317.717501142
319.344095561
320.939603546
322.503074907
324.033694479
325.530772179
326.99373288
328.422106299
329.815516941
331.17367426
332.49636297
333.783433735
335.034794138
336.250400315
337.430249121
338.574371408
339.682826108
340.755695928
341.793084019
342.795112604
343.761922548
344.693674929
345.590553205
346.452767071
347.280556268
348.074195436
348.833998146
349.560321199
350.253567369
350.914187863
351.542682662
352.139600531
352.70553658
353.241129907
353.7470587
354.224036059
354.672803447
355.094125281
355.48878172
355.857562463
356.201259728
356.520661703
356.816546341
357.08967494
357.340787009
357.570594384
357.779777076
357.968978154
358.138800399
358.28980205
358.422494061
358.537336941
358.634738662
358.715051764
358.778572596
358.825538708
358.856058743
358.870870261
258.148220493
258.334574295
258.71256981
259.28056184
260.024508477
260.92886705
261.97698335
263.152178012
264.438580737
265.821677595
267.288586694
268.828113245
270.430648928
272.087980583
273.793061111
275.539780536
277.322759138
279.137173102
280.978613662
282.842976581
284.726375885
286.625077127
288.535446533
290.453915937
292.376964423
294.301118235
296.222966662
298.139189317
300.04658716
301.942109315
303.822877752
305.686202189
307.529583086
309.350717136
311.147498305
312.918016606
314.660554148
316.373579333
318.055739552
319.705852875
321.322898547
322.906006683
324.454447288
325.967618993
327.445037673
328.886325176
330.291198258
331.659457692
332.990977702
334.285695519
335.54360151
336.764729553
337.949148504
339.096954241
340.208263467
341.283208431
342.321933998
343.324595812
344.291361111
345.22241044
346.117941905
346.978175669
347.803360419
348.59377905
349.349755458
350.071659394
350.759911626
351.414986228
352.037412747
352.627775151
353.186710606
353.714905316
354.213090351
354.682035349
355.122542278
355.535438131
355.921567492
356.281785061
356.616947819
356.927908014
357.215505682
357.480562523
357.72387529
357.946210691
358.148299795
358.330833867
358.494459736
358.639776418
358.767331443
358.877618146
358.971072794
359.048073262
359.108935852
359.153913585
359.183131488
359.19730811
255.994035214
256.20432202
256.62964146
257.266036425
258.095057666
259.096540217
260.249393247
261.533054463
262.928533136
264.419021595
265.990121041
267.629772919
269.328003187
271.076577236
272.868639394
274.698382953
276.560773471
278.4513305
280.365962682
282.300845105
284.252327532
286.216863212
288.190953673
290.171109063
292.153829103
294.135609149
296.112969692
298.082501847
300.04091523
301.985080975
303.912063197
305.819132011
307.703766897
309.563660153
311.396717712
313.201057308
314.975003203
316.717078507
318.42599658
320.100651333
321.74010636
323.343582946
324.910447516
326.440198735
327.932454723
329.386940533
330.803475993
332.18196384
333.522378073
334.824752519
336.089169637
337.315749845
338.504641506
339.65601215
340.770040946
341.84691323
342.886816741
343.889940545
344.856475771
345.786619201
346.680578234
347.538578212
348.36087015
349.147739659
349.899515073
350.616575244
351.299355435
351.948351786
352.564123141
353.147291301
353.69853829
354.218602935
354.708274276
355.168385778
355.599806453
356.003433752
356.380183981
356.730984384
357.056764135
357.358446113
357.636939411
357.893131527
358.127882604
358.342018587
358.536326802
358.711550258
358.868384102
359.007471057
359.129398461
359.234694927
359.323827994
359.397201334
359.45515348
359.49795559
359.525748434
359.539229996
253.611282174
253.852042937
254.337150681
255.059025192
255.992939624
257.112366119
258.39033597
259.801362853
261.322713692
262.935041373
264.622475501
266.372328553
268.17458987
270.021354172
271.906282392
273.824147025
275.770478467
277.741307365
279.732984998
281.742060149
283.765190511
285.799072735
287.840382344
289.885726371
291.931619519
293.974498548
296.010772154
298.036895881
300.049446908
302.045190419
304.021117434
305.974451734
307.902649145
309.803396935
311.674614873
313.514453601
315.321286853
317.093701157
318.830485451
320.530620421
322.193265836
323.817746701
325.403538619
326.950253071
328.457622892
329.925488511
331.353784702
332.74252778
334.091802971
335.401751761
336.672559422
337.904442675
339.097638322
340.2523927
341.368953255
342.44756168
343.488450224
344.49184006
345.457943414
346.386967697
347.279123244
348.134632194
348.953739941
349.736726127
350.483916575
351.195692758
351.872500778
352.514856243
353.123348021
353.698637344
354.241455975
354.752600257
355.232924929
355.683334234
356.104773187
356.498217759
356.864664887
357.205122793
357.520600752
357.812100341
358.080606151
358.327078591
358.552446267
358.757600339
358.943388454
359.110610278
359.260012605
359.39228576
359.508059728
359.607901273
359.692310946
359.761721375
359.816494309
359.856919426
359.88315574
359.89587827
250.967204544
251.247609893
251.80967871
252.640048143
253.704897091
254.96887976
256.397236473
257.958279637
259.624879281
261.375023666
263.191627776
265.061849768
266.976193021
268.927609636
270.910728671
272.921256943
274.955551853
277.010339771
279.082542998
281.169176127
283.267277038
285.373845282
287.485775989
289.59979439
291.712416448
293.819972894
295.918690367
298.004814367
300.074730507
302.125061338
304.152711006
306.154856514
308.128930437
310.072614549
311.983844785
313.860811772
315.701948714
317.505915797
319.271588606
320.998047033
322.68456088
324.330573274
325.935683727
327.49963088
329.022276126
330.503588492
331.943630562
333.342544874
334.700540464
336.017878981
337.294860586
338.531809798
339.729061973
340.886950999
342.005798869
343.085907892
344.127555762
345.130994463
346.096452424
347.024141041
347.9142639
348.767029725
349.58266651
350.361437265
351.103654915
351.809695885
352.480011053
353.115133098
353.715680445
354.28235711
354.815948965
355.31731771
355.787391145
356.227154441
356.637637475
357.019905327
357.375045088
357.704155631
358.008335729
358.288673517
358.546237454
358.782066818
358.997165615
359.192494835
359.368968067
359.527445409
359.668729819
359.7935624
359.902619194
359.996507754
360.075764485
360.140852098
360.192157711
360.229991155
360.254530432
360.266425616
248.019354168
248.352688342
249.016003411
249.986488073
251.216946093
252.659790006
254.269981714
256.008125292
257.842093146
259.74734394
261.706202861
263.706526265
265.74020173
267.801800594
269.887519946
271.994434741
274.120019783
276.261879526
278.417618866
280.584793582
282.76088578
284.943263352
287.129101259
289.31527615
291.498282113
293.674266524
295.839159103
297.988877222
300.119526476
302.227544805
304.309745296
306.363272687
308.385542411
310.374228582
312.327284114
314.242950436
316.119734342
317.956381909
319.751866948
321.505382958
323.216325917
324.884274036
326.50896768
328.090289026
329.62824309
331.122941746
332.574588989
333.98346718
335.349922953
336.674352179
337.957183916
339.198863813
340.399838015
341.560538089
342.681368515
343.762696699
344.804847356
345.808100554
346.772695272
347.698837
348.586710768
349.436497196
350.248392161
351.022626868
351.759488411
352.459337083
353.122621413
353.749887092
354.341782588
354.899057737
355.422559813
355.913223683
356.3720615
356.800149299
357.198614293
357.568621454
357.911359879
358.228030054
358.519830146
358.787944817
359.033533682
359.257723002