/*--------------------------------*- C++ -*----------------------------------*\
| =========                 |                                                 |
| \\      /  F ield         | OpenFOAM: The Open Source CFD Toolbox           |
|  \\    /   O peration     | Version:  v1906                                 |
|   \\  /    A nd           | Web:      www.OpenFOAM.com                      |
|    \\/     M anipulation  |                                                 |
\*---------------------------------------------------------------------------*/
FoamFile
{
    version     2.0;
    format      ascii;
    class       volScalarField;
    location    "796";
    object      p;
}
// * * * * * * * * * * * * * * * * * * * * * * * * * * * * * * * * * * * * * //

dimensions      [0 2 -2 0 0 0 0];


internalField   nonuniform List<scalar> 
9216
(
268.380891109
268.466564546
268.640457355
268.9029352
269.25257273
269.687641548
270.206012549
270.805211906
271.482455349
272.234701876
273.058686933
273.9509764
274.907994706
275.926074978
277.001478969
278.130440662
279.309176776
280.533922886
281.800934925
283.106518111
284.447020893
285.818857609
287.218496797
288.642478647
290.087399642
291.549925758
293.026775304
294.5147286
296.010610737
297.511298337
299.013703834
300.514779783
302.011506544
303.500894819
304.979978133
306.445814266
307.895484503
309.326094624
310.734782272
312.118718006
313.475121574
314.801262945
316.094487195
317.35221467
318.571973
319.751394965
320.888255542
321.980466467
323.026117168
324.023466968
324.970991412
325.867375799
326.711570843
327.502791255
328.240581974
328.924818245
329.555773235
330.134104169
330.660904277
331.13766113
331.566283246
331.949026163
332.288490873
332.587524943
332.84919251
333.076639965
333.273058906
333.441583524
333.585292546
333.707122243
333.809865483
333.89608868
333.96814512
334.028122427
334.077888087
334.119069386
334.153115228
334.181274283
334.204636954
334.224106047
334.240445236
334.254268804
334.266093412
334.276328986
334.285358422
334.293180705
334.299662118
334.304851965
334.308853766
334.311824795
334.313938722
334.3153955
334.316374091
334.316968515
334.317266503
334.317368986
268.29529221
268.381390915
268.555916354
268.81960719
269.170892968
269.607988398
270.128721291
270.730574428
271.410723039
272.166082744
272.993350226
273.889051026
274.849576094
275.871224432
276.950231879
278.082805998
279.26514576
280.493468023
281.764018483
283.073090408
284.417028204
285.792239707
287.195194085
288.622429113
290.070545133
291.536208586
293.016143569
294.507132685
296.006007567
297.509647929
299.014972371
300.518936565
302.018525493
303.51075164
304.992650319
306.461278908
307.913716517
309.347065378
310.758456171
312.145052334
313.50406174
314.83274404
316.128428363
317.388522782
318.6105365
319.792089607
320.930937536
322.024979439
323.072283644
324.071095078
325.019863609
325.91725458
326.762185329
327.553844288
328.291738791
328.975720437
329.606034146
330.183331697
330.708700392
331.183649561
331.610110016
331.990387755
332.327130127
332.623262673
332.881923825
333.106342574
333.299759005
333.465357906
333.606252702
333.725428624
333.82570925
333.909693998
333.979740831
334.037939166
334.08613361
334.125936848
334.158776725
334.185900675
334.208386833
334.227129659
334.242868129
334.256200826
334.267619927
334.277515969
334.28620767
334.293828529
334.300198213
334.305236031
334.309165552
334.312100958
334.314156413
334.315571639
334.316536446
334.317101399
334.317370563
334.317478499
268.120635291
268.207826129
268.384097539
268.650385919
269.005077128
269.446325509
269.971884933
270.579156214
271.265230379
272.026937108
272.860890781
273.763537519
274.731196601
275.760100966
276.84643023
277.986342168
279.175996132
280.411575242
281.689300792
283.005446238
284.35634412
285.738393492
287.148061171
288.581884277
290.036467481
291.5084821
292.994660768
294.491794245
295.996724693
297.5063412
299.017572736
300.527383374
302.032766045
303.530738513
305.018339237
306.492625323
307.9506719
309.389573381
310.80644767
312.198441815
313.562741871
314.896583248
316.197265956
317.462168669
318.688767577
319.874651766
321.017542822
322.115308818
323.165982601
324.167774064
325.119089091
326.018545258
326.864999383
327.657576104
328.395711773
329.079196925
329.708225523
330.283426302
330.805883117
331.277138353
331.699179627
332.07440599
332.405566784
332.695739539
332.948240531
333.166464956
333.353757547
333.51338563
333.648542015
333.762304114
333.857574418
333.93701223
334.002995908
334.057604498
334.102638907
334.139664065
334.170072308
334.19510559
334.215832587
334.233121841
334.247666632
334.260025126
334.270653344
334.279913882
334.288106121
334.295334767
334.301275467
334.305998213
334.309787107
334.312617919
334.314563132
334.315932239
334.316841486
334.317367167
334.317645337
334.317783346
267.854761136
267.943355934
268.122326762
268.392630174
268.752575433
269.200220229
269.733203695
270.348800304
271.043969522
271.815408462
272.659603111
273.572877943
274.551441011
275.591425182
276.688923294
277.840018811
279.040810208
280.287431297
281.576065943
282.902959685
284.264426747
285.656855009
287.076707367
288.520521956
289.984909613
291.466550886
292.96219097
294.468634659
295.982739822
297.501411252
299.021593605
300.54026509
302.054430937
303.561118
305.057369985
306.540244308
308.006810634
309.454151596
310.879366199
312.27957582
313.651933633
314.9936365
316.30194032
317.574176775
318.807772477
320.000267394
321.149333744
322.252791756
323.308624559
324.314989419
325.27023024
326.172890729
327.021736554
327.815787238
328.554364716
329.237153274
329.864263452
330.436281904
330.954284409
331.419860532
331.835087853
332.20251464
332.525026794
332.80594635
333.048910706
333.257598808
333.435494952
333.585959357
333.71230329
333.817754849
333.905356966
333.977867813
334.037701172
334.086907908
334.127204372
334.160053739
334.18678933
334.208663836
334.226756032
334.241889599
334.254675067
334.265599767
334.275070283
334.283407663
334.290889743
334.297482495
334.302861767
334.307222335
334.310690168
334.313315242
334.31520874
334.316509537
334.317360882
334.317880083
334.318173926
334.318318951
267.496357989
267.586815842
267.769483488
268.045289527
268.412429931
268.868823863
269.411948879
270.03890292
270.746461918
271.531139273
272.389243416
273.316932016
274.310260978
275.365227716
276.477807876
277.643985892
278.859779237
280.121257312
281.424555127
282.765882903
284.141531786
285.547876749
286.981376764
288.43857317
289.91608619
291.410610353
292.918908675
294.437806225
295.964182913
297.494966022
299.027122359
300.557650582
302.083573705
303.601932254
305.109778303
306.604170929
308.08217355
309.540853582
310.977285035
312.388554297
313.77176967
315.124074414
316.442663487
317.7248029
318.967851172
320.16928079
321.326698578
322.4378624
323.500693655
324.513284516
325.473902243
326.380994412
327.233202619
328.029393568
328.768716928
329.450689688
330.07529267
330.643051348
331.155015763
331.612839048
332.01872143
332.375451601
332.686015073
332.954091284
333.183885095
333.379550279
333.544678191
333.68267049
333.796989201
333.891104192
333.968291193
334.031464666
334.083091223
334.125165116
334.159241602
334.186577674
334.208402839
334.226049599
334.240675198
334.253027453
334.263558767
334.272641928
334.28063047
334.287789896
334.294363607
334.30014012
334.304854087
334.308747026
334.311929209
334.3143543
334.316106279
334.317340691
334.318174707
334.318697807
334.319007918
334.319162911
267.043487696
267.136331826
267.323766842
267.606670901
267.983085027
268.450741066
269.006900371
269.648426398
270.371852651
271.173451535
272.049300008
272.99534004
274.007432214
275.081401727
276.213076446
277.398317386
278.63304205
279.913241584
281.234992454
282.594463699
283.98792042
285.411724391
286.862332249
288.336291939
289.830237624
291.340883569
292.865017025
294.399490505
295.941213399
297.487143259
299.034276674
300.579640224
302.120281472
303.6532605
305.175642168
306.684489816
308.176860819
309.649804743
311.100364703
312.525582615
313.922508831
315.288216463
316.619820291
317.914499569
319.169523496
320.382277158
321.550285424
322.671231417
323.742967265
324.763514704
325.731058112
326.643933212
327.500625076
328.299790432
329.040324632
329.721487489
330.343059365
330.905501285
331.409785469
331.857653781
332.251446049
332.594430632
332.889391257
333.140514441
333.353077487
333.532088871
333.681002699
333.803060332
333.901913081
333.981444843
334.04531951
334.09669341
334.138110813
334.17146825
334.198026095
334.218608098
334.234234994
334.246526083
334.256916757
334.266001701
334.273895551
334.280790536
334.287027162
334.292800085
334.298260737
334.303092067
334.30719151
334.310675561
334.313508142
334.315643043
334.317291178
334.318493153
334.319313143
334.319888263
334.320232752
334.320408257
266.493667597
266.589482295
266.782859025
267.074604768
267.462557022
267.94420246
268.516521417
269.17607471
269.91908523
270.741519098
271.639161614
272.607685574
273.642710277
274.739850571
275.894755976
277.103140559
278.360804567
279.663649011
281.007684438
282.389035054
283.803939218
285.248747187
286.719916792
288.214007568
289.727673747
291.257656358
292.800774643
294.353916867
295.914030641
297.478112778
299.043198746
300.606351951
302.164652971
303.715188999
305.255043924
306.781289618
308.290979167
309.781142773
311.248787337
312.690900579
314.104460632
315.486451661
316.833885716
318.143830223
319.413439606
320.639988302
321.820901129
322.9537763
324.036395195
325.066715965
326.042847958
326.963014998
327.825519571
328.628739252
329.371195723
330.051743614
330.669842729
331.225968509
331.72086169
332.15640093
332.53499701
332.861204748
333.136413781
333.365514975
333.556060652
333.714790189
333.844122878
333.946601874
334.026174848
334.08751928
334.134953222
334.171995472
334.201300191
334.224635801
334.242749025
334.255520494
334.263456416
334.269035482
334.27453969
334.280157489
334.285212021
334.28961344
334.293895714
334.29813447
334.302370048
334.306278021
334.309760597
334.312790001
334.315280278
334.317263935
334.318845753
334.3200395
334.320878517
334.321505214
334.32188968
334.32208432
265.843805917
265.943247283
266.143876001
266.446401946
266.848399791
267.347040415
267.938944575
268.620288821
269.386905067
270.234377641
271.158132149
272.153513308
273.215850065
274.340507662
275.52292719
276.75865392
278.043356013
279.372835367
280.743032285
282.150025489
283.590028717
285.059384955
286.554559003
288.072128974
289.608777007
291.161279497
292.726496816
294.301362686
295.882873037
297.468074449
299.054051956
300.637916561
302.216792308
303.78780332
305.348061044
306.894652545
308.424630491
309.935006
311.422745437
312.884772654
314.317977894
315.719234652
317.085425049
318.413473589
319.700387705
320.943301644
322.139518441
323.286541765
324.382089735
325.424079783
326.410581634
327.339736027
328.209659607
329.018375282
329.763847638
330.444263645
331.058503393
331.607472376
332.091194958
332.511816157
332.871271182
333.178415548
333.429056247
333.6291096
333.791577292
333.927082101
334.03401769
334.113007821
334.168768592
334.207684008
334.235166215
334.255216312
334.270630518
334.283115638
334.292644626
334.296987341
334.295124451
334.291941052
334.292184529
334.294792398
334.297098645
334.298604124
334.30081146
334.303426036
334.306400059
334.309465835
334.312377831
334.315037363
334.317313635
334.319227802
334.320758733
334.321990001
334.322916114
334.323566454
334.324013486
334.324231924
265.090128591
265.193943251
265.403309866
265.718806403
266.137670123
266.656667897
267.271963847
267.979250861
268.773873779
269.650946789
270.605458261
271.632359753
272.726637684
273.883367879
275.09775437
276.365154587
277.68109344
279.041268757
280.441550358
281.87797468
283.346736494
284.844178823
286.366781903
287.911151638
289.474007885
291.052172619
292.64255804
294.24215442
295.848017631
297.457256091
299.067016971
300.674471713
302.276800784
303.871177768
305.454753277
307.024639321
308.577895128
310.111515614
311.622424169
313.107471603
314.56344334
315.987076851
317.375090907
318.724227239
320.031303383
321.29327314
322.507287123
323.670743149
324.781310706
325.836914792
326.835661078
327.775695524
328.655002898
329.471194021
330.221398972
330.902635418
331.512457668
332.053880199
332.524615247
332.927559852
333.261488828
333.550912518
333.771325367
333.93046762
334.055875491
334.167375088
334.250501488
334.301494622
334.327643259
334.339139814
334.342916257
334.343255547
334.343211191
334.344845748
334.347493652
334.34395074
334.328291905
334.312180511
334.307637113
334.309358642
334.30951902
334.307104936
334.307297177
334.308296159
334.310054651
334.312459724
334.314930582
334.317389046
334.31959317
334.321461497
334.32303623
334.324334594
334.325373171
334.32609182
334.326633117
334.326884016
264.228085998
264.337136646
264.55695337
264.887934567
265.326884357
265.870053308
266.513027049
267.250892075
268.078389903
268.990060348
269.980365796
271.043792915
272.174930781
273.3685266
274.619521672
275.923071047
277.274550513
278.6695544
280.103887125
281.573550929
283.074731523
284.603782948
286.157212345
287.731665136
289.323910696
290.930828551
292.549394861
294.176669004
295.809779835
297.445911394
299.082287485
300.716155278
302.344767442
303.965362992
305.575147101
307.1712707
308.750810753
310.310752862
311.847978078
313.359256622
314.841251365
316.290534436
317.703619874
319.077014503
320.407287084
321.69115225
322.92556112
324.107783326
325.235459834
326.306597912
327.319478644
328.272443051
329.163532002
329.989992217
330.747742339
331.431656551
332.035340484
332.570158348
333.026399012
333.409328819
333.701558878
333.986733504
334.170455758
334.266200901
334.35024978
334.458430563
334.524369973
334.539046757
334.520641053
334.490594756
334.461243397
334.436295673
334.417561298
334.409117433
334.411549287
334.403028349
334.362669828
334.323296626
334.317451531
334.32468328
334.323801572
334.313764815
334.312747793
334.312379625
334.312943078
334.315110798
334.317272113
334.31977458
334.322043537
334.323958197
334.325647915
334.327098862
334.328262945
334.329133658
334.329782163
334.330091956
263.252233235
263.367532607
263.599803688
263.949199606
264.411966276
264.983692806
265.659231162
266.432908123
267.298720015
268.250508659
269.282108912
270.387464195
271.560710017
272.79622835
274.088677425
275.433002261
276.824431185
278.25846301
279.730848708
281.237570416
282.774819822
284.338977099
285.926591123
287.534361143
289.159119926
290.797818079
292.447509251
294.105335678
295.768513628
297.434318074
299.100066023
300.763098203
302.420758608
304.070371651
305.709217318
307.334504824
308.943345937
310.532729573
312.099500214
313.640343355
315.151782205
316.630190514
318.071826795
319.472894604
320.829631583
322.138425708
323.395950284
324.59929966
325.746096324
326.834528679
327.863270028
328.831211383
329.736911984
330.577653751
331.347842356
332.03854434
332.629502696
333.162642513
333.604245984
333.970832992
334.181491437
334.571951406
334.712800542
334.645876154
334.454808268
334.424626637
334.470246662
334.502591169
334.507798507
334.498102745
334.485264625
334.476339392
334.475850226
334.487601216
334.505957075
334.494868891
334.400161419
334.297371402
334.308664445
334.344493721
334.34452652
334.314577601
334.316754796
334.315561591
334.314301207
334.31732114
334.319134569
334.322189984
334.324773981
334.326768302
334.32857877
334.330235504
334.331643142
334.332740797
334.333521389
334.333917083
262.156075553
262.278831538
262.525940072
262.897217382
263.388185345
263.993581258
264.707323471
265.522785635
266.433044606
267.431097348
268.510035641
269.663175595
270.884143918
272.16692656
273.505887166
274.895763333
276.331648021
277.808962334
279.323424391
280.871017645
282.447960668
284.050679545
285.675783197
287.320041638
288.980366745
290.653795137
292.337472462
294.028638536
295.724612421
297.422776747
299.120560143
300.815417465
302.504806746
304.186162548
305.85686574
307.514210217
309.155367415
310.77735056
312.376981281
313.950862756
315.495364718
317.006627533
318.480593501
319.913074337
321.299862102
322.636886653
323.920413467
325.147262192
326.315008615
327.422116925
328.467937051
329.452478531
330.375778495
331.236512685
332.028296314
332.737479325
333.290624248
333.843809246
334.308827925
334.721827798
334.506401753
334.514566634
334.608310941
334.612743147
334.555785452
334.514280175
334.511748276
334.514568686
334.507901103
334.494777538
334.481591233
334.471754304
334.465624654
334.462449401
334.456492467
334.434588198
334.400493259
334.38635125
334.413391785
334.446504728
334.406081864
334.284700294
334.315579461
334.318122729
334.312242315
334.319702342
334.319998395
334.324840529
334.328008854
334.329861573
334.331788948
334.333730724
334.33550413
334.336936645
334.337893497
334.338394492
260.931867388
261.063544034
261.328368151
261.725690199
262.25008468
262.895184253
263.653713127
264.517845899
265.479525022
266.530728459
267.663675036
268.870966226
270.145669918
271.481356081
272.872096148
274.312437715
275.797364715
277.322251028
278.882813238
280.475066101
282.095282643
283.73995952
285.40578755
287.089626804
288.788485557
290.499502231
292.21992955
293.947119929
295.678511137
297.411610998
299.14397984
300.873209755
302.596899454
304.312623702
306.017897394
307.710134155
309.386600357
311.044366073
312.680255946
314.290804428
315.872222242
317.420383434
318.930845434
320.398916804
321.819788012
323.188736855
324.501409628
325.754159289
326.944396283
328.07088091
329.133902999
330.135292278
331.078110659
331.965559769
332.795759377
333.565172207
333.995822719
334.649480164
334.537491113
334.580776262
334.620399957
334.589995489
334.606186209
334.594547009
334.555942249
334.524225259
334.51265174
334.506043508
334.495355319
334.482307075
334.470808844
334.461677055
334.454306667
334.447422195
334.438044349
334.422135597
334.403414604
334.394499393
334.400848691
334.405424724
334.392342484
334.399780794
334.412375397
334.336614915
334.294210628
334.324016335
334.317600877
334.328395671
334.332315462
334.333088847
334.335093639
334.337537049
334.3398484
334.341758414
334.342957153
334.343599942
259.570349133
259.712750062
259.998821183
260.427263445
260.991398867
261.683415355
262.49450024
263.415314357
264.436400326
265.548512015
266.742852479
268.01122296
269.346094652
270.740620004
272.188601632
273.68443547
275.223041728
276.799793647
278.410450436
280.051097952
281.718098321
283.40804838
285.117745874
286.844162175
288.584420149
290.335776088
292.095604559
293.861385183
295.630689924
297.401169513
299.170536971
300.93654705
302.696969593
304.449555522
306.191994925
307.921866866
309.636581061
311.333312717
313.008932887
314.659939096
316.282393652
317.871881588
319.423504978
320.931936587
322.391560009
323.796723684
325.142124877
326.423312436
327.637249656
328.782832945
329.8613381
330.876924416
331.837574794
332.758711667
333.677241509
334.782000581
334.583648742
334.576593743
334.640880572
334.621687335
334.621993658
334.599928104
334.59155075
334.571412942
334.538399192
334.50994431
334.492849858
334.480382235
334.467404413
334.455502125
334.446310654
334.438733423
334.432299184
334.426034753
334.418391656
334.408128641
334.397435347
334.392087832
334.393489428
334.393921886
334.387667492
334.386993743
334.382252408
334.380917723
334.394947151
334.371948904
334.299710933
334.334560769
334.339063722
334.33571225
334.33805618
334.341529321
334.344770981
334.34730046
334.34885731
334.34966743
258.060398584
258.215783459
258.527504957
258.993349392
259.604962975
260.352625858
261.225533535
262.212428551
263.302126495
264.483918781
265.747841541
267.084820917
268.486716749
269.946291947
271.457134624
273.013556204
274.610483233
276.24335468
277.908031496
279.600721023
281.317916271
283.056348279
284.812949299
286.584824332
288.36922916
290.163553265
291.965306594
293.772108906
295.581680346
297.391831144
299.200448069
301.005475422
302.804888264
304.596655581
306.378692842
308.148802546
309.904602465
311.643441587
313.362305344
315.057713675
316.72561942
318.361319965
319.959403486
321.513762021
323.017715837
324.46430261
325.84677898
327.159341472
328.397988793
329.561268991
330.650789768
331.671410222
332.631579987
333.548296676
334.477265514
334.661594951
334.728029022
334.651855617
334.644602667
334.622173002
334.602303827
334.576972735
334.554915772
334.52810568
334.496479211
334.468389809
334.447809892
334.432016247
334.418974054
334.409534727
334.402971481
334.398001928
334.394221417
334.390916126
334.38726358
334.383014
334.379539376
334.379216811
334.381966141
334.383962357
334.382254866
334.38101553
334.379315685
334.378873591
334.381111129
334.382362838
334.387036453
334.374151341
334.354281962
334.33486587
334.33981442
334.345698073
334.350432653
334.353823745
334.355830711
334.356753899
256.388563995
256.55981359
256.902768468
257.413911468
258.082616839
258.896619152
259.84251354
260.90660301
262.075575271
263.336988577
264.679562807
266.093300266
267.569475037
269.10053403
270.679949405
272.302054057
273.961882267
275.655028705
277.377531619
279.125780924
280.896448562
282.686437099
284.492842091
286.312924497
288.144090281
289.983875647
291.8299368
293.680043514
295.532074788
297.384014299
299.233942034
301.080019163
302.920462755
304.7535076
306.577353985
308.390099605
310.189653941
311.973633841
313.7392395
315.483112394
317.201180082
318.888499966
320.539124948
322.14603236
323.701182206
325.19580036
326.620997123
327.968797052
329.233512327
330.412827817
331.508306281
332.525711498
333.479746531
334.421778052
334.557486616
334.641512083
334.679435482
334.64459421
334.618802772
334.588764265
334.556393995
334.521832662
334.48887834
334.455810557
334.423168797
334.394903453
334.373244222
334.357042514
334.346304034
334.340675331
334.337753041
334.336854386
334.33758816
334.339332446
334.341542506
334.344135053
334.347749978
334.353146351
334.359805778
334.365745444
334.369626788
334.372995064
334.375606086
334.377006949
334.379082459
334.381263573
334.385517911
334.401061534
334.386979669
334.310544222
334.337403825
334.350304935
334.357386933
334.361818202
334.3640725
334.364971869
254.538429393
254.729284831
255.110675858
255.677202332
256.415113493
257.308709938
258.341167405
259.495678102
260.756316722
262.108612885
263.539842283
265.039086058
266.597124106
268.206228976
269.859917243
271.55270011
273.279859486
275.03726239
276.821216795
278.628365567
280.455611862
282.3000681
284.159021321
286.029909133
287.91030273
289.797895402
291.690496436
293.58603035
295.482540249
297.378192052
299.271274857
301.160192539
303.043442508
304.919577863
306.787152153
308.644644034
310.490359255
312.322306108
314.138040632
315.934478508
317.707673719
319.452569818
321.162742931
322.83017985
324.44517822
325.996522365
327.472168164
328.860696124
330.153681361
331.347244183
332.443127287
333.454451882
334.435480056
334.548717379
334.59486849
334.632792244
334.638758355
334.605931884
334.565039072
334.520203819
334.47437782
334.429422756
334.387747882
334.349622757
334.315748483
334.288035968
334.267596818
334.253983027
334.247435626
334.246443137
334.248623344
334.25345088
334.260468331
334.269052803
334.278689173
334.289154791
334.300534358
334.312842679
334.325465036
334.337238156
334.34741878
334.356439247
334.364097962
334.370223889
334.375392683
334.378761272
334.380868692
334.384771863
334.375960976
334.367372795
334.347029693
334.360203623
334.367239961
334.372046225
334.373779496
334.374309671
252.48973816
252.705154646
253.134446732
253.769450331
254.592049827
255.581861684
256.717535479
257.978292101
259.345018615
260.800915892
262.331743977
263.925757213
265.573436805
267.267121744
269.00061744
270.768834885
272.567488579
274.392862677
276.241642171
278.110799003
279.997519908
281.899162949
283.81323138
285.737356803
287.669287179
289.606879083
291.548095875
293.491014112
295.433837584
297.374914962
299.312753645
301.24602234
303.173536597
305.094223647
307.007066082
308.911022266
310.80491935
312.687312425
314.556301251
316.409295723
318.242720754
320.051654158
321.829399684
323.567023876
325.252944074
326.872778099
328.409881182
329.847253624
331.171983541
332.378106101
333.474142596
334.516707002
334.603622146
334.607893968
334.609240243
334.605553822
334.57867171
334.528456416
334.470047193
334.409914334
334.351701266
334.297667577
334.249624021
334.2083199
334.174355805
334.148587633
334.131362719
334.122915539
334.122362603
334.126975952
334.135517237
334.14747518
334.162223288
334.179061462
334.197387884
334.216772404
334.236918565
334.257461087
334.277744923
334.296924847
334.314406374
334.330128286
334.343876514
334.355515719
334.365041027
334.371983769
334.376189384
334.378187231
334.374628223
334.370174417
334.375548496
334.374884566
334.379707342
334.385145357
334.384855356
334.384424658
250.217160292
250.463844121
250.953720694
251.674494432
252.601853889
253.708957266
254.968431041
256.354433277
257.844007662
259.417764177
261.059992267
262.758368213
264.503428808
266.287960886
268.106414158
269.954399606
271.828298752
273.724983577
275.641632504
277.575621148
279.524465496
281.485796913
283.457352609
285.436970319
287.422582316
289.412209919
291.403964354
293.396060884
295.386847716
297.374843616
299.358772938
301.337584496
303.310447091
305.276718844
307.235891815
309.187512182
311.131070989
313.065854938
314.99074375
316.903937415
318.802592778
320.682341662
322.536659546
324.356061373
326.12715355
327.831736512
329.446529929
330.94486766
332.30705433
333.53161219
334.676381571
334.734775337
334.684578439
334.636994534
334.594508064
334.545101485
334.482541471
334.408801527
334.332106079
334.257853851
334.189318328
334.128503814
334.076711828
334.034554797
334.002356916
333.980397468
333.968668531
333.966749469
333.972672619
333.984028275
334.000105562
334.020305292
334.043855569
334.069961819
334.097902735
334.127055525
334.156862742
334.186733286
334.215960262
334.243793123
334.269641993
334.293194313
334.3141491
334.332279426
334.347432765
334.359382319
334.368040021
334.373709528
334.375730788
334.37594098
334.378931087
334.382237473
334.393781923
334.403092508
334.39666531
334.394366212
247.688522326
247.975768998
248.543589353
249.373381152
250.431892972
251.683292584
253.092166785
254.626253416
256.258052804
257.965441226
259.731498413
261.54382121
263.393592358
265.2746219
267.182500499
269.11392981
271.066241137
273.037082343
275.024238745
277.025550426
279.038890715
281.062175994
283.093383678
285.130563505
287.171836563
289.21538697
291.259459457
293.302380229
295.342606147
297.378793745
299.40986662
301.435058722
303.453922604
305.466302757
307.472281417
309.472103815
311.466076547
313.454423817
315.437081851
317.413409194
319.381781365
321.33901786
323.279558487
325.194267969
327.068718025
328.88085733
330.598041393
332.176077498
333.593763004
334.907927647
334.947293403
334.83140233
334.72349325
334.62970447
334.537110781
334.442330006
334.345025184
334.247279901
334.153669873
334.067843261
333.99206727
333.927598792
333.875063621
333.83463015
333.806243797
333.789822375
333.785057913
333.79040249
333.803173921
333.821998916
333.846297396
333.875327383
333.908212517
333.944074289
333.982080285
334.021454131
334.061457745
334.101347701
334.140349635
334.177705659
334.212773828
334.245082296
334.274228966
334.299898189
334.321865908
334.339971985
334.354224194
334.364934062
334.372225141
334.377186507
334.381981307
334.387041882
334.391345127
334.43996708
334.409015255
334.402312433
244.862204125
245.203252508
245.873327516
246.843968793
248.068819271
249.49943911
251.089689512
252.799257965
254.595448875
256.453527148
258.355999541
260.291274414
262.252112918
264.234182412
266.234881741
268.252488151
270.285602248
272.332834002
274.392665102
276.463427313
278.543345949
280.630607218
282.723418553
284.820041801
286.918792888
289.01801829
291.116074575
293.211351226
295.3023484
297.387797175
299.466779032
301.538804741
303.603836195
305.662257396
307.714816673
309.762562598
311.806764848
313.848795008
315.889941821
317.931137787
319.972565568
322.013076231
324.04929346
326.07415165
328.074406821
330.026112208
331.885628192
333.583864761
335.167397599
335.220443052
335.040401925
334.868465323
334.717089647
334.571047494
334.429071874
334.293464852
334.165638929
334.047227418
333.940546837
333.847355539
333.768511341
333.704190862
333.654180012
333.618067127
333.59542321
333.586007892
333.588720829
333.601121927
333.620867214
333.647346682
333.679923431
333.717731574
333.759835894
333.805304308
333.853227336
333.902724458
333.952937525
334.003014975
334.052109191
334.099409151
334.144194508
334.18586781
334.223923047
334.257954869
334.287667049
334.312879119
334.333580431
334.349991853
334.362379875
334.371375401
334.378114876
334.383865503
334.387856634
334.37327275
334.398291664
334.400467126
241.683202938
242.097511988
242.904757216
244.060652754
245.499363239
247.154710203
248.966334196
250.884032622
252.86949867
254.896022899
256.946803274
259.012551172
261.089020701
263.174901217
265.270256667
267.375505441
269.490843665
271.615992689
273.750162005
275.892139573
278.040441212
280.193466451
282.349620661
284.507376225
286.665262711
288.821802855
290.975440139
293.124552006
295.267568744
297.403183866
299.530560707
301.649463907
303.760290075
305.864017046
307.962124599
310.056548134
312.149644219
314.244121388
316.342900975
318.448896709
320.564704668
322.69215531
324.831603374
326.98068067
329.131740974
331.267281455
333.353456311
335.345562993
335.481980586
335.269561434
335.050885864
334.849322742
334.648906749
334.452703207
334.267960892
334.099025099
333.94786818
333.81534573
333.701809324
333.607017186
333.530188066
333.470242783
333.426053193
333.396612101
333.381203841
333.379629409
333.389515666
333.408038581
333.434405497
333.468103246
333.508319884
333.554137718
333.60462358
333.658840048
333.715851544
333.774728276
333.83454453
333.894375828
333.953306356
334.01045484
334.065010743
334.116260723
334.163588229
334.206486162