/*--------------------------------*- C++ -*----------------------------------*\
| =========                 |                                                 |
| \\      /  F ield         | OpenFOAM: The Open Source CFD Toolbox           |
|  \\    /   O peration     | Version:  v1906                                 |
|   \\  /    A nd           | Web:      www.OpenFOAM.com                      |
|    \\/     M anipulation  |                                                 |
\*---------------------------------------------------------------------------*/
FoamFile
{
    version     2.0;
    format      ascii;
    class       surfaceScalarField;
    location    "796";
    object      phia;
}
// * * * * * * * * * * * * * * * * * * * * * * * * * * * * * * * * * * * * * //

dimensions      [0 3 -1 0 0 0 0];
oriented        oriented;


internalField   nonuniform List<scalar> 
18240
(
0.000850678805318
-0.000850660243745
0.00174349683893
-0.00089279787019
0.00263425086605
-0.000890735001902
0.00351780804163
-0.000883536351279
0.00439131564149
-0.000873488714363
0.00525222685733
-0.000860889645249
0.00609817404477
-0.000845928256997
0.00692695210434
-0.000828755609542
0.00773649398757
-0.000809522830606
0.00852489863009
-0.000788381230665
0.00929040795476
-0.000765490139343
0.0100314387591
-0.00074100640127
0.0107465488242
-0.000715090764309
0.0114344687264
-0.000687894537106
0.0120940557518
-0.000659567668832
0.012724325857
-0.000630243864832
0.0133243962799
-0.000600051078704
0.0138935188519
-0.000569095593264
0.0144310133066
-0.000537475211243
0.0149363035743
-0.000505262720258
0.0154088444995
-0.000472521845187
0.015848162841
-0.000439290407527
0.0162537805197
-0.000405598808543
0.0166252617516
-0.000371453078868
0.0169621358521
-0.000336855423747
0.0172639513521
-0.000301787259537
0.0175302011087
-0.000266231214267
0.017760383668
-0.000230154312508
0.0179539331192
-0.000193530915975
0.0181102878235
-0.000156326488251
0.0182288270546
-0.000118520553656
0.018308944679
-8.00894576363e-05
0.0183499951902
-4.10315244205e-05
0.0183513760097
-1.35274930192e-06
0.0183124829227
3.89125152542e-05
0.0182327950353
7.97157419556e-05
0.0181118411827
0.000120973834144
0.017949285246
0.000162583382673
0.0177449022284
0.000204403681429
0.0174986581271
0.000246270963466
0.0172106938187
0.000287985938206
0.0168813928047
0.000329327362706
0.0165113716083
0.000370044385804
0.016101530492
0.000409867563957
0.0156530513833
0.000448504830753
0.0151674322024
0.000485647244848
0.0146464956254
0.000520966126791
0.014092415596
0.000554112501253
0.0135077373977
0.000584713215346
0.0128954092805
0.000612369034441
0.0122588003522
0.000636650682437
0.0116017435554
0.000657109534809
0.0109285132555
0.00067327775172
0.010243868176
0.000684709375573
0.00955293358193
0.000690983212716
0.00886122747734
0.000691777901192
0.00817441586153
0.000686856105668
0.0074983329656
0.000676154912599
0.00683863306752
0.00065973455719
0.00620081163565
0.000637884526768
0.00558979213993
0.000611038232067
0.00500998421823
0.000579855932911
0.00446489256294
0.000545093661771
0.00395720904719
0.000507712687523
0.00348861429325
0.000468581468924
0.00306014770322
0.00042847216924
0.00267203593881
0.000388084330281
0.00232374761338
0.000348273331064
0.00201383237806
0.000309880493229
0.00174016829156
0.000273637728961
0.00150011001837
0.000240024166907
0.00129077862078
0.000209301659874
0.00110921516277
0.000181534548094
0.00095250700306
0.000156679271292
0.00081785192491
0.000134632504308
0.000702557657248
0.000115268102977
0.000604114938946
9.84263995123e-05
0.00052020809293
8.38854707096e-05
0.000448816033975
7.13823051318e-05
0.000388154489668
6.06463778884e-05
0.000336717604525
5.14328786195e-05
0.000293208506135
4.34995185746e-05
0.000256620524979
3.658778446e-05
0.000226296573655
3.03179071886e-05
0.000202560963457
2.37371104688e-05
0.000182365979419
2.01909255392e-05
0.00016360630466
1.87613027195e-05
0.000147286525059
1.63165841744e-05
0.000131586760011
1.57007720563e-05
0.000115197012212
1.63874415671e-05
9.88941283169e-05
1.63034219351e-05
8.2711085828e-05
1.61821505793e-05
6.50464483328e-05
1.7665020828e-05
4.46427089573e-05
2.04036828347e-05
2.16134571836e-05
2.30272331582e-05
2.16122121107e-05
0.000898160386041
-0.00174880117658
0.00185185229236
-0.00184646891779
0.00280031926311
-0.00183918167339
0.0037402147966
-0.00182341087734
0.0046690467544
-0.00180230009439
0.00558429974757
-0.00177612117809
0.0064835159071
-0.00174512344052
0.00736436263835
-0.00170958026443
0.00822465024984
-0.00166978899947
0.00906235487633
-0.00162606309111
0.00987561586541
-0.0015787291883
0.0106627502364
-0.00152811729919
0.0114222395193
-0.00147455762889
0.0121527388805
-0.00141836975526
0.0128530546083
-0.00135986055812
0.013522148962
-0.00129931349109
0.0141591095648
-0.00123698852221
0.0147631514899
-0.00117311233144
0.0153335805832
-0.00110788093999
0.0158697948536
-0.00104145148887
0.016371244382
-0.00097394792547
0.0168374343624
-0.000905454715035
0.0172678844928
-0.000836025503517
0.0176621358341
-0.000765678693101
0.018019712328
-0.000694408553059
0.0183401330822
-0.000622182304391
0.0186228781391
-0.000548952977507
0.0188674071674
-0.000474657665518
0.0190731310946
-0.000399231569542
0.0192394375037
-0.00032260722711
0.0193656704537
-0.000244730163058
0.0194511649321
-0.000165558224418
0.0194952337915
-8.50768913231e-05
0.019497208086
-3.30127077729e-06
0.0194564350226
7.97092674704e-05
0.0193723260669
0.000163850489073
0.0192443633033
0.000248960474933
0.0190721515266
0.000334820871838
0.0188554310314
0.000421148228717
0.018594128903
0.00050759867437
0.0182883743155
0.000593764885783
0.0179385430773
0.00067918425868
0.0175452716821
0.000763340929443
0.0171094908951
0.000845674785246
0.016632437848
0.000925584803337
0.0161156800482
0.00100243365695
0.0155611299751
0.00107554658913
0.0149710682232
0.00114420746118
0.0143481672903
0.00120765050797
0.0136955247053
0.00126505284775
0.0130166929978
0.00131552734809
0.0123157210708
0.00135813318155
0.0115971613155
0.00139189113051
0.0108660896562
0.00141584180306
0.0101280349586
0.00142909667485
0.00938893750121
0.0014309402804
0.00865497107309
0.00142088037664
0.00793245364684
0.00139873484675
0.00722759894148
0.00136463834002
0.00654638701015
0.00131914560837
0.00589425360223
0.00126320421121
0.00527598297089
0.00119815747747
0.00469545721921
0.00112563424996
0.00415545842083
0.00104772553533
0.00365769186564
0.000966345015333
0.00320320514976
0.000882951415991
0.00279234944977
0.000798918330841
0.00242454301219
0.000716054859164
0.00209813636092
0.000636254797244
0.00181064857042
0.000561093468186
0.00155905754914
0.000491581544851
0.00134012338741
0.000428204081448
0.00115059138409
0.000371036601862
0.000987314121531
0.000319928063613
0.000847284463154
0.000274637148113
0.000727617673562
0.000234909969058
0.000625590932147
0.000200433165686
0.000538715735815
0.0001707415123
0.000464833259568
0.000145251303129
0.000402076338853
0.000123390995741
0.000348840718401
0.000104661295777
0.000303722531979
8.86111756247e-05
0.000265489682591
7.48177980687e-05
0.000232893006719
6.29113809203e-05
0.000203903152093
5.27259830464e-05
0.000179060618376
4.50317442255e-05
0.000158984956764
3.88363893678e-05
0.000142300388091
3.29995935747e-05
0.000127249890134
3.07504917707e-05
0.000112439884347
3.11962375232e-05
9.67342251841e-05
3.20085181451e-05
8.06284604427e-05
3.22873947518e-05
6.3862590931e-05
3.44309035888e-05
4.47960732109e-05
3.94703483281e-05
2.19208876849e-05
4.5901273031e-05
4.35321775383e-05
0.00090638769086
-0.00265516915732
0.0018657532475
-0.00280581408959
0.00282094192129
-0.00279434952116
0.00376762651361
-0.00277007452952
0.00470307657408
-0.00273772907414
0.00562469012517
-0.00269771330076
0.00652997026847
-0.00265038204542
0.00741655492996
-0.0025961429156
0.00828223472187
-0.00253544668462
0.00912496891734
-0.00246877463429
0.00994289064341
-0.00239662820048
0.010734313477
-0.00231951682787
0.0114977271816
-0.00223794802524
0.0122317967801
-0.00215241543932
0.0129353500744
-0.00206339001819
0.0136073703545
-0.00197130933778
0.014246977069
-0.00187657098166
0.0148534138204
-0.00177952425809
0.0154260242654
-0.00168046684525
0.0159642377213
-0.0015796398725
0.0164675430109
-0.00147722852565
0.016935474416
-0.00137336093969
0.0173675863927
-0.00126811276284
0.0177634424531
-0.00116150957351
0.0181225932641
-0.00105353469398
0.0184445703839
-0.000944134307008
0.0187288695398
-0.000833227537835
0.0189749504253
-0.000720713502943
0.0191822264121
-0.000606483004925
0.0193500713758
-0.000490427175726
0.019477817074
-0.000372451297969
0.0195647675879
-0.000252483705354
0.0196102055877
-0.000130490261476
0.0196134158055
-6.48641698356e-06
0.0195737006658
0.000119449106157
0.0194904122384
0.000247163986115
0.0193629766758
0.000376420749012
0.0191909324601
0.000506890063373
0.0189739604509
0.000638144891815
0.0187119236291
0.000769660340043
0.0184048973194
0.000900815864628
0.0180532039421
0.00103090255465
0.017657437514
0.00115913245809
0.0172184883091
0.00128464962734
0.016737559321
0.00140654024812
0.0162161820915
0.00152383853192
0.0156562308381
0.00163552733596
0.0150599404476
0.00174052980251
0.0144299315248
0.00183769486669
0.0137692457684
0.00192577829132
0.0130813900097
0.00200342764226
0.0123703883869
0.00206918460015
0.0116408212737
0.0021215119021
0.0108978505179
0.00215887125974
0.0101471799768
0.00217982599679
0.00939498595322
0.00218319821641
0.00864775093046
0.00216817443146
0.00791213165294
0.00213441502354
0.00719475718128
0.00208206233917
0.00650201682702
0.00201192957024
0.00583973644076
0.00192551377822
0.005213018188
0.00182490011231
0.00462609808998
0.0017125663048
0.00408163000979
0.00159220261654
0.00358096716218
0.00146700345775
0.0031251155137
0.00133879042274
0.00271473970654
0.00120927032554
0.00234931429392
0.00108145088578
0.00202688648072
0.00095864897639
0.00174445404861
0.000843491495745
0.00149848133587
0.000737520663349
0.00128532872962
0.000641324911955
0.00110149980431
0.000554835892347
0.000943743183788
0.00047765725167
0.000809011030691
0.000409343322869
0.00069435457366
0.000349542223186
0.000596910879982
0.000297855136736
0.000514084431119
0.000253549306981
0.000443710310443
0.000215610786601
0.000383981551902
0.000183108209977
0.000333336774595
0.000155298267987
0.000290410224043
0.00013153236793
0.000254034712803
0.000111190206091
0.000223159583136
9.37841128626e-05
0.000196600370728
7.92837745849e-05
0.000173494601318
6.81360727122e-05
0.000152328283699
6.00014581907e-05
0.000132967562618
5.23589310361e-05
0.000117228570824
4.64881638914e-05
0.000104363542715
4.4059981545e-05
8.91161260879e-05
4.72549842393e-05
7.17021901231e-05
4.97009244369e-05
5.418970223e-05
5.19438358994e-05
3.57054264217e-05
5.79551192839e-05
1.81049269855e-05
6.35012460712e-05
6.163680468e-05
0.000914825440424
-0.00356997471868
0.00188218943541
-0.00377315687123
0.00284546664162
-0.00375760579635
0.00380010571824
-0.0037246923288
0.00474325036071
-0.00368085234798
0.00567221274154
-0.00362665399498
0.00658443685761
-0.0035625842426
0.00747751663782
-0.00348920042119
0.00834921192224
-0.0034071194195
0.00919746158192
-0.00331700135489
0.0100203906161
-0.00321953401875
0.0108163142503
-0.00311541684707
0.0115837359232
-0.00300534583828
0.0123213429726
-0.00288999824564
0.013027996314
-0.00277001892987
0.0137027187562
-0.00264600700787
0.0143446777144
-0.00251850506176
0.01495316788
-0.00238798925959
0.0155275891444
-0.00225486292866
0.0160674262069
-0.00211945153218
0.0165722246886
-0.00198200167618
0.0170415708315
-0.00184268158781
0.0174750690281
-0.0017015856084
0.0178723245802
-0.00155873965426
0.0182329252881
-0.0014141101231
0.0185564293342
-0.00126761297307
0.0188423525352
-0.00111912556931
0.0190901624509
-0.000968498143861
0.0192992722322
-0.000815567715252
0.0194690418072
-0.000660171555132
0.0195987794127
-0.000502163892438
0.0196877507535
-0.000341429894514
0.0197351897213
-0.000177904252363
0.0197403175579
-1.15891435047e-05
0.0197023637265
0.000157427855044
0.0196205951918
0.000328957527539
0.0194943471902
0.000502693517746
0.0193230608105
0.000678201235443
0.0191063201603
0.000854910056687
0.0188438929112
0.00103211210979
0.0185357669131
0.00120896615558
0.0181821854549
0.00138450843466
0.0177836747207
0.00155766759708
0.017341066185
0.00172728304007
0.016855510067
0.00189212167566
0.0163284850591
0.00205088999158
0.0157618046785
0.00220223557043
0.0151576292663
0.00234473557891
0.0145184872925
0.00247687041668
0.0138473160074
0.00259698732165
0.0131475216499
0.00270326493447
0.0124230581652
0.0027936946213
0.011678511328
0.00286611213416
0.010919150455
0.00291828529637
0.0101509330564
0.00294810505328
0.00938039280135
0.00295379634186
0.00861447514578
0.00293415589655
0.00786033605857
0.00288861003382
0.00712525993117
0.00281718959526
0.00641631412326
0.0027209085558
0.00573990739828
0.00260194699553
0.00510163224849
0.00246318734389
0.00450659328483
0.00230761473162
0.00395704167589
0.00214175626983
0.00345327333672
0.00197076595604
0.0029962639829
0.00179578145849
0.00258763665431
0.00161787141113
0.00222711517742
0.0014419398423
0.0019121374274
0.00127359142168
0.00163870784518
0.00111688668198
0.00140237522582
0.000973819928048
0.00119885489796
0.000844814984454
0.00102431087974
0.000729351900682
0.00087541533306
0.000626526366663
0.000749167845029
0.00053556606355
0.00064256024545
0.000456124742871
0.000552451562908
0.000387941744875
0.000476001032242
0.000329980899906
0.000411089161059
0.000280507548342
0.00035606791882
0.000238118363224
0.000309474236279
0.000201884221478
0.000269993613527
0.000171008543971
0.000236590672557
0.000144590469665
0.000208413991226
0.000121958927215
0.000184796474264
0.000102899837224
0.000161822105912
9.11089256081e-05
0.00014103026014
8.0791878989e-05
0.000122891514161
7.04959124518e-05
0.000105420790752
6.39574473377e-05
8.8175657834e-05
6.13037428886e-05
7.53343565811e-05
6.00956202127e-05
5.91463806052e-05
6.58888088403e-05
4.12787060891e-05
6.98122705796e-05
2.67089346885e-05
7.2526150213e-05
1.3699632648e-05
7.65110774312e-05
7.53367052293e-05
0.000925737512719
-0.00449569191706
0.00190424475145
-0.00475164326068
0.0028785125143
-0.0047318520297
0.00384386545962
-0.00469002375804
0.00479734155769
-0.00463430661365
0.00573615852553
-0.0045654488954
0.00665768396957
-0.00448408730579
0.00755945202854
-0.00439094576274
0.00843917919435
-0.00428682352505
0.00929477657682
-0.00417257530529
0.0101243573727
-0.00404909103077
0.010926240061
-0.00391727538439
0.0116989465467
-0.00377802783995
0.0124411962482
-0.00363222313556
0.0131518954179
-0.00348069300206
0.01383012296
-0.00332420919129
0.0144751121854
-0.00316346870966
0.0150862300898
-0.00299908141021
0.0156629538587
-0.00283156080372
0.0162048464918
-0.00266131818457
0.0167115314688
-0.00248866060904
0.0171826684435
-0.00231379251418
0.0176179298529
-0.00213682097037
0.0180169801771
-0.00195776398965
0.018379457427
-0.00177656142568
0.0187049581296
-0.00159308782555
0.0189930250841
-0.00140716673022
0.0192431388211
-0.00121858619729
0.0194547120849
-0.00102711534407
0.019627088275
-0.000832522220073
0.0197595436456
-0.000634593771982
0.0198512939231
-0.000433154793637
0.019901506176
-0.00022809115814
0.0199093163548
-1.93741156353e-05
0.0198738527721
0.000192916585692
0.019794265776
0.000408569469855
0.0196697633189
0.000627220804518
0.0194996513954
0.000848337709256
0.0192833781161
0.00107120771606
0.0190205788031
0.00129493549478
0.0187111197922
0.00151844909014
0.0183551371499
0.00174051478453
0.0179530677131
0.00195976075282
0.0175056693763
0.00217470514072
0.0170140301776
0.00238378500577
0.016479567414
0.0025853775732
0.015904021738
0.00277780737852
0.015289455161
0.00295933063671
0.0146382634865
0.00312809334347
0.0139532196843
0.00328206749997
0.0132375511656
0.00341897211252
0.012495069875
0.00353622317577
0.0117303072008
0.00363091943419
0.0109486654484
0.00369998460282
0.0101564286703
0.00374039173088
0.00936068013493
0.00374961206811
0.00856896982233
0.00372592080312
0.00778911414887
0.00366852868134
0.00702934789964
0.00357699611942
0.00629786557901
0.00345242197614
0.00560177407491
0.00329804927468
0.00494722311193
0.00311774577187
0.00434173005268
0.00291310615463
0.00378642818698
0.0026970586965
0.00327852325334
0.00247866012834
0.00281912247759
0.00225516282849
0.00241265893548
0.00202430743966
0.00205951598688
0.0017950498382
0.00175584162979
0.00157723298887
0.0014957626853
0.00137693312654
0.00127331112711
0.00119624251449
0.00108325792455
0.00103484261812
0.000921367492363
0.00089121828477
0.000784391232734
0.00076348058056
0.000669648172223
0.000650285225502
0.000574165128433
0.000551584008875
0.000494184981037
0.000467899728434
0.000426271152071
0.000397875224252
0.000368518203163
0.000338246011695
0.000319676582258
0.000286948180791
0.000278436528169
0.000243117469536
0.000243447522136
0.000205993875341
0.000213852983012
0.000174183231383
0.000188930434241
0.000146880135064
0.000168380246093
0.000123448682003
0.000148319045588
0.000111168564651
0.000128888904684
0.000100220227228
0.000108003955769
9.13791236256e-05
8.90092442104e-05
8.29504920235e-05
7.17001360174e-05
7.86118271937e-05
5.79353028997e-05
7.38600583322e-05
4.65200606395e-05
7.73049056257e-05
3.18768318258e-05
8.44572509523e-05
1.91673499664e-05
8.52377352556e-05
9.59568921713e-06
8.60843125044e-05
8.49333640871e-05
0.000939433519998
-0.0054351048181
0.00193220969841
-0.00574439732185
0.00292049339553
-0.00572011398559
0.00389946774651
-0.00566897596202
0.004866050357
-0.00560086694397
0.00581734874044
-0.00551672465373
0.00675063641501
-0.00541735203568
0.0076633722417
-0.00530365826944
0.00855321726182
-0.00517664484359
0.0094180473076
-0.0050373812491
0.0102559606304
-0.00488697986132
0.0110652806827
-0.00472657054905
0.0118445537511
-0.00455727566283
0.0125925418655
-0.00438018564608
0.0133082107376
-0.00419633597801
0.013990713454
-0.00400668571821
0.0146393697991
-0.00381209866316
0.0152536424104
-0.0036133274186
0.0158331099207
-0.00341100160964
0.0163774388426
-0.00320562027827
0.0168863545656
-0.0029975495009
0.017359613517
-0.00278702458961
0.017796976683
-0.00257415734054
0.0181981863276
-0.00235894685413
0.018562945471
-0.00214129392891
0.0188909014193
-0.00192101718486
0.0191816322378
-0.00169787113318
0.0194346371659
-0.00147156477378
0.0196493297399
-0.00124178175394
0.0198250349518
-0.00100820133236
0.0199609897767
-0.000770522694563
0.0200563485055
-0.000528487691511
0.0201101933518
-0.000281910395048
0.0201215519313
-3.07071869085e-05
0.0200894213096
0.000225072439551
0.0200128003528
0.000485215495713
0.0198907290317
0.00074931683415
0.0197223351917
0.0010167560186
0.0195068857853
0.00128668115359
0.0192438412037
0.00155800383351
0.018932907534
0.0018294060652
0.0185740836217
0.00209936180146
0.0181676962531
0.00236617085088
0.0177144208729
0.00262800324113
0.0172152829156
0.00288294562279
0.0166716429109
0.00312904083926
0.0160851685266
0.00336430626037
0.0154578076067
0.0035867177375
0.014791780755
0.00379415062079
0.0140896121337
0.00398426763104
0.0133542384628
0.00415438660996
0.0125891761552
0.00430132038408
0.0117988092803
0.00442133888403
0.0109886107006
0.00451022126441
0.0101653540791
0.0045637134032
0.00933686859797
0.00457814650164
0.00851155891414
0.0045512999771
0.00769779021861
0.00448234782921
0.006905252005
0.00436957788418
0.00614410890674
0.00421357843235
0.00542200213053
0.00402016199725
0.00474474229358
0.00379499541552
0.00412738514556
0.00353045803069
0.00356798147856
0.00325645610255
0.00305468187973
0.00299194751962
0.00258953083971
0.002720292749
0.00218505324442
0.00242875691805
0.00184284685656
0.00213722592915
0.00155601789018
0.00186403227758
0.00131508255852
0.00161784101593
0.00111167826629
0.00139962478376
0.000939331912711
0.00120716866202
0.000793427074288
0.00103710621678
0.000671183443284
0.000885704324008
0.000570961595209
0.000750485927819
0.000490172819342
0.000632348443945
0.000423616193965
0.000534432260924
0.000366269182071
0.000455203240787
0.000317033194547
0.000387464817695
0.000275679090066
0.000328291726498
0.000241075109043
0.000277714418567
0.000211461116669
0.000235605561811
0.000186296858664
0.000199346731887
0.000164980508968
0.00016819582654
0.000145032985823
0.000143395211701
0.000125881009946
0.000130318985191
0.000108506459997
0.000117593000561
9.25787406705e-05
0.000107305066707
7.49157626272e-05
0.000100612109824
5.80690878867e-05
9.54580808303e-05
4.1706733728e-05
9.02232954867e-05
3.13806540598e-05
8.76327466432e-05
2.3455827788e-05
9.23848911411e-05
1.38319956926e-05
9.48648311914e-05
6.80914174605e-06
9.31101062512e-05
9.1744287658e-05
0.000956125071332
-0.00639120856147
0.00196637298203
-0.00675462345607
0.00297180938265
-0.00672552774759
0.00396743008669
-0.00666457406206
0.00495000435578
-0.00658341820592
0.00591650552482
-0.00648320253511
0.00686409259072
-0.00636491541926
0.00779013224147
-0.00622967383467
0.00869221757769
-0.00607870566603
0.00956818147112
-0.00591332018933
0.0104161044599
-0.00573487746105
0.0112343172112
-0.00554475748915
0.0120213975024
-0.00534432973559
0.0127761618324
-0.00513492339654
0.0134976517126
-0.00491779893374
0.0141851147786
-0.0046941215924
0.014837981161
-0.00446493759483
0.0154558355624
-0.00423115421442
0.0160383862124
-0.00399352449273
0.0165854316271
-0.00375263788658
0.01709682705
-0.00350891705068
0.017572451661
-0.00326262139232
0.0180121785295
-0.00301385641418
0.018415847797
-0.00276258847399
0.0187832443653
-0.00250866292015
0.0191140794434
-0.0022518248897
0.0194079763982
-0.00199174081926
0.0196644595665
-0.00172802091115
0.0198829465127
-0.00146024179018
0.0200627427925
-0.00118797096475
0.0202030408487
-0.000910794239707
0.0203029223904
-0.000628343017274
0.0203613676753
-0.000340329629302
0.020377271303
-4.65851151053e-05
0.020349467331
0.000252901889147
0.020276763417
0.000557944448848
0.0201579857191
0.000868119265993
0.0199920326008
0.00118273333198
0.0197779369001
0.0015008006642
0.0195149319986
0.00182103194865
0.0192025183447
0.00214184252432
0.0188405223574
0.00246138002057
0.0184291414552
0.0027775736
0.017968966167
0.00308819999396
0.0174609741705
0.0033909589829
0.0169064941295
0.00368354279112
0.0163071439982
0.00396367879039
0.0156647628012
0.00422912479718
0.014981353072
0.00447758598463
0.0142590957399
0.00470655960744
0.0135004379979
0.00491307220604
0.0127083875108
0.0050934159983
0.0118868916374
0.00524286349502
0.011041442907
0.00535572504102
0.0101794019676
0.00542579294323
0.00930990530552
0.00544771427872
0.00844244895278
0.00541880904157
0.00758520389473
0.00533965097089
0.00674997964186
0.00520483099201
0.00595143148627
0.00501213326371
0.00519631515485
0.00477526359143
0.00448486105505
0.00450643153809
0.00385676635081
0.00415853409068
0.00330171326793
0.00381149513087
0.00278070645263
0.00351293831885
0.00230056336284
0.00320040838547
0.00189666927607
0.00283261660518
0.00157144453933
0.0024624185526
0.00131026339676
0.00212518172507
0.00109660055304
0.00183147929934
0.000918671116981
0.0015775324221
0.000768672470392
0.00135715050131
0.000641695126678
0.00116406605348
0.00053617453156
0.000991202773637
0.000453228669576
0.000833407275114
0.000391836156774
0.000693709713778
0.000343290290684
0.000582951876482
0.000298006420522
0.000500462188207
0.00025779212859
0.0004276633182
0.000225002765408
0.000361067917439
0.000198568548122
0.000304142776077
0.000175005613058
0.000259167353982
0.000154793816058
0.000219558941669
0.00013775636655
0.000185233227365
0.00011980782212
0.000161343124292
0.000103611146683
0.000146514249318
8.67456786123e-05
0.000134457023864
7.08181078288e-05
0.000123231195732
5.54127329228e-05
0.000116017149999
4.27912176801e-05
0.000108080452155
2.97818290043e-05
0.000103234915423
1.8807140571e-05
9.86106528928e-05
1.44123568846e-05
9.67835997876e-05
8.73043683984e-06
0.000100551562646
4.23087384293e-06
9.76141639623e-05
9.59776510247e-05
0.000976005620017
-0.00736719236211
0.00200708612717
-0.00778568042824
0.00303296497568
-0.00775138355368
0.00404840379512
-0.00767998932405
0.00504998752725
-0.00758497820728
0.00603452681995
-0.00746771766286
0.00699904219943
-0.00732940622638
0.00794078956685
-0.00717139616158
0.00885728068183
-0.00699517125986
0.00974629751132
-0.00680231100581
0.0106059003677
-0.00659445382296
0.0114344300889
-0.00637326024103
0.012230504238
-0.00614037648689
0.0129930074668
-0.0058973988117
0.0137210757821
-0.00564583910181
0.0144140749756
-0.0053870923152
0.015071573091
-0.00512240702778
0.015693307894
-0.00485286012279
0.0162791499351
-0.00457933755881
0.016829063273
-0.00430252215119
0.0173430652272
-0.00402288997606
0.017821187912
-0.00374071505252
0.0182634428223
-0.00345608245011
0.0186697906636
-0.00316890752624
0.0190401163138
-0.00287896001194
0.0193742095635
-0.00258588972302
0.0196717498748
-0.00228925300079
0.0199322949058
-0.00198853799141
0.0201552708835
-0.00168319014444
0.0203399655257
-0.00137263819215
0.0204855232456
-0.00105632491329
0.0205909443826
-0.000733737354686
0.0206550905669
-0.000404449438267
0.0206766987189
-6.81671960235e-05
0.0206544050224
0.000275221149754
0.0205867818384
0.000625592806233
0.0204723874317
0.00098253823042
0.0203098297922
0.00134531503871
0.0200978417529
0.00171281205734
0.0198353651576
0.00208353134498
0.0195216365845
0.00245559313948
0.0191562671254
0.00282677095057
0.0187393032356
0.00319455828136
0.0182712571781
0.00355626640126
0.0177530939437
0.00390914247655
0.0171861679377
0.00425048890149
0.0165721140527
0.00457775493291
0.0159127031909
0.00488855756924
0.0152097154396
0.00518060213804
0.0144648551643
0.00545144423589
0.0136798481374
0.00569811593632
0.012856732466
0.00591655396631
0.0119985939849
0.00610104586007
0.0111105431144
0.00624380374867
0.0102008700177
0.00633552699715
0.00928107369419
0.00636756063686
0.00836272515435
0.00633722041605
0.00745035857552
0.00625206536667
0.00655879265327
0.00609641472612
0.00571565115555
0.0058552615458
0.00492180823172
0.00556909347183
0.00414871178542
0.00527949699525
0.00351803583096
0.00478917141755
0.00299651628092
0.00433300049558
0.00246101666796
0.00404840709478
0.00193998838217
0.00372139485594
0.00153331687203
0.0032392508502
0.00123726858807
0.00275842578276
0.00101696146892
0.00234545136135
0.000842232292125
0.00200618442904
0.000697680289242
0.0017220511704
0.000574878320549
0.00147994099549
0.000468543049907
0.00127036590996
0.000379316040476
0.00108041221108
0.000315080749191
0.000897602826415
0.000280387772625
0.00072837392193
0.000258115232783
0.000605193723625
0.000224542276983
0.000534010254958
0.000191654642572
0.00046053401431
0.000168291627014
0.000384415526419
0.000152708090943
0.000319718213026
0.000135217463289
0.000276656120909
0.000119934840062
0.000234841058071
0.000106755885033
0.000198412270429
9.17215272941e-05
0.000176376102509
7.80104144767e-05
0.000160224089044
6.40850394672e-05
0.00014838083529
4.95250605887e-05
0.000137790626377
3.71790435167e-05
0.000128363842878
2.51556384653e-05
0.000120106264162
1.74783553137e-05
0.000110916001887
1.00563429529e-05
0.000106037343436
5.5898681445e-06
0.000101255607248
3.9701896824e-06
0.000102177522978
1.73271629708e-06
9.98575942009e-05
9.77138704742e-05
0.000999292619623
-0.0083664621041
0.00205477338874
-0.00884113794586
0.00310458203152
-0.00880116786481
0.00414319189081
-0.00871857488507
0.00516696481275
-0.00860872631068
0.0061725151266
-0.00847324278909
0.00715669813876
-0.00831356354239
0.00811663827038
-0.00813131007651
0.0090497515647
-0.00792825779335
0.00995376082996
-0.00770629295474
0.0108267039101
-0.00746736904546
0.0116669354942
-0.00721346345113
0.0124731225832
-0.00694653471315
0.0132442335479
-0.00666848049354
0.013979520516
-0.00638109639316
0.0146784946462
-0.00608603648434
0.0153408944203
-0.00578477656885
0.015966647054
-0.00547858239312
0.0165558246123
-0.0051684846132
0.0171085962385
-0.00485526329492
0.0176251797831
-0.00453944302207
0.018105795074
-0.00422129999987
0.0185506224795
-0.00390087960143
0.0189597679182
-0.0035780229728
0.0193332361085
-0.0032523983806
0.0196709104048
-0.00292353453926
0.0199725384974
-0.00259085184313
0.0202377205357
-0.00225369118082
0.0204658989021
-0.00191133993779
0.0206563476464
-0.00156305881841
0.0208081637292
-0.00120811320159
0.0209202599942
-0.000845806343421
0.0209913656032
-0.000475528153337
0.0210200348725
-9.68101727064e-05
0.0210046696466
0.000290612203738
0.0209435566185
0.000686730947745
0.0208349233361
0.00109119605573
0.0206770123013
0.00150324977959
0.0204681740786
0.00192167332063
0.0202069741936
0.00234475335783
0.0198923084843
0.00277028024383
0.0195235135448
0.00319558641994
0.0191004572004
0.00361763448154
0.0186235874417
0.00403315549051
0.0180939186941
0.00443883005505
0.0175129392257
0.00483148791332
0.0168824312608
0.00520828216586
0.016204227089
0.00556678470492
0.0154799273733
0.00590492311485
0.0147106868435
0.00622071366223
0.0138971329701
0.00651168970202
0.0130397093017
0.00677401005821
0.0121396019919
0.00700117668656
0.0112007340114
0.00718271242696
0.0102324614158
0.00730384245557
0.00925173048102
0.00734835111504
0.00827577588489
0.0073132279085
0.00729350428543
0.00723437052813
0.00632210420249
0.00706781518164
0.00543382817759
0.00674355667086
0.00460872532941
0.00639416308652
0.00369162761694
0.00619654623173
0.00308351618451
0.00539726213727
0.00268937926761
0.00472710147146
0.00211528885582
0.00462246765029
0.00148925634593
0.00434738449409
0.00108407434659
0.00364438963832
0.000848998509334
0.00299345125375
0.000699419884826
0.00249499978447
0.000579032328358
0.0021265194063
0.000474577629059
0.00182649145449
0.000381458141702
0.00157301292285
0.000292998326267
0.00135881372898
0.000211413368131
0.00116195725983
0.000159751535812
0.000949240055271
0.000161098377331
0.000727004690841
0.000181442634416
0.000584811820367
0.000151311557727
0.000564136926037
0.00011783229612
0.000493981657198
0.000104712862103
0.000397526633075
0.0001070062461
0.000317416396073
9.36471386558e-05
0.00029001023185
8.29188579971e-05
0.000245568374923
7.34765289311e-05