/*--------------------------------*- C++ -*----------------------------------*\
| =========                 |                                                 |
| \\      /  F ield         | OpenFOAM: The Open Source CFD Toolbox           |
|  \\    /   O peration     | Version:  v1906                                 |
|   \\  /    A nd           | Web:      www.OpenFOAM.com                      |
|    \\/     M anipulation  |                                                 |
\*---------------------------------------------------------------------------*/
FoamFile
{
    version     2.0;
    format      ascii;
    class       surfaceScalarField;
    location    "322";
    object      phia;
}
// * * * * * * * * * * * * * * * * * * * * * * * * * * * * * * * * * * * * * //

dimensions      [0 3 -1 0 0 0 0];
oriented        oriented;


internalField   nonuniform List<scalar> 
18240
(
0.000866070878847
-0.000865163432979
0.00176650486759
-0.000899423104846
0.00266703844084
-0.000899617167229
0.00356111596625
-0.000893039811037
0.00444525074059
-0.000883240740424
0.00531699688767
-0.000870684551266
0.00617361581341
-0.000855749169497
0.00701319217581
-0.000838490655459
0.00783323972526
-0.000819204242228
0.008632235791
-0.000797886780007
0.009407913382
-0.000774864339845
0.0101591471383
-0.00075010241571
0.0108838890418
-0.000723962343877
0.0115814098522
-0.000696370152639
0.0122498637235
-0.000667712974544
0.012888894621
-0.000637864932141
0.0134968214249
-0.000607229141433
0.0140736153132
-0.00057561799554
0.0146177062881
-0.000543442256505
0.0151293318013
-0.00051044627944
0.0156069710527
-0.000477044171783
0.0160510578025
-0.000442911931873
0.0164600597827
-0.000408465971953
0.0168345400444
-0.000373318449205
0.0171729046082
-0.000337891351124
0.017475787296
-0.000301743207253
0.0177415004991
-0.000265306782881
0.0179707084681
-0.000228100455217
0.0181616219323
-0.000190575544171
0.0183149157442
-0.000152228121084
0.0184287193595
-0.000113535808433
0.018503722297
-7.39887218554e-05
0.0185380216258
-3.41006283251e-05
0.0185323571027
6.61793948989e-06
0.0184848790153
4.76090567772e-05
0.01839644084
8.93223332448e-05
0.0182653604685
0.000131147750708
0.018092694279
0.00017347378337
0.0178770683077
0.000215634605377
0.0176198531698
0.000257940870119
0.0173201394855
0.000299671404989
0.016979733873
0.00034104698097
0.0165983527663
0.000381296891972
0.0161783651136
0.000420546041389
0.0157202674788
0.000457983306272
0.015227111238
0.000493637704899
0.0147003065981
0.000526672284433
0.0141436890572
0.000557032684624
0.0135596684071
0.000583882821551
0.0129529096369
0.000607121799108
0.0123268082485
0.000625968431595
0.0116867832768
0.000640350799609
0.0110370302898
0.000649631154148
0.010383453053
0.000653875252362
0.00973064783351
0.000652692917887
0.0090845282244
0.000646389537994
0.00844952778956
0.000634892064534
0.00783097830964
0.000618783648721
0.00723256451381
0.000598303323946
0.00665849088388
0.000574264260435
0.00611124059348
0.000547134576718
0.00559354852943
0.000517837067881
0.00510651095568
0.000486917767397
0.00465137679508
0.000455239250262
0.00422799623199
0.00042326253115
0.00383640945716
0.000391663265811
0.00347556444966
0.000360735525349
0.00314468343991
0.000330940936359
0.00284217440056
0.000302412907244
0.00256678779057
0.000275438287642
0.00231667274927
0.000250033480908
0.00209035915569
0.000226360643716
0.00188593317382
0.000204357218115
0.00170187938722
0.000184096522922
0.0015363570378
0.000165463052932
0.00138792628596
0.000148468300893
0.0012549085601
0.000132965205479
0.00113601612799
0.000118924483171
0.00102978961013
0.000106179277471
0.000935159582579
9.4656987581e-05
0.000850994527757
8.41226208375e-05
0.000776725169711
7.42906747101e-05
0.0007124080067
6.4278265164e-05
0.000661448912918
5.09763205167e-05
0.000614896142013
4.65212800876e-05
0.0005661427393
4.87685291201e-05
0.000522381048568
4.37375737985e-05
0.000484337431613
3.8056593242e-05
0.000444628358642
3.96924167205e-05
0.000398659103169
4.59797203163e-05
0.000349721004188
4.89267521923e-05
0.000297894277993
5.18323677439e-05
0.000237169025295
6.07264253353e-05
0.000163593235748
7.35746503788e-05
7.90007846985e-05
8.4583399768e-05
7.89990344141e-05
0.000905744535698
-0.00176995186326
0.00187360214299
-0.00186625848884
0.00283422966851
-0.00185924570996
0.00378584737905
-0.00184362598572
0.00472622324996
-0.00182262202099
0.00565302510328
-0.00179644900026
0.00656368278426
-0.00176541796341
0.00745597606329
-0.0017297410308
0.00832753288944
-0.0016897796893
0.00917645439467
-0.00164576130795
0.0100006502178
-0.00159808863956
0.010798584319
-0.0015469878848
0.0115684636086
-0.00149288357992
0.0123091166511
-0.00143597642139
0.0130190327177
-0.00137668858261
0.0136973784106
-0.00131517025265
0.0143428853226
-0.00125181853209
0.0149550079681
-0.00118671226109
0.0155326611729
-0.0011202064721
0.0160755206517
-0.0010522957674
0.0165826148153
-0.000983284342363
0.0170537668934
-0.000913079503758
0.0174880492357
-0.000841935553647
0.017885362295
-0.000769679915695
0.018244762639
-0.000696526731138
0.0185661702403
-0.000622239738742
0.0188485845194
-0.000547009697104
0.0190919069115
-0.000470559697935
0.0192950621369
-0.00039307857207
0.0194579186713
-0.000314276487829
0.0195793382282
-0.000234366740971
0.0196591747771
-0.000153078480974
0.0196962703168
-7.06748203826e-05
0.0196905081176
1.30599736163e-05
0.0196407869013
9.77821415437e-05
0.019547100269
0.000183617456683
0.0194085145179
0.000270114885194
0.0192252438092
0.000357278693419
0.0189966601508
0.000444530142269
0.0187233313837
0.000531728688312
0.0184050906659
0.000618157541426
0.0180430044461
0.000703518845625
0.0176375282415
0.000786957888747
0.0171903742795
0.000868017338671
0.0167027768655
0.000945713531816
0.0161772345255
0.0010194377075
0.0156159015012
0.0010880974818
0.0150221837218
0.00115096020219
0.0143992576214
0.00120687333302
0.0137515012448
0.00125505424756
0.0130831198228
0.00129439987585
0.0123993959384
0.00132423083758
0.0117053856631
0.00134368639078
0.0110069856075
0.00135241808343
0.010309675902
0.00135004294433
0.00961943187506
0.00133675967286
0.00894152893424
0.00131282372145
0.00828135199268
0.00127906291233
0.00764330753009
0.00123635767115
0.00703157656153
0.00118606710445
0.00644917886777
0.00112951959816
0.00589869980172
0.00106835552152
0.00538155915559
0.00100402564751
0.00489873673837
0.00093807455362
0.00445023614728
0.00087171838913
0.00403576907137
0.00080612791228
0.00365434010225
0.000742117815169
0.00330484063546
0.000680433219329
0.0029856925234
0.000621519622785
0.00269533968071
0.000565785932382
0.00243192587868
0.000513413924433
0.00219370326848
0.000464581879718
0.00197874298648
0.000419291200493
0.00178528185092
0.000377558515897
0.00161146314822
0.000339259761806
0.00145563076218
0.000304301549562
0.00131609341986
0.000272482702457
0.00119137218262
0.000243645454226
0.00107998145738
0.000217551324038
0.000980626636045
0.000194010023793
0.000891969282524
0.000172762034809
0.000812676336565
0.00015357931229
0.000740774001591
0.000136162928334
0.000671280758629
0.000120464129484
0.000609712852752
0.000108076444647
0.000556167764908
0.000102310015592
0.000510729838376
8.91661648468e-05
0.000472050321348
7.67351561282e-05
0.000434814544379
7.69237895289e-05
0.0003950565282
8.57370301872e-05
0.000348422047882
9.5559252856e-05
0.000296501908132
0.000103754111127
0.000239098063819
0.00011812854971
0.000169978350916
0.000142693088332
8.34932829053e-05
0.000171065008828
0.00016248698311
0.000916219878553
-0.00268520416417
0.00188776851862
-0.00283678975969
0.00285483300112
-0.00282529270589
0.00381325420593
-0.00280102186435
0.00476034673796
-0.0027686974994
0.00569357650724
-0.00272865138874
0.00661040894524
-0.00268123463429
0.00750850929974
-0.00262681276562
0.0083855879865
-0.00256584492621
0.0092396200818
-0.00249876518803
0.0100686303657
-0.00242609013452
0.010870945411
-0.00234827777226
0.0116449235351
-0.00226586068134
0.012389244765
-0.00217927928256
0.0131025864936
-0.00208904147642
0.0137839537823
-0.00199553068493
0.0144323008935
-0.00189919402363
0.0150469040276
-0.00180032574831
0.0156269309812
-0.00169928520399
0.0161718582489
-0.00159625698884
0.0166809918906
-0.00149149952749
0.0171539305758
-0.00138508272209
0.0175900428545
-0.00127716624149
0.017988976401
-0.00116771572626
0.0183500966838
-0.0010568089944
0.0186730410595
-0.000944331328183
0.0189571252123
-0.000830306327024
0.0192019385864
-0.0007145720686
0.0194067245268
-0.00059713346468
0.0195710123569
-0.000477821514655
0.0196939792048
-0.000356664787101
0.0197751120094
-0.000233532285729
0.0198135592772
-0.000108519927749
0.0198088165336
1.84131765677e-05
0.0197600771271
0.000147053349173
0.0196669318219
0.000277301275454
0.019528727064
0.000408779204667
0.0193452678452
0.0005412025293
0.0191161915841
0.000673993240928
0.0188416613239
0.000806649889095
0.0185217614026
0.000938373731467
0.0181571681739
0.0010684320023
0.0177485745079
0.00119580179294
0.0172973266056
0.00131951991507
0.0168048840066
0.0014383482515
0.0162734142088
0.0015511058163
0.0157052940943
0.00165636205803
0.0151036539836
0.00175275413884
0.0144719166462
0.00183872102831
0.0138142747109
0.00191282023126
0.0131352457255
0.00197352008265
0.0124400550038
0.00201953038055
0.011734168514
0.00204965520487
0.0110235600383
0.00206312693345
0.0103141961618
0.0020594796523
0.00961220990173
0.00203883457646
0.00892336223168
0.00200172878032
0.00825318348066
0.00194930831824
0.00760648079266
0.0018830955674
0.00698748665289
0.00180509778139
0.00639946098993
0.00171755278565
0.00584487509148
0.0016229472908
0.0053251822523
0.00152369963255
0.00484110342915
0.00142213628545
0.0043925437049
0.0013202433191
0.00397891769154
0.00121972654819
0.00359910975976
0.00112188740977
0.00325175966037
0.00102775720728
0.00293520402964
0.000938042384275
0.00264769965364
0.000853271044779
0.00238734200102
0.000773747702262
0.00215224184094
0.000699669565542
0.00194044534268
0.000631070929141
0.00175008044345
0.000567914594257
0.00157928472163
0.000510041806068
0.00142632245481
0.000457255759543
0.00128951297623
0.00040927920273
0.00116732137134
0.000365828756109
0.00105828078931
0.000326578922331
0.000961050862625
0.00029123095001
0.000874309473292
0.000259490126271
0.00079672210791
0.000231156594911
0.000726686102663
0.000206184874773
0.000661516177432
0.000185625098298
0.000601964472395
0.000167617657197
0.00055150836417
0.000152759460222
0.000500937010465
0.000139729410794
0.000450762960936
0.000126904885914
0.000410231619184
0.000117451006106
0.00037746683748
0.000118499495889
0.000331134186638
0.000141888039819
0.000272880778877
0.000162006943557
0.000211174130779
0.000179838564588
0.000141975165202
0.000211887614533
7.2581442839e-05
0.000240450171986
0.000235067100905
0.000925301396732
-0.00360953319304
0.00190436830228
-0.00381483429283
0.0028793757518
-0.0037992760241
0.00384572730883
-0.00376634592326
0.00480055731041
-0.00372250183951
0.00574119419504
-0.00366825985711
0.00666506347053
-0.00360407771493
0.00756975356351
-0.0035304738823
0.00845297853731
-0.00344804437797
0.00931265377979
-0.00335741242121
0.0101468370002
-0.00325925059438
0.0109538079154
-0.00315422429868
0.0117319863651
-0.00304302250879
0.0124800175688
-0.00292629350493
0.0131966675446
-0.00280468521995
0.013880915422
-0.00267877381749
0.014531827149
-0.00254911537114
0.0151486568133
-0.00241616869974
0.0157307004771
-0.00228036040842
0.0162774090193
-0.00214200335952
0.0167882253701
-0.00200137624159
0.0172627118377
-0.0018586385948
0.0177003744244
-0.00171392501637
0.0181008069948
-0.00156725649534
0.018463506372
-0.00141864767946
0.018788034549
-0.00126801369301
0.0190738273491
-0.00111528840711
0.0193203743497
-0.00096032608578
0.0195270237044
-0.000803028688181
0.019693178869
-0.000643242860541
0.0198181024289
-0.000480896587081
0.0199011280727
-0.000315888865664
0.0199414671912
-0.000148234753353
0.019938435614
2.20444488153e-05
0.0198912659311
0.000194776068217
0.0197993462669
0.000369747944451
0.0196620410384
0.000546563697316
0.0194789374802
0.000724758668316
0.0192496753107
0.000903660358646
0.018974194547
0.00108250913639
0.0186525731016
0.00126032737018
0.0182852689293
0.00143604324174
0.0178729651411
0.00160836923609
0.0174168014782
0.00177592468449
0.016918229428
0.00193712243867
0.0163792320519
0.00209028656886
0.0158021945698
0.00223355027174
0.0151901111518
0.00236497482296
0.0145464701096
0.00248247527503
0.0138754330868
0.00258396450747
0.0131817103777
0.00266733561395
0.0124706727442
0.00273066165415
0.0117481653375
0.00277224748448
0.0110205046677
0.00279087503355
0.0102941937716
0.00278586878187
0.00957581555461
0.00275728970891
0.00887169361137
0.00270591440995
0.00818776845853
0.00263329181271
0.00752929364159
0.00254160990763
0.00690075938735
0.00243365967877
0.00630563690319
0.00231268174696
0.00574636060578
0.00218221550758
0.00522427001477
0.00204576597535
0.00473978228897
0.00190659064286
0.00429250620531
0.00176747858239
0.00388148259565
0.00163070864905
0.00350530709864
0.00149802193721
0.00316231652851
0.001370711758
0.00285064833975
0.00124967956706
0.00256835238069
0.00113554324531
0.00231339756295
0.00102868343617
0.00208374774198
0.00092930553837
0.00187736163543
0.000837445181038
0.00169226058094
0.000753005319472
0.00152652956954
0.000675762274489
0.00137836568441
0.000605409121978
0.0012460692955
0.000541564276635
0.00112807567027
0.000483811099581
0.00102293482099
0.000431707944378
0.000929325985151
0.000384828024416
0.000846023688596
0.000342780549933
0.000771898451857
0.000305269792513
0.000705859795514
0.000272212164941
0.000646947476158
0.000244526355639
0.000589864858081
0.000224691810765
0.000535291601459
0.000207323739497
0.000482505281317
0.000192507588801
0.000434875593705
0.00017452797655
0.000385205829863
0.000167114790673
0.000332886571234
0.0001708131939
0.000294241202947
0.00018053097586
0.000238645600359
0.000217602050367
0.000171473897938
0.000247006419865
0.000113965813982
0.000269394562648
5.92581426568e-05
0.00029515489037
0.000294319564066
0.000936443175672
-0.00454499835269
0.00192652405071
-0.00480389117192
0.00291245141347
-0.00478417281147
0.00388950133945
-0.00474236420148
0.00485469860932
-0.0046866670488
0.00580525914469
-0.00461778699857
0.00673853515106
-0.00453632055759
0.00765204347831
-0.00444294762097
0.00854346327012
-0.00433843064906
0.00941066859317
-0.00422358347641
0.0102517151314
-0.00409926536288
0.0110648687771
-0.00396634672654
0.0118485790382
-0.00382570597126
0.0126015028693
-0.00367819306815
0.0133224650932
-0.00352463011506
0.0140104780127
-0.00336577444364
0.0146646898933
-0.00320232482253
0.0152844018466
-0.00303488631356
0.015869006818
-0.0028639842825
0.0164180065024
-0.00269003338804
0.0169309443287
-0.00251336120876
0.01740742606
-0.00233418255818
0.0178470510328
-0.00215263276489
0.0182494398383
-0.00196874681783
0.0186141670508
-0.00178250059466
0.0189407979744
-0.00159379273629
0.0192288248572
-0.00140249116638
0.0194777130817
-0.00120841601325
0.0196868416172
-0.00101138990119
0.0198555586009
-0.000811221575613
0.0199831276475
-0.00060776131113
0.0200687930609
-0.000400881782573
0.020111734083
-0.000190539590187
0.0201111416115
2.32389426232e-05
0.0200661825386
0.000240299060451
0.0199760877515
0.000460370917386
0.0198401273771
0.000683013242607
0.0196577078571
0.000907630814823
0.0194283561757
0.00113342564055
0.0191518208687
0.00135942176957
0.0188280605753
0.00158442702898
0.018457342916
0.00180706527441
0.0180402335898
0.00202574713746
0.0175776899767
0.00223870439704
0.0170710523313
0.00244396382524
0.0165221365358
0.00263937740026
0.0159332369689
0.00282259776755
0.0153072262327
0.00299111078153
0.0146475761385
0.0031422326794
0.0139584537412
0.00327318017771
0.0132447366475
0.00338113954351
0.0125120478255
0.00346343006504
0.0117666904907
0.00351768538681
0.0110155322955
0.00354210943281
0.0102657849792
0.0035356905579
0.00952474996457
0.00349839982643
0.00879949687873
0.00343123259565
0.00809661611236
0.00333623220555
0.00742195094331
0.00321631738062
0.00678043837224
0.00307519384941
0.00617582455984
0.00291729546023
0.00561052158802
0.00274749576452
0.0050856239813
0.00257062317056
0.00460110690502
0.00239105690626
0.00415607533613
0.00221245320494
0.00374905090448
0.00203767784061
0.0033781785193
0.00186884246508
0.00304141085923
0.00170743815544
0.00273659194794
0.00155446372985
0.00246153686395
0.00141057635563
0.00221403025311
0.00127617314804
0.0019918713623
0.00115145462329
0.00179288143205
0.00103642581897
0.00161496065665
0.000930917824159
0.00145610554136
0.000834607024541
0.00131444300221
0.000747060726911
0.00118823403177
0.000667760616605
0.00107589350098
0.000596139431529
0.000975983923679
0.000531604260641
0.000887227919125
0.00047357195551
0.000808501207995
0.000421494583073
0.000738874769381
0.000374885479023
0.000677509262068
0.000333565518129
0.000625791611716
0.000296234536114
0.000575126482962
0.000275347182414
0.000523844347028
0.000258597333032
0.000470463598984
0.000245879746332
0.000407131121706
0.000237852086699
0.000347846426431
0.000226392255398
0.000292717362563
0.000225936854861
0.000247124583928
0.00022611887583
0.000206727801871
0.000257997441471
0.000147775011051
0.000305962950974
9.1682649445e-05
0.000325482153782
4.6510653917e-05
0.000340318256766
0.000340829372954
0.000950210134197
-0.00549422641558
0.00195451384492
-0.00580716342604
0.00295442178093
-0.00578304539068
0.0039450918252
-0.0057319968246
0.00492343731456
-0.00566397422155
0.00588656191668
-0.00557987218451
0.0068317257602
-0.00548044371446
0.00775636528195
-0.00536654571777
0.00865810584743
-0.00523912897737
0.00953477865825
-0.00509921418559
0.010384425186
-0.00494787015184
0.0112053063026
-0.0047861877513
0.0119958961968
-0.00461525805503
0.0127548830687
-0.00443614584627
0.0134811520041
-0.00424986976215
0.0141737776284
-0.00405737714805
0.0148319966389
-0.0038595288502
0.0154551940385
-0.00365707816393
0.0160428675067
-0.00345066365491
0.0165946105552
-0.00324079521077
0.0171100728719
-0.00302785760631
0.0175889451498
-0.00281210537093
0.0180309202031
-0.0025936775923
0.0184356839459
-0.00237260046294
0.0188028810247
-0.00214881078454
0.0191321143439
-0.00192216284702
0.0194229164072
-0.00169245700545
0.0196747574384
-0.00145944789985
0.0198870222742
-0.00122287613669
0.0200590267253
-0.000982477582815
0.0201900008152
-0.000738020714961
0.0202791142388
-0.000489313390477
0.0203254683038
-0.000236248315256
0.0203281339894
2.1183655477e-05
0.0202861550155
0.000282849934157
0.0201985998475
0.000548461682362
0.0200645769655
0.000817531960804
0.0198832993208
0.00108936752005
0.0196541085002
0.0013630354029
0.0193765458639
0.00163736692681
0.0190503785396
0.00191093721485
0.0186756691559
0.00218208230113
0.0182527967724
0.00244888882564
0.0177825211977
0.00270921606931
0.0172660007858
0.00296068433184
0.0167048602614
0.00320068791622
0.0161012233621
0.00342637344877
0.0154578048383
0.00363464457401
0.0147779789656
0.00382215248817
0.0140658982456
0.00398534070728
0.0133265778996
0.00412053031728
0.0125659669844
0.00422410541387
0.0117909319708
0.00429278369165
0.0110091184821
0.00432398392921
0.0102286949242
0.00431617825924
0.00945797471684
0.00426918513496
0.00870504691364
0.00418422066213
0.00797738826449
0.00406394937746
0.00728163592956
0.00391210720922
0.00662342412163
0.00373341246227
0.00600690650497
0.00353378985932
0.00543445646753
0.00331989119934
0.00490674091829
0.00309826567374
0.00442304494459
0.00287466824422
0.003981704649
0.00265370752399
0.00358050456132
0.00243879729048
0.00321697160497
0.00223230594044
0.00288856706881
0.00203578624245
0.00259278429409
0.00185020640564
0.00232717226338
0.00167616270307
0.00208931163133
0.00151401822664
0.00187680806896
0.00136394821367
0.00168730995128
0.00122591536389
0.00151856526221
0.00109965171599
0.00136845897825
0.000984700571376
0.00123503350229
0.000880471709175
0.00111649935698
0.000786279429737
0.00101124693594
0.000701376681302
0.000917847300873
0.000624989546592
0.000835056210375
0.00055634910858
0.000761806698292
0.000494732140511
0.000697165398913
0.000439515104919
0.00063959005861
0.000391130561966
0.000586112123854
0.000349702264205
0.00053530958433
0.00032614110189
0.000481818708383
0.000312080396647
0.000431790376566
0.000295899862287
0.00038496079632
0.000284674071298
0.000328865430153
0.000282480109588
0.000268362476535
0.000286433283688
0.000205375061931
0.000289104276434
0.00016354062728
0.000299831321014
0.000127233412357
0.000342265559463
7.86679961554e-05
0.000374046498001
3.93396755841e-05
0.000379644893536
0.000380164044961
0.000966895518826
-0.00646013383333
0.00198862760388
-0.00682786111987
0.00300565776721
-0.0067990340494
0.00401297607727
-0.00673827208084
0.00500735997089
-0.00665731349375
0.00598578376732
-0.00655724942654
0.00694539495508
-0.00643900700008
0.00788353697086
-0.00630363771498
0.00879776467091
-0.00615230590143
0.00968586191887
-0.00598625925343
0.010545847089
-0.0058068036528
0.0113759815829
-0.00561527069583
0.0121747644813
-0.00541299181236
0.0129409308153
-0.00520126545366
0.0136734351644
-0.0049813323198
0.0143714392678
-0.00475434481592
0.0150342851415
-0.00452134624658
0.0156614730736
-0.00428324645866
0.0162526268425
-0.00404080919556
0.0168074657429
-0.00379463855529
0.0173257670179
-0.00354517841453
0.0178073378355
-0.0032927124483
0.0182519813488
-0.00303737626948
0.0186594744169
-0.00277916949745
0.0190295418171
-0.00251797681545
0.0193618423292
-0.00225358679495
0.0196559517603
-0.00198571618532
0.0199113564261
-0.00171403088277
0.0201274432267
-0.00143817092866
0.0203034991594
-0.00115777355369
0.0204387086586
-0.000872503015475
0.0205321603692
-0.000582072964362
0.0205828548982
-0.000286285920681
0.0205897241246
1.49339078644e-05
0.0205516533822
0.000321503174425
0.0204675163127
0.000633142206036
0.0203362135537
0.000949340245766
0.0201567221108
0.0012693245955
0.0199281466139
0.0015920383423
0.0196497758712
0.00191612508231
0.0193211362378
0.0022399263181
0.0189420435543
0.00256148482587
0.0185126467241
0.00287855812895
0.0180334679205
0.00318862871472
0.0175054364406
0.00348891332083
0.0169299315622
0.00377635429925
0.0163088346861
0.00404760000747
0.0156446163534
0.00429896406816
0.0149404530329
0.00452639392409
0.0142003923585
0.00472546194513
0.0134295294572
0.00489144276574
0.0126341619014
0.00501950996809
0.0118218568182
0.00510512879807
0.0110012952289
0.0051445720048
0.0101819544029
0.00513556098658
0.00937352541784
0.00507765271839
0.00858548564135
0.00497230442679
0.00782642356392
0.00482305701379
0.00710400976676
0.00463453229548
0.00642499612121
0.00441239707568
0.00579419576015
0.00416451401738
0.00521389206773
0.00390008555765
0.00468400725434
0.00362801762841
0.00420273469562
0.0033558043379
0.00376725262882
0.00308905811924
0.00337431879045
0.0028316113241
0.00302064744648
0.00258587773539
0.00270311058628
0.00235324529695
0.00241881497221
0.00213444621779
0.00216506097395
0.00192988193263
0.0019392305036
0.00173982569763
0.00173872001283
0.00156444290267
0.0015609554894
0.00140366251399
0.00140349848643
0.00125709116202
0.00126409676998
0.00112408160455
0.00114069700009
0.00100385008452
0.00103144803924
0.000895507547522
0.000934713563597
0.00079809225955
0.000849071781744
0.00071061379456
0.00077333121445
0.000632075524201
0.000706568843698
0.000561481415437
0.00064825072472
0.000497823176132
0.000598800164054
0.000440570933529
0.000547720112857
0.00040077341284
0.00049618987936
0.000377663901525
0.000447745697658
0.000360517659115
0.000394807966612
0.000348831110096
0.000342810277754
0.000336665212852
0.000287973464087
0.000337310747853
0.000238582094156
0.000335819753382
0.000182898539364
0.000344783053428
0.000130242474358
0.000352485201653
0.000102868104817
0.000369643632154
6.65687458757e-05
0.00041034170372
3.31178156402e-05
0.000413088850958
0.000413282225267
0.000986713096802
-0.00744585547265
0.00202920815943
-0.00786931551106
0.00306663300031
-0.00783541278453
0.00409376228686
-0.00776435268637
0.00510720236713
-0.00766970252243
0.00610377164854
-0.00755276559277
0.00708048325274
-0.00741466247451
0.00803456822475
-0.00725666458696
0.00896349801623
-0.00708017482354
0.00986499851871
-0.00688669774616
0.0107370619777
-0.00667780350419
0.0115779499603
-0.00645509554213
0.0123861938356
-0.0062201730025
0.0131605861996
-0.00597459791879
0.013900168904
-0.00571985837282
0.0146042123229
-0.00545733731671
0.0152721904932
-0.00518828017959
0.0159037490523
-0.004913769937
0.0164986696697
-0.00463470528404
0.0170568310398
-0.00435178832339
0.0175781688772
-0.00406551936599
0.0180626379303
-0.00377620146717
0.0185101760268
-0.00348395330025
0.018920675069
-0.00318872828706
0.0192939550892
-0.00289033977865
0.0196297471979
-0.00258848650111
0.0199276772857
-0.00228278111007
0.0201872579677
-0.00197277469411
0.0204078778621
-0.00165798495136
0.0205887991578
-0.00133792056448
0.0207291515872
-0.00101211556199
0.0208279371557
-0.000680153042367
0.0208840337846
-0.000341714205352
0.0208962149706
3.38462328046e-06
0.0208631694382
0.000355141451504
0.0207835413992
0.000713325244013
0.0206559701834
0.00107742597671
0.0204791510425
0.00144661986422
0.0202518902509
0.00181973396099
0.0199731769696
0.00219523449007
0.0196422392459
0.00257121822807
0.0192586085771
0.00294543079267
0.0188221570424
0.00331528233283
0.0183331394623
0.00367787993106
0.0177922071638
0.00403003667092
0.0172004439329
0.00436827252245
0.0165593967289
0.00468876384297
0.0158711770928
0.00498727130212
0.0151386014332
0.00525902805297
0.0143654448842
0.00549865783459
0.013556733694
0.0057001698832
0.0127190862485
0.00585716994255
0.0118608848803
0.00596331345481
0.0109922302692
0.00601323298155
0.0101243623555
0.00600341557419
0.00926886796348
0.00593316289811
0.00843713190841
0.00580405283971
0.00763896248172
0.0056212455074
0.00688326975505
0.00539020928774
0.00617873905813
0.0051168295278
0.00553137440052
0.00481173693442
0.00494320732678
0.00448806242014
0.00441285642648
0.00415816857413
0.00393672971182
0.00383173342957
0.0035102810296
0.00351532317488
0.00312886659304
0.00321286634378
0.00278817256596
0.00292643706926
0.00248440421601
0.00265691153564
0.00221431083503
0.00240446470545
0.00197503324068
0.0021691126798
0.001763825187
0.00195100236835
0.00157785611937
0.00175038151443
0.00141425623337
0.00156723684077
0.00127033453978
0.0014009812353
0.0011436920957
0.00125069509639
0.00103216857839
0.00111534296412
0.000933841818342
0.000993806912211
0.00084704299315
0.000884867975018
0.000770340243279
0.000787298139758
0.000702531454022
0.000699868592564
0.00064264630855
0.000621355025917
0.000589891135095
0.000550568873415
0.00054336918352
0.000487085118915
0.000496166326441
0.000447969165881
0.000450290258934
0.000423534224553
0.000406464078147
0.000404338365899
0.000359738779173
0.000395551899156
0.000305639666638
0.000390759296215
0.000253382796328
0.000389562822741
0.000199139752862
0.00039005837066
0.000159071989169
0.000384849024137
0.000115107753258
0.000396448784077
8.07591955506e-05
0.000403987390193
5.71069528004e-05
0.000433994988556
2.75982154816e-05
0.000442598325252
0.000440876580941
0.00100987943198
-0.00845473872191
0.00207665809677
-0.00893505084708
0.00313793021473
-0.0088956344654
0.00418820168045
-0.00881357059233
0.00522386955789
-0.00870431412298
0.00624156563234
-0.00856940160571
0.00723814063628
-0.00841017442164
0.00821069438067
-0.00822815100734
0.00915659672984
-0.00802500725069
0.0100735079949
-0.00780253545295
0.0109593868505
-0.00756260748778
0.0118124989325
-0.00730713080748
0.0126314122154
-0.00703801024847
0.0134149927831
-0.00675710312984
0.0141623867693
-0.00646618059851
0.014873001193
-0.00616688404064
0.015546471172
-0.00586068944339
0.0161826252431
-0.00554887129781
0.016781439857
-0.00523247799048
0.0173429939199
-0.00491231277941
0.0178674186589
-0.00458892935213
0.0183548520533
-0.00426263687678
0.0188053961262
-0.00393351837766
0.0192190825645
-0.00360145695949
0.0195958457536
-0.0032661682577
0.0199355031393
-0.00292723472816
0.0202377420406
-0.00258413781168
0.0205021084862
-0.00223628852661
0.0207279994364
-0.00188305381853
0.0209146535052
-0.00152378577112
0.0210611454915
-0.00115785241351
0.0211663811866
-0.000784669885583
0.0212291025316
-0.00040375284394
0.0212478974159
-1.47661553301e-05
0.0212212257651
0.000382419370094
0.0211474541403
0.000787662864643
0.0210249097291
0.00120049746127
0.0208519412538
0.00162007383481
0.0206269967066
0.00204512419813
0.0203486986779
0.00247393534906
0.0200159257445
0.00290435307888
0.0196278745884
0.00333379945921
0.0191841121865
0.00375931960526
0.0186845953168
0.00417762619069
0.0181296755965
0.00458514387664
0.0175200868437
0.00497800587139
0.016856956566
0.00535200081602
0.0161418734104
0.00570242563371
0.0153770627744
0.00602387953016
0.0145657224075
0.00631000624013
0.0137125319166
0.00655336104386
0.0128242190355
0.00674542304127
0.0119101754082
0.00687735384879
0.0109823060554
0.00694101600891
0.01005450335
0.00693121529039
0.00914075106517
0.00684688294732
0.00825542122779
0.00668937953699
0.00740907888066
0.00646761299382
0.00661170749654
0.00618750249398
0.00587592431531
0.00585247273627
0.00520991649056
0.00547751333168
0.00461511497761
0.00508261247204
0.00408768850994
0.00468533165043
0.00362110229751
0.00429807252932
0.00320824897694
0.00392796333804
0.00284262639415
0.00357828994765
0.0025187104406
0.00325020855582
0.0022319868275
0.00294350872565
0.00197900120118
0.00265737389267
0.00175696143672
0.00239109788472
0.00156317873061
0.00214474218702
0.00139458686888
0.00191893790472
0.001247819036
0.00171396052358
0.00111984612341
0.00152892068916
0.00100812094921
0.00136238358927
0.000910397813274
0.00121302860256
0.000824666404866
0.00107950808813
0.000749237439224
0.000960270189028
0.000682677208512
0.000853837189988
0.00062378705295
0.00075874562111
0.000571602514643
0.000673529662367
0.000525264855043
0.000596900033246
0.000483649932044
0.000528694610873
0.000437868133984
0.000493746866622
0.000394700399362
0.000466697967743
0.000350989495703