/*--------------------------------*- C++ -*----------------------------------*\
| =========                 |                                                 |
| \\      /  F ield         | OpenFOAM: The Open Source CFD Toolbox           |
|  \\    /   O peration     | Version:  v1906                                 |
|   \\  /    A nd           | Web:      www.OpenFOAM.com                      |
|    \\/     M anipulation  |                                                 |
\*---------------------------------------------------------------------------*/
FoamFile
{
    version     2.0;
    format      ascii;
    class       volScalarField;
    location    "215";
    object      pa;
}
// * * * * * * * * * * * * * * * * * * * * * * * * * * * * * * * * * * * * * //

dimensions      [0 2 -2 0 0 0 0];


internalField   nonuniform List<scalar> 
9216
(
940.312171931
940.001332174
939.358143518
938.376965777
937.063017771
935.422308114
933.462080893
931.191168506
928.619332909
925.757725971
922.61812363
919.213485059
915.557084412
911.663166204
907.545991669
903.220589497
898.701731826
894.00477804
889.144592687
884.13647738
878.995038868
873.735203164
868.371039514
862.916849536
857.385950058
851.791830826
846.146898622
840.463697079
834.753613507
829.0281558
823.297623977
817.572440038
811.861787388
806.174984969
800.520095576
794.90534582
789.337706978
783.82434961
778.371201595
772.984432216
767.668991108
762.430114969
757.271852814
752.198587234
747.21355126
742.320356646
737.521508774
732.819933511
728.217496211
723.716519547
719.318313512
715.024675993
710.836440074
706.754950213
702.780633773
698.91444527
695.156468378
691.507321925
687.96679911
684.535228684
681.212157395
677.997661016
674.891076378
671.892256723
669.000358888
666.215038621
663.535298592
660.960619136
658.489871866
656.122382357
653.856913959
651.692658821
649.628295511
647.662905692
645.795108794
644.023901617
642.347872312
640.765960991
639.276754872
637.879167943
636.571818354
635.353625749
634.223271655
633.17971291
632.221725052
631.348330227
630.558421902
629.851103636
629.225386801
628.680426522
628.215252688
627.82882423
627.519490484
627.281421786
627.136199362
627.086367382
940.621764264
940.309219091
939.664486098
938.679042088
937.359031433
935.710683883
933.741480288
931.460310239
928.877160859
926.003224072
922.850521467
919.432039426
915.761311052
911.85258812
907.720394141
903.379738756
898.845652472
894.133446072
889.258234166
884.235239434
879.079309031
873.805261332
868.427396645
862.95988277
857.416259925
851.80986107
846.153310305
840.458974202
834.738453087
829.003060332
823.263306442
817.529403031
811.81073896
806.116409018
800.454683266
794.833553514
789.26019677
783.741539611
778.283715568
772.892643117
767.573478183
762.331202312
757.170071502
752.094210865
747.107061289
742.211976956
737.411671589
732.708815137
728.10548155
723.603741155
719.205112059
714.911144788
710.722879505
706.641419822
702.667398127
698.801535618
695.044118102
691.395539699
687.855791586
684.424987014
681.102865482
677.88929714
674.783804935
671.786046634
668.895357408
666.111208063
663.432770472
660.859350681
658.389979371
656.023818765
653.759780091
651.596903222
649.534002742
647.570019436
645.703696264
643.933900786
642.259331941
640.678812636
639.191027947
637.794787066
636.488793189
635.271874124
634.142783936
633.100401408
632.14356317
631.271229185
630.482346485
629.775980515
629.151207704
628.60721372
628.143219369
627.758570772
627.452791328
627.225344646
627.086205652
627.036436924
941.265770337
940.948531227
940.298193738
939.304267664
937.973012817
936.310758937
934.32520182
932.02540514
929.421619433
926.525231842
923.34855158
919.904761818
916.207688091
912.271763518
908.111792743
903.742938708
899.180490606
894.439877102
889.5364434
884.48549239
879.302072644
874.001046608
868.596889077
863.103779647
857.53540974
851.905096195
846.225594838
840.509232167
834.767723766
829.012321974
823.253638246
817.50180487
811.766300404
806.056124367
800.379625233
794.744685785
789.158553482
783.62803498
778.159328034
772.758223012
767.429935698
762.179313933
757.010671
751.92799524
746.934783677
742.034252875
737.229172811
732.52207704
727.915096784
723.410168925
719.008870591
714.712623326
710.522528419
706.439566077
702.464432053
698.597730548
694.839812688
691.190962395
687.651237589
684.220648213
680.899001025
677.686069478
674.581443237
671.584689512
668.695208382
665.912385599
663.235454912
660.66364219
658.196035769
655.831722003
653.569664619
651.408831548
649.348084004
647.38629458
645.522246632
643.754743356
642.082517758
640.504332515
639.018900671
637.624975856
636.321283631
635.106601722
633.979701848
632.939419514
631.984606084
631.11418792
630.3271287
629.622478496
628.999348874
628.456959017
627.994641612
627.611933093
627.308735713
627.085591663
626.946804057
626.891322119
942.255685189
941.933097623
941.273995614
940.266825972
938.918039172
937.234173316
935.223212292
932.894527359
930.258730646
927.327563648
924.113729342
920.630776081
916.892922788
912.914949949
908.712029993
904.299634741
899.69337907
894.908950226
889.961968994
884.867942727
879.642144918
874.29959085
868.854933852
863.322460642
857.716001341
852.048941057
846.334140704
840.583961988
834.810196994
829.024104706
823.236348061
817.457041092
811.695692743
805.961262479
800.262109882
794.606059291
789.000354317
783.451728735
777.966364802
772.549969235
767.20773419
761.944416757
756.764301568
751.67128235
746.668825354
741.760051659
736.94770071
732.234212175
727.621689102
723.111978285
718.706632589
714.406988914
710.214129453
706.128956495
702.152152468
698.284251025
694.525595949
690.876408175
687.336743796
683.906556883
680.585657054
677.373768191
674.270486155
671.275333647
668.387718814
665.606986618
662.932379101
660.363083662
657.898195728
655.536764339
653.277757857
651.120107144
649.062674809
647.104296153
645.243752262
643.479808722
641.811192686
640.236629253
638.754822455
637.364489063
636.064343316
634.853127879
633.729602079
632.692569746
631.740870812
630.873406061
630.089132495
629.38708611
628.76638371
628.226249768
627.766036336
627.385270189
627.083725174
626.861472587
626.719534275
626.654111494
943.595400276
943.265953254
942.594876963
941.569579941
940.196799591
938.483387869
936.437718794
934.0696007
931.390131452
928.4115557
925.147103208
921.610840995
917.817510019
913.782384544
909.521119601
905.049627523
900.383944066
895.540127802
890.534148594
885.381811466
880.098667323
874.699959614
869.200554438
863.614906149
857.957002686
852.240345967
846.477908791
840.68212686
834.864864949
829.03741891
823.210490057
817.394196776
811.598056677
805.831004884
800.101383404
794.416968254
788.784964436
783.212038392
777.704317696
772.267427762
766.906494806
761.62618539
756.430711439
751.323871282
746.309055641
741.389289099
736.56723619
731.845242304
727.225339077
722.709283947
718.298564244
713.994434641
709.797919394
705.709847189
701.730851217
697.861400978
694.101800025
690.45221461
686.912669207
683.483071994
680.163208455
676.952764015
673.851316235
670.858355017
667.973274018
665.195389022
662.52392929
659.95805467
657.496847553
655.139329301
652.884453403
650.731121633
648.678178817
646.724429014
644.868632149
643.109520284
641.445796147
639.876149442
638.399257168
637.013799738
635.71846285
634.511953162
633.393001468
632.360377683
631.412895164
630.54942509
629.76890225
629.070339501
628.452836914
627.915598442
627.457947261
627.079348656
626.779421081
626.557911227
626.414957242
626.346847399
945.29138695
944.953274242
944.266870191
943.218333261
941.81478951
940.063518699
937.97340565
935.554835211
932.819533932
929.780405269
926.451356247
922.847129465
918.983132141
914.875278451
910.539834069
905.993279234
901.252176838
896.333061705
891.252335532
886.026183368
880.670494446
875.200802952
869.632230452
863.979445676
858.256622948
852.477415579
846.654925676
840.801687616
834.929646826
829.050151992
823.173942056
817.311147665
811.47128632
805.663269354
799.895405361
794.175416652
788.510447994
782.907088466
777.37138496
771.908868265
766.524569751
761.223050162
756.008418123
750.884360351
745.854160893
740.920731669
736.08663152
731.354096158
726.72505625
722.201165972
717.783819431
713.474177127
709.273180164
705.181574056
701.199920307
697.32861721
693.56790859
689.917901471
686.378572017
682.94978018
679.631273152
676.422697355
673.323599902
670.333438508
667.451581642
664.677317028
662.009851246
659.44831755
656.991775642
654.639219459
652.38957774
650.24172229
648.194469782
646.246590809
644.396813158
642.643831746
640.986313374
639.422907464
637.952252146
636.572985548
635.283752941
634.083218285
632.970072127
631.943043133
631.000906518
630.142495496
629.366710286
628.672529663
628.059020758
627.525350996
627.070797974
626.694753286
626.396721089
626.176289908
626.03336332
625.964541047
947.35185129
947.00306893
946.297760578
945.220544214
943.77904756
941.981099915
939.836236543
937.355573026
934.551627525
931.438131268
928.029837037
924.342329603
920.39184138
916.195077818
911.769054219
907.130946963
902.297959442
897.287204537
892.115602389
886.799794432
881.356070747
875.800311299
870.147936652
864.413869124
858.612499151
852.757659295
846.862600446
840.939974551
835.001818327
829.059543861
823.123929935
817.20512193
811.312631439
805.455340719
799.641512093
793.878802635
788.174278353
782.534434454
776.965214592
771.472035013
766.059807104
760.732963805
755.495484015
750.350919975
745.30242235
740.352767602
735.504382799
730.759372121
726.11954055
721.586418788
717.161285056
712.845187754
708.638964708
704.543263025
700.558555317
696.685156368
692.923236072
689.272832806
685.733863122
682.306131955
678.989339397
675.783088181
672.686888123
669.700161524
666.822246042
664.052398834
661.389798703
658.833549824
656.382683954
654.036164515
651.792889583
649.651696887
647.611368036
645.670634805
643.828184834
642.082669287
640.432710008
638.876908438
637.413854015
636.042134079
634.760343159
633.567093509
632.461024914
631.440815502
630.505191727
629.652939217
628.882912681
628.194046394
627.585363828
627.055985992
626.605137597
626.232151207
625.936455193
625.71755624
625.575324559
625.506621219
949.786884132
949.425238812
948.69715889
947.585403247
946.098223524
944.244139219
942.033495468
939.478315115
936.592092422
933.389576105
929.886551555
926.099628837
922.046037924
917.743438266
913.209741865
908.462955435
903.521039327
898.401787267
893.1227234
887.701018928
882.153423735
876.496213515
870.745147296
864.915434856
859.021709654
853.078007021
847.097745006
841.093708655
835.078036731
829.062212296
823.057056649
817.072729213
811.118730029
805.203903568
799.336452853
793.523954596
787.773377074
782.091101701
776.482945727
770.954187833
765.509593682
760.153443751
754.889560204
749.72133562
744.651760094
739.683449843
734.818673681
730.059380647
725.407225093
720.863592538
716.429622617
712.106232421
707.894136636
703.793867738
699.805792785
695.930130047
692.16696216
688.516249059
684.97783751
681.55147053
678.236793664
675.033361393
671.940640825
668.958015867
666.084789215
663.32018523
660.663351195
658.113359884
655.669211044
653.329834506
651.094092696
648.960784952
646.928651569
644.996379723
643.162609295
641.425940454
639.784941234
638.238156597
636.78411749
635.421351036
634.148390646
632.9637869
631.866118239
630.854002079
629.926105627
629.0811568
628.317954686
627.635379653
627.032402356
626.508091817
626.061621091
625.692265198
625.399401509
625.182507109
625.041442698
624.973271616
952.608632005
952.231705416
951.476631611
950.323948082
948.78267962
946.862198299
944.573847269
941.930760047
938.947619968
935.640407208
932.026150728
928.1226873
923.948434738
919.522180681
914.862892246
909.989545529
904.920979198
899.675769486
894.272129375
888.727827648
883.060128433
877.285745598
871.420810521
865.480847731
859.480756274
853.434793636
847.356560996
841.258990053
835.154331011
829.054144276
822.969295121
816.909954968
810.885604482
804.9050398
798.976389472
793.107132119
787.304117239
781.573589605
775.921215212
770.352109155
764.870864472
759.481581532
754.187898125
748.993019093
743.899746534
738.910508835
734.027390153
729.252158155
724.586291915
720.03100767
715.587284298
711.255886336
707.037386237
702.932183975
698.94052547
695.062518275
691.298145831
687.647279054
684.109686467
680.685041862
677.372930728
674.172854603
671.084234579
668.106413226
665.238656212
662.480152915
659.830017314
657.287288446
654.850931646
652.519839881
650.29283626
648.168676991
646.146055739
644.223608649
642.399920778
640.673533233
639.042951589
637.506654898
636.063105735
634.710760633
633.448081228
632.273545584
631.185659842
630.182969878
629.264072856
628.427628671
627.672370768
626.997116497
626.400776549
625.882362061
625.44099009
625.075889427
624.786394733
624.57194964
624.432424163
624.36504867
955.831494078
955.436600903
954.649865034
953.449211698
951.844612351
949.846489252
947.467405622
944.721845804
941.625928348
938.197111056
934.453903732
930.415595848
926.102001208
921.533226271
916.72946129
911.710799198
906.497080208
901.107765512
895.561836928
889.87772324
884.073248286
878.165598168
872.171301318
866.106216785
859.985525741
853.823722756
847.634605855
841.431264852
835.226070522
829.030665266
822.855959911
816.71213302
810.608636642
804.55420538
798.556875904
792.624007668
786.762307675
780.977858209
775.276146312
769.662095099
764.140095275
758.714037788
753.38734571
748.16300694
743.043605564
738.03135383
733.12812238
728.335470793
723.654676007
719.086760633
714.632518737
710.292541052
706.06723727
701.956857326
697.961509478
694.081177075
690.315732004
686.664946734
683.128503111
679.705999913
676.396957495
673.200821558
670.116964517
667.144686566
664.28321501
661.531703933
658.889232862
656.354806391
653.927353484
651.605728245
649.388710933
647.275010742
645.26326919
643.352065378
641.539921983
639.825312996
638.206672178
636.682402933
635.250888757
633.910504683
632.659629084
631.496656004
630.420007617
629.428146754
628.519589307
627.692916276
626.946785392
626.279941884
625.691228065
625.179592001
624.744094509
624.383909585
624.098332607
623.886790489
623.74913179
623.682740588
959.472362159
959.056480913
958.232871066
956.976397866
955.298198833
953.209985073
950.725809546
947.861791757
944.635774955
941.066977221
937.175660259
932.982817903
928.509891596
923.778512598
918.810276186
913.626545441
908.248289758
902.695954552
896.989365968
891.147664746
885.189269255
879.13185862
872.992371591
866.787011191
860.531249884
854.23982991
847.926757218
841.60529117
835.287931418
828.986407874
822.711675947
816.473916501
810.282541164
804.146206892
798.072837398
792.069648779
786.143178146
780.299315897
774.543339451
768.879948039
763.313298269
757.847039003
752.484346981
747.227960759
742.080215645
737.043076354
732.11817071
727.30682062
722.610073776
718.028732261
713.563381252
709.214414352
704.982058234
700.866393753
696.867375667
692.984848767
689.218562206
685.568180293
682.033291444
678.613413901
675.307999879
672.116436972
669.038048589
666.072092333
663.217758186
660.474165428
657.840360181
655.315312506
652.897914851
650.586980748
648.381245391
646.279366963
644.2799301
642.381450346
640.582380707
638.881119193
637.276018232
635.76539483
634.347542218
633.020741944
631.783276943
630.633444734
629.56957107
628.590023436
627.693224426
626.877664801
626.141915785
625.484640735
624.904605846
624.400688606
623.971885221
623.617320272
623.336245065
623.128047427
622.992566279
622.927336542
963.550914171
963.110612846
962.24423617
960.923097651
959.159768399
956.967547696
954.36230607
951.36214093
947.986960374
944.25807158
940.197795455
935.82911419
931.175351333
926.259889456
921.105922277
915.736245982
910.173087404
904.437973677
898.55164063
892.5339808
886.404024533
880.179947956
873.879096678
867.518014067
861.112464363
854.677443121
848.227175058
841.775100564
835.333859173
828.915273448
822.530343562
816.189245188
809.901335763
803.675174271
797.518547081
791.438497976
785.441362673
779.532806232
773.717861628
768.000969423
762.386016514
756.876375266
751.474940864
746.184169132
741.006112354
735.942455718
730.994551592
726.163454198
721.449951817
716.854598829
712.37774485
708.019562985
703.78007468
699.659173024
695.656642219
691.772175047
688.005386255
684.355823812
680.822976167
677.406277591
674.105109903
670.918802839
667.84663156
664.887813585
662.041503784
659.306789752
656.682686284
654.168131112
651.7619807
649.463008045
647.269901266
645.18126465
643.195620913
641.311415997
639.527025192
637.840761592
636.250885698
634.755616877
633.353145679
632.041647397
630.819296126
629.684279411
628.634813057
627.669155893
626.785624388
625.982606675
625.258576106
624.612103735
624.041869639
623.546673483
623.125443801
622.777240696
622.501268412
622.29688881
622.163898612
622.099988638
968.089980369
967.621306026
966.705429453
965.309545259
963.44800512
961.136071038
958.39183838
955.235796117
951.690321468
947.77919071
943.527135371
938.959442185
934.101599673
928.978986585
923.61660485
918.038853169
912.269347718
906.330787879
900.244873569
894.032268949
887.712611579
881.304553315
874.825820896
868.293277036
861.722967377
855.130143637
848.529260685
841.93395694
835.357025465
828.810391017
822.305097498
815.851307569
809.458306008
803.13453034
796.887599273
790.724350538
784.650881528
778.672593415
772.794235938
767.019951573
761.353319543
755.797397171
750.354761693
745.027548868
739.817493114
734.725964224
729.754006033
724.902371383
720.171558575
715.561843857
711.073314315
706.705896601
702.459384741
698.333463613
694.327730383
690.441711484
686.674876899
683.026650075
679.496415006
676.083519281
672.78727476
669.606954845
666.541790299
663.59096256
660.753596765
658.028753418
655.415420958
652.912508121
650.518838261
648.23314447
646.054067388
643.980154486
642.009862324
640.141560558
638.373538838
636.704015281
635.131147426
633.65304435
632.267780672
630.973411173
629.76798664
628.649569807
627.616251816
626.666168388
625.797515794
625.008566334
624.297682874
623.663332679
623.104100144
622.618697288
622.205973254
621.864926935
621.59470687
621.394622479
621.264445533
621.202028826
973.115996328
972.61434605
971.641174849
970.158927642
968.184179918
965.734638856
962.831132152
959.497045607
955.75770389
951.639793697
947.170853389
942.378827989
937.291679583
931.937051382
926.34197683
920.532637943
914.534171947
908.37053553
902.064428572
895.637281771
889.109301465
882.499559491
875.826106135
869.106078803
862.355782875
855.590726918
848.825615482
842.074309746
835.349780524
828.66406724
822.028260342
815.452496118
808.945966118
802.516955688
796.172880165
789.920330232
783.765121708
777.712347699
771.766430136
765.931170663
760.209798057
754.605014592
749.119038823
743.753648593
738.51022127
733.389775068
728.39300791
723.520337137
718.771936514
714.14777321
709.647641474
705.271195177
701.017976288
696.887441152
692.878981992
688.991945469
685.225646101
681.579376456
678.052412199
674.644014263
671.353426379
668.179870519
665.122538747
662.180584131
659.353109423
656.639156199
654.037693221
651.547606614
649.167690638
646.896641352
644.733051901
642.67541128
640.722105268
638.871420937
637.121553281
635.470615022
633.916648167
632.457637971
631.091528126
629.816237442
628.629677208
627.529769134
626.514463486
625.581756976
624.729710457
623.956465695
623.260261619
622.639449179
622.092504961
621.618043963
621.21483106
620.881785274
620.6179949
620.422731557
620.295709146
620.234951786
978.659576944
978.1195104
977.079910641
975.497748654
973.392416196
970.78469045
967.698774074
964.161566432
960.20190743
955.849899631
951.136333859
946.092200412
940.74827276
935.134746585
929.280929682
923.214977473
916.963684924
910.552340689
904.004659736
897.342796987
890.587443322
883.757983881
876.872689151
869.948895198
863.003131079
856.051169019
849.107996583
842.187743839
835.303595644
828.467731081
821.691286928
814.984357243
808.356012891
801.814349983
795.366535135
789.018863144
782.776816986
776.645129931
770.627846541
764.728378972
758.949560774
753.293694457
747.762598813
742.357651284
737.07983303
731.929769634
726.907775476
722.013893507
717.247937788
712.609531241
708.098144222
703.713128199
699.453748022
695.319209023
691.308680915
687.421316308
683.656264955
680.012682537
676.4897351
673.086598351
669.802453285
666.636477498
663.587834269
660.65565849
657.839042202
655.13701859
652.54854734
650.072500195
647.707649401
645.452657848
643.306073078
641.266323979
639.331721698
637.500463494
635.77064049
634.140247989
632.607198976
631.16933937
629.824465584
628.570342922
627.404725404
626.325375599
625.330084999
624.41669387
623.583110712
622.82733098
622.147454556
621.541702341
621.008431414
620.546147802
620.153517917
619.829383591
619.572762666
619.382860483
619.259353768
619.200445273
984.756240691
984.171239963
983.054349955
981.35626325
979.099983584
976.310186292
973.015266429
969.24639327
965.036588187
960.419943696
955.430990901
950.104184682
944.473469513
938.571905628
932.431335913
926.082097543
919.552784772
912.870086693
906.05871922
899.141471179
892.139366367
885.071922106
877.957458675
870.81338846
863.65641609
856.502597799
849.367273188
842.264918763
835.208998873
828.211862972
821.284697615
814.437529995
807.679274255
801.017787682
794.459933451
788.011650397
781.678027178
775.463377695
769.371311625
763.404799772
757.566230414
751.857461444
746.279866208
740.834379928
735.521543195
730.341548134
725.294282422
720.379375232
715.596240552
710.944120856
706.422127231
702.029278079
697.764532964
693.626823319
689.615077187
685.728239575
681.965286047
678.325231571
674.807132546
671.410084427
668.133213222
664.975663828
661.936583633
659.015104658
656.210323033
653.521279013
650.946936523
648.486165251
646.137724331
643.900250154
641.772247215
639.752084024
637.837992666
636.028073413
634.320302722
632.712545543
631.202570148
629.788066083
628.466663681
627.235955384
626.093517794
625.036934277
624.063817652
623.171832328
622.358716042
621.622300204
620.960529566
620.371479926
619.853374459
619.404598821
619.023714751
618.709465685
618.460793868
618.276854351
618.157252404
618.100378877
991.447350588
990.809470634
989.602176311
987.768983384
985.337614214
982.337753116
978.8030378
974.769829202
970.276103518
965.360575617
960.062037913
954.418845524
948.468492664
942.247234878
935.789738801
929.128754673
922.294835998
915.316135876
908.218326376
901.024672911
893.756284458
886.432517297
879.071466824
871.690434194
864.306237102
856.935277132
849.593374972
842.295496376
835.055485668
827.885909642
820.797998627
813.801677948
806.905649113
800.117469879
793.443630223
786.889639738
780.460119201
774.158891888
767.989069208
761.953122098
756.052943309
750.289897209
744.664867767
739.178301232
733.8302544
728.620438977
723.54827271
718.612925366
713.813369368
709.148425036
704.616807156
700.217166129
695.948126754
691.808321044
687.796416012
683.911134673
680.151270433
676.515694597
673.00335712
669.613280585
666.344548609
663.196288479
660.167650433
657.257782848
654.465806763
651.790788693
649.231715481
646.787470013
644.45681122
642.238357248
640.130574341
638.131770379
636.240094443
634.453541279
632.769961024
631.187072979
629.702483319
628.313705343
627.018182389
625.813311774
624.696470284
623.665039434
622.716431193
621.848112694
621.057630277
620.342632298
619.700890214
619.130318432
618.628992196
618.19516282
617.82727104
617.523964232
617.284097629
617.106745852
616.991465074
616.93684059
998.781340482
998.080722203
996.766903922
994.775265211
992.139819153
988.896777424
985.086372376
980.751270596
975.935274069
970.682390459
965.036196439
959.039380906
952.733368168
946.157962383
939.350975661
932.347847573
925.181284346
917.880979014
910.473481488
902.982290177
895.428210771
887.829971362
880.205004806
872.570207513
864.942444073
857.338600761
849.775233193
842.268038861
834.831406807
827.478174022
820.219589063
813.06540643
806.024041236
799.102670514
792.307326543
785.642998964
779.113749532
772.722828477
766.472775068
760.365500406
754.402348098
748.584143591
742.911234136
737.383533079
732.000563997
726.761512002
721.665274403
716.710515036
711.895716432
707.21923294
702.679340304
698.274283613
694.002319551
689.8617538
685.850971047
681.968458189
678.212818635
674.582779689
671.077190307
667.69501234
664.435303286
661.297194352
658.279862086
655.382497556
652.604272441
649.944305554
647.401629611
644.975161491
642.663675678
640.465783874
638.379919836
636.404331816
634.537081048
632.776047508
631.118940977
629.563317914
628.106601796
626.746107318
625.479066443
624.30265645
623.214028636
622.210337354
621.288768877
620.446569101
619.681070515
618.989716969
618.370087439
617.819917006
617.337116223
616.919788616
616.566246457
616.27501773
616.044864964
615.874798897
615.764290917
615.712129098
1006.81536624
1006.03951314
1004.59895506
1002.41996836
999.545164561
996.019388263
991.891204622
987.210899664
982.029038242
976.395574037
970.359345667
963.96776398
957.266549898
950.299426693
943.10772951
935.729935035
928.201169773
920.552781759
912.812099604
905.002500083
897.143891288
889.253633356
881.347785351
873.442376201
865.554254512
857.701104355
849.900688923
842.169865173
834.523810115
826.97567818
819.536642446
812.216172043
805.022283612
797.961679029
791.039829227
784.261090443
777.628853755
771.145694341
764.813499334
758.633555583
752.606609604
746.732903067
741.012205345
735.443848176
730.026774795
724.759589286
719.640617674
714.667963044
709.83956742
705.153268074
700.606855519
696.198127058
691.924934741
687.785227194
683.777084201
679.898741732
676.148607055
672.52526472
669.027472311
665.654146755
662.404342503
659.277221534
656.272018289
653.38799901
650.624420198
647.980484833
645.45530199
643.047847829
640.756933543
638.581178551
636.518992419
634.568564717
632.727863711
630.994643167
629.36645636
627.840676179
626.414519823
625.085076974
623.849340651
622.704239134
621.646669413
620.673529884
619.781753293
618.968337793
618.230376782
617.565086727
616.969832408
616.4421505
615.979770341
615.580631742
615.242900222
614.964986188
614.745546914
614.58349794
614.478248668
614.428794619
1015.61755374
1014.75025593
1013.15701164
1010.75415934
1007.59642159
1003.74023174
999.244690911
994.16918715
988.571962294
982.509456791
976.036113189
969.204351081
962.064506037
954.664615167
947.049996062
939.26263948
931.340494462
923.316781333
915.219518461
907.071476205
898.89077186
890.692216152
882.489318279
874.296467865
866.130476125
858.010478061
849.956344879
841.986816958
834.118210216
826.363970391
818.734975658
811.240179247
803.887059507
796.681738693
789.629010813
782.732455224
775.994643778
769.417356173
763.001734906
756.748383825
750.657411263
744.728443356
738.96063114
733.352681529
727.902901559
722.609260155
717.469451131
712.480959936
707.641128482
702.947222047
698.396492423
693.986240609
689.713871799
685.576944715
681.573209584
677.700636188
673.957429857
670.342036764
666.853136049
663.489622105
660.250575102
657.135223652
654.142898951
651.272985022
648.524864942
645.897867614
643.39121539
641.003976845
638.735025421
636.583006928
634.54631644
632.623086472
630.811185552
629.108227582
627.511589387
626.018435899
624.625749796
623.330365404
622.129004365
621.018313217
619.994901356
619.05537887
618.19639367
617.414666414
616.707024053
616.07042981
615.502011638
614.999086752
614.559184141
614.180064415
613.859737606
613.596471536
613.388811964
613.235595564
613.136133345
613.089635001
1025.27016088
1024.28985919
1022.50972439
1019.83577632
1016.34042606
1012.09586895
1007.17443116
1001.64612232
995.57757538
989.031972167
982.069434453
974.747482728
967.121301484
959.243663754
951.164465914
942.929900773
934.581389154
926.154452205
917.677800387
909.172983867
900.655007903
892.134237067
883.619618363
875.122550566
866.65987796
858.25356329
849.927268901
841.702857995
833.598229892
825.626897801
817.798909414
810.122290191
802.603818762
795.248980521
788.061773337
781.044803586
774.199625319
767.527063795
761.027421574
754.70056978
748.545962668
742.562595212
736.748973818
731.103130598
725.622681327
720.304892337
715.146762467
710.14509181
705.296559188
700.597792684
696.045443137
691.636260226
687.367155946
683.235261063
679.237968361
675.372965137
671.638250214
668.032138237
664.553248549
661.200481237
657.972980275
654.870084933
651.891273688
649.036100431
646.304128844
643.694864279
641.207690208
638.841807776
636.596185522
634.469518046
632.460198217
630.566302717
628.785591614
627.115521418
625.553268032
624.095758682
622.739708246
621.481659647
620.318026063
619.245133998
618.259267687
617.356711853
616.533794401
615.786925638
615.112635276
614.50760605
613.968703497
613.493003469
613.077815552
612.72070344
612.419501744
612.172336766
611.977629302
611.834105483
611.741000125
611.697739902
1035.87409203
1034.75138188
1032.73789048
1029.73004592
1025.82733346
1021.12352303
1015.70715144
1009.6600759
1003.05749978
995.969047666
988.460127817
980.593144129
972.428227806
964.023359506
955.433821906
946.71104412
937.900987665
929.042311929
920.164683795
911.287754537
902.421520009
893.56882865
884.730524239
875.912456792
867.131801932
858.416239545
849.796411671
841.299364535
832.945072239
824.746335707
816.711179147
808.845954686
801.156694477
793.648342705
786.324009444
779.185034191
772.231640165
765.463504312
758.879987428
752.480209566
746.263001258
740.226750606
734.369299619
728.687958451
723.179577211
717.840647666
712.667397014
707.655870199
702.802007622
698.101724723
693.551000417
689.145970831
684.882999825
680.75874566
676.770212448
672.914787412
669.19025926
665.594821802
662.127058492
658.785912201
655.570637427
652.480741108
649.515910754
646.675936787
643.960629056
641.369734309
638.902855057
636.559376328
634.338401628
632.238702652
630.258684209
628.396367719
626.649392636
625.015035132
623.490239405
622.071658548
620.755699626
619.538572195
618.4163373
617.384957902
616.440349361
615.578429282